                         Program Version 4.2.0 -  RELEASE  -
|  1> # ORCA input file
|  2> # SCF done       -195.885425251413          0.000810918200
|  3> ! CAM-B3LYP def2-SVP def2/J RIJCOSX Grid4 TightSCF
|  4> %maxcore 5000
|  5> %tddft
|  6>     Mode sTDDFT
|  7>     Ethresh 5.0
|  8>     maxcore 5000
|  9> end
| 10>
| 11> %pal
| 12>   nprocs 6
| 13>   end
| 14> * xyz 0 1
| 15>    C       -1.78434         1.50397        -2.95587
| 16>    C       -2.14948         2.69814        -3.51911
| 17>    C       -3.32158         2.87953        -4.27931
| 18>    N       -4.27387         3.06806        -4.89121
| 19>    C       -1.31509         3.83375        -3.46280
| 20>    N       -0.60753         4.73756        -3.45771
| 21>    C       -2.40706         0.20984        -3.19423
| 22>    C       -1.45834        -0.81039        -2.88461
| 23>    C       -1.75636        -2.13324        -3.04412
| 24>    C       -3.03744        -2.49992        -3.51527
| 25>    C       -3.99193        -1.48430        -3.81446
| 26>    C       -3.65425        -0.12148        -3.64951
| 27>    C       -5.26786        -1.86575        -4.27640
| 28>    C       -5.58792        -3.18633        -4.43777
| 29>    C       -4.64797        -4.18544        -4.14389
| 30>    C       -3.40000        -3.84964        -3.69347
| 31>    C       -0.21625        -0.19237        -2.38566
| 32>    O        0.82371        -0.72956        -2.08282
| 33>    C       -0.53910         1.25837        -2.25565
| 34>    C        0.21553         2.06966        -1.47375
| 35>    C       -0.17477         3.29320        -0.86552
| 36>    S       -1.83317         3.58798        -0.42051
| 37>    C       -1.41178         5.07981         0.36036
| 38>    C       -0.05935         5.34955         0.22337
| 39>    C        0.64086         4.32841        -0.44514
| 40>    C        2.10686         4.38983        -0.71372
| 41>    C        2.77483         5.42745         0.18360
| 42>    C        2.01503         6.74389         0.08581
| 43>    C        0.61752         6.59306         0.70408
| 44>    N       -0.12679         7.82489         0.30897
| 45>    O       -0.89606         7.75849        -0.61382
| 46>    O        0.14088         8.82149         0.93395
| 47>    C       -2.44003         5.77833         1.05421
| 48>    S       -2.13409         6.94580         2.30977
| 49>    C       -3.82906         7.15143         2.63305
| 50>    C       -4.58105         6.34150         1.77764
| 51>    C       -3.79409         5.57481         0.90491
| 52>    C       -5.98441         6.26292         1.74259
| 53>    N       -7.12345         6.14630         1.67391
| 54>    C       -4.22340         8.03070         3.66893
| 55>    C       -5.49945         8.19704         4.10832
| 56>    C       -5.88219         9.03543         5.18300
| 57>    C       -7.15528         9.11748         5.70866
| 58>    C       -7.15521        10.01390         6.81223
| 59>    C       -5.77089        10.51956         6.92262
| 60>    C       -5.02514         9.92785         5.95536
| 61>    C       -5.28537        11.44328         7.85522
| 62>    N       -4.85101        12.19559         8.60678
| 63>    C       -8.20598        10.31863         7.64758
| 64>    C       -8.19932        11.17166         8.78815
| 65>    C       -9.44367        11.14618         9.38566
| 66>    C      -10.29610        10.26213         8.59781
| 67>    C       -9.57338         9.77022         7.55992
| 68>    C      -10.07065         8.88993         6.59099
| 69>    N      -10.51543         8.16379         5.82042
| 70>    C       -9.81962        11.83201        10.56531
| 71>    C      -11.03395        11.70095        11.17001
| 72>    C      -11.35912        12.37599        12.36649
| 73>    C      -12.54280        12.22753        13.03585
| 74>    C      -12.93378        12.87625        14.27402
| 75>    C      -12.22589        13.82531        14.96646
| 76>    C      -12.66802        14.42264        16.16591
| 77>    N      -12.96479        14.94785        17.14269
| 78>    C      -10.97238        14.35430        14.59439
| 79>    N       -9.95726        14.83906        14.36276
| 80>    C      -14.23968        12.35148        14.65961
| 81>    C      -14.66899        11.42353        13.66845
| 82>    C      -13.64542        11.31842        12.61715
| 83>    O      -13.70054        10.62440        11.62287
| 84>    C      -15.86187        10.76598        13.76026
| 85>    C      -16.69751        11.00794        14.87294
| 86>    C      -16.27535        11.93278        15.87139
| 87>    C      -15.03537        12.60065        15.74688
| 88>    C      -17.11509        12.16447        16.97984
| 89>    C      -18.31363        11.51479        17.09792
| 90>    C      -18.72812        10.60465        16.11398
| 91>    C      -17.93738        10.35682        15.02481
| 92>    H       -1.02470        -2.89291        -2.81227
| 93>    H       -4.39478         0.63076        -3.87384
| 94>    H       -5.98704        -1.09271        -4.50365
| 95>    H       -6.56762        -3.46834        -4.79306
| 96>    H       -4.91769        -5.22251        -4.27576
| 97>    H       -2.67258        -4.61494        -3.46558
| 98>    H        1.19501         1.68871        -1.20060
| 99>    H        2.25239         4.66035        -1.76391
|100>    H        2.55677         3.40563        -0.56730
|101>    H        3.80838         5.57456        -0.12928
|102>    H        2.77940         5.07928         1.21858
|103>    H        1.91113         7.01599        -0.96771
|104>    H        2.54677         7.54531         0.60027
|105>    H        0.68831         6.61568         1.79857
|106>    H       -4.20863         4.90103         0.17556
|107>    H       -3.41659         8.57371         4.14284
|108>    H       -6.30019         7.63900         3.64351
|109>    H       -8.01064         8.57642         5.35463
|110>    H       -3.97896        10.09565         5.77994
|111>    H       -7.35032        11.73011         9.13147
|112>    H      -11.32667        10.04432         8.80543
|113>    H       -9.07205        12.48010        11.00749
|114>    H      -11.78458        11.05087        10.74768
|115>    H      -10.60398        13.03765        12.77156
|116>    H      -16.16232        10.06765        12.99319
|117>    H      -14.74626        13.29264        16.52161
|118>    H      -16.79211        12.86622        17.73476
|119>    H      -18.94940        11.69869        17.95095
|120>    H      -19.67682        10.10085        16.22343
|121>    H      -18.25081         9.65714        14.26386
|122> *
|123>
|124>                          ****END OF INPUT****

CARTESIAN COORDINATES (ANGSTROEM)
---------------------------------
  C     -1.784340    1.503970   -2.955870
  C     -2.149480    2.698140   -3.519110
  C     -3.321580    2.879530   -4.279310
  N     -4.273870    3.068060   -4.891210
  C     -1.315090    3.833750   -3.462800
  N     -0.607530    4.737560   -3.457710
  C     -2.407060    0.209840   -3.194230
  C     -1.458340   -0.810390   -2.884610
  C     -1.756360   -2.133240   -3.044120
  C     -3.037440   -2.499920   -3.515270
  C     -3.991930   -1.484300   -3.814460
  C     -3.654250   -0.121480   -3.649510
  C     -5.267860   -1.865750   -4.276400
  C     -5.587920   -3.186330   -4.437770
  C     -4.647970   -4.185440   -4.143890
  C     -3.400000   -3.849640   -3.693470
  C     -0.216250   -0.192370   -2.385660
  O      0.823710   -0.729560   -2.082820
  C     -0.539100    1.258370   -2.255650
  C      0.215530    2.069660   -1.473750
  C     -0.174770    3.293200   -0.865520
  S     -1.833170    3.587980   -0.420510
  C     -1.411780    5.079810    0.360360
  C     -0.059350    5.349550    0.223370
  C      0.640860    4.328410   -0.445140
  C      2.106860    4.389830   -0.713720
  C      2.774830    5.427450    0.183600
  C      2.015030    6.743890    0.085810
  C      0.617520    6.593060    0.704080
  N     -0.126790    7.824890    0.308970
  O     -0.896060    7.758490   -0.613820
  O      0.140880    8.821490    0.933950
  C     -2.440030    5.778330    1.054210
  S     -2.134090    6.945800    2.309770
  C     -3.829060    7.151430    2.633050
  C     -4.581050    6.341500    1.777640
  C     -3.794090    5.574810    0.904910
  C     -5.984410    6.262920    1.742590
  N     -7.123450    6.146300    1.673910
  C     -4.223400    8.030700    3.668930
  C     -5.499450    8.197040    4.108320
  C     -5.882190    9.035430    5.183000
  C     -7.155280    9.117480    5.708660
  C     -7.155210   10.013900    6.812230
  C     -5.770890   10.519560    6.922620
  C     -5.025140    9.927850    5.955360
  C     -5.285370   11.443280    7.855220
  N     -4.851010   12.195590    8.606780
  C     -8.205980   10.318630    7.647580
  C     -8.199320   11.171660    8.788150
  C     -9.443670   11.146180    9.385660
  C    -10.296100   10.262130    8.597810
  C     -9.573380    9.770220    7.559920
  C    -10.070650    8.889930    6.590990
  N    -10.515430    8.163790    5.820420
  C     -9.819620   11.832010   10.565310
  C    -11.033950   11.700950   11.170010
  C    -11.359120   12.375990   12.366490
  C    -12.542800   12.227530   13.035850
  C    -12.933780   12.876250   14.274020
  C    -12.225890   13.825310   14.966460
  C    -12.668020   14.422640   16.165910
  N    -12.964790   14.947850   17.142690
  C    -10.972380   14.354300   14.594390
  N     -9.957260   14.839060   14.362760
  C    -14.239680   12.351480   14.659610
  C    -14.668990   11.423530   13.668450
  C    -13.645420   11.318420   12.617150
  O    -13.700540   10.624400   11.622870
  C    -15.861870   10.765980   13.760260
  C    -16.697510   11.007940   14.872940
  C    -16.275350   11.932780   15.871390
  C    -15.035370   12.600650   15.746880
  C    -17.115090   12.164470   16.979840
  C    -18.313630   11.514790   17.097920
  C    -18.728120   10.604650   16.113980
  C    -17.937380   10.356820   15.024810
  H     -1.024700   -2.892910   -2.812270
  H     -4.394780    0.630760   -3.873840
  H     -5.987040   -1.092710   -4.503650
  H     -6.567620   -3.468340   -4.793060
  H     -4.917690   -5.222510   -4.275760
  H     -2.672580   -4.614940   -3.465580
  H      1.195010    1.688710   -1.200600
  H      2.252390    4.660350   -1.763910
  H      2.556770    3.405630   -0.567300
  H      3.808380    5.574560   -0.129280
  H      2.779400    5.079280    1.218580
  H      1.911130    7.015990   -0.967710
  H      2.546770    7.545310    0.600270
  H      0.688310    6.615680    1.798570
  H     -4.208630    4.901030    0.175560
  H     -3.416590    8.573710    4.142840
  H     -6.300190    7.639000    3.643510
  H     -8.010640    8.576420    5.354630
  H     -3.978960   10.095650    5.779940
  H     -7.350320   11.730110    9.131470
  H    -11.326670   10.044320    8.805430
  H     -9.072050   12.480100   11.007490
  H    -11.784580   11.050870   10.747680
  H    -10.603980   13.037650   12.771560
  H    -16.162320   10.067650   12.993190
  H    -14.746260   13.292640   16.521610
  H    -16.792110   12.866220   17.734760
  H    -18.949400   11.698690   17.950950
  H    -19.676820   10.100850   16.223430
  H    -18.250810    9.657140   14.263860

 Total Charge           Charge          ....    0
 Multiplicity           Mult            ....    1
 Number of Electrons    NEL             ....  528
 Basis Dimension        Dim             .... 1236

ORBITAL ENERGIES
----------------

  NO   OCC          E(Eh)            E(eV)
   0   2.0000     -88.993029     -2421.6234
   1   2.0000     -88.980912     -2421.2937
   2   2.0000     -19.253656      -523.9186
   3   2.0000     -19.251555      -523.8615
   4   2.0000     -19.220584      -523.0187
   5   2.0000     -19.218122      -522.9517
   6   2.0000     -14.650838      -398.6696
   7   2.0000     -14.418502      -392.3474
   8   2.0000     -14.418249      -392.3405
   9   2.0000     -14.418146      -392.3377
  10   2.0000     -14.417280      -392.3141
  11   2.0000     -14.416228      -392.2855
  12   2.0000     -14.415837      -392.2749
  13   2.0000     -14.410822      -392.1384
  14   2.0000     -10.370904      -282.2067
  15   2.0000     -10.369968      -282.1812
  16   2.0000     -10.349524      -281.6249
  17   2.0000     -10.346298      -281.5371
  18   2.0000     -10.345625      -281.5188
  19   2.0000     -10.344688      -281.4933
  20   2.0000     -10.343486      -281.4606
  21   2.0000     -10.342726      -281.4399
  22   2.0000     -10.341157      -281.3972
  23   2.0000     -10.340209      -281.3714
  24   2.0000     -10.331492      -281.1342
  25   2.0000     -10.331200      -281.1263
  26   2.0000     -10.329611      -281.0830
  27   2.0000     -10.326598      -281.0010
  28   2.0000     -10.325219      -280.9635
  29   2.0000     -10.322484      -280.8891
  30   2.0000     -10.320937      -280.8470
  31   2.0000     -10.320747      -280.8418
  32   2.0000     -10.320247      -280.8282
  33   2.0000     -10.318949      -280.7929
  34   2.0000     -10.318903      -280.7916
  35   2.0000     -10.318525      -280.7813
  36   2.0000     -10.318279      -280.7746
  37   2.0000     -10.318131      -280.7706
  38   2.0000     -10.317421      -280.7513
  39   2.0000     -10.315985      -280.7122
  40   2.0000     -10.312651      -280.6215
  41   2.0000     -10.312336      -280.6129
  42   2.0000     -10.312211      -280.6095
  43   2.0000     -10.311634      -280.5938
  44   2.0000     -10.311342      -280.5859
  45   2.0000     -10.311135      -280.5802
  46   2.0000     -10.308857      -280.5183
  47   2.0000     -10.308669      -280.5132
  48   2.0000     -10.306606      -280.4570
  49   2.0000     -10.306405      -280.4515
  50   2.0000     -10.304650      -280.4038
  51   2.0000     -10.303861      -280.3823
  52   2.0000     -10.302133      -280.3353
  53   2.0000     -10.300487      -280.2905
  54   2.0000     -10.300273      -280.2847
  55   2.0000     -10.299969      -280.2764
  56   2.0000     -10.299556      -280.2652
  57   2.0000     -10.299349      -280.2595
  58   2.0000     -10.299113      -280.2531
  59   2.0000     -10.298994      -280.2499
  60   2.0000     -10.298431      -280.2346
  61   2.0000     -10.298142      -280.2267
  62   2.0000     -10.296624      -280.1854
  63   2.0000     -10.294673      -280.1323
  64   2.0000     -10.293961      -280.1129
  65   2.0000     -10.292773      -280.0806
  66   2.0000     -10.291744      -280.0526
  67   2.0000     -10.291115      -280.0355
  68   2.0000     -10.290170      -280.0098
  69   2.0000     -10.288701      -279.9698
  70   2.0000     -10.288259      -279.9578
  71   2.0000     -10.288104      -279.9535
  72   2.0000     -10.287985      -279.9503
  73   2.0000     -10.287552      -279.9385
  74   2.0000     -10.287367      -279.9335
  75   2.0000     -10.287305      -279.9318
  76   2.0000     -10.286751      -279.9167
  77   2.0000      -8.088233      -220.0920
  78   2.0000      -8.075817      -219.7542
  79   2.0000      -6.057501      -164.8330
  80   2.0000      -6.053319      -164.7192
  81   2.0000      -6.050422      -164.6404
  82   2.0000      -6.045204      -164.4984
  83   2.0000      -6.041066      -164.3858
  84   2.0000      -6.037744      -164.2954
  85   2.0000      -1.335102       -36.3300
  86   2.0000      -1.155582       -31.4450
  87   2.0000      -1.134819       -30.8800
  88   2.0000      -1.133293       -30.8385
  89   2.0000      -1.034060       -28.1382
  90   2.0000      -1.023366       -27.8472
  91   2.0000      -1.022455       -27.8224
  92   2.0000      -1.020060       -27.7572
  93   2.0000      -1.014423       -27.6039
  94   2.0000      -1.006099       -27.3774
  95   2.0000      -1.000699       -27.2304
  96   2.0000      -1.000477       -27.2244
  97   2.0000      -0.997466       -27.1424
  98   2.0000      -0.995577       -27.0910
  99   2.0000      -0.995505       -27.0891
 100   2.0000      -0.991396       -26.9772
 101   2.0000      -0.986963       -26.8566
 102   2.0000      -0.974975       -26.5304
 103   2.0000      -0.973372       -26.4868
 104   2.0000      -0.961173       -26.1548
 105   2.0000      -0.937248       -25.5038
 106   2.0000      -0.934230       -25.4217
 107   2.0000      -0.926377       -25.2080
 108   2.0000      -0.921447       -25.0738
 109   2.0000      -0.915509       -24.9123
 110   2.0000      -0.902461       -24.5572
 111   2.0000      -0.896909       -24.4061
 112   2.0000      -0.885787       -24.1035
 113   2.0000      -0.883963       -24.0539
 114   2.0000      -0.883045       -24.0289
 115   2.0000      -0.882010       -24.0007
 116   2.0000      -0.876648       -23.8548
 117   2.0000      -0.871704       -23.7203
 118   2.0000      -0.860116       -23.4050
 119   2.0000      -0.855119       -23.2690
 120   2.0000      -0.844016       -22.9669
 121   2.0000      -0.835773       -22.7425
 122   2.0000      -0.830884       -22.6095
 123   2.0000      -0.829851       -22.5814
 124   2.0000      -0.821519       -22.3547
 125   2.0000      -0.800981       -21.7958
 126   2.0000      -0.791761       -21.5449
 127   2.0000      -0.783407       -21.3176
 128   2.0000      -0.772359       -21.0169
 129   2.0000      -0.763844       -20.7853
 130   2.0000      -0.762703       -20.7542
 131   2.0000      -0.755101       -20.5473
 132   2.0000      -0.737763       -20.0756
 133   2.0000      -0.737441       -20.0668
 134   2.0000      -0.723754       -19.6943
 135   2.0000      -0.716187       -19.4884
 136   2.0000      -0.710620       -19.3370
 137   2.0000      -0.706205       -19.2168
 138   2.0000      -0.705013       -19.1844
 139   2.0000      -0.703612       -19.1462
 140   2.0000      -0.701595       -19.0914
 141   2.0000      -0.696906       -18.9638
 142   2.0000      -0.687606       -18.7107
 143   2.0000      -0.680891       -18.5280
 144   2.0000      -0.680056       -18.5053
 145   2.0000      -0.676934       -18.4203
 146   2.0000      -0.672650       -18.3037
 147   2.0000      -0.662637       -18.0313
 148   2.0000      -0.654414       -17.8075
 149   2.0000      -0.650977       -17.7140
 150   2.0000      -0.644085       -17.5264
 151   2.0000      -0.642508       -17.4835
 152   2.0000      -0.636688       -17.3252
 153   2.0000      -0.634138       -17.2558
 154   2.0000      -0.632879       -17.2215
 155   2.0000      -0.625860       -17.0305
 156   2.0000      -0.624603       -16.9963
 157   2.0000      -0.615609       -16.7516
 158   2.0000      -0.610098       -16.6016
 159   2.0000      -0.608845       -16.5675
 160   2.0000      -0.607951       -16.5432
 161   2.0000      -0.598460       -16.2849
 162   2.0000      -0.594321       -16.1723
 163   2.0000      -0.589677       -16.0459
 164   2.0000      -0.578177       -15.7330
 165   2.0000      -0.572004       -15.5650
 166   2.0000      -0.565133       -15.3780
 167   2.0000      -0.562573       -15.3084
 168   2.0000      -0.561014       -15.2660
 169   2.0000      -0.554402       -15.0860
 170   2.0000      -0.552355       -15.0303
 171   2.0000      -0.549594       -14.9552
 172   2.0000      -0.548367       -14.9218
 173   2.0000      -0.547901       -14.9091
 174   2.0000      -0.543046       -14.7770
 175   2.0000      -0.541741       -14.7415
 176   2.0000      -0.540115       -14.6973
 177   2.0000      -0.539454       -14.6793
 178   2.0000      -0.533533       -14.5182
 179   2.0000      -0.533327       -14.5126
 180   2.0000      -0.531295       -14.4573
 181   2.0000      -0.530305       -14.4303
 182   2.0000      -0.527826       -14.3629
 183   2.0000      -0.524872       -14.2825
 184   2.0000      -0.522719       -14.2239
 185   2.0000      -0.521767       -14.1980
 186   2.0000      -0.521016       -14.1776
 187   2.0000      -0.517051       -14.0697
 188   2.0000      -0.516341       -14.0504
 189   2.0000      -0.513266       -13.9667
 190   2.0000      -0.512357       -13.9419
 191   2.0000      -0.510292       -13.8858
 192   2.0000      -0.510144       -13.8817
 193   2.0000      -0.506250       -13.7758
 194   2.0000      -0.503585       -13.7032
 195   2.0000      -0.500954       -13.6317
 196   2.0000      -0.499044       -13.5797
 197   2.0000      -0.497820       -13.5464
 198   2.0000      -0.497248       -13.5308
 199   2.0000      -0.495741       -13.4898
 200   2.0000      -0.494154       -13.4466
 201   2.0000      -0.488470       -13.2919
 202   2.0000      -0.487708       -13.2712
 203   2.0000      -0.484052       -13.1717
 204   2.0000      -0.477506       -12.9936
 205   2.0000      -0.472338       -12.8530
 206   2.0000      -0.469420       -12.7736
 207   2.0000      -0.467636       -12.7250
 208   2.0000      -0.465767       -12.6742
 209   2.0000      -0.461353       -12.5541
 210   2.0000      -0.460178       -12.5221
 211   2.0000      -0.452664       -12.3176
 212   2.0000      -0.451398       -12.2832
 213   2.0000      -0.450603       -12.2615
 214   2.0000      -0.450555       -12.2602
 215   2.0000      -0.448424       -12.2022
 216   2.0000      -0.446811       -12.1583
 217   2.0000      -0.446030       -12.1371
 218   2.0000      -0.445790       -12.1306
 219   2.0000      -0.444761       -12.1026
 220   2.0000      -0.444499       -12.0954
 221   2.0000      -0.442101       -12.0302
 222   2.0000      -0.441610       -12.0168
 223   2.0000      -0.439138       -11.9495
 224   2.0000      -0.437007       -11.8916
 225   2.0000      -0.435251       -11.8438
 226   2.0000      -0.434990       -11.8367
 227   2.0000      -0.434764       -11.8305
 228   2.0000      -0.433666       -11.8006
 229   2.0000      -0.432229       -11.7615
 230   2.0000      -0.430210       -11.7066
 231   2.0000      -0.429570       -11.6892
 232   2.0000      -0.427597       -11.6355
 233   2.0000      -0.425770       -11.5858
 234   2.0000      -0.422877       -11.5071
 235   2.0000      -0.421344       -11.4653
 236   2.0000      -0.421231       -11.4623
 237   2.0000      -0.417595       -11.3633
 238   2.0000      -0.413826       -11.2608
 239   2.0000      -0.409702       -11.1486
 240   2.0000      -0.407855       -11.0983
 241   2.0000      -0.402119       -10.9422
 242   2.0000      -0.401747       -10.9321
 243   2.0000      -0.392359       -10.6766
 244   2.0000      -0.388815       -10.5802
 245   2.0000      -0.384786       -10.4706
 246   2.0000      -0.382568       -10.4102
 247   2.0000      -0.377671       -10.2770
 248   2.0000      -0.376612       -10.2481
 249   2.0000      -0.366094        -9.9619
 250   2.0000      -0.353721        -9.6252
 251   2.0000      -0.348479        -9.4826
 252   2.0000      -0.340083        -9.2541
 253   2.0000      -0.338949        -9.2233
 254   2.0000      -0.338579        -9.2132
 255   2.0000      -0.334198        -9.0940
 256   2.0000      -0.328368        -8.9353
 257   2.0000      -0.318561        -8.6685
 258   2.0000      -0.318158        -8.6575
 259   2.0000      -0.305423        -8.3110
 260   2.0000      -0.298096        -8.1116
 261   2.0000      -0.295694        -8.0463
 262   2.0000      -0.284077        -7.7301
 263   2.0000      -0.262461        -7.1419
 264   0.0000      -0.137932        -3.7533
 265   0.0000      -0.099859        -2.7173
 266   0.0000      -0.088682        -2.4132
 267   0.0000      -0.063971        -1.7407
 268   0.0000      -0.058977        -1.6049

MULLIKEN ATOMIC CHARGES
-----------------------
   0 C :    0.232716
   1 C :   -0.318358
   2 C :   -0.174475
   3 N :    0.158174
   4 C :   -0.185709
   5 N :    0.164326
   6 C :    0.039520
   7 C :    0.006725
   8 C :   -0.077913
   9 C :    0.093192
  10 C :    0.093177
  11 C :   -0.076591
  12 C :   -0.016650
  13 C :    0.038374
  14 C :    0.033378
  15 C :   -0.014525
  16 C :    0.144098
  17 O :   -0.141552
  18 C :   -0.134020
  19 C :    0.034423
  20 C :   -0.169988
  21 S :    0.163475
  22 C :   -0.040505
  23 C :   -0.032369
  24 C :   -0.013070
  25 C :    0.130167
  26 C :    0.019455
  27 C :    0.053705
  28 C :    0.084318
  29 N :    0.178083
  30 O :   -0.194060
  31 O :   -0.230786
  32 C :   -0.080262
  33 S :    0.147610
  34 C :   -0.048427
  35 C :   -0.048319
  36 C :    0.003140
  37 C :   -0.179948
  38 N :    0.133264
  39 C :    0.048291
  40 C :   -0.005531
  41 C :    0.109428
  42 C :   -0.104195
  43 C :    0.120503
  44 C :   -0.088445
  45 C :   -0.004553
  46 C :   -0.179533
  47 N :    0.138041
  48 C :    0.112231
  49 C :   -0.089949
  50 C :    0.109861
  51 C :   -0.004117
  52 C :   -0.091981
  53 C :   -0.177793
  54 N :    0.141122
  55 C :    0.029129
  56 C :   -0.007745
  57 C :   -0.033181
  58 C :   -0.068058
  59 C :    0.332913
  60 C :   -0.353752
  61 C :   -0.181600
  62 N :    0.152101
  63 C :   -0.191978
  64 N :    0.154071
  65 C :    0.052914
  66 C :   -0.000567
  67 C :    0.151820
  68 O :   -0.153769
  69 C :   -0.081403
  70 C :    0.097969
  71 C :    0.098789
  72 C :   -0.087398
  73 C :   -0.020422
  74 C :    0.038294
  75 C :    0.037577
  76 C :   -0.017479
  77 H :   -0.011294
  78 H :   -0.005245
  79 H :   -0.008954
  80 H :   -0.003895
  81 H :   -0.003968
  82 H :   -0.016807
  83 H :    0.023723
  84 H :    0.042856
  85 H :    0.021027
  86 H :    0.018878
  87 H :    0.014429
  88 H :    0.033925
  89 H :    0.032105
  90 H :    0.048465
  91 H :    0.013950
  92 H :   -0.011876
  93 H :    0.013181
  94 H :    0.014530
  95 H :    0.003918
  96 H :    0.008075
  97 H :    0.015919
  98 H :    0.012372
  99 H :    0.030527
 100 H :    0.013102
 101 H :   -0.012306
 102 H :   -0.008935
 103 H :   -0.007859
 104 H :   -0.003823
 105 H :   -0.004725
 106 H :   -0.016692
Sum of atomic charges:   -0.0000000

LOEWDIN ATOMIC CHARGES
----------------------
   0 C :    0.058644
   1 C :   -0.139964
   2 C :   -0.020655
   3 N :   -0.047075
   4 C :   -0.025913
   5 N :   -0.049092
   6 C :   -0.023366
   7 C :   -0.058045
   8 C :    0.033423
   9 C :   -0.009162
  10 C :   -0.005056
  11 C :    0.016722
  12 C :   -0.005999
  13 C :   -0.011386
  14 C :   -0.012378
  15 C :   -0.008956
  16 C :    0.083613
  17 O :   -0.143176
  18 C :   -0.092135
  19 C :    0.047332
  20 C :   -0.185587
  21 S :    0.481165
  22 C :   -0.147117
  23 C :   -0.079022
  24 C :   -0.006681
  25 C :   -0.022498
  26 C :   -0.024122
  27 C :   -0.017025
  28 C :    0.003700
  29 N :    0.261422
  30 O :   -0.179312
  31 O :   -0.202407
  32 C :   -0.184159
  33 S :    0.476973
  34 C :   -0.134092
  35 C :   -0.096517
  36 C :   -0.016671
  37 C :   -0.030083
  38 N :   -0.043003
  39 C :   -0.034218
  40 C :    0.007725
  41 C :   -0.012171
  42 C :   -0.016011
  43 C :    0.040983
  44 C :   -0.074620
  45 C :    0.054033
  46 C :   -0.031821
  47 N :   -0.056660
  48 C :    0.033386
  49 C :   -0.003493
  50 C :   -0.021131
  51 C :    0.057651
  52 C :   -0.077227
  53 C :   -0.032084
  54 N :   -0.053722
  55 C :    0.032901
  56 C :   -0.018784
  57 C :    0.065729
  58 C :   -0.082357
  59 C :    0.073625
  60 C :   -0.135088
  61 C :   -0.016784
  62 N :   -0.051338
  63 C :   -0.020967
  64 N :   -0.048822
  65 C :   -0.025358
  66 C :   -0.056377
  67 C :    0.086357
  68 O :   -0.146448
  69 C :    0.033468
  70 C :   -0.008030
  71 C :   -0.005490
  72 C :    0.019620
  73 C :   -0.005165
  74 C :   -0.012328
  75 C :   -0.011228
  76 C :   -0.009275
  77 H :    0.039611
  78 H :    0.039126
  79 H :    0.034954
  80 H :    0.033651
  81 H :    0.033168
  82 H :    0.032089
  83 H :    0.048206
  84 H :    0.047429
  85 H :    0.036814
  86 H :    0.034297
  87 H :    0.025748
  88 H :    0.036988
  89 H :    0.035652
  90 H :    0.037311
  91 H :    0.039656
  92 H :    0.031049
  93 H :    0.045903
  94 H :    0.039759
  95 H :    0.036492
  96 H :    0.037863
  97 H :    0.042480
  98 H :    0.042598
  99 H :    0.032611
 100 H :    0.043244
 101 H :    0.039296
 102 H :    0.039058
 103 H :    0.035181
 104 H :    0.033590
 105 H :    0.033144
 106 H :    0.032214

  Mayer bond orders larger than 0.100000
B(  0-C ,  1-C ) :   1.6645 B(  0-C ,  6-C ) :   1.0046 B(  0-C , 18-C ) :   1.0296
B(  1-C ,  2-C ) :   1.1338 B(  1-C ,  4-C ) :   1.1547 B(  2-C ,  3-N ) :   2.9913
B(  4-C ,  5-N ) :   3.0057 B(  6-C ,  7-C ) :   1.2115 B(  6-C , 11-C ) :   1.4589
B(  7-C ,  8-C ) :   1.4745 B(  7-C , 16-C ) :   0.9239 B(  8-C ,  9-C ) :   1.1856
B(  8-C , 77-H ) :   1.0153 B(  9-C , 10-C ) :   1.2573 B(  9-C , 15-C ) :   1.2447
B( 10-C , 11-C ) :   1.2028 B( 10-C , 12-C ) :   1.2403 B( 11-C , 78-H ) :   0.9948
B( 12-C , 13-C ) :   1.4889 B( 12-C , 79-H ) :   0.9976 B( 13-C , 14-C ) :   1.2614
B( 13-C , 80-H ) :   0.9883 B( 14-C , 15-C ) :   1.4885 B( 14-C , 81-H ) :   0.9892
B( 15-C , 82-H ) :   0.9977 B( 16-C , 17-O ) :   2.2729 B( 16-C , 18-C ) :   0.9304
B( 18-C , 19-C ) :   1.6821 B( 19-C , 20-C ) :   1.1054 B( 19-C , 83-H ) :   0.9410
B( 20-C , 21-S ) :   1.1067 B( 20-C , 22-C ) :   0.1006 B( 20-C , 24-C ) :   1.4709
B( 21-S , 22-C ) :   1.1671 B( 22-C , 23-C ) :   1.5081 B( 22-C , 32-C ) :   1.1160
B( 23-C , 24-C ) :   1.3367 B( 23-C , 28-C ) :   0.9454 B( 24-C , 25-C ) :   1.0679
B( 25-C , 26-C ) :   1.0836 B( 25-C , 84-H ) :   0.9038 B( 25-C , 85-H ) :   0.9039
B( 26-C , 27-C ) :   1.0795 B( 26-C , 86-H ) :   0.9315 B( 26-C , 87-H ) :   0.9471
B( 27-C , 28-C ) :   1.0762 B( 27-C , 88-H ) :   0.9279 B( 27-C , 89-H ) :   0.9292
B( 28-C , 29-N ) :   0.8354 B( 28-C , 90-H ) :   0.9001 B( 29-N , 30-O ) :   1.6047
B( 29-N , 31-O ) :   1.5332 B( 30-O , 31-O ) :   0.2734 B( 32-C , 33-S ) :   1.1212
B( 32-C , 36-C ) :   1.4750 B( 33-S , 34-C ) :   1.1405 B( 34-C , 35-C ) :   1.4359
B( 34-C , 39-C ) :   1.1556 B( 35-C , 36-C ) :   1.3029 B( 35-C , 37-C ) :   1.1113
B( 36-C , 91-H ) :   0.9996 B( 37-C , 38-N ) :   2.9714 B( 39-C , 40-C ) :   1.6255
B( 39-C , 92-H ) :   0.9466 B( 40-C , 41-C ) :   1.1390 B( 40-C , 93-H ) :   0.9644
B( 41-C , 42-C ) :   1.5120 B( 41-C , 45-C ) :   1.0345 B( 42-C , 43-C ) :   1.1163
B( 42-C , 94-H ) :   1.0089 B( 43-C , 44-C ) :   1.0961 B( 43-C , 48-C ) :   1.4081
B( 44-C , 45-C ) :   1.6938 B( 44-C , 46-C ) :   1.0893 B( 45-C , 95-H ) :   1.0135
B( 46-C , 47-N ) :   2.9685 B( 48-C , 49-C ) :   1.1115 B( 48-C , 52-C ) :   1.1048
B( 49-C , 50-C ) :   1.5069 B( 49-C , 96-H ) :   1.0086 B( 50-C , 51-C ) :   1.0442
B( 50-C , 55-C ) :   1.1000 B( 51-C , 52-C ) :   1.6842 B( 51-C , 97-H ) :   1.0171
B( 52-C , 53-C ) :   1.0893 B( 53-C , 54-N ) :   2.9688 B( 55-C , 56-C ) :   1.5512
B( 55-C , 98-H ) :   0.9909 B( 56-C , 57-C ) :   1.1509 B( 56-C , 99-H ) :   0.9747
B( 57-C , 58-C ) :   1.5472 B( 57-C ,100-H ) :   0.9652 B( 58-C , 59-C ) :   1.0581
B( 58-C , 67-C ) :   0.9396 B( 59-C , 60-C ) :   1.6313 B( 59-C , 65-C ) :   0.9883
B( 60-C , 61-C ) :   1.1473 B( 60-C , 63-C ) :   1.1468 B( 61-C , 62-N ) :   2.9618
B( 63-C , 64-N ) :   2.9614 B( 65-C , 66-C ) :   1.2136 B( 65-C , 72-C ) :   1.4470
B( 66-C , 67-C ) :   0.9502 B( 66-C , 69-C ) :   1.4681 B( 67-C , 68-O ) :   2.1894
B( 69-C , 70-C ) :   1.1795 B( 69-C ,101-H ) :   1.0169 B( 70-C , 71-C ) :   1.2552
B( 70-C , 76-C ) :   1.2435 B( 71-C , 72-C ) :   1.2066 B( 71-C , 73-C ) :   1.2386
B( 72-C ,102-H ) :   0.9898 B( 73-C , 74-C ) :   1.4889 B( 73-C ,103-H ) :   0.9978
B( 74-C , 75-C ) :   1.2599 B( 74-C ,104-H ) :   0.9885 B( 75-C , 76-C ) :   1.4888
B( 75-C ,105-H ) :   0.9886 B( 76-C ,106-H ) :   0.9981

-----------------------------------------------------------------------------
         ABSORPTION SPECTRUM VIA TRANSITION ELECTRIC DIPOLE MOMENTS
-----------------------------------------------------------------------------
State   Energy  Wavelength   fosc         T2         TX        TY        TZ
        (cm-1)    (nm)                  (au**2)     (au)      (au)      (au)
-----------------------------------------------------------------------------
   0   13022.2    767.9   1.379891940  34.88473  -3.56240   2.33272   4.09297
   1   17031.1    587.2   0.039543403   0.76438  -0.70326  -0.22708   0.46716
   2   20037.6    499.1   0.757514560  12.44573  -0.55435   2.37890   2.54544
   3   21864.6    457.4   0.085675139   1.28999  -0.93786   0.13719   0.62577
   4   22384.0    446.7   0.061513775   0.90471   0.28251  -0.48988  -0.76480
   5   24067.3    415.5   0.841275235  11.50762  -2.22070   0.84929   2.41968
   6   25027.2    399.6   0.058308058   0.76699   0.08683  -0.25367  -0.83373
   7   25312.2    395.1   0.002168738   0.02821  -0.08126   0.13806   0.05043
   8   25451.0    392.9   0.063109638   0.81633  -0.56451  -0.61532   0.34503
   9   26765.5    373.6   0.151664184   1.86545  -1.32285  -0.15615   0.30187
  10   27652.0    361.6   0.154016789   1.83365   0.66922  -0.86095  -0.80285
  11   27919.5    358.2   0.179238755   2.11349  -0.76961   1.20447   0.26541
  12   28136.0    355.4   0.020868180   0.24417   0.40096  -0.10826  -0.26774
  13   28831.7    346.8   0.032587071   0.37209  -0.02608   0.40054   0.45933
  14   29558.4    338.3   0.004079766   0.04544   0.13248  -0.08892  -0.14135
  15   29870.3    334.8   0.082735731   0.91186   0.10034   0.77065   0.55489
  16   30235.7    330.7   0.238194412   2.59350  -1.32464   0.10523   0.90981
  17   30606.5    326.7   0.075647729   0.81369  -0.51622  -0.73489  -0.08448
  18   30640.5    326.4   0.304461304   3.27123  -1.41692  -0.95956   0.58551
  19   31028.4    322.3   0.130662563   1.38633  -1.08761  -0.43563   0.11694
  20   31455.0    317.9   0.042941167   0.44943  -0.25526  -0.60984  -0.11118
  21   32190.0    310.7   0.020836491   0.21310  -0.07412  -0.30124  -0.34185
  22   32467.1    308.0   0.018165032   0.18419  -0.42276   0.00904  -0.07338
  23   32507.9    307.6   0.021916093   0.22195   0.41266   0.18505  -0.13196
  24   33171.8    301.5   0.043585302   0.43256  -0.07120  -0.44531  -0.47874
  25   33202.4    301.2   0.000391949   0.00389   0.02326  -0.05429   0.01993
  26   33432.2    299.1   0.124364472   1.22464   0.33211  -1.05407   0.05717
  27   33872.5    295.2   0.376267027   3.65700  -0.94170  -1.66156   0.09695
  28   34417.2    290.6   0.059751837   0.57155  -0.19693   0.72378   0.09438
  29   34549.6    289.4   0.004351577   0.04146  -0.18038  -0.07308   0.05990
  30   34734.8    287.9   0.051014630   0.48351  -0.35798  -0.58420   0.11861
  31   34836.1    287.1   0.219174761   2.07127   0.36725   1.37265   0.22856
  32   35430.1    282.2   0.660243051   6.13489   2.10991   1.29257  -0.11150
  33   35693.2    280.2   0.031854610   0.29381  -0.36164  -0.11540  -0.38692
  34   36179.0    276.4   0.007804492   0.07102  -0.09426  -0.08092  -0.23576
  35   36376.7    274.9   0.000030155   0.00027  -0.00133  -0.01341  -0.00955
  36   36729.7    272.3   0.020198786   0.18104  -0.40695  -0.04522  -0.11571
  37   37119.8    269.4   0.043347707   0.38445   0.38565   0.48379   0.04084
  38   37447.6    267.0   0.017333554   0.15238   0.24773   0.29815  -0.04605
  39   37886.4    263.9   0.148428673   1.28976  -0.73622  -0.80568  -0.31405
  40   37953.2    263.5   0.016849491   0.14616   0.12887   0.34864  -0.08941
  41   38297.2    261.1   0.024129106   0.20742  -0.01249  -0.42034  -0.17487
  42   38452.7    260.1   0.010369378   0.08878  -0.14819   0.22345  -0.12994
  43   38658.0    258.7   0.014431519   0.12290   0.31034   0.15858   0.03791
  44   39074.3    255.9   0.101514754   0.85529   0.10974  -0.78680  -0.47349
  45   39259.0    254.7   0.001949839   0.01635   0.02389   0.09555   0.08154
  46   39400.3    253.8   0.019782359   0.16529   0.12856  -0.38568   0.00365
  47   39680.6    252.0   0.160252438   1.32954   0.80750   0.04596   0.82181
  48   39853.7    250.9   0.000280093   0.00231   0.01644   0.04376  -0.01132
  49   40163.9    249.0   0.358897962   2.94179   0.65546  -0.99673  -1.23235

FINAL SINGLE POINT ENERGY     -3949.548711394942

DIPOLE MOMENT
-------------
                                X             Y             Z
Electronic contribution:      1.09001      13.61264      -3.30579
Nuclear contribution   :     -0.58277     -17.44781       3.70390
                        -----------------------------------------
Total Dipole Moment    :      0.50724      -3.83517       0.39811
                        -----------------------------------------
Magnitude (a.u.)       :      3.88900
Magnitude (Debye)      :      9.88505

Rotational constants in cm-1:     0.001520     0.000169     0.000156
Rotational constants in MHz :    45.568984     5.069840     4.665804

                             ****ORCA TERMINATED NORMALLY****
TOTAL RUN TIME: 0 days 0 hours 11 minutes 55 seconds 152 msec
