                         Program Version 4.2.0 -  RELEASE  -
|  1> # ORCA input file
|  2> # SCF done       -200.757493225557          0.000772265616
|  3> ! CAM-B3LYP def2-SVP def2/J RIJCOSX Grid4 TightSCF
|  4> %maxcore 5000
|  5> %tddft
|  6>     Mode sTDDFT
|  7>     Ethresh 5.0
|  8>     maxcore 5000
|  9> end
| 10>
| 11> %pal
| 12>   nprocs 6
| 13>   end
| 14> * xyz 0 1
| 15>    C       -0.48668         0.15546         0.61553
| 16>    C       -1.80901         0.39918         0.35252
| 17>    C       -2.87394        -0.29900         0.95946
| 18>    N       -3.77470        -0.82260         1.43973
| 19>    C       -2.24189         1.32598        -0.61326
| 20>    N       -2.62449         2.05860        -1.41048
| 21>    C        0.03027        -0.94969         1.41175
| 22>    C        1.39373        -1.17049         1.05396
| 23>    C        2.12909        -2.17357         1.61755
| 24>    C        1.52819        -3.00694         2.58743
| 25>    C        0.17046        -2.78153         2.96020
| 26>    C       -0.56970        -1.74040         2.35526
| 27>    C       -0.41389        -3.61610         3.93458
| 28>    C        0.30537        -4.62667         4.51248
| 29>    C        1.64091        -4.84856         4.14420
| 30>    C        2.23917        -4.05657         3.20174
| 31>    C        1.80390        -0.17257         0.05468
| 32>    O        2.85067        -0.08198        -0.53898
| 33>    C        0.64485         0.77469        -0.04614
| 34>    C        0.85873         1.99755        -0.58655
| 35>    C        0.08455         3.18678        -0.48117
| 36>    S        0.37692         4.47625        -1.60685
| 37>    C       -0.77100         5.49481        -0.81610
| 38>    C       -1.05602         6.87773        -1.22590
| 39>    O       -1.71231         7.62198        -0.54283
| 40>    O       -0.55554         7.27695        -2.40006
| 41>    C       -1.33518         4.86390         0.28441
| 42>    C       -0.84508         3.56136         0.46376
| 43>    C       -2.27133         5.53557         1.16938
| 44>    C       -2.01422         5.89130         2.46625
| 45>    N       -0.84340         5.62762         3.21045
| 46>    O       -0.79306         6.06149         4.34392
| 47>    O        0.04644         4.98196         2.68057
| 48>    C       -3.10219         6.70629         2.97214
| 49>    C       -4.00793         6.85891         1.98667
| 50>    C       -3.58334         6.10956         0.82135
| 51>    C       -4.24001         5.91467        -0.36702
| 52>    C       -3.79784         5.07443        -1.45097
| 53>    C       -4.49183         5.39497        -2.56534
| 54>    C       -5.43246         6.44436        -2.24660
| 55>    N       -6.38364         6.86547        -3.20206
| 56>    O       -7.21057         7.70579        -2.89455
| 57>    O       -6.33542         6.32548        -4.29258
| 58>    C       -5.36890         6.72688        -0.89195
| 59>    C       -6.20136         7.57278        -0.11495
| 60>    C       -6.67219         8.79564        -0.48293
| 61>    C       -7.54428         9.56496         0.30571
| 62>    S       -8.33669         9.00124         1.73273
| 63>    C       -9.24460        10.46991         1.94979
| 64>    C       -8.86848        11.41194         0.98476
| 65>    C       -7.93772        10.89393         0.03041
| 66>    N       -7.48236        11.61339        -0.99866
| 67>    C       -7.92729        12.83903        -1.08572
| 68>    N       -8.66930        13.47778        -0.18063
| 69>    C       -9.11918        12.80535         0.85437
| 70>    C       -9.77315        13.54276         1.87944
| 71>    N      -10.28213        14.12738         2.72285
| 72>    C      -10.17959        10.53745         3.00731
| 73>    C      -11.33243        11.26709         3.01371
| 74>    C      -12.21290        11.48976         4.14468
| 75>    C      -11.95042        11.17148         5.45192
| 76>    C      -12.83475        11.42900         6.52100
| 77>    N      -13.51346        11.59625         7.43109
| 78>    C      -10.77080        10.55061         5.91237
| 79>    N       -9.83526        10.05068         6.35250
| 80>    C      -13.39537        12.18618         3.65601
| 81>    C      -13.25744        12.39248         2.25290
| 82>    C      -11.98426        11.82856         1.79546
| 83>    O      -11.57982        11.75704         0.65291
| 84>    C      -14.21103        13.03831         1.51895
| 85>    C      -15.36750        13.52246         2.16888
| 86>    C      -15.51642        13.31656         3.57156
| 87>    C      -14.51370        12.64000         4.30380
| 88>    C      -16.67594        13.80213         4.20907
| 89>    C      -17.64157        14.46195         3.49800
| 90>    C      -17.49308        14.66549         2.11789
| 91>    C      -16.38003        14.20584         1.46723
| 92>    H        3.15765        -2.32893         1.32807
| 93>    H       -1.59215        -1.58421         2.66274
| 94>    H       -1.44304        -3.44344         4.21292
| 95>    H       -0.15126        -5.26105         5.25709
| 96>    H        2.19363        -5.64956         4.61144
| 97>    H        3.26702        -4.22257         2.91464
| 98>    H        1.80128         2.09926        -1.11735
| 99>    H       -0.04724         6.59517        -2.86118
|100>    H       -1.13346         2.93691         1.28929
|101>    H       -3.12068         7.11305         3.96492
|102>    H       -4.90880         7.43049         2.05963
|103>    H       -3.07669         4.28680        -1.36821
|104>    H       -4.40990         4.95639        -3.54155
|105>    H       -6.48248         7.19216         0.86006
|106>    H       -6.35393         9.27019        -1.39929
|107>    H       -7.62097        13.41981        -1.94422
|108>    H       -9.95750         9.90190         3.85571
|109>    H      -14.07931        13.18362         0.45707
|110>    H      -14.65798        12.49860         5.36313
|111>    H      -16.78563        13.64481         5.27197
|112>    H      -18.52535        14.83158         3.99589
|113>    H      -18.26461        15.18833         1.57288
|114>    H      -16.25966        14.35969         0.40498
|115> *
|116>
|117>                          ****END OF INPUT****

CARTESIAN COORDINATES (ANGSTROEM)
---------------------------------
  C     -0.486680    0.155460    0.615530
  C     -1.809010    0.399180    0.352520
  C     -2.873940   -0.299000    0.959460
  N     -3.774700   -0.822600    1.439730
  C     -2.241890    1.325980   -0.613260
  N     -2.624490    2.058600   -1.410480
  C      0.030270   -0.949690    1.411750
  C      1.393730   -1.170490    1.053960
  C      2.129090   -2.173570    1.617550
  C      1.528190   -3.006940    2.587430
  C      0.170460   -2.781530    2.960200
  C     -0.569700   -1.740400    2.355260
  C     -0.413890   -3.616100    3.934580
  C      0.305370   -4.626670    4.512480
  C      1.640910   -4.848560    4.144200
  C      2.239170   -4.056570    3.201740
  C      1.803900   -0.172570    0.054680
  O      2.850670   -0.081980   -0.538980
  C      0.644850    0.774690   -0.046140
  C      0.858730    1.997550   -0.586550
  C      0.084550    3.186780   -0.481170
  S      0.376920    4.476250   -1.606850
  C     -0.771000    5.494810   -0.816100
  C     -1.056020    6.877730   -1.225900
  O     -1.712310    7.621980   -0.542830
  O     -0.555540    7.276950   -2.400060
  C     -1.335180    4.863900    0.284410
  C     -0.845080    3.561360    0.463760
  C     -2.271330    5.535570    1.169380
  C     -2.014220    5.891300    2.466250
  N     -0.843400    5.627620    3.210450
  O     -0.793060    6.061490    4.343920
  O      0.046440    4.981960    2.680570
  C     -3.102190    6.706290    2.972140
  C     -4.007930    6.858910    1.986670
  C     -3.583340    6.109560    0.821350
  C     -4.240010    5.914670   -0.367020
  C     -3.797840    5.074430   -1.450970
  C     -4.491830    5.394970   -2.565340
  C     -5.432460    6.444360   -2.246600
  N     -6.383640    6.865470   -3.202060
  O     -7.210570    7.705790   -2.894550
  O     -6.335420    6.325480   -4.292580
  C     -5.368900    6.726880   -0.891950
  C     -6.201360    7.572780   -0.114950
  C     -6.672190    8.795640   -0.482930
  C     -7.544280    9.564960    0.305710
  S     -8.336690    9.001240    1.732730
  C     -9.244600   10.469910    1.949790
  C     -8.868480   11.411940    0.984760
  C     -7.937720   10.893930    0.030410
  N     -7.482360   11.613390   -0.998660
  C     -7.927290   12.839030   -1.085720
  N     -8.669300   13.477780   -0.180630
  C     -9.119180   12.805350    0.854370
  C     -9.773150   13.542760    1.879440
  N    -10.282130   14.127380    2.722850
  C    -10.179590   10.537450    3.007310
  C    -11.332430   11.267090    3.013710
  C    -12.212900   11.489760    4.144680
  C    -11.950420   11.171480    5.451920
  C    -12.834750   11.429000    6.521000
  N    -13.513460   11.596250    7.431090
  C    -10.770800   10.550610    5.912370
  N     -9.835260   10.050680    6.352500
  C    -13.395370   12.186180    3.656010
  C    -13.257440   12.392480    2.252900
  C    -11.984260   11.828560    1.795460
  O    -11.579820   11.757040    0.652910
  C    -14.211030   13.038310    1.518950
  C    -15.367500   13.522460    2.168880
  C    -15.516420   13.316560    3.571560
  C    -14.513700   12.640000    4.303800
  C    -16.675940   13.802130    4.209070
  C    -17.641570   14.461950    3.498000
  C    -17.493080   14.665490    2.117890
  C    -16.380030   14.205840    1.467230
  H      3.157650   -2.328930    1.328070
  H     -1.592150   -1.584210    2.662740
  H     -1.443040   -3.443440    4.212920
  H     -0.151260   -5.261050    5.257090
  H      2.193630   -5.649560    4.611440
  H      3.267020   -4.222570    2.914640
  H      1.801280    2.099260   -1.117350
  H     -0.047240    6.595170   -2.861180
  H     -1.133460    2.936910    1.289290
  H     -3.120680    7.113050    3.964920
  H     -4.908800    7.430490    2.059630
  H     -3.076690    4.286800   -1.368210
  H     -4.409900    4.956390   -3.541550
  H     -6.482480    7.192160    0.860060
  H     -6.353930    9.270190   -1.399290
  H     -7.620970   13.419810   -1.944220
  H     -9.957500    9.901900    3.855710
  H    -14.079310   13.183620    0.457070
  H    -14.657980   12.498600    5.363130
  H    -16.785630   13.644810    5.271970
  H    -18.525350   14.831580    3.995890
  H    -18.264610   15.188330    1.572880
  H    -16.259660   14.359690    0.404980

 Total Charge           Charge          ....    0
 Multiplicity           Mult            ....    1
 Number of Electrons    NEL             ....  530
 Basis Dimension        Dim             .... 1201

ORBITAL ENERGIES
----------------

  NO   OCC          E(Eh)            E(eV)
   0   2.0000     -89.003499     -2421.9083
   1   2.0000     -88.998923     -2421.7838
   2   2.0000     -19.281059      -524.6643
   3   2.0000     -19.250694      -523.8380
   4   2.0000     -19.247280      -523.7451
   5   2.0000     -19.237134      -523.4690
   6   2.0000     -19.235782      -523.4322
   7   2.0000     -19.229212      -523.2534
   8   2.0000     -19.218988      -522.9753
   9   2.0000     -19.218395      -522.9591
  10   2.0000     -14.657504      -398.8510
  11   2.0000     -14.646000      -398.5379
  12   2.0000     -14.438753      -392.8984
  13   2.0000     -14.436530      -392.8380
  14   2.0000     -14.433368      -392.7519
  15   2.0000     -14.430572      -392.6758
  16   2.0000     -14.426975      -392.5780
  17   2.0000     -14.417668      -392.3247
  18   2.0000     -14.414635      -392.2422
  19   2.0000     -10.428835      -283.7830
  20   2.0000     -10.380128      -282.4576
  21   2.0000     -10.378063      -282.4015
  22   2.0000     -10.370397      -282.1928
  23   2.0000     -10.360551      -281.9249
  24   2.0000     -10.358894      -281.8798
  25   2.0000     -10.352475      -281.7052
  26   2.0000     -10.343364      -281.4572
  27   2.0000     -10.342899      -281.4446
  28   2.0000     -10.341835      -281.4156
  29   2.0000     -10.341490      -281.4063
  30   2.0000     -10.340894      -281.3900
  31   2.0000     -10.340020      -281.3662
  32   2.0000     -10.339111      -281.3415
  33   2.0000     -10.339109      -281.3415
  34   2.0000     -10.338931      -281.3366
  35   2.0000     -10.338811      -281.3333
  36   2.0000     -10.332607      -281.1645
  37   2.0000     -10.332171      -281.1527
  38   2.0000     -10.331414      -281.1321
  39   2.0000     -10.331117      -281.1240
  40   2.0000     -10.328229      -281.0454
  41   2.0000     -10.327887      -281.0361
  42   2.0000     -10.327599      -281.0283
  43   2.0000     -10.324875      -280.9541
  44   2.0000     -10.322166      -280.8804
  45   2.0000     -10.321478      -280.8617
  46   2.0000     -10.320339      -280.8307
  47   2.0000     -10.317691      -280.7586
  48   2.0000     -10.317210      -280.7456
  49   2.0000     -10.316653      -280.7304
  50   2.0000     -10.316525      -280.7269
  51   2.0000     -10.309807      -280.5441
  52   2.0000     -10.309028      -280.5229
  53   2.0000     -10.308907      -280.5196
  54   2.0000     -10.308469      -280.5077
  55   2.0000     -10.308452      -280.5072
  56   2.0000     -10.306865      -280.4641
  57   2.0000     -10.306027      -280.4412
  58   2.0000     -10.301903      -280.3290
  59   2.0000     -10.301820      -280.3268
  60   2.0000     -10.301268      -280.3118
  61   2.0000     -10.296552      -280.1834
  62   2.0000     -10.296309      -280.1768
  63   2.0000     -10.295972      -280.1676
  64   2.0000     -10.295886      -280.1653
  65   2.0000     -10.295581      -280.1570
  66   2.0000     -10.295378      -280.1515
  67   2.0000     -10.295363      -280.1511
  68   2.0000     -10.294965      -280.1402
  69   2.0000     -10.293562      -280.1021
  70   2.0000     -10.291815      -280.0545
  71   2.0000     -10.287879      -279.9474
  72   2.0000     -10.285265      -279.8763
  73   2.0000     -10.284783      -279.8632
  74   2.0000     -10.284585      -279.8578
  75   2.0000     -10.284024      -279.8425
  76   2.0000     -10.278803      -279.7005
  77   2.0000      -8.098322      -220.3665
  78   2.0000      -8.094545      -220.2638
  79   2.0000      -6.067017      -165.0919
  80   2.0000      -6.063709      -165.0019
  81   2.0000      -6.063109      -164.9856
  82   2.0000      -6.061475      -164.9411
  83   2.0000      -6.059635      -164.8911
  84   2.0000      -6.056859      -164.8155
  85   2.0000      -1.329009       -36.1642
  86   2.0000      -1.317121       -35.8407
  87   2.0000      -1.205214       -32.7955
  88   2.0000      -1.146529       -31.1986
  89   2.0000      -1.145294       -31.1650
  90   2.0000      -1.135639       -30.9023
  91   2.0000      -1.134113       -30.8608
  92   2.0000      -1.118390       -30.4329
  93   2.0000      -1.108467       -30.1629
  94   2.0000      -1.037871       -28.2419
  95   2.0000      -1.029088       -28.0029
  96   2.0000      -1.026606       -27.9354
  97   2.0000      -1.019525       -27.7427
  98   2.0000      -1.014887       -27.6165
  99   2.0000      -1.014514       -27.6063
 100   2.0000      -1.013015       -27.5655
 101   2.0000      -1.009568       -27.4717
 102   2.0000      -0.998693       -27.1758
 103   2.0000      -0.998352       -27.1665
 104   2.0000      -0.994331       -27.0571
 105   2.0000      -0.993059       -27.0225
 106   2.0000      -0.983862       -26.7723
 107   2.0000      -0.971019       -26.4228
 108   2.0000      -0.938989       -25.5512
 109   2.0000      -0.933524       -25.4025
 110   2.0000      -0.925666       -25.1886
 111   2.0000      -0.921937       -25.0872
 112   2.0000      -0.913418       -24.8554
 113   2.0000      -0.904690       -24.6179
 114   2.0000      -0.900146       -24.4942
 115   2.0000      -0.893009       -24.3000
 116   2.0000      -0.891820       -24.2677
 117   2.0000      -0.887398       -24.1473
 118   2.0000      -0.881593       -23.9894
 119   2.0000      -0.880375       -23.9562
 120   2.0000      -0.878086       -23.8939
 121   2.0000      -0.856078       -23.2951
 122   2.0000      -0.849348       -23.1119
 123   2.0000      -0.839876       -22.8542
 124   2.0000      -0.831691       -22.6315
 125   2.0000      -0.827463       -22.5164
 126   2.0000      -0.815544       -22.1921
 127   2.0000      -0.806650       -21.9501
 128   2.0000      -0.803304       -21.8590
 129   2.0000      -0.795198       -21.6384
 130   2.0000      -0.782876       -21.3031
 131   2.0000      -0.774995       -21.0887
 132   2.0000      -0.762312       -20.7436
 133   2.0000      -0.748407       -20.3652
 134   2.0000      -0.741986       -20.1905
 135   2.0000      -0.737645       -20.0723
 136   2.0000      -0.733707       -19.9652
 137   2.0000      -0.728306       -19.8182
 138   2.0000      -0.718833       -19.5605
 139   2.0000      -0.712180       -19.3794
 140   2.0000      -0.707749       -19.2588
 141   2.0000      -0.703975       -19.1561
 142   2.0000      -0.699198       -19.0261
 143   2.0000      -0.697907       -18.9910
 144   2.0000      -0.691786       -18.8245
 145   2.0000      -0.686043       -18.6682
 146   2.0000      -0.676219       -18.4009
 147   2.0000      -0.673844       -18.3362
 148   2.0000      -0.672848       -18.3091
 149   2.0000      -0.668231       -18.1835
 150   2.0000      -0.655202       -17.8290
 151   2.0000      -0.651435       -17.7265
 152   2.0000      -0.646466       -17.5912
 153   2.0000      -0.640838       -17.4381
 154   2.0000      -0.639766       -17.4089
 155   2.0000      -0.638546       -17.3757
 156   2.0000      -0.629761       -17.1367
 157   2.0000      -0.625905       -17.0317
 158   2.0000      -0.624148       -16.9839
 159   2.0000      -0.623386       -16.9632
 160   2.0000      -0.621563       -16.9136
 161   2.0000      -0.619334       -16.8529
 162   2.0000      -0.614550       -16.7228
 163   2.0000      -0.607494       -16.5308
 164   2.0000      -0.605833       -16.4855
 165   2.0000      -0.594613       -16.1802
 166   2.0000      -0.591443       -16.0940
 167   2.0000      -0.584594       -15.9076
 168   2.0000      -0.581973       -15.8363
 169   2.0000      -0.570917       -15.5355
 170   2.0000      -0.569165       -15.4878
 171   2.0000      -0.565970       -15.4008
 172   2.0000      -0.562481       -15.3059
 173   2.0000      -0.558261       -15.1911
 174   2.0000      -0.556762       -15.1503
 175   2.0000      -0.556120       -15.1328
 176   2.0000      -0.553761       -15.0686
 177   2.0000      -0.552792       -15.0422
 178   2.0000      -0.551676       -15.0119
 179   2.0000      -0.549471       -14.9519
 180   2.0000      -0.546232       -14.8637
 181   2.0000      -0.545367       -14.8402
 182   2.0000      -0.543198       -14.7812
 183   2.0000      -0.540053       -14.6956
 184   2.0000      -0.538255       -14.6467
 185   2.0000      -0.534866       -14.5545
 186   2.0000      -0.532293       -14.4844
 187   2.0000      -0.530977       -14.4486
 188   2.0000      -0.528966       -14.3939
 189   2.0000      -0.523445       -14.2437
 190   2.0000      -0.519938       -14.1482
 191   2.0000      -0.519151       -14.1268
 192   2.0000      -0.517122       -14.0716
 193   2.0000      -0.515057       -14.0154
 194   2.0000      -0.514455       -13.9990
 195   2.0000      -0.510716       -13.8973
 196   2.0000      -0.507649       -13.8138
 197   2.0000      -0.505182       -13.7467
 198   2.0000      -0.500658       -13.6236
 199   2.0000      -0.498316       -13.5599
 200   2.0000      -0.497227       -13.5302
 201   2.0000      -0.493893       -13.4395
 202   2.0000      -0.493799       -13.4369
 203   2.0000      -0.492003       -13.3881
 204   2.0000      -0.490122       -13.3369
 205   2.0000      -0.485991       -13.2245
 206   2.0000      -0.481080       -13.0908
 207   2.0000      -0.479560       -13.0495
 208   2.0000      -0.478113       -13.0101
 209   2.0000      -0.476735       -12.9726
 210   2.0000      -0.469333       -12.7712
 211   2.0000      -0.466399       -12.6914
 212   2.0000      -0.463822       -12.6212
 213   2.0000      -0.462801       -12.5935
 214   2.0000      -0.459884       -12.5141
 215   2.0000      -0.458035       -12.4638
 216   2.0000      -0.455201       -12.3867
 217   2.0000      -0.454036       -12.3549
 218   2.0000      -0.451803       -12.2942
 219   2.0000      -0.449995       -12.2450
 220   2.0000      -0.447721       -12.1831
 221   2.0000      -0.446747       -12.1566
 222   2.0000      -0.444827       -12.1044
 223   2.0000      -0.443713       -12.0740
 224   2.0000      -0.441634       -12.0175
 225   2.0000      -0.439683       -11.9644
 226   2.0000      -0.436210       -11.8699
 227   2.0000      -0.434350       -11.8193
 228   2.0000      -0.433704       -11.8017
 229   2.0000      -0.430237       -11.7073
 230   2.0000      -0.427341       -11.6285
 231   2.0000      -0.426323       -11.6008
 232   2.0000      -0.421850       -11.4791
 233   2.0000      -0.420334       -11.4379
 234   2.0000      -0.417982       -11.3739
 235   2.0000      -0.411766       -11.2047
 236   2.0000      -0.408441       -11.1142
 237   2.0000      -0.399070       -10.8592
 238   2.0000      -0.396065       -10.7775
 239   2.0000      -0.394522       -10.7355
 240   2.0000      -0.394004       -10.7214
 241   2.0000      -0.390260       -10.6195
 242   2.0000      -0.388033       -10.5589
 243   2.0000      -0.382545       -10.4096
 244   2.0000      -0.380015       -10.3407
 245   2.0000      -0.377389       -10.2693
 246   2.0000      -0.376205       -10.2371
 247   2.0000      -0.374758       -10.1977
 248   2.0000      -0.373896       -10.1742
 249   2.0000      -0.364762        -9.9257
 250   2.0000      -0.359442        -9.7809
 251   2.0000      -0.353421        -9.6171
 252   2.0000      -0.351640        -9.5686
 253   2.0000      -0.349207        -9.5024
 254   2.0000      -0.347975        -9.4689
 255   2.0000      -0.341343        -9.2884
 256   2.0000      -0.335273        -9.1232
 257   2.0000      -0.328994        -8.9524
 258   2.0000      -0.319673        -8.6988
 259   2.0000      -0.319374        -8.6906
 260   2.0000      -0.314634        -8.5616
 261   2.0000      -0.307982        -8.3806
 262   2.0000      -0.304012        -8.2726
 263   2.0000      -0.293116        -7.9761
 264   2.0000      -0.265069        -7.2129
 265   0.0000      -0.134570        -3.6618
 266   0.0000      -0.110685        -3.0119
 267   0.0000      -0.109244        -2.9727
 268   0.0000      -0.075405        -2.0519
 269   0.0000      -0.071225        -1.9381

MULLIKEN ATOMIC CHARGES
-----------------------
   0 C :    0.265610
   1 C :   -0.339181
   2 C :   -0.175638
   3 N :    0.169567
   4 C :   -0.165426
   5 N :    0.167433
   6 C :    0.036063
   7 C :    0.013188
   8 C :   -0.073321
   9 C :    0.091695
  10 C :    0.093021
  11 C :   -0.075403
  12 C :   -0.015218
  13 C :    0.036888
  14 C :    0.037001
  15 C :   -0.012683
  16 C :    0.139050
  17 O :   -0.134364
  18 C :   -0.127680
  19 C :    0.099362
  20 C :   -0.112298
  21 S :    0.141037
  22 C :   -0.194083
  23 C :    0.205422
  24 O :   -0.172811
  25 O :   -0.141764
  26 C :   -0.015492
  27 C :    0.097517
  28 C :    0.009496
  29 C :    0.091659
  30 N :    0.266165
  31 O :   -0.231449
  32 O :   -0.246457
  33 C :    0.022064
  34 C :    0.014539
  35 C :    0.109282
  36 C :    0.030990
  37 C :    0.000678
  38 C :    0.014669
  39 C :    0.073815
  40 N :    0.260791
  41 O :   -0.247076
  42 O :   -0.242460
  43 C :    0.064090
  44 C :   -0.094845
  45 C :    0.098832
  46 C :   -0.127360
  47 S :    0.209131
  48 C :   -0.172317
  49 C :    0.254980
  50 C :    0.003356
  51 N :   -0.037257
  52 C :    0.098051
  53 N :   -0.045460
  54 C :   -0.176200
  55 C :   -0.188401
  56 N :    0.170309
  57 C :    0.023788
  58 C :   -0.083965
  59 C :    0.327141
  60 C :   -0.341689
  61 C :   -0.180338
  62 N :    0.148592
  63 C :   -0.198054
  64 N :    0.157527
  65 C :    0.064396
  66 C :    0.006308
  67 C :    0.122347
  68 O :   -0.153821
  69 C :   -0.076366
  70 C :    0.099974
  71 C :    0.100530
  72 C :   -0.088982
  73 C :   -0.021545
  74 C :    0.037355
  75 C :    0.037126
  76 C :   -0.016011
  77 H :   -0.007716
  78 H :   -0.003434
  79 H :   -0.007760
  80 H :   -0.000118
  81 H :   -0.000603
  82 H :   -0.013796
  83 H :    0.029127
  84 H :    0.184765
  85 H :    0.001649
  86 H :    0.004984
  87 H :   -0.023607
  88 H :   -0.006384
  89 H :    0.007777
  90 H :    0.023389
  91 H :    0.029326
  92 H :    0.026311
  93 H :    0.023626
  94 H :   -0.011799
  95 H :   -0.007931
  96 H :   -0.007978
  97 H :   -0.004930
  98 H :   -0.004346
  99 H :   -0.015970
Sum of atomic charges:   -0.0000000

LOEWDIN ATOMIC CHARGES
----------------------
   0 C :    0.071133
   1 C :   -0.138824
   2 C :   -0.021614
   3 N :   -0.041525
   4 C :   -0.001689
   5 N :   -0.042080
   6 C :   -0.025140
   7 C :   -0.058344
   8 C :    0.037780
   9 C :   -0.007117
  10 C :   -0.004302
  11 C :    0.020480
  12 C :   -0.004643
  13 C :   -0.009024
  14 C :   -0.008588
  15 C :   -0.007320
  16 C :    0.086366
  17 O :   -0.133114
  18 C :   -0.075863
  19 C :    0.046115
  20 C :   -0.166002
  21 S :    0.466125
  22 C :   -0.216838
  23 C :    0.069663
  24 O :   -0.147624
  25 O :   -0.017717
  26 C :   -0.028674
  27 C :    0.006662
  28 C :    0.022758
  29 C :   -0.027839
  30 N :    0.284123
  31 O :   -0.195619
  32 O :   -0.209482
  33 C :    0.013719
  34 C :   -0.025842
  35 C :    0.044726
  36 C :    0.046443
  37 C :   -0.036921
  38 C :    0.014866
  39 C :   -0.035828
  40 N :    0.283146
  41 O :   -0.204720
  42 O :   -0.207251
  43 C :    0.016256
  44 C :   -0.029952
  45 C :    0.019144
  46 C :   -0.156973
  47 S :    0.530677
  48 C :   -0.169367
  49 C :   -0.046677
  50 C :   -0.012241
  51 N :   -0.056511
  52 C :    0.053292
  53 N :   -0.047513
  54 C :    0.016412
  55 C :   -0.018604
  56 N :   -0.027494
  57 C :    0.026921
  58 C :   -0.073780
  59 C :    0.078699
  60 C :   -0.132160
  61 C :   -0.016246
  62 N :   -0.050182
  63 C :   -0.020058
  64 N :   -0.052258
  65 C :   -0.020623
  66 C :   -0.051252
  67 C :    0.083728
  68 O :   -0.147136
  69 C :    0.037311
  70 C :   -0.007109
  71 C :   -0.004056
  72 C :    0.021333
  73 C :   -0.005198
  74 C :   -0.012067
  75 C :   -0.011725
  76 C :   -0.008216
  77 H :    0.041277
  78 H :    0.039590
  79 H :    0.035410
  80 H :    0.035051
  81 H :    0.034659
  82 H :    0.033293
  83 H :    0.048781
  84 H :    0.085435
  85 H :    0.037519
  86 H :    0.039849
  87 H :    0.027532
  88 H :    0.023709
  89 H :    0.039133
  90 H :    0.025526
  91 H :    0.047262
  92 H :    0.026631
  93 H :    0.045468
  94 H :    0.039861
  95 H :    0.039259
  96 H :    0.035057
  97 H :    0.033285
  98 H :    0.033049
  99 H :    0.032426

  Mayer bond orders larger than 0.100000
B(  0-C ,  1-C ) :   1.6534 B(  0-C ,  6-C ) :   1.0086 B(  0-C , 18-C ) :   1.0223
B(  1-C ,  2-C ) :   1.1236 B(  1-C ,  4-C ) :   1.1799 B(  2-C ,  3-N ) :   2.9951
B(  4-C ,  5-N ) :   2.9247 B(  5-N , 88-H ) :   0.1015 B(  6-C ,  7-C ) :   1.2079
B(  6-C , 11-C ) :   1.4536 B(  7-C ,  8-C ) :   1.4747 B(  7-C , 16-C ) :   0.9241
B(  8-C ,  9-C ) :   1.1886 B(  8-C , 77-H ) :   1.0152 B(  9-C , 10-C ) :   1.2490
B(  9-C , 15-C ) :   1.2473 B( 10-C , 11-C ) :   1.2113 B( 10-C , 12-C ) :   1.2405
B( 11-C , 78-H ) :   0.9928 B( 12-C , 13-C ) :   1.4905 B( 12-C , 79-H ) :   0.9971
B( 13-C , 14-C ) :   1.2585 B( 13-C , 80-H ) :   0.9896 B( 14-C , 15-C ) :   1.4892
B( 14-C , 81-H ) :   0.9895 B( 15-C , 82-H ) :   0.9971 B( 16-C , 17-O ) :   2.2742
B( 16-C , 18-C ) :   0.9226 B( 18-C , 19-C ) :   1.7341 B( 19-C , 20-C ) :   1.0833
B( 19-C , 83-H ) :   0.9225 B( 20-C , 21-S ) :   1.1340 B( 20-C , 27-C ) :   1.4606
B( 21-S , 22-C ) :   1.1152 B( 22-C , 23-C ) :   0.9286 B( 22-C , 26-C ) :   1.5509
B( 23-C , 24-O ) :   2.1247 B( 23-C , 25-O ) :   1.2684 B( 25-O , 84-H ) :   0.9461
B( 26-C , 27-C ) :   1.3240 B( 26-C , 28-C ) :   0.9489 B( 27-C , 85-H ) :   0.9867
B( 28-C , 29-C ) :   1.6886 B( 28-C , 35-C ) :   1.0601 B( 29-C , 30-N ) :   0.9246
B( 29-C , 33-C ) :   1.0956 B( 30-N , 31-O ) :   1.5450 B( 30-N , 32-O ) :   1.5050
B( 31-O , 32-O ) :   0.2679 B( 33-C , 34-C ) :   1.6402 B( 33-C , 86-H ) :   1.0114
B( 34-C , 35-C ) :   1.0655 B( 34-C , 87-H ) :   1.0017 B( 35-C , 36-C ) :   1.5629
B( 36-C , 37-C ) :   1.0911 B( 36-C , 43-C ) :   1.0219 B( 37-C , 38-C ) :   1.6072
B( 37-C , 88-H ) :   0.9811 B( 38-C , 39-C ) :   1.0953 B( 38-C , 89-H ) :   1.0136
B( 39-C , 40-N ) :   0.9435 B( 39-C , 43-C ) :   1.5713 B( 40-N , 41-O ) :   1.5118
B( 40-N , 42-O ) :   1.5390 B( 41-O , 42-O ) :   0.2616 B( 43-C , 44-C ) :   1.1137
B( 44-C , 45-C ) :   1.6080 B( 44-C , 90-H ) :   0.9408 B( 45-C , 46-C ) :   1.2235
B( 45-C , 91-H ) :   0.9600 B( 46-C , 47-S ) :   1.1896 B( 46-C , 48-C ) :   0.1097
B( 46-C , 50-C ) :   1.2564 B( 47-S , 48-C ) :   1.1486 B( 48-C , 49-C ) :   1.3137
B( 48-C , 57-C ) :   1.1708 B( 49-C , 50-C ) :   1.2099 B( 49-C , 54-C ) :   1.1782
B( 50-C , 51-N ) :   1.4656 B( 51-N , 52-C ) :   1.6135 B( 52-C , 53-N ) :   1.3470
B( 52-C , 92-H ) :   0.9729 B( 53-N , 54-C ) :   1.7634 B( 54-C , 55-C ) :   1.1341
B( 55-C , 56-N ) :   3.0460 B( 57-C , 58-C ) :   1.6121 B( 57-C , 93-H ) :   0.9232
B( 58-C , 59-C ) :   1.0725 B( 58-C , 67-C ) :   0.9288 B( 59-C , 60-C ) :   1.6372
B( 59-C , 65-C ) :   0.9952 B( 60-C , 61-C ) :   1.1442 B( 60-C , 63-C ) :   1.1468
B( 61-C , 62-N ) :   2.9636 B( 63-C , 64-N ) :   2.9753 B( 65-C , 66-C ) :   1.2124
B( 65-C , 72-C ) :   1.4432 B( 66-C , 67-C ) :   0.9501 B( 66-C , 69-C ) :   1.4674
B( 67-C , 68-O ) :   2.1980 B( 69-C , 70-C ) :   1.1771 B( 69-C , 94-H ) :   1.0167
B( 70-C , 71-C ) :   1.2550 B( 70-C , 76-C ) :   1.2439 B( 71-C , 72-C ) :   1.2069
B( 71-C , 73-C ) :   1.2396 B( 72-C , 95-H ) :   0.9896 B( 73-C , 74-C ) :   1.4890
B( 73-C , 96-H ) :   0.9975 B( 74-C , 75-C ) :   1.2604 B( 74-C , 97-H ) :   0.9879
B( 75-C , 76-C ) :   1.4877 B( 75-C , 98-H ) :   0.9885 B( 76-C , 99-H ) :   0.9977

-----------------------------------------------------------------------------
         ABSORPTION SPECTRUM VIA TRANSITION ELECTRIC DIPOLE MOMENTS
-----------------------------------------------------------------------------
State   Energy  Wavelength   fosc         T2         TX        TY        TZ
        (cm-1)    (nm)                  (au**2)     (au)      (au)      (au)
-----------------------------------------------------------------------------
   0   11801.6    847.3   0.486022871  13.55784  -2.73967   2.17777   1.14429
   1   17279.2    578.7   0.428678700   8.16740  -2.06907   1.22822   1.54203
   2   19233.2    519.9   0.015363140   0.26297  -0.31438   0.27994  -0.29286
   3   21406.4    467.1   0.001496885   0.02302  -0.06454   0.05325  -0.12657
   4   21878.3    457.1   0.050847478   0.76512   0.12415  -0.84769   0.17647
   5   22092.7    452.6   0.029207334   0.43523  -0.54464   0.37222  -0.00696
   6   22647.4    441.6   0.010149102   0.14753  -0.09127   0.26480  -0.26284
   7   23650.3    422.8   0.207884678   2.89376  -1.20590   1.01871   0.63388
   8   24501.1    408.1   0.074910305   1.00654  -0.50658  -0.36649   0.78460
   9   25488.5    392.3   0.009096152   0.11749  -0.26815   0.01300   0.21310
  10   25711.9    388.9   0.059050595   0.75608  -0.38356  -0.77996  -0.02483
  11   25873.6    386.5   0.102062409   1.29863   0.57663  -0.48470   0.85510
  12   26046.1    383.9   0.423922452   5.35820  -0.10687  -2.16397   0.81487
  13   26263.4    380.8   0.011891368   0.14906   0.15925  -0.08678  -0.34084
  14   26333.2    379.7   0.009045435   0.11308   0.07521   0.15850  -0.28689
  15   27039.9    369.8   0.014398666   0.17530  -0.06638  -0.28421   0.30020
  16   27415.4    364.8   0.006536027   0.07849  -0.04412   0.18666   0.20420
  17   27613.4    362.1   0.120546341   1.43717   0.43365  -1.05799   0.36025
  18   28158.9    355.1   0.032065568   0.37489   0.52036  -0.27832   0.16324
  19   28903.9    346.0   0.002191117   0.02496   0.08020   0.01699  -0.13504
  20   29166.7    342.9   0.052172105   0.58888  -0.65435   0.40055  -0.01644
  21   29188.0    342.6   0.080991287   0.91350   0.86277  -0.10533   0.39754
  22   29517.3    338.8   0.018666315   0.20819   0.40029  -0.06601   0.20881
  23   29914.3    334.3   0.152078663   1.67365  -0.97758   0.82623   0.18795
  24   29955.0    333.8   0.218299073   2.39916  -0.88691  -0.69144  -1.06511
  25   30244.8    330.6   0.081380116   0.88582  -0.80613   0.37475  -0.30908
  26   30778.7    324.9   0.041026693   0.43883  -0.53687   0.19684  -0.33444
  27   31094.7    321.6   0.058061345   0.61472  -0.64006   0.44449   0.08644
  28   31491.3    317.5   0.000610916   0.00639   0.05176  -0.05813  -0.01812
  29   31562.5    316.8   0.081409726   0.84914  -0.53109  -0.02718  -0.75256
  30   31849.0    314.0   0.024344188   0.25164  -0.05938  -0.49660  -0.03876
  31   32085.0    311.7   0.159109588   1.63257   1.27072   0.04257  -0.12656
  32   32238.1    310.2   0.206323699   2.10695  -1.22369   0.35537  -0.69517
  33   32680.0    306.0   0.137151954   1.38164  -0.52797   0.35317  -0.98902
  34   32962.0    303.4   0.015536052   0.15517   0.32690  -0.03980  -0.21615
  35   33093.9    302.2   0.124730028   1.24079   0.58998  -0.66723   0.66897
  36   33300.6    300.3   0.558897904   5.52530  -1.22979   1.65363  -1.13067
  37   33316.2    300.2   0.121553025   1.20112  -0.46165   0.76823  -0.63072
  38   33566.7    297.9   0.008811545   0.08642   0.11358  -0.20294  -0.17982
  39   33913.5    294.9   0.353813866   3.43462  -0.51897   1.62697  -0.71991
  40   34009.9    294.0   0.070695666   0.68433   0.38223  -0.56574   0.46708
  41   34279.5    291.7   0.003369193   0.03236   0.13248   0.03563   0.11635
  42   34480.9    290.0   0.050885982   0.48584   0.21795  -0.59340  -0.29363
  43   34504.0    289.8   0.091421165   0.87228  -0.24206   0.88615  -0.16859
  44   34518.0    289.7   0.029745623   0.28370  -0.22807   0.16064  -0.45374
  45   34756.2    287.7   0.012152447   0.11511  -0.02290  -0.25854  -0.21850
  46   34898.3    286.5   0.043566811   0.41099   0.16677   0.61692   0.05080
  47   35032.1    285.5   0.014184094   0.13329  -0.14960  -0.00805  -0.33294
  48   35216.2    284.0   0.006524289   0.06099  -0.02688  -0.23948  -0.05400
  49   35616.6    280.8   0.002416827   0.02234  -0.03858  -0.05248  -0.13452
  50   35759.9    279.6   0.080052109   0.73697   0.16866   0.19674   0.81843
  51   35837.2    279.0   0.008551958   0.07856   0.14789   0.02786   0.23646
  52   35995.0    277.8   0.011928525   0.10910   0.27178  -0.12391   0.14099
  53   36027.8    277.6   0.300257089   2.74367   0.94218  -0.79241   1.10818
  54   36312.8    275.4   0.184727990   1.67474  -0.21256   0.51208  -1.16933
  55   36495.2    274.0   0.080299303   0.72436   0.39575  -0.33082  -0.67698
  56   36744.6    272.1   0.386543921   3.46323   0.78272  -0.15185   1.68152
  57   37080.4    269.7   0.102804902   0.91274  -0.18595   0.16571   0.92233
  58   37437.0    267.1   0.023957763   0.21068  -0.32225  -0.12779  -0.30084
  59   37778.5    264.7   0.046742129   0.40732   0.42863  -0.44197  -0.16813
  60   38044.3    262.9   0.010689281   0.09250  -0.15450   0.23693   0.11177
  61   38161.2    262.0   0.006418847   0.05537   0.00091   0.19364  -0.13370
  62   38237.5    261.5   0.022308597   0.19207  -0.29467  -0.28385  -0.15707
  63   38375.8    260.6   0.020504669   0.17590  -0.01787   0.07412   0.41242
  64   38509.4    259.7   0.007731084   0.06609  -0.04989  -0.08926   0.23587
  65   38570.0    259.3   0.017314175   0.14778   0.17517  -0.17421   0.29453
  66   38885.5    257.2   0.025172619   0.21312  -0.28163   0.09506  -0.35322
  67   38954.7    256.7   0.034248582   0.28944   0.41810  -0.32450   0.09661
  68   39066.7    256.0   0.009769848   0.08233   0.09315  -0.20454  -0.17837
  69   39205.5    255.1   0.012483099   0.10482   0.18387   0.08341   0.25309
  70   39421.7    253.7   0.015312038   0.12787  -0.28717   0.19180  -0.09284
  71   39517.6    253.1   0.040747992   0.33946  -0.29151   0.39259  -0.31679
  72   39779.2    251.4   0.039994047   0.33099   0.16792  -0.27163   0.47855
  73   39957.3    250.3   0.075932778   0.62562   0.56235  -0.22568   0.50839
  74   40016.5    249.9   0.027759626   0.22838  -0.21906  -0.33320  -0.26337

FINAL SINGLE POINT ENERGY     -4110.216194420085

DIPOLE MOMENT
-------------
                                X             Y             Z
Electronic contribution:      9.29522      12.33455      -8.79881
Nuclear contribution   :     -8.07002     -15.14691       8.18979
                        -----------------------------------------
Total Dipole Moment    :      1.22520      -2.81236      -0.60901
                        -----------------------------------------
Magnitude (a.u.)       :      3.12752
Magnitude (Debye)      :      7.94951

Rotational constants in cm-1:     0.001744     0.000269     0.000252
Rotational constants in MHz :    52.274064     8.070664     7.548125

                             ****ORCA TERMINATED NORMALLY****
TOTAL RUN TIME: 0 days 0 hours 10 minutes 37 seconds 305 msec
