                         Program Version 4.2.0 -  RELEASE  -
|  1> # ORCA input file
|  2> # SCF done       -187.900196615144          0.000837389483
|  3> ! CAM-B3LYP def2-SVP def2/J RIJCOSX Grid4 TightSCF
|  4> %maxcore 5000
|  5> %tddft
|  6>     Mode sTDDFT
|  7>     Ethresh 5.0
|  8>     maxcore 5000
|  9> end
| 10>
| 11> %pal
| 12>   nprocs 6
| 13>   end
| 14> * xyz 0 1
| 15>    C       -1.50801         4.86705         3.42811
| 16>    C       -2.57968         5.45055         2.80541
| 17>    C       -3.23098         6.60579         3.28625
| 18>    N       -3.78112         7.55654         3.61887
| 19>    C       -3.21300         4.91426         1.66438
| 20>    N       -3.77965         4.49992         0.75652
| 21>    C       -1.00082         5.22836         4.74600
| 22>    C       -0.26849         4.12114         5.26760
| 23>    C        0.28065         4.15193         6.51729
| 24>    C        0.12668         5.31186         7.30988
| 25>    C       -0.58596         6.42917         6.78479
| 26>    C       -1.14667         6.36905         5.48853
| 27>    C       -0.72875         7.58130         7.58436
| 28>    C       -0.19882         7.62799         8.84501
| 29>    C        0.50110         6.52744         9.36200
| 30>    C        0.66086         5.39453         8.61090
| 31>    C       -0.22732         3.04263         4.26337
| 32>    O        0.25807         1.94255         4.36550
| 33>    C       -0.86457         3.62800         3.04182
| 34>    C       -0.67543         3.04290         1.83041
| 35>    C       -0.83508         3.63190         0.55175
| 36>    O       -0.86716         4.96983         0.39503
| 37>    C       -0.98184         5.23436        -0.92899
| 38>    C       -1.02424         4.04989        -1.64606
| 39>    C       -0.91624         3.01328        -0.70513
| 40>    C       -0.89758         1.58123        -0.97573
| 41>    O       -0.80805         0.71777        -0.14126
| 42>    C       -1.05029         6.55607        -1.44047
| 43>    N       -0.98607         7.72099        -0.71827
| 44>    C       -0.79008         7.86740         0.70273
| 45>    C        0.65665         7.62148         1.12006
| 46>    C       -1.14097         8.85667        -1.54813
| 47>    O       -1.11792         9.99528        -1.13549
| 48>    C       -1.31243         8.30319        -2.87036
| 49>    C       -1.23928         6.89282        -2.77708
| 50>    C       -1.45657         6.35708        -4.10098
| 51>    O       -1.44909         5.22096        -4.52946
| 52>    N       -1.70015         7.48882        -4.90760
| 53>    C       -1.85976         7.32303        -6.33353
| 54>    C       -0.69590         7.91859        -7.11910
| 55>    C       -1.61894         8.65633        -4.18123
| 56>    C       -1.85416        10.00024        -4.57443
| 57>    C       -2.52004        10.46086        -5.66150
| 58>    C       -2.77187        11.83881        -5.90551
| 59>    S       -3.95912        12.28671        -7.10048
| 60>    C       -3.72518        13.97580        -6.78557
| 61>    C       -2.73791        14.15563        -5.80908
| 62>    C       -2.21723        12.95561        -5.31041
| 63>    C       -2.32809        15.42812        -5.37119
| 64>    N       -1.98745        16.46366        -5.01641
| 65>    C       -4.48410        14.98666        -7.41603
| 66>    C       -5.53829        14.73381        -8.23764
| 67>    C       -6.32213        15.76320        -8.80362
| 68>    C       -7.45697        15.55235        -9.53460
| 69>    C       -8.32389        16.56565       -10.10889
| 70>    C       -8.07066        17.91003       -10.19622
| 71>    C       -8.95171        18.84353       -10.78213
| 72>    N       -9.62548        19.65456       -11.23602
| 73>    C       -6.89811        18.55445        -9.74894
| 74>    N       -5.96999        19.14947        -9.42766
| 75>    C       -9.51310        15.89424       -10.62181
| 76>    C       -9.35649        14.49008       -10.44286
| 77>    C       -8.06413        14.21798        -9.79359
| 78>    O       -7.60674        13.12701        -9.52183
| 79>    C      -10.31714        13.60044       -10.82955
| 80>    C      -11.50579        14.08360       -11.42012
| 81>    C      -11.67310        15.48736       -11.59886
| 82>    C      -10.65865        16.38405       -11.19182
| 83>    C      -12.86545        15.95939       -12.18454
| 84>    C      -13.84604        15.08857       -12.57504
| 85>    C      -13.68017        13.70669       -12.39833
| 86>    C      -12.53474        13.21483       -11.83355
| 87>    H        0.82370         3.30022         6.89887
| 88>    H       -1.67393         7.23148         5.11102
| 89>    H       -1.27201         8.42430         7.18337
| 90>    H       -0.31710         8.51333         9.45141
| 91>    H        0.91278         6.58170        10.35855
| 92>    H        1.19836         4.54424         9.00417
| 93>    H       -0.29899         2.02546         1.82649
| 94>    H       -1.12523         3.96768        -2.71055
| 95>    H       -0.96337         1.34451        -2.05305
| 96>    H       -1.46371         7.18984         1.23245
| 97>    H       -1.07057         8.89890         0.93560
| 98>    H        0.96170         6.60250         0.89453
| 99>    H        0.75972         7.78498         2.18949
|100>    H        1.31744         8.30891         0.59750
|101>    H       -2.81400         7.74613        -6.65861
|102>    H       -1.89698         6.24101        -6.49400
|103>    H       -0.61684         8.99082        -6.95619
|104>    H       -0.84123         7.73644        -8.18020
|105>    H        0.23701         7.45210        -6.81211
|106>    H       -1.51926        10.71038        -3.82971
|107>    H       -2.95621         9.78080        -6.37714
|108>    H       -1.45619        12.91489        -4.55235
|109>    H       -4.20779        16.00849        -7.18264
|110>    H       -5.81673        13.71038        -8.44940
|111>    H       -6.00323        16.77854        -8.60467
|112>    H      -10.17253        12.54035       -10.68243
|113>    H      -10.81900        17.44046       -11.33694
|114>    H      -12.98854        17.02403       -12.31892
|115>    H      -14.75578        15.45999       -13.02237
|116>    H      -14.46462        13.03408       -12.71148
|117>    H      -12.40136        12.15194       -11.69440
|118> *
|119>
|120>                          ****END OF INPUT****

CARTESIAN COORDINATES (ANGSTROEM)
---------------------------------
  C     -1.508010    4.867050    3.428110
  C     -2.579680    5.450550    2.805410
  C     -3.230980    6.605790    3.286250
  N     -3.781120    7.556540    3.618870
  C     -3.213000    4.914260    1.664380
  N     -3.779650    4.499920    0.756520
  C     -1.000820    5.228360    4.746000
  C     -0.268490    4.121140    5.267600
  C      0.280650    4.151930    6.517290
  C      0.126680    5.311860    7.309880
  C     -0.585960    6.429170    6.784790
  C     -1.146670    6.369050    5.488530
  C     -0.728750    7.581300    7.584360
  C     -0.198820    7.627990    8.845010
  C      0.501100    6.527440    9.362000
  C      0.660860    5.394530    8.610900
  C     -0.227320    3.042630    4.263370
  O      0.258070    1.942550    4.365500
  C     -0.864570    3.628000    3.041820
  C     -0.675430    3.042900    1.830410
  C     -0.835080    3.631900    0.551750
  O     -0.867160    4.969830    0.395030
  C     -0.981840    5.234360   -0.928990
  C     -1.024240    4.049890   -1.646060
  C     -0.916240    3.013280   -0.705130
  C     -0.897580    1.581230   -0.975730
  O     -0.808050    0.717770   -0.141260
  C     -1.050290    6.556070   -1.440470
  N     -0.986070    7.720990   -0.718270
  C     -0.790080    7.867400    0.702730
  C      0.656650    7.621480    1.120060
  C     -1.140970    8.856670   -1.548130
  O     -1.117920    9.995280   -1.135490
  C     -1.312430    8.303190   -2.870360
  C     -1.239280    6.892820   -2.777080
  C     -1.456570    6.357080   -4.100980
  O     -1.449090    5.220960   -4.529460
  N     -1.700150    7.488820   -4.907600
  C     -1.859760    7.323030   -6.333530
  C     -0.695900    7.918590   -7.119100
  C     -1.618940    8.656330   -4.181230
  C     -1.854160   10.000240   -4.574430
  C     -2.520040   10.460860   -5.661500
  C     -2.771870   11.838810   -5.905510
  S     -3.959120   12.286710   -7.100480
  C     -3.725180   13.975800   -6.785570
  C     -2.737910   14.155630   -5.809080
  C     -2.217230   12.955610   -5.310410
  C     -2.328090   15.428120   -5.371190
  N     -1.987450   16.463660   -5.016410
  C     -4.484100   14.986660   -7.416030
  C     -5.538290   14.733810   -8.237640
  C     -6.322130   15.763200   -8.803620
  C     -7.456970   15.552350   -9.534600
  C     -8.323890   16.565650  -10.108890
  C     -8.070660   17.910030  -10.196220
  C     -8.951710   18.843530  -10.782130
  N     -9.625480   19.654560  -11.236020
  C     -6.898110   18.554450   -9.748940
  N     -5.969990   19.149470   -9.427660
  C     -9.513100   15.894240  -10.621810
  C     -9.356490   14.490080  -10.442860
  C     -8.064130   14.217980   -9.793590
  O     -7.606740   13.127010   -9.521830
  C    -10.317140   13.600440  -10.829550
  C    -11.505790   14.083600  -11.420120
  C    -11.673100   15.487360  -11.598860
  C    -10.658650   16.384050  -11.191820
  C    -12.865450   15.959390  -12.184540
  C    -13.846040   15.088570  -12.575040
  C    -13.680170   13.706690  -12.398330
  C    -12.534740   13.214830  -11.833550
  H      0.823700    3.300220    6.898870
  H     -1.673930    7.231480    5.111020
  H     -1.272010    8.424300    7.183370
  H     -0.317100    8.513330    9.451410
  H      0.912780    6.581700   10.358550
  H      1.198360    4.544240    9.004170
  H     -0.298990    2.025460    1.826490
  H     -1.125230    3.967680   -2.710550
  H     -0.963370    1.344510   -2.053050
  H     -1.463710    7.189840    1.232450
  H     -1.070570    8.898900    0.935600
  H      0.961700    6.602500    0.894530
  H      0.759720    7.784980    2.189490
  H      1.317440    8.308910    0.597500
  H     -2.814000    7.746130   -6.658610
  H     -1.896980    6.241010   -6.494000
  H     -0.616840    8.990820   -6.956190
  H     -0.841230    7.736440   -8.180200
  H      0.237010    7.452100   -6.812110
  H     -1.519260   10.710380   -3.829710
  H     -2.956210    9.780800   -6.377140
  H     -1.456190   12.914890   -4.552350
  H     -4.207790   16.008490   -7.182640
  H     -5.816730   13.710380   -8.449400
  H     -6.003230   16.778540   -8.604670
  H    -10.172530   12.540350  -10.682430
  H    -10.819000   17.440460  -11.336940
  H    -12.988540   17.024030  -12.318920
  H    -14.755780   15.459990  -13.022370
  H    -14.464620   13.034080  -12.711480
  H    -12.401360   12.151940  -11.694400

 Total Charge           Charge          ....    0
 Multiplicity           Mult            ....    1
 Number of Electrons    NEL             ....  492
 Basis Dimension        Dim             .... 1167

ORBITAL ENERGIES
----------------

  NO   OCC          E(Eh)            E(eV)
   0   2.0000     -88.988247     -2421.4933
   1   2.0000     -19.331357      -526.0330
   2   2.0000     -19.230134      -523.2785
   3   2.0000     -19.221896      -523.0544
   4   2.0000     -19.219828      -522.9981
   5   2.0000     -19.204343      -522.5768
   6   2.0000     -19.201583      -522.5016
   7   2.0000     -14.467540      -393.6818
   8   2.0000     -14.465830      -393.6352
   9   2.0000     -14.424670      -392.5152
  10   2.0000     -14.422402      -392.4535
  11   2.0000     -14.416819      -392.3016
  12   2.0000     -14.416707      -392.2985
  13   2.0000     -14.415208      -392.2577
  14   2.0000     -10.387534      -282.6592
  15   2.0000     -10.385467      -282.6029
  16   2.0000     -10.375199      -282.3235
  17   2.0000     -10.373699      -282.2827
  18   2.0000     -10.373358      -282.2734
  19   2.0000     -10.370289      -282.1899
  20   2.0000     -10.370228      -282.1883
  21   2.0000     -10.362745      -281.9846
  22   2.0000     -10.353395      -281.7302
  23   2.0000     -10.350811      -281.6599
  24   2.0000     -10.349702      -281.6297
  25   2.0000     -10.343447      -281.4595
  26   2.0000     -10.341502      -281.4066
  27   2.0000     -10.339692      -281.3573
  28   2.0000     -10.335868      -281.2533
  29   2.0000     -10.333061      -281.1769
  30   2.0000     -10.326406      -280.9958
  31   2.0000     -10.325882      -280.9815
  32   2.0000     -10.324718      -280.9499
  33   2.0000     -10.319153      -280.7984
  34   2.0000     -10.318234      -280.7734
  35   2.0000     -10.317948      -280.7656
  36   2.0000     -10.317927      -280.7651
  37   2.0000     -10.317062      -280.7415
  38   2.0000     -10.316725      -280.7323
  39   2.0000     -10.315914      -280.7103
  40   2.0000     -10.312915      -280.6287
  41   2.0000     -10.311540      -280.5913
  42   2.0000     -10.310835      -280.5721
  43   2.0000     -10.309458      -280.5346
  44   2.0000     -10.309354      -280.5318
  45   2.0000     -10.308078      -280.4971
  46   2.0000     -10.304626      -280.4031
  47   2.0000     -10.304122      -280.3894
  48   2.0000     -10.304092      -280.3886
  49   2.0000     -10.303823      -280.3813
  50   2.0000     -10.303623      -280.3758
  51   2.0000     -10.303359      -280.3686
  52   2.0000     -10.302418      -280.3431
  53   2.0000     -10.299076      -280.2521
  54   2.0000     -10.298815      -280.2450
  55   2.0000     -10.298261      -280.2299
  56   2.0000     -10.297728      -280.2154
  57   2.0000     -10.296309      -280.1768
  58   2.0000     -10.296177      -280.1732
  59   2.0000     -10.291638      -280.0497
  60   2.0000     -10.291312      -280.0408
  61   2.0000     -10.291033      -280.0333
  62   2.0000     -10.290666      -280.0232
  63   2.0000     -10.289922      -280.0030
  64   2.0000     -10.287867      -279.9471
  65   2.0000     -10.287386      -279.9340
  66   2.0000     -10.287108      -279.9264
  67   2.0000     -10.286586      -279.9122
  68   2.0000     -10.277233      -279.6577
  69   2.0000     -10.275414      -279.6082
  70   2.0000     -10.272349      -279.5248
  71   2.0000     -10.267767      -279.4001
  72   2.0000      -8.083674      -219.9680
  73   2.0000      -6.052733      -164.7032
  74   2.0000      -6.048753      -164.5949
  75   2.0000      -6.046029      -164.5208
  76   2.0000      -1.249995       -34.0141
  77   2.0000      -1.145887       -31.1812
  78   2.0000      -1.143101       -31.1054
  79   2.0000      -1.138879       -30.9905
  80   2.0000      -1.137723       -30.9590
  81   2.0000      -1.134066       -30.8595
  82   2.0000      -1.076196       -29.2848
  83   2.0000      -1.066906       -29.0320
  84   2.0000      -1.026625       -27.9359
  85   2.0000      -1.025215       -27.8975
  86   2.0000      -1.018887       -27.7253
  87   2.0000      -1.005868       -27.3711
  88   2.0000      -1.002108       -27.2687
  89   2.0000      -0.999602       -27.2005
  90   2.0000      -0.995591       -27.0914
  91   2.0000      -0.994298       -27.0562
  92   2.0000      -0.978964       -26.6390
  93   2.0000      -0.972998       -26.4766
  94   2.0000      -0.944680       -25.7060
  95   2.0000      -0.942802       -25.6549
  96   2.0000      -0.939626       -25.5685
  97   2.0000      -0.934131       -25.4190
  98   2.0000      -0.927455       -25.2373
  99   2.0000      -0.924223       -25.1494
 100   2.0000      -0.918004       -24.9802
 101   2.0000      -0.900639       -24.5076
 102   2.0000      -0.895104       -24.3570
 103   2.0000      -0.887805       -24.1584
 104   2.0000      -0.885824       -24.1045
 105   2.0000      -0.882326       -24.0093
 106   2.0000      -0.878489       -23.9049
 107   2.0000      -0.870820       -23.6962
 108   2.0000      -0.866746       -23.5854
 109   2.0000      -0.838583       -22.8190
 110   2.0000      -0.834467       -22.7070
 111   2.0000      -0.830052       -22.5869
 112   2.0000      -0.829528       -22.5726
 113   2.0000      -0.822392       -22.3784
 114   2.0000      -0.808771       -22.0078
 115   2.0000      -0.787616       -21.4321
 116   2.0000      -0.780796       -21.2465
 117   2.0000      -0.771954       -21.0059
 118   2.0000      -0.769698       -20.9446
 119   2.0000      -0.763684       -20.7809
 120   2.0000      -0.763050       -20.7636
 121   2.0000      -0.738842       -20.1049
 122   2.0000      -0.737476       -20.0678
 123   2.0000      -0.728384       -19.8203
 124   2.0000      -0.718729       -19.5576
 125   2.0000      -0.712292       -19.3825
 126   2.0000      -0.708979       -19.2923
 127   2.0000      -0.706001       -19.2113
 128   2.0000      -0.703755       -19.1502
 129   2.0000      -0.702632       -19.1196
 130   2.0000      -0.693542       -18.8722
 131   2.0000      -0.690261       -18.7830
 132   2.0000      -0.683126       -18.5888
 133   2.0000      -0.678134       -18.4530
 134   2.0000      -0.672489       -18.2993
 135   2.0000      -0.666835       -18.1455
 136   2.0000      -0.658108       -17.9080
 137   2.0000      -0.654397       -17.8070
 138   2.0000      -0.645106       -17.5542
 139   2.0000      -0.641259       -17.4495
 140   2.0000      -0.633444       -17.2369
 141   2.0000      -0.631941       -17.1960
 142   2.0000      -0.618199       -16.8221
 143   2.0000      -0.614845       -16.7308
 144   2.0000      -0.613125       -16.6840
 145   2.0000      -0.607903       -16.5419
 146   2.0000      -0.604797       -16.4574
 147   2.0000      -0.601205       -16.3596
 148   2.0000      -0.596333       -16.2270
 149   2.0000      -0.594255       -16.1705
 150   2.0000      -0.591122       -16.0853
 151   2.0000      -0.586597       -15.9621
 152   2.0000      -0.570757       -15.5311
 153   2.0000      -0.566257       -15.4086
 154   2.0000      -0.564240       -15.3538
 155   2.0000      -0.561275       -15.2731
 156   2.0000      -0.560624       -15.2553
 157   2.0000      -0.558031       -15.1848
 158   2.0000      -0.554768       -15.0960
 159   2.0000      -0.552470       -15.0335
 160   2.0000      -0.550243       -14.9729
 161   2.0000      -0.547686       -14.9033
 162   2.0000      -0.544587       -14.8190
 163   2.0000      -0.542890       -14.7728
 164   2.0000      -0.541039       -14.7224
 165   2.0000      -0.540151       -14.6982
 166   2.0000      -0.537705       -14.6317
 167   2.0000      -0.532361       -14.4863
 168   2.0000      -0.530391       -14.4327
 169   2.0000      -0.525681       -14.3045
 170   2.0000      -0.524689       -14.2775
 171   2.0000      -0.524247       -14.2655
 172   2.0000      -0.522431       -14.2161
 173   2.0000      -0.520498       -14.1635
 174   2.0000      -0.518808       -14.1175
 175   2.0000      -0.517430       -14.0800
 176   2.0000      -0.516487       -14.0543
 177   2.0000      -0.515346       -14.0233
 178   2.0000      -0.514264       -13.9938
 179   2.0000      -0.510110       -13.8808
 180   2.0000      -0.503967       -13.7136
 181   2.0000      -0.503312       -13.6958
 182   2.0000      -0.499671       -13.5967
 183   2.0000      -0.496865       -13.5204
 184   2.0000      -0.495997       -13.4968
 185   2.0000      -0.494340       -13.4517
 186   2.0000      -0.490577       -13.3493
 187   2.0000      -0.489453       -13.3187
 188   2.0000      -0.487528       -13.2663
 189   2.0000      -0.484764       -13.1911
 190   2.0000      -0.482527       -13.1302
 191   2.0000      -0.480864       -13.0850
 192   2.0000      -0.477994       -13.0069
 193   2.0000      -0.474119       -12.9014
 194   2.0000      -0.471709       -12.8358
 195   2.0000      -0.467388       -12.7183
 196   2.0000      -0.466017       -12.6810
 197   2.0000      -0.463481       -12.6120
 198   2.0000      -0.459018       -12.4905
 199   2.0000      -0.457420       -12.4470
 200   2.0000      -0.457171       -12.4403
 201   2.0000      -0.451802       -12.2942
 202   2.0000      -0.449948       -12.2437
 203   2.0000      -0.448265       -12.1979
 204   2.0000      -0.447252       -12.1703
 205   2.0000      -0.445505       -12.1228
 206   2.0000      -0.444917       -12.1068
 207   2.0000      -0.443483       -12.0678
 208   2.0000      -0.441421       -12.0117
 209   2.0000      -0.440587       -11.9890
 210   2.0000      -0.439060       -11.9474
 211   2.0000      -0.437431       -11.9031
 212   2.0000      -0.436734       -11.8841
 213   2.0000      -0.435017       -11.8374
 214   2.0000      -0.434533       -11.8243
 215   2.0000      -0.433761       -11.8032
 216   2.0000      -0.430657       -11.7188
 217   2.0000      -0.427726       -11.6390
 218   2.0000      -0.425977       -11.5914
 219   2.0000      -0.425660       -11.5828
 220   2.0000      -0.420480       -11.4418
 221   2.0000      -0.419370       -11.4116
 222   2.0000      -0.418630       -11.3915
 223   2.0000      -0.409369       -11.1395
 224   2.0000      -0.407412       -11.0862
 225   2.0000      -0.403501       -10.9798
 226   2.0000      -0.388712       -10.5774
 227   2.0000      -0.383572       -10.4375
 228   2.0000      -0.381653       -10.3853
 229   2.0000      -0.372162       -10.1271
 230   2.0000      -0.368414       -10.0250
 231   2.0000      -0.360693        -9.8150
 232   2.0000      -0.349078        -9.4989
 233   2.0000      -0.348350        -9.4791
 234   2.0000      -0.344664        -9.3788
 235   2.0000      -0.342870        -9.3300
 236   2.0000      -0.339408        -9.2358
 237   2.0000      -0.337344        -9.1796
 238   2.0000      -0.328673        -8.9437
 239   2.0000      -0.323897        -8.8137
 240   2.0000      -0.318181        -8.6582
 241   2.0000      -0.312455        -8.5023
 242   2.0000      -0.300195        -8.1687
 243   2.0000      -0.297493        -8.0952
 244   2.0000      -0.283903        -7.7254
 245   2.0000      -0.246870        -6.7177
 246   0.0000      -0.120548        -3.2803
 247   0.0000      -0.106263        -2.8916
 248   0.0000      -0.079865        -2.1732
 249   0.0000      -0.063133        -1.7179
 250   0.0000      -0.059786        -1.6269

MULLIKEN ATOMIC CHARGES
-----------------------
   0 C :    0.275974
   1 C :   -0.333846
   2 C :   -0.204163
   3 N :    0.175592
   4 C :   -0.213238
   5 N :    0.182449
   6 C :    0.044218
   7 C :    0.008494
   8 C :   -0.081384
   9 C :    0.094599
  10 C :    0.096981
  11 C :   -0.088299
  12 C :   -0.018456
  13 C :    0.037401
  14 C :    0.037896
  15 C :   -0.014572
  16 C :    0.137933
  17 O :   -0.126285
  18 C :   -0.100676
  19 C :    0.010845
  20 C :    0.119056
  21 O :   -0.206095
  22 C :    0.092425
  23 C :   -0.035815
  24 C :    0.021959
  25 C :    0.161090
  26 O :   -0.165945
  27 C :    0.195056
  28 N :   -0.263438
  29 C :    0.117326
  30 C :   -0.001587
  31 C :    0.152352
  32 O :   -0.182981
  33 C :   -0.031958
  34 C :   -0.086943
  35 C :    0.161857
  36 O :   -0.205649
  37 N :   -0.269993
  38 C :    0.095916
  39 C :   -0.005616
  40 C :    0.107748
  41 C :   -0.033126
  42 C :    0.081196
  43 C :   -0.082994
  44 S :    0.167936
  45 C :   -0.050169
  46 C :   -0.044193
  47 C :    0.023322
  48 C :   -0.189113
  49 N :    0.149041
  50 C :    0.024167
  51 C :   -0.011994
  52 C :   -0.039956
  53 C :   -0.065467
  54 C :    0.327910
  55 C :   -0.347229
  56 C :   -0.182543
  57 N :    0.149539
  58 C :   -0.194918
  59 N :    0.155369
  60 C :    0.049694
  61 C :    0.000668
  62 C :    0.151454
  63 O :   -0.155364
  64 C :   -0.084679
  65 C :    0.101656
  66 C :    0.100046
  67 C :   -0.088991
  68 C :   -0.022653
  69 C :    0.039331
  70 C :    0.037062
  71 C :   -0.019475
  72 H :   -0.008653
  73 H :   -0.005208
  74 H :   -0.009129
  75 H :   -0.001867
  76 H :   -0.003176
  77 H :   -0.015447
  78 H :    0.045314
  79 H :    0.015931
  80 H :    0.002003
  81 H :    0.031396
  82 H :    0.047663
  83 H :    0.015685
  84 H :    0.022387
  85 H :    0.027422
  86 H :    0.028842
  87 H :    0.049661
  88 H :    0.024933
  89 H :    0.027638
  90 H :    0.026596
  91 H :    0.016784
  92 H :   -0.016794
  93 H :    0.013314
  94 H :    0.033071
  95 H :    0.033407
  96 H :    0.017696
  97 H :   -0.013687
  98 H :   -0.008092
  99 H :   -0.007577
 100 H :   -0.004756
 101 H :   -0.004304
 102 H :   -0.016804
Sum of atomic charges:    0.0000000

LOEWDIN ATOMIC CHARGES
----------------------
   0 C :    0.067887
   1 C :   -0.135178
   2 C :   -0.023418
   3 N :   -0.044341
   4 C :   -0.026028
   5 N :   -0.046784
   6 C :   -0.023993
   7 C :   -0.057985
   8 C :    0.035445
   9 C :   -0.008160
  10 C :   -0.004662
  11 C :    0.015227
  12 C :   -0.005943
  13 C :   -0.010550
  14 C :   -0.010543
  15 C :   -0.008084
  16 C :    0.082923
  17 O :   -0.128530
  18 C :   -0.065025
  19 C :    0.046445
  20 C :    0.059765
  21 O :    0.042129
  22 C :    0.033049
  23 C :    0.008786
  24 C :   -0.086788
  25 C :    0.117237
  26 O :   -0.117778
  27 C :    0.070019
  28 N :    0.003261
  29 C :    0.034326
  30 C :   -0.061581
  31 C :    0.082798
  32 O :   -0.185166
  33 C :   -0.106991
  34 C :   -0.117681
  35 C :    0.085484
  36 O :   -0.195823
  37 N :   -0.003962
  38 C :    0.035483
  39 C :   -0.062488
  40 C :    0.069482
  41 C :   -0.015380
  42 C :   -0.027007
  43 C :   -0.154441
  44 S :    0.482707
  45 C :   -0.148459
  46 C :   -0.084436
  47 C :   -0.019282
  48 C :   -0.034010
  49 N :   -0.038222
  50 C :    0.009642
  51 C :   -0.026007
  52 C :    0.064689
  53 C :   -0.084622
  54 C :    0.073562
  55 C :   -0.135548
  56 C :   -0.016947
  57 N :   -0.051878
  58 C :   -0.022167
  59 N :   -0.047706
  60 C :   -0.025220
  61 C :   -0.056152
  62 C :    0.086134
  63 O :   -0.147698
  64 C :    0.032322
  65 C :   -0.008254
  66 C :   -0.005612
  67 C :    0.019458
  68 C :   -0.005145
  69 C :   -0.012563
  70 C :   -0.011885
  71 C :   -0.009779
  72 H :    0.040712
  73 H :    0.038509
  74 H :    0.034925
  75 H :    0.034279
  76 H :    0.033800
  77 H :    0.032705
  78 H :    0.059452
  79 H :    0.042385
  80 H :    0.007178
  81 H :    0.023135
  82 H :    0.039437
  83 H :    0.018550
  84 H :    0.031005
  85 H :    0.030340
  86 H :    0.019792
  87 H :    0.039125
  88 H :    0.022611
  89 H :    0.033051
  90 H :    0.031609
  91 H :    0.047652
  92 H :    0.030139
  93 H :    0.044384
  94 H :    0.049304
  95 H :    0.027601
  96 H :    0.044367
  97 H :    0.038673
  98 H :    0.039195
  99 H :    0.035228
 100 H :    0.033395
 101 H :    0.033149
 102 H :    0.031956

  Mayer bond orders larger than 0.100000
B(  0-C ,  1-C ) :   1.6634 B(  0-C ,  6-C ) :   1.0049 B(  0-C , 18-C ) :   1.0320
B(  1-C ,  2-C ) :   1.1380 B(  1-C ,  4-C ) :   1.1609 B(  2-C ,  3-N ) :   2.9841
B(  4-C ,  5-N ) :   3.0033 B(  6-C ,  7-C ) :   1.2106 B(  6-C , 11-C ) :   1.4505
B(  7-C ,  8-C ) :   1.4745 B(  7-C , 16-C ) :   0.9207 B(  8-C ,  9-C ) :   1.1859
B(  8-C , 72-H ) :   1.0161 B(  9-C , 10-C ) :   1.2557 B(  9-C , 15-C ) :   1.2461
B( 10-C , 11-C ) :   1.2067 B( 10-C , 12-C ) :   1.2396 B( 11-C , 73-H ) :   0.9942
B( 12-C , 13-C ) :   1.4907 B( 12-C , 74-H ) :   0.9978 B( 13-C , 14-C ) :   1.2609
B( 13-C , 75-H ) :   0.9883 B( 14-C , 15-C ) :   1.4890 B( 14-C , 76-H ) :   0.9884
B( 15-C , 77-H ) :   0.9976 B( 16-C , 17-O ) :   2.2878 B( 16-C , 18-C ) :   0.9214
B( 18-C , 19-C ) :   1.6295 B( 19-C , 20-C ) :   1.1395 B( 19-C , 78-H ) :   0.9316
B( 20-C , 21-O ) :   1.1403 B( 20-C , 22-C ) :   0.1092 B( 20-C , 24-C ) :   1.3769
B( 21-O , 22-C ) :   1.1117 B( 22-C , 23-C ) :   1.4807 B( 22-C , 27-C ) :   1.0774
B( 23-C , 24-C ) :   1.2071 B( 23-C , 79-H ) :   0.9766 B( 24-C , 25-C ) :   0.9729
B( 25-C , 26-O ) :   2.1555 B( 25-C , 80-H ) :   0.9636 B( 27-C , 28-N ) :   1.2050
B( 27-C , 34-C ) :   1.3859 B( 28-N , 29-C ) :   0.9332 B( 28-N , 31-C ) :   1.0157
B( 29-C , 30-C ) :   1.1191 B( 29-C , 81-H ) :   0.9532 B( 29-C , 82-H ) :   0.9231
B( 30-C , 83-H ) :   0.9679 B( 30-C , 84-H ) :   0.9673 B( 30-C , 85-H ) :   0.9641
B( 31-C , 32-O ) :   2.1386 B( 31-C , 33-C ) :   0.9762 B( 33-C , 34-C ) :   1.2330
B( 33-C , 40-C ) :   1.3569 B( 34-C , 35-C ) :   0.9795 B( 35-C , 36-O ) :   2.0478
B( 35-C , 37-N ) :   1.0544 B( 37-N , 38-C ) :   0.9409 B( 37-N , 40-C ) :   1.1662
B( 38-C , 39-C ) :   1.1151 B( 38-C , 86-H ) :   0.9501 B( 38-C , 87-H ) :   0.9238
B( 39-C , 88-H ) :   0.9670 B( 39-C , 89-H ) :   0.9674 B( 39-C , 90-H ) :   0.9630
B( 40-C , 41-C ) :   1.1855 B( 41-C , 42-C ) :   1.6158 B( 41-C , 91-H ) :   0.9451
B( 42-C , 43-C ) :   1.1158 B( 42-C , 92-H ) :   0.9630 B( 43-C , 44-S ) :   1.1303
B( 43-C , 47-C ) :   1.4652 B( 44-S , 45-C ) :   1.1289 B( 45-C , 46-C ) :   1.4166
B( 45-C , 50-C ) :   1.1722 B( 46-C , 47-C ) :   1.3084 B( 46-C , 48-C ) :   1.1038
B( 47-C , 93-H ) :   0.9994 B( 48-C , 49-N ) :   3.0240 B( 50-C , 51-C ) :   1.5533
B( 50-C , 94-H ) :   0.9744 B( 51-C , 52-C ) :   1.1624 B( 51-C , 95-H ) :   0.9741
B( 52-C , 53-C ) :   1.5500 B( 52-C , 96-H ) :   0.9674 B( 53-C , 54-C ) :   1.0571
B( 53-C , 62-C ) :   0.9415 B( 54-C , 55-C ) :   1.6360 B( 54-C , 60-C ) :   0.9874
B( 55-C , 56-C ) :   1.1456 B( 55-C , 58-C ) :   1.1430 B( 56-C , 57-N ) :   2.9637
B( 58-C , 59-N ) :   2.9717 B( 60-C , 61-C ) :   1.2144 B( 60-C , 67-C ) :   1.4477
B( 61-C , 62-C ) :   0.9474 B( 61-C , 64-C ) :   1.4667 B( 62-C , 63-O ) :   2.1906
B( 64-C , 65-C ) :   1.1791 B( 64-C , 97-H ) :   1.0173 B( 65-C , 66-C ) :   1.2553
B( 65-C , 71-C ) :   1.2418 B( 66-C , 67-C ) :   1.2046 B( 66-C , 68-C ) :   1.2387
B( 67-C , 98-H ) :   0.9910 B( 68-C , 69-C ) :   1.4907 B( 68-C , 99-H ) :   0.9979
B( 69-C , 70-C ) :   1.2585 B( 69-C ,100-H ) :   0.9878 B( 70-C , 71-C ) :   1.4889
B( 70-C ,101-H ) :   0.9888 B( 71-C ,102-H ) :   0.9986

-----------------------------------------------------------------------------
         ABSORPTION SPECTRUM VIA TRANSITION ELECTRIC DIPOLE MOMENTS
-----------------------------------------------------------------------------
State   Energy  Wavelength   fosc         T2         TX        TY        TZ
        (cm-1)    (nm)                  (au**2)     (au)      (au)      (au)
-----------------------------------------------------------------------------
   0   12985.0    770.1   1.100147913  27.89230   1.45277  -2.61663   4.35144
   1   17417.2    574.1   0.574855301  10.86563  -2.22079   2.03999  -1.33122
   2   22085.4    452.8   0.221400938   3.30027  -1.69489   0.61467  -0.22314
   3   22727.8    440.0   0.345603039   5.00606   1.17823  -1.50272   1.16605
   4   23672.3    422.4   0.021369014   0.29718  -0.35930  -0.20576   0.35460
   5   24954.7    400.7   0.088115221   1.16245   1.01755  -0.32080  -0.15535
   6   25102.5    398.4   0.205545058   2.69567   0.30812  -0.06462   1.61138
   7   26160.7    382.3   0.011704210   0.14729  -0.23978   0.09943   0.28268
   8   26340.8    379.6   0.012545910   0.15680  -0.00112   0.17040  -0.35744
   9   26359.6    379.4   0.000994933   0.01243  -0.05130   0.06893   0.07102
  10   27116.5    368.8   0.147569607   1.79159   0.46392  -0.04404   1.25476
  11   27597.7    362.3   0.037266424   0.44455  -0.55577  -0.27287  -0.24741
  12   27914.6    358.2   0.008558251   0.10093  -0.25645   0.01362  -0.18703
  13   27943.1    357.9   0.002054883   0.02421   0.10830  -0.05235   0.09870
  14   28388.0    352.3   0.097246894   1.12776   0.21724   0.16653   1.02608
  15   28641.3    349.1   0.001118862   0.01286   0.10187  -0.00595   0.04948
  16   29254.2    341.8   0.185273664   2.08498  -1.20930  -0.61240  -0.49753
  17   31276.6    319.7   0.038092066   0.40095  -0.33501   0.11078  -0.52579
  18   31589.2    316.6   0.102647737   1.06976   0.46048  -0.78072   0.49819
  19   32049.0    312.0   0.100736818   1.03478   0.79179  -0.38734   0.50776
  20   32314.2    309.5   0.007523988   0.07665  -0.17622  -0.18011  -0.11472
  21   32499.5    307.7   0.503887366   5.10425  -1.77204  -1.14667  -0.80578
  22   32677.7    306.0   0.343589604   3.46150  -0.64797  -0.60953  -1.63404
  23   33001.5    303.0   0.083547852   0.83344  -0.51162   0.10961  -0.74811
  24   33277.1    300.5   0.066261578   0.65553  -0.01448   0.25756   0.76745
  25   33703.2    296.7   0.060156473   0.58761  -0.12444   0.58126  -0.48401
  26   33926.6    294.8   0.001233614   0.01197   0.02087   0.10126   0.03581
  27   34045.6    293.7   0.046558153   0.45020  -0.19787   0.64023   0.03408
  28   34277.7    291.7   0.183923686   1.76645   0.60098   1.06115   0.52842
  29   34503.2    289.8   0.005721040   0.05459  -0.18426  -0.06221   0.12947
  30   34636.4    288.7   0.310090330   2.94735  -0.93925  -1.36081  -0.46192
  31   35103.6    284.9   0.147389804   1.38227   0.77674   0.77929   0.41431
  32   35890.1    278.6   0.224050907   2.05517  -0.74970  -0.51503  -1.10809
  33   36234.2    276.0   0.030693084   0.27887   0.12464   0.02323  -0.51263
  34   36972.8    270.5   0.001991598   0.01773  -0.06462  -0.09674  -0.06480
  35   36997.3    270.3   0.005540155   0.04930  -0.07057   0.09005  -0.19029
  36   37240.0    268.5   0.093958170   0.83062   0.29493   0.85836  -0.08275
  37   37512.2    266.6   0.177446933   1.55730   0.40404   0.69356   0.95552
  38   37861.5    264.1   0.090239144   0.78464  -0.69591  -0.06612  -0.54404
  39   38389.1    260.5   0.053625413   0.45987   0.47935  -0.18677   0.44183
  40   38643.6    258.8   0.011238222   0.09574   0.06128   0.07529  -0.29380
  41   38786.2    257.8   0.060435459   0.51297   0.00369  -0.71100   0.08622
  42   39125.1    255.6   0.015276200   0.12854   0.17340  -0.28198   0.13769
  43   39193.2    255.1   0.011414286   0.09588   0.11604  -0.27653  -0.07707
  44   39382.1    253.9   0.039999702   0.33438  -0.15867   0.55161  -0.07019
  45   39491.5    253.2   0.101537212   0.84644   0.37205  -0.81500   0.20927
  46   39864.6    250.8   0.129961724   1.07326  -0.37165   0.89193  -0.37362
  47   39967.2    250.2   0.336234344   2.76958   0.68865  -1.51368   0.06421

FINAL SINGLE POINT ENERGY     -3457.590434015158

DIPOLE MOMENT
-------------
                                X             Y             Z
Electronic contribution:     -8.85023       7.39290      -3.31297
Nuclear contribution   :      9.14154      -9.55001       3.76450
                        -----------------------------------------
Total Dipole Moment    :      0.29131      -2.15710       0.45152
                        -----------------------------------------
Magnitude (a.u.)       :      2.22302
Magnitude (Debye)      :      5.65048

Rotational constants in cm-1:     0.001725     0.000239     0.000232
Rotational constants in MHz :    51.702721     7.159509     6.961504

                             ****ORCA TERMINATED NORMALLY****
TOTAL RUN TIME: 0 days 0 hours 9 minutes 43 seconds 624 msec
