                         Program Version 4.2.0 -  RELEASE  -
|  1> # ORCA input file
|  2> # SCF done       -195.513526791007          0.000332872227
|  3> ! CAM-B3LYP def2-SVP def2/J RIJCOSX Grid4 TightSCF
|  4> %maxcore 5000
|  5> %tddft
|  6>     Mode sTDDFT
|  7>     Ethresh 5.0
|  8>     maxcore 5000
|  9> end
| 10>
| 11> %pal
| 12>   nprocs 6
| 13>   end
| 14> * xyz 0 1
| 15>    C        1.20485        -0.59264         0.29612
| 16>    C        0.96623        -1.19294        -0.91366
| 17>    C        1.20564        -2.55700        -1.17873
| 18>    N        1.38824        -3.65594        -1.45537
| 19>    C        0.42116        -0.53356        -2.03467
| 20>    N       -0.03692        -0.05360        -2.97220
| 21>    C        1.66792        -1.25395         1.50836
| 22>    C        1.64734        -0.30989         2.57553
| 23>    C        2.03154        -0.64457         3.84201
| 24>    C        2.46085        -1.96500         4.10420
| 25>    C        2.48900        -2.91391         3.04115
| 26>    C        2.08550        -2.53761         1.73920
| 27>    C        2.92610        -4.22588         3.31352
| 28>    C        3.31635        -4.58580         4.57499
| 29>    C        3.28734        -3.65134         5.62077
| 30>    C        2.86762        -2.36892         5.39077
| 31>    C        1.18139         0.99322         2.07620
| 32>    O        1.09535         2.02847         2.70261
| 33>    C        0.94941         0.79678         0.61897
| 34>    C        0.78760         1.81110        -0.28382
| 35>    C        0.41514         3.14028         0.00556
| 36>    S        1.05853         4.41248        -0.97948
| 37>    C        0.31462         5.65631        -0.03730
| 38>    C       -0.52332         5.09039         0.94480
| 39>    C       -0.45822         3.66428         0.97452
| 40>    C       -1.29088         2.94465         1.84582
| 41>    C       -2.11228         3.63024         2.71078
| 42>    C       -2.93207         2.91266         3.61324
| 43>    N       -3.58750         2.31023         4.33420
| 44>    C       -2.18571         5.05401         2.67180
| 45>    C       -3.08612         5.72977         3.52820
| 46>    N       -3.81908         6.28883         4.20814
| 47>    C       -1.42893         5.76997         1.77315
| 48>    C        0.65225         7.02640        -0.15816
| 49>    N        1.05639         7.66206        -1.30825
| 50>    C        1.11286         7.12905        -2.64896
| 51>    C        2.52920         6.70649        -3.02897
| 52>    C        1.39129         9.01431        -1.07206
| 53>    O        1.75046         9.77613        -1.94210
| 54>    C        1.19052         9.18034         0.34816
| 55>    C        0.71390         7.95917         0.88004
| 56>    C        0.62166         8.12322         2.31706
| 57>    O        0.31766         7.35733         3.20693
| 58>    N        0.98970         9.46728         2.54703
| 59>    C        1.05401         9.95613         3.90482
| 60>    C        2.49028        10.07405         4.40625
| 61>    C        1.35516        10.09929         1.38248
| 62>    C        1.84936        11.41366         1.16722
| 63>    C        1.89764        12.46693         2.01531
| 64>    C        2.47461        13.71790         1.66909
| 65>    S        3.35892        14.03491         0.18144
| 66>    C        3.61411        15.64590         0.83507
| 67>    N        3.05460        15.80688         2.00354
| 68>    N        2.44136        14.75826         2.45952
| 69>    C        4.39969        16.61910         0.15546
| 70>    C        4.55811        17.87320         0.63359
| 71>    C        5.37863        18.88329         0.05203
| 72>    C        6.57850        18.71102        -0.56595
| 73>    C        7.38952        19.77990        -1.13177
| 74>    C        6.92145        20.98037        -1.59261
| 75>    C        7.73963        21.97424        -2.17005
| 76>    N        8.35981        22.81700        -2.64149
| 77>    C        5.56097        21.35720        -1.59414
| 78>    N        4.47126        21.71405        -1.64488
| 79>    C        8.76383        19.30681        -1.20435
| 80>    C        8.78977        17.93756        -0.81314
| 81>    C        7.42628        17.48445        -0.48849
| 82>    O        7.09526        16.35922        -0.18765
| 83>    C        9.95134        17.22062        -0.77596
| 84>    C       11.16283        17.85400        -1.13163
| 85>    C       11.14552        19.22505        -1.52109
| 86>    C        9.92721        19.94118        -1.55260
| 87>    C       12.36191        19.84692        -1.86946
| 88>    C       13.53922        19.15042        -1.83503
| 89>    C       13.55514        17.80110        -1.45091
| 90>    C       12.39223        17.16636        -1.10797
| 91>    H        2.00561         0.08884         4.63420
| 92>    H        2.12439        -3.27529         0.95326
| 93>    H        2.94517        -4.94231         2.50544
| 94>    H        3.64928        -5.59341         4.77361
| 95>    H        3.59921        -3.95226         6.60962
| 96>    H        2.84264        -1.64512         6.19207
| 97>    H        1.03107         1.61631        -1.32207
| 98>    H       -1.30820         1.86675         1.82549
| 99>    H       -1.55658         6.83580         1.68826
|100>    H        0.79144         7.93301        -3.31830
|101>    H        0.41501         6.29362        -2.73688
|102>    H        3.18744         7.57075        -2.99755
|103>    H        2.53214         6.30146        -4.03653
|104>    H        2.90926         5.95017        -2.34622
|105>    H        0.51987         9.21430         4.50671
|106>    H        0.52286        10.90758         3.98161
|107>    H        2.97179         9.09956         4.37834
|108>    H        2.48944        10.43046         5.43232
|109>    H        3.06820        10.76480         3.79690
|110>    H        2.21402        11.55429         0.15528
|111>    H        1.49481        12.43798         3.01514
|112>    H        4.85520        16.30770        -0.77101
|113>    H        3.98508        18.15830         1.50664
|114>    H        5.02796        19.89884         0.20028
|115>    H        9.94562        16.18296        -0.47683
|116>    H        9.94558        20.98011        -1.84195
|117>    H       12.34461        20.88540        -2.16574
|118>    H       14.46550        19.63568        -2.10355
|119>    H       14.49340        17.26741        -1.42765
|120>    H       12.39816        16.12767        -0.81151
|121> *
|122>
|123>                          ****END OF INPUT****

CARTESIAN COORDINATES (ANGSTROEM)
---------------------------------
  C      1.204850   -0.592640    0.296120
  C      0.966230   -1.192940   -0.913660
  C      1.205640   -2.557000   -1.178730
  N      1.388240   -3.655940   -1.455370
  C      0.421160   -0.533560   -2.034670
  N     -0.036920   -0.053600   -2.972200
  C      1.667920   -1.253950    1.508360
  C      1.647340   -0.309890    2.575530
  C      2.031540   -0.644570    3.842010
  C      2.460850   -1.965000    4.104200
  C      2.489000   -2.913910    3.041150
  C      2.085500   -2.537610    1.739200
  C      2.926100   -4.225880    3.313520
  C      3.316350   -4.585800    4.574990
  C      3.287340   -3.651340    5.620770
  C      2.867620   -2.368920    5.390770
  C      1.181390    0.993220    2.076200
  O      1.095350    2.028470    2.702610
  C      0.949410    0.796780    0.618970
  C      0.787600    1.811100   -0.283820
  C      0.415140    3.140280    0.005560
  S      1.058530    4.412480   -0.979480
  C      0.314620    5.656310   -0.037300
  C     -0.523320    5.090390    0.944800
  C     -0.458220    3.664280    0.974520
  C     -1.290880    2.944650    1.845820
  C     -2.112280    3.630240    2.710780
  C     -2.932070    2.912660    3.613240
  N     -3.587500    2.310230    4.334200
  C     -2.185710    5.054010    2.671800
  C     -3.086120    5.729770    3.528200
  N     -3.819080    6.288830    4.208140
  C     -1.428930    5.769970    1.773150
  C      0.652250    7.026400   -0.158160
  N      1.056390    7.662060   -1.308250
  C      1.112860    7.129050   -2.648960
  C      2.529200    6.706490   -3.028970
  C      1.391290    9.014310   -1.072060
  O      1.750460    9.776130   -1.942100
  C      1.190520    9.180340    0.348160
  C      0.713900    7.959170    0.880040
  C      0.621660    8.123220    2.317060
  O      0.317660    7.357330    3.206930
  N      0.989700    9.467280    2.547030
  C      1.054010    9.956130    3.904820
  C      2.490280   10.074050    4.406250
  C      1.355160   10.099290    1.382480
  C      1.849360   11.413660    1.167220
  C      1.897640   12.466930    2.015310
  C      2.474610   13.717900    1.669090
  S      3.358920   14.034910    0.181440
  C      3.614110   15.645900    0.835070
  N      3.054600   15.806880    2.003540
  N      2.441360   14.758260    2.459520
  C      4.399690   16.619100    0.155460
  C      4.558110   17.873200    0.633590
  C      5.378630   18.883290    0.052030
  C      6.578500   18.711020   -0.565950
  C      7.389520   19.779900   -1.131770
  C      6.921450   20.980370   -1.592610
  C      7.739630   21.974240   -2.170050
  N      8.359810   22.817000   -2.641490
  C      5.560970   21.357200   -1.594140
  N      4.471260   21.714050   -1.644880
  C      8.763830   19.306810   -1.204350
  C      8.789770   17.937560   -0.813140
  C      7.426280   17.484450   -0.488490
  O      7.095260   16.359220   -0.187650
  C      9.951340   17.220620   -0.775960
  C     11.162830   17.854000   -1.131630
  C     11.145520   19.225050   -1.521090
  C      9.927210   19.941180   -1.552600
  C     12.361910   19.846920   -1.869460
  C     13.539220   19.150420   -1.835030
  C     13.555140   17.801100   -1.450910
  C     12.392230   17.166360   -1.107970
  H      2.005610    0.088840    4.634200
  H      2.124390   -3.275290    0.953260
  H      2.945170   -4.942310    2.505440
  H      3.649280   -5.593410    4.773610
  H      3.599210   -3.952260    6.609620
  H      2.842640   -1.645120    6.192070
  H      1.031070    1.616310   -1.322070
  H     -1.308200    1.866750    1.825490
  H     -1.556580    6.835800    1.688260
  H      0.791440    7.933010   -3.318300
  H      0.415010    6.293620   -2.736880
  H      3.187440    7.570750   -2.997550
  H      2.532140    6.301460   -4.036530
  H      2.909260    5.950170   -2.346220
  H      0.519870    9.214300    4.506710
  H      0.522860   10.907580    3.981610
  H      2.971790    9.099560    4.378340
  H      2.489440   10.430460    5.432320
  H      3.068200   10.764800    3.796900
  H      2.214020   11.554290    0.155280
  H      1.494810   12.437980    3.015140
  H      4.855200   16.307700   -0.771010
  H      3.985080   18.158300    1.506640
  H      5.027960   19.898840    0.200280
  H      9.945620   16.182960   -0.476830
  H      9.945580   20.980110   -1.841950
  H     12.344610   20.885400   -2.165740
  H     14.465500   19.635680   -2.103550
  H     14.493400   17.267410   -1.427650
  H     12.398160   16.127670   -0.811510

 Total Charge           Charge          ....    0
 Multiplicity           Mult            ....    1
 Number of Electrons    NEL             ....  524
 Basis Dimension        Dim             .... 1222

ORBITAL ENERGIES
----------------

  NO   OCC          E(Eh)            E(eV)
   0   2.0000     -89.010840     -2422.1081
   1   2.0000     -88.986785     -2421.4535
   2   2.0000     -19.225539      -523.1535
   3   2.0000     -19.225023      -523.1395
   4   2.0000     -19.211044      -522.7591
   5   2.0000     -19.207758      -522.6697
   6   2.0000     -14.475158      -393.8891
   7   2.0000     -14.472482      -393.8163
   8   2.0000     -14.453302      -393.2943
   9   2.0000     -14.450997      -393.2316
  10   2.0000     -14.424215      -392.5028
  11   2.0000     -14.422284      -392.4503
  12   2.0000     -14.420601      -392.4045
  13   2.0000     -14.419390      -392.3715
  14   2.0000     -14.412029      -392.1713
  15   2.0000     -14.408547      -392.0765
  16   2.0000     -10.394668      -282.8533
  17   2.0000     -10.392014      -282.7811
  18   2.0000     -10.377208      -282.3782
  19   2.0000     -10.376524      -282.3596
  20   2.0000     -10.371178      -282.2141
  21   2.0000     -10.361216      -281.9430
  22   2.0000     -10.355999      -281.8011
  23   2.0000     -10.355315      -281.7825
  24   2.0000     -10.355254      -281.7808
  25   2.0000     -10.351377      -281.6753
  26   2.0000     -10.349188      -281.6157
  27   2.0000     -10.348906      -281.6081
  28   2.0000     -10.345821      -281.5241
  29   2.0000     -10.344393      -281.4852
  30   2.0000     -10.338113      -281.3144
  31   2.0000     -10.337293      -281.2921
  32   2.0000     -10.333781      -281.1965
  33   2.0000     -10.326861      -281.0082
  34   2.0000     -10.325426      -280.9691
  35   2.0000     -10.324608      -280.9469
  36   2.0000     -10.324217      -280.9362
  37   2.0000     -10.323470      -280.9159
  38   2.0000     -10.323215      -280.9090
  39   2.0000     -10.322832      -280.8986
  40   2.0000     -10.321697      -280.8677
  41   2.0000     -10.320236      -280.8279
  42   2.0000     -10.318840      -280.7899
  43   2.0000     -10.317147      -280.7438
  44   2.0000     -10.316971      -280.7391
  45   2.0000     -10.316632      -280.7298
  46   2.0000     -10.314768      -280.6791
  47   2.0000     -10.313093      -280.6335
  48   2.0000     -10.309878      -280.5460
  49   2.0000     -10.309654      -280.5400
  50   2.0000     -10.309587      -280.5381
  51   2.0000     -10.309048      -280.5235
  52   2.0000     -10.306917      -280.4655
  53   2.0000     -10.303854      -280.3821
  54   2.0000     -10.303625      -280.3759
  55   2.0000     -10.303578      -280.3746
  56   2.0000     -10.303325      -280.3677
  57   2.0000     -10.303204      -280.3644
  58   2.0000     -10.303102      -280.3617
  59   2.0000     -10.303013      -280.3592
  60   2.0000     -10.302852      -280.3549
  61   2.0000     -10.300845      -280.3002
  62   2.0000     -10.295793      -280.1628
  63   2.0000     -10.295631      -280.1584
  64   2.0000     -10.292131      -280.0631
  65   2.0000     -10.291642      -280.0498
  66   2.0000     -10.291300      -280.0405
  67   2.0000     -10.291299      -280.0405
  68   2.0000     -10.290834      -280.0278
  69   2.0000     -10.290779      -280.0263
  70   2.0000     -10.290645      -280.0227
  71   2.0000     -10.290246      -280.0118
  72   2.0000     -10.289350      -279.9874
  73   2.0000     -10.282523      -279.8017
  74   2.0000     -10.274368      -279.5798
  75   2.0000     -10.272244      -279.5220
  76   2.0000      -8.105327      -220.5572
  77   2.0000      -8.082899      -219.9469
  78   2.0000      -6.074331      -165.2909
  79   2.0000      -6.069973      -165.1724
  80   2.0000      -6.068318      -165.1273
  81   2.0000      -6.051483      -164.6692
  82   2.0000      -6.048195      -164.5797
  83   2.0000      -6.045344      -164.5022
  84   2.0000      -1.156923       -31.4815
  85   2.0000      -1.153531       -31.3892
  86   2.0000      -1.146428       -31.1959
  87   2.0000      -1.141130       -31.0517
  88   2.0000      -1.140764       -31.0418
  89   2.0000      -1.084672       -29.5154
  90   2.0000      -1.075279       -29.2598
  91   2.0000      -1.037084       -28.2205
  92   2.0000      -1.026193       -27.9241
  93   2.0000      -1.023550       -27.8522
  94   2.0000      -1.006773       -27.3957
  95   2.0000      -1.005384       -27.3579
  96   2.0000      -1.004034       -27.3212
  97   2.0000      -1.001444       -27.2507
  98   2.0000      -0.998391       -27.1676
  99   2.0000      -0.990465       -26.9519
 100   2.0000      -0.978889       -26.6369
 101   2.0000      -0.978076       -26.6148
 102   2.0000      -0.968057       -26.3422
 103   2.0000      -0.963891       -26.2288
 104   2.0000      -0.949408       -25.8347
 105   2.0000      -0.947111       -25.7722
 106   2.0000      -0.937711       -25.5164
 107   2.0000      -0.930855       -25.3299
 108   2.0000      -0.925661       -25.1885
 109   2.0000      -0.914587       -24.8872
 110   2.0000      -0.904926       -24.6243
 111   2.0000      -0.899958       -24.4891
 112   2.0000      -0.891194       -24.2506
 113   2.0000      -0.887301       -24.1447
 114   2.0000      -0.887069       -24.1384
 115   2.0000      -0.886318       -24.1179
 116   2.0000      -0.885386       -24.0926
 117   2.0000      -0.879612       -23.9355
 118   2.0000      -0.860900       -23.4263
 119   2.0000      -0.850585       -23.1456
 120   2.0000      -0.835946       -22.7473
 121   2.0000      -0.834245       -22.7010
 122   2.0000      -0.834112       -22.6974
 123   2.0000      -0.826100       -22.4793
 124   2.0000      -0.812851       -22.1188
 125   2.0000      -0.801829       -21.8189
 126   2.0000      -0.785950       -21.3868
 127   2.0000      -0.775029       -21.0896
 128   2.0000      -0.769719       -20.9451
 129   2.0000      -0.768233       -20.9047
 130   2.0000      -0.767414       -20.8824
 131   2.0000      -0.752473       -20.4758
 132   2.0000      -0.748151       -20.3582
 133   2.0000      -0.735894       -20.0247
 134   2.0000      -0.727210       -19.7884
 135   2.0000      -0.717787       -19.5320
 136   2.0000      -0.710063       -19.3218
 137   2.0000      -0.709871       -19.3166
 138   2.0000      -0.706022       -19.2118
 139   2.0000      -0.703957       -19.1557
 140   2.0000      -0.703252       -19.1365
 141   2.0000      -0.696263       -18.9463
 142   2.0000      -0.694130       -18.8882
 143   2.0000      -0.689000       -18.7486
 144   2.0000      -0.682109       -18.5611
 145   2.0000      -0.678442       -18.4614
 146   2.0000      -0.668492       -18.1906
 147   2.0000      -0.659793       -17.9539
 148   2.0000      -0.653069       -17.7709
 149   2.0000      -0.647403       -17.6167
 150   2.0000      -0.638492       -17.3742
 151   2.0000      -0.636483       -17.3196
 152   2.0000      -0.625322       -17.0159
 153   2.0000      -0.620069       -16.8729
 154   2.0000      -0.614476       -16.7207
 155   2.0000      -0.612710       -16.6727
 156   2.0000      -0.611928       -16.6514
 157   2.0000      -0.608177       -16.5493
 158   2.0000      -0.603049       -16.4098
 159   2.0000      -0.599739       -16.3197
 160   2.0000      -0.596560       -16.2332
 161   2.0000      -0.591870       -16.1056
 162   2.0000      -0.588306       -16.0086
 163   2.0000      -0.583031       -15.8651
 164   2.0000      -0.572284       -15.5726
 165   2.0000      -0.567165       -15.4333
 166   2.0000      -0.563968       -15.3464
 167   2.0000      -0.560734       -15.2583
 168   2.0000      -0.557486       -15.1700
 169   2.0000      -0.556370       -15.1396
 170   2.0000      -0.554441       -15.0871
 171   2.0000      -0.553829       -15.0704
 172   2.0000      -0.552582       -15.0365
 173   2.0000      -0.552041       -15.0218
 174   2.0000      -0.548714       -14.9313
 175   2.0000      -0.544870       -14.8267
 176   2.0000      -0.544613       -14.8197
 177   2.0000      -0.541923       -14.7465
 178   2.0000      -0.541369       -14.7314
 179   2.0000      -0.537825       -14.6350
 180   2.0000      -0.533800       -14.5254
 181   2.0000      -0.529130       -14.3984
 182   2.0000      -0.528333       -14.3767
 183   2.0000      -0.527210       -14.3461
 184   2.0000      -0.526905       -14.3378
 185   2.0000      -0.524800       -14.2805
 186   2.0000      -0.520368       -14.1599
 187   2.0000      -0.519031       -14.1236
 188   2.0000      -0.517678       -14.0867
 189   2.0000      -0.516550       -14.0560
 190   2.0000      -0.516347       -14.0505
 191   2.0000      -0.512495       -13.9457
 192   2.0000      -0.508882       -13.8474
 193   2.0000      -0.504523       -13.7288
 194   2.0000      -0.501997       -13.6600
 195   2.0000      -0.501354       -13.6425
 196   2.0000      -0.496872       -13.5206
 197   2.0000      -0.495509       -13.4835
 198   2.0000      -0.491696       -13.3797
 199   2.0000      -0.491246       -13.3675
 200   2.0000      -0.488551       -13.2941
 201   2.0000      -0.483201       -13.1486
 202   2.0000      -0.479526       -13.0486
 203   2.0000      -0.477287       -12.9877
 204   2.0000      -0.473817       -12.8932
 205   2.0000      -0.473384       -12.8814
 206   2.0000      -0.470638       -12.8067
 207   2.0000      -0.469764       -12.7829
 208   2.0000      -0.468897       -12.7593
 209   2.0000      -0.463967       -12.6252
 210   2.0000      -0.460011       -12.5175
 211   2.0000      -0.457500       -12.4492
 212   2.0000      -0.456412       -12.4196
 213   2.0000      -0.453083       -12.3290
 214   2.0000      -0.451552       -12.2874
 215   2.0000      -0.449963       -12.2441
 216   2.0000      -0.448571       -12.2062
 217   2.0000      -0.446416       -12.1476
 218   2.0000      -0.445524       -12.1233
 219   2.0000      -0.444717       -12.1014
 220   2.0000      -0.440345       -11.9824
 221   2.0000      -0.439248       -11.9525
 222   2.0000      -0.439077       -11.9479
 223   2.0000      -0.438736       -11.9386
 224   2.0000      -0.438237       -11.9250
 225   2.0000      -0.437535       -11.9059
 226   2.0000      -0.435993       -11.8640
 227   2.0000      -0.435583       -11.8528
 228   2.0000      -0.433142       -11.7864
 229   2.0000      -0.432149       -11.7594
 230   2.0000      -0.429966       -11.7000
 231   2.0000      -0.427474       -11.6322
 232   2.0000      -0.424551       -11.5526
 233   2.0000      -0.419493       -11.4150
 234   2.0000      -0.416989       -11.3468
 235   2.0000      -0.415413       -11.3040
 236   2.0000      -0.414799       -11.2873
 237   2.0000      -0.411571       -11.1994
 238   2.0000      -0.409798       -11.1512
 239   2.0000      -0.404722       -11.0131
 240   2.0000      -0.403168       -10.9708
 241   2.0000      -0.395067       -10.7503
 242   2.0000      -0.389887       -10.6094
 243   2.0000      -0.383832       -10.4446
 244   2.0000      -0.378930       -10.3112
 245   2.0000      -0.371535       -10.1100
 246   2.0000      -0.366972        -9.9858
 247   2.0000      -0.356020        -9.6878
 248   2.0000      -0.351233        -9.5575
 249   2.0000      -0.350532        -9.5385
 250   2.0000      -0.342416        -9.3176
 251   2.0000      -0.341394        -9.2898
 252   2.0000      -0.337019        -9.1708
 253   2.0000      -0.336357        -9.1527
 254   2.0000      -0.333245        -9.0681
 255   2.0000      -0.323180        -8.7942
 256   2.0000      -0.321657        -8.7527
 257   2.0000      -0.306598        -8.3430
 258   2.0000      -0.303939        -8.2706
 259   2.0000      -0.297027        -8.0825
 260   2.0000      -0.292841        -7.9686
 261   2.0000      -0.255872        -6.9626
 262   0.0000      -0.130612        -3.5541
 263   0.0000      -0.105094        -2.8597
 264   0.0000      -0.085282        -2.3206
 265   0.0000      -0.071805        -1.9539
 266   0.0000      -0.063671        -1.7326

MULLIKEN ATOMIC CHARGES
-----------------------
   0 C :    0.296944
   1 C :   -0.339509
   2 C :   -0.179313
   3 N :    0.154033
   4 C :   -0.209037
   5 N :    0.166811
   6 C :    0.057620
   7 C :   -0.010257
   8 C :   -0.077162
   9 C :    0.099270
  10 C :    0.100721
  11 C :   -0.089649
  12 C :   -0.022102
  13 C :    0.038756
  14 C :    0.037335
  15 C :   -0.017040
  16 C :    0.133024
  17 O :   -0.139661
  18 C :   -0.102613
  19 C :    0.007396
  20 C :   -0.126557
  21 S :    0.209602
  22 C :   -0.177391
  23 C :    0.118576
  24 C :    0.159767
  25 C :   -0.011906
  26 C :   -0.068671
  27 C :   -0.180753
  28 N :    0.178027
  29 C :   -0.068260
  30 C :   -0.179736
  31 N :    0.175534
  32 C :    0.004878
  33 C :    0.139903
  34 N :   -0.267787
  35 C :    0.088950
  36 C :   -0.000238
  37 C :    0.156457
  38 O :   -0.188439
  39 C :   -0.050463
  40 C :   -0.052883
  41 C :    0.138496
  42 O :   -0.182268
  43 N :   -0.265240
  44 C :    0.091004
  45 C :   -0.000370
  46 C :    0.127297
  47 C :   -0.050286
  48 C :    0.079643
  49 C :   -0.103891
  50 S :    0.126142
  51 C :   -0.110059
  52 N :   -0.042597
  53 N :   -0.032754
  54 C :    0.140233
  55 C :   -0.000010
  56 C :    0.006104
  57 C :   -0.091078
  58 C :    0.283143
  59 C :   -0.331117
  60 C :   -0.181788
  61 N :    0.155831
  62 C :   -0.209447
  63 N :    0.168399
  64 C :    0.052817
  65 C :   -0.009678
  66 C :    0.150153
  67 O :   -0.148251
  68 C :   -0.074619
  69 C :    0.095719
  70 C :    0.093756
  71 C :   -0.078367
  72 C :   -0.017310
  73 C :    0.037051
  74 C :    0.036415
  75 C :   -0.013415
  76 H :   -0.007307
  77 H :   -0.005942
  78 H :   -0.006886
  79 H :   -0.002804
  80 H :   -0.002859
  81 H :   -0.013174
  82 H :    0.033728
  83 H :   -0.000466
  84 H :   -0.000091
  85 H :    0.044079
  86 H :    0.031885
  87 H :    0.040893
  88 H :    0.028853
  89 H :    0.015828
  90 H :    0.054016
  91 H :    0.032985
  92 H :    0.028198
  93 H :    0.030819
  94 H :    0.024180
  95 H :    0.021621
  96 H :    0.010712
  97 H :    0.012051
  98 H :    0.036353
  99 H :    0.040639
 100 H :   -0.013076
 101 H :   -0.006319
 102 H :   -0.007802
 103 H :   -0.003492
 104 H :   -0.003502
 105 H :   -0.016956
Sum of atomic charges:   -0.0000000

LOEWDIN ATOMIC CHARGES
----------------------
   0 C :    0.072521
   1 C :   -0.135691
   2 C :   -0.018035
   3 N :   -0.047582
   4 C :   -0.025055
   5 N :   -0.049923
   6 C :   -0.027278
   7 C :   -0.056537
   8 C :    0.035785
   9 C :   -0.007370
  10 C :   -0.005486
  11 C :    0.020970
  12 C :   -0.005144
  13 C :   -0.010804
  14 C :   -0.009779
  15 C :   -0.007663
  16 C :    0.075756
  17 O :   -0.135101
  18 C :   -0.088538
  19 C :    0.034340
  20 C :   -0.169087
  21 S :    0.541857
  22 C :   -0.165070
  23 C :   -0.025648
  24 C :   -0.013421
  25 C :    0.042667
  26 C :   -0.037413
  27 C :   -0.028523
  28 N :   -0.030889
  29 C :   -0.043924
  30 C :   -0.027702
  31 N :   -0.034153
  32 C :    0.053186
  33 C :    0.051007
  34 N :   -0.003623
  35 C :    0.029265
  36 C :   -0.064318
  37 C :    0.079705
  38 O :   -0.190066
  39 C :   -0.113181
  40 C :   -0.116210
  41 C :    0.081082
  42 O :   -0.174627
  43 N :   -0.000351
  44 C :    0.036062
  45 C :   -0.061236
  46 C :    0.079891
  47 C :   -0.025205
  48 C :   -0.013679
  49 C :   -0.150975
  50 S :    0.416013
  51 C :   -0.142433
  52 N :   -0.066454
  53 N :   -0.063405
  54 C :    0.009165
  55 C :   -0.005517
  56 C :    0.064953
  57 C :   -0.080040
  58 C :    0.073289
  59 C :   -0.132266
  60 C :   -0.017565
  61 N :   -0.047927
  62 C :   -0.026558
  63 N :   -0.044246
  64 C :   -0.026386
  65 C :   -0.056275
  66 C :    0.084540
  67 O :   -0.135868
  68 C :    0.033452
  69 C :   -0.007999
  70 C :   -0.005529
  71 C :    0.020896
  72 C :   -0.004775
  73 C :   -0.011491
  74 C :   -0.010876
  75 C :   -0.009032
  76 H :    0.041118
  77 H :    0.039519
  78 H :    0.035296
  79 H :    0.034130
  80 H :    0.033854
  81 H :    0.033355
  82 H :    0.046930
  83 H :    0.043145
  84 H :    0.044666
  85 H :    0.039683
  86 H :    0.017681
  87 H :    0.034467
  88 H :    0.033511
  89 H :    0.011496
  90 H :    0.041538
  91 H :    0.023812
  92 H :    0.032443
  93 H :    0.034991
  94 H :    0.022455
  95 H :    0.042066
  96 H :    0.045261
  97 H :    0.037628
  98 H :    0.045947
  99 H :    0.049187
 100 H :    0.038987
 101 H :    0.039528
 102 H :    0.035307
 103 H :    0.033898
 104 H :    0.033484
 105 H :    0.032148

  Mayer bond orders larger than 0.100000
B(  0-C ,  1-C ) :   1.6442 B(  0-C ,  6-C ) :   0.9980 B(  0-C , 18-C ) :   1.0624
B(  1-C ,  2-C ) :   1.1444 B(  1-C ,  4-C ) :   1.1428 B(  2-C ,  3-N ) :   2.9679
B(  4-C ,  5-N ) :   2.9964 B(  6-C ,  7-C ) :   1.2099 B(  6-C , 11-C ) :   1.4465
B(  7-C ,  8-C ) :   1.4737 B(  7-C , 16-C ) :   0.9438 B(  8-C ,  9-C ) :   1.1772
B(  8-C , 76-H ) :   1.0173 B(  9-C , 10-C ) :   1.2556 B(  9-C , 15-C ) :   1.2447
B( 10-C , 11-C ) :   1.2041 B( 10-C , 12-C ) :   1.2400 B( 11-C , 77-H ) :   0.9917
B( 12-C , 13-C ) :   1.4874 B( 12-C , 78-H ) :   0.9982 B( 13-C , 14-C ) :   1.2614
B( 13-C , 79-H ) :   0.9884 B( 14-C , 15-C ) :   1.4873 B( 14-C , 80-H ) :   0.9888
B( 15-C , 81-H ) :   0.9985 B( 16-C , 17-O ) :   2.2151 B( 16-C , 18-C ) :   0.9387
B( 18-C , 19-C ) :   1.6001 B( 19-C , 20-C ) :   1.1836 B( 19-C , 82-H ) :   0.9313
B( 20-C , 21-S ) :   1.1379 B( 20-C , 22-C ) :   0.1100 B( 20-C , 24-C ) :   1.2945
B( 21-S , 22-C ) :   1.1862 B( 22-C , 23-C ) :   1.2918 B( 22-C , 33-C ) :   1.1196
B( 23-C , 24-C ) :   1.2327 B( 23-C , 32-C ) :   1.2183 B( 24-C , 25-C ) :   1.2043
B( 25-C , 26-C ) :   1.5671 B( 25-C , 83-H ) :   0.9846 B( 26-C , 27-C ) :   1.0797
B( 26-C , 29-C ) :   1.2504 B( 27-C , 28-N ) :   3.0455 B( 29-C , 30-C ) :   1.0882
B( 29-C , 32-C ) :   1.5555 B( 30-C , 31-N ) :   3.0427 B( 32-C , 84-H ) :   0.9813
B( 33-C , 34-N ) :   1.1998 B( 33-C , 40-C ) :   1.3752 B( 34-N , 35-C ) :   0.9388
B( 34-N , 37-C ) :   1.0222 B( 35-C , 36-C ) :   1.1127 B( 35-C , 85-H ) :   0.9303
B( 35-C , 86-H ) :   0.9480 B( 36-C , 87-H ) :   0.9643 B( 36-C , 88-H ) :   0.9671
B( 36-C , 89-H ) :   0.9634 B( 37-C , 38-O ) :   2.1272 B( 37-C , 39-C ) :   0.9839
B( 39-C , 40-C ) :   1.2325 B( 39-C , 46-C ) :   1.3502 B( 40-C , 41-C ) :   0.9615
B( 41-C , 42-O ) :   2.1090 B( 41-C , 43-N ) :   1.0407 B( 43-N , 44-C ) :   0.9363
B( 43-N , 46-C ) :   1.1771 B( 44-C , 45-C ) :   1.1163 B( 44-C , 90-H ) :   0.9228
B( 44-C , 91-H ) :   0.9512 B( 45-C , 92-H ) :   0.9620 B( 45-C , 93-H ) :   0.9677
B( 45-C , 94-H ) :   0.9682 B( 46-C , 47-C ) :   1.1892 B( 47-C , 48-C ) :   1.5692
B( 47-C , 95-H ) :   0.9446 B( 48-C , 49-C ) :   1.1269 B( 48-C , 96-H ) :   0.9825
B( 49-C , 50-S ) :   1.1045 B( 49-C , 53-N ) :   1.6498 B( 50-S , 51-C ) :   1.1022
B( 51-C , 52-N ) :   1.6626 B( 51-C , 54-C ) :   1.1261 B( 52-N , 53-N ) :   1.2483
B( 54-C , 55-C ) :   1.7340 B( 54-C , 97-H ) :   0.9321 B( 55-C , 56-C ) :   1.1288
B( 55-C , 98-H ) :   0.9514 B( 56-C , 57-C ) :   1.6580 B( 56-C , 99-H ) :   0.9487
B( 57-C , 58-C ) :   1.0380 B( 57-C , 66-C ) :   0.9299 B( 58-C , 59-C ) :   1.6619
B( 58-C , 64-C ) :   1.0002 B( 59-C , 60-C ) :   1.1401 B( 59-C , 62-C ) :   1.1356
B( 60-C , 61-N ) :   2.9748 B( 62-C , 63-N ) :   3.0115 B( 64-C , 65-C ) :   1.2087
B( 64-C , 71-C ) :   1.4494 B( 65-C , 66-C ) :   0.9508 B( 65-C , 68-C ) :   1.4740
B( 66-C , 67-O ) :   2.2109 B( 68-C , 69-C ) :   1.1830 B( 68-C ,100-H ) :   1.0147
B( 69-C , 70-C ) :   1.2530 B( 69-C , 75-C ) :   1.2448 B( 70-C , 71-C ) :   1.2092
B( 70-C , 72-C ) :   1.2398 B( 71-C ,101-H ) :   0.9905 B( 72-C , 73-C ) :   1.4908
B( 72-C ,102-H ) :   0.9969 B( 73-C , 74-C ) :   1.2581 B( 73-C ,103-H ) :   0.9889
B( 74-C , 75-C ) :   1.4894 B( 74-C ,104-H ) :   0.9894 B( 75-C ,105-H ) :   0.9970

-----------------------------------------------------------------------------
         ABSORPTION SPECTRUM VIA TRANSITION ELECTRIC DIPOLE MOMENTS
-----------------------------------------------------------------------------
State   Energy  Wavelength   fosc         T2         TX        TY        TZ
        (cm-1)    (nm)                  (au**2)     (au)      (au)      (au)
-----------------------------------------------------------------------------
   0   12300.0    813.0   1.080645604  28.92377   0.85329   5.27639   0.59609
   1   19785.2    505.4   0.423935111   7.05397  -1.60223  -2.09756   0.29506
   2   20514.3    487.5   0.207862202   3.33575   1.21036  -1.36653   0.05816
   3   22741.4    439.7   0.223452428   3.23477   0.18433   1.55785  -0.87971
   4   23001.8    434.7   0.188156283   2.69297   0.90551   1.22334  -0.61357
   5   23483.9    425.8   0.010408407   0.14591   0.27606  -0.20264  -0.16923
   6   24158.4    413.9   0.052816035   0.71974   0.50623   0.65180  -0.19654
   7   25233.1    396.3   0.002504312   0.03267  -0.03669   0.17694  -0.00442
   8   25774.1    388.0   0.083891048   1.07154   0.21350  -0.31767  -0.96179
   9   25876.0    386.5   0.103467791   1.31639   1.00470   0.51856   0.19508
  10   26234.1    381.2   0.014585012   0.18303  -0.29533  -0.29947  -0.07824
  11   26745.1    373.9   0.027333549   0.33646  -0.19361  -0.50745  -0.20364
  12   26787.8    373.3   0.059984442   0.73719  -0.47710  -0.62829   0.33884
  13   27093.1    369.1   0.115499072   1.40344   0.17718  -0.62050   0.99349
  14   28099.8    355.9   0.027756259   0.32519  -0.54091  -0.05596   0.17167
  15   28698.4    348.5   0.013548692   0.15542  -0.25815  -0.29007  -0.06815
  16   29401.0    340.1   0.036151643   0.40480   0.61869   0.11350   0.09563
  17   29687.4    336.8   0.117893790   1.30736   0.20096  -1.07856   0.32199
  18   29955.4    333.8   0.133745533   1.46987  -0.92012   0.39439   0.68389
  19   30272.2    330.3   0.076876109   0.83603  -0.09596   0.21752  -0.88290
  20   30445.5    328.5   0.171746182   1.85712  -0.81434  -0.81117   0.73210
  21   31126.3    321.3   0.289301528   3.05985  -0.68842   0.78835  -1.40158
  22   31395.4    318.5   0.454417172   4.76502   2.06935   0.36042  -0.59406
  23   32005.2    312.4   0.290695893   2.99016  -0.94195   1.22028  -0.78345
  24   32813.4    304.8   0.031897880   0.32003  -0.01128  -0.53230   0.19121
  25   33071.0    302.4   0.009439719   0.09397   0.27757  -0.11342   0.06371
  26   33386.2    299.5   0.038220943   0.37689  -0.44330  -0.11293  -0.40941
  27   33463.4    298.8   0.357898077   3.52099  -1.71246   0.74098  -0.19853
  28   33751.0    296.3   0.025164827   0.24546  -0.49488   0.01796   0.01532
  29   33941.6    294.6   0.009809705   0.09515   0.10046  -0.14386   0.25370
  30   34208.9    292.3   0.033262564   0.32010  -0.06857   0.51009  -0.23497
  31   34657.5    288.5   0.153570254   1.45876  -0.84313   0.71036   0.49324
  32   34844.6    287.0   0.201285806   1.90175  -0.80574   1.11237   0.12321
  33   35309.8    283.2   0.010360813   0.09660  -0.10005  -0.29162   0.03932
  34   35487.8    281.8   0.041854303   0.38827  -0.44409   0.43214  -0.06566
  35   35826.4    279.1   0.091935852   0.84481   0.67238   0.53866   0.32025
  36   35885.9    278.7   0.185132546   1.69838   1.18553  -0.53646   0.07150
  37   36300.5    275.5   0.087731621   0.79564  -0.10914  -0.74944   0.47125
  38   36618.0    273.1   0.503240373   4.52435   0.08101  -0.13522   2.12120
  39   37160.6    269.1   0.017330758   0.15354  -0.01168   0.08264  -0.38284
  40   37479.4    266.8   0.071889304   0.63146  -0.65298   0.43741  -0.11724
  41   37602.1    265.9   0.011775261   0.10309  -0.31418   0.05237  -0.04056
  42   37879.9    264.0   0.158140413   1.37439  -0.00539   0.35364  -1.11772
  43   37975.4    263.3   0.105095162   0.91108  -0.07445  -0.69394  -0.65114
  44   38144.3    262.2   0.025416724   0.21936   0.16979  -0.42119  -0.11460
  45   38680.1    258.5   0.000972841   0.00828  -0.02078  -0.04632   0.07552
  46   38819.1    257.6   0.019965957   0.16932  -0.27147  -0.30591  -0.04527
  47   39267.8    254.7   0.112191844   0.94059   0.53735  -0.80527  -0.05811
  48   39416.4    253.7   0.046560854   0.38888  -0.41482  -0.39863  -0.24063
  49   39552.1    252.8   0.173079970   1.44063   0.10268   1.11992  -0.41937
  50   39952.0    250.3   0.163179772   1.34463  -0.67813  -0.79167   0.50798

FINAL SINGLE POINT ENERGY     -3944.904590268578

DIPOLE MOMENT
-------------
                                X             Y             Z
Electronic contribution:    -26.41142      -1.64893      -9.14161
Nuclear contribution   :     31.33726       0.58309       9.37664
                        -----------------------------------------
Total Dipole Moment    :      4.92585      -1.06584       0.23503
                        -----------------------------------------
Magnitude (a.u.)       :      5.04532
Magnitude (Debye)      :     12.82418

Rotational constants in cm-1:     0.001510     0.000214     0.000203
Rotational constants in MHz :    45.264106     6.426914     6.096551

                             ****ORCA TERMINATED NORMALLY****
TOTAL RUN TIME: 0 days 0 hours 9 minutes 59 seconds 201 msec
