                         Program Version 4.2.0 -  RELEASE  -
|  1> # ORCA input file
|  2> # SCF done       -199.635166483067          0.047424866104
|  3> ! CAM-B3LYP def2-SVP def2/J RIJCOSX Grid4 TightSCF
|  4> %maxcore 5000
|  5> %tddft
|  6>     Mode sTDDFT
|  7>     Ethresh 5.0
|  8>     maxcore 5000
|  9> end
| 10>
| 11> %pal
| 12>   nprocs 6
| 13>   end
| 14> * xyz 0 1
| 15>    C        2.17689         2.97609        -2.81944
| 16>    C        2.52701         4.28036        -3.04495
| 17>    C        2.58473         4.86946        -4.32479
| 18>    N        2.63175         5.41869        -5.33280
| 19>    C        2.96562         5.17525        -2.04676
| 20>    N        3.40952         5.91422        -1.28662
| 21>    C        2.01262         1.96591        -3.85763
| 22>    C        2.15092         0.67685        -3.26493
| 23>    C        2.09084        -0.46473        -4.01212
| 24>    C        1.90153        -0.36437        -5.40971
| 25>    C        1.72910         0.92086        -6.00139
| 26>    C        1.78399         2.08514        -5.20142
| 27>    C        1.52082         1.00443        -7.39300
| 28>    C        1.49229        -0.12440        -8.16710
| 29>    C        1.66493        -1.38956        -7.58460
| 30>    C        1.86191        -1.50656        -6.23535
| 31>    C        2.35843         0.82844        -1.81264
| 32>    O        2.54130        -0.03578        -0.98792
| 33>    C        2.12682         2.28647        -1.54605
| 34>    C        1.81033         2.69066        -0.28708
| 35>    C        1.25972         3.93088         0.12471
| 36>    O        0.77452         4.81597        -0.75467
| 37>    C        0.32918         5.90215        -0.08287
| 38>    C        0.49923         5.70150         1.27725
| 39>    C        1.10570         4.44346         1.42029
| 40>    C        1.50520         3.79136         2.67242
| 41>    O        1.99542         2.70262         2.75182
| 42>    O        1.18064         4.53226         3.73789
| 43>    C        1.49636         3.96804         5.00228
| 44>    C       -0.15480         6.96528        -0.89875
| 45>    N       -0.43306         8.24768        -0.50339
| 46>    C       -0.38613         8.79695         0.82818
| 47>    C       -1.66351         8.47904         1.60680
| 48>    C       -0.81009         9.06359        -1.60237
| 49>    O       -1.09657        10.23414        -1.48610
| 50>    C       -0.74116         8.17511        -2.73870
| 51>    C       -0.35842         6.89059        -2.27329
| 52>    C       -0.33505         6.00114        -3.41065
| 53>    O       -0.05126         4.82442        -3.52527
| 54>    N       -0.71179         6.81068        -4.49920
| 55>    C       -0.67968         6.27940        -5.84320
| 56>    C       -1.94042         5.48542        -6.17108
| 57>    C       -0.95359         8.10656        -4.11118
| 58>    C       -1.32751         9.19730        -4.94636
| 59>    C       -2.04381         9.13681        -6.09433
| 60>    C       -2.29403        10.29895        -6.87767
| 61>    O       -1.66044        11.43302        -6.57561
| 62>    C       -2.00907        12.38276        -7.46555
| 63>    C       -2.91503        11.84719        -8.37291
| 64>    C       -3.12016        10.51175        -7.99291
| 65>    C       -4.04340         9.59435        -8.67456
| 66>    O       -4.65767         9.87496        -9.67831
| 67>    O       -4.04788         8.36235        -8.12840
| 68>    C       -4.88227         7.41018        -8.77558
| 69>    C       -1.46256        13.68949        -7.45393
| 70>    C       -0.42391        14.17705        -6.71839
| 71>    C        0.10612        15.52898        -6.84086
| 72>    C       -0.50053        16.59759        -7.45231
| 73>    C        0.06712        17.88776        -7.52897
| 74>    N        0.45412        18.96303        -7.60789
| 75>    C       -1.77708        16.59105        -8.06057
| 76>    N       -2.77909        16.66976        -8.63801
| 77>    C        1.38018        15.57727        -6.13242
| 78>    C        1.59612        14.32140        -5.50074
| 79>    C        0.47175        13.41636        -5.79473
| 80>    O        0.34017        12.29400        -5.36820
| 81>    C        2.71477        14.06361        -4.76111
| 82>    C        3.69808        15.06956        -4.62729
| 83>    C        3.49516        16.32962        -5.26128
| 84>    C        2.32114        16.56889        -6.01272
| 85>    C        4.48572        17.32452        -5.12650
| 86>    C        5.62151        17.08884        -4.40080
| 87>    C        5.81651        15.84997        -3.77145
| 88>    C        4.87544        14.86181        -3.88197
| 89>    H        2.20801        -1.43331        -3.54644
| 90>    H        1.65152         3.04856        -5.66928
| 91>    H        1.39182         1.98025        -7.83622
| 92>    H        1.33223        -0.04972        -9.23156
| 93>    H        1.63536        -2.27053        -8.20935
| 94>    H        1.99195        -2.47756        -5.78118
| 95>    H        1.96213         1.97263         0.51262
| 96>    H        0.22997         6.34905         2.08306
| 97>    H        2.56819         3.77392         5.06645
| 98>    H        0.95852         3.02845         5.14533
| 99>    H        1.19555         4.69981         5.74731
|100>    H       -0.29700         9.88097         0.70182
|101>    H        0.50402         8.42428         1.34074
|102>    H       -2.52036         8.94124         1.11119
|103>    H       -1.58274         8.88795         2.61676
|104>    H       -1.83186         7.39908         1.66826
|105>    H        0.18423         5.60936        -5.90245
|106>    H       -0.53556         7.10178        -6.54692
|107>    H       -2.01623         4.63451        -5.49759
|108>    H       -1.89643         5.12057        -7.19577
|109>    H       -2.82816         6.10453        -6.04896
|110>    H       -1.01299        10.16812        -4.58155
|111>    H       -2.48644         8.22629        -6.46152
|112>    H       -3.38984        12.35278        -9.18894
|113>    H       -4.78589         6.48791        -8.20709
|114>    H       -4.56397         7.26143        -9.81099
|115>    H       -5.91909         7.75755        -8.77276
|116>    H       -1.92025        14.33855        -8.18885
|117>    H        2.85079        13.09988        -4.29341
|118>    H        2.20283        17.53049        -6.48634
|119>    H        4.33109        18.27592        -5.61335
|120>    H        6.37200        17.86034        -4.29877
|121>    H        6.71974        15.67995        -3.20634
|122>    H        5.01893        13.90610        -3.39979
|123> *
|124>
|125>                          ****END OF INPUT****

CARTESIAN COORDINATES (ANGSTROEM)
---------------------------------
  C      2.176890    2.976090   -2.819440
  C      2.527010    4.280360   -3.044950
  C      2.584730    4.869460   -4.324790
  N      2.631750    5.418690   -5.332800
  C      2.965620    5.175250   -2.046760
  N      3.409520    5.914220   -1.286620
  C      2.012620    1.965910   -3.857630
  C      2.150920    0.676850   -3.264930
  C      2.090840   -0.464730   -4.012120
  C      1.901530   -0.364370   -5.409710
  C      1.729100    0.920860   -6.001390
  C      1.783990    2.085140   -5.201420
  C      1.520820    1.004430   -7.393000
  C      1.492290   -0.124400   -8.167100
  C      1.664930   -1.389560   -7.584600
  C      1.861910   -1.506560   -6.235350
  C      2.358430    0.828440   -1.812640
  O      2.541300   -0.035780   -0.987920
  C      2.126820    2.286470   -1.546050
  C      1.810330    2.690660   -0.287080
  C      1.259720    3.930880    0.124710
  O      0.774520    4.815970   -0.754670
  C      0.329180    5.902150   -0.082870
  C      0.499230    5.701500    1.277250
  C      1.105700    4.443460    1.420290
  C      1.505200    3.791360    2.672420
  O      1.995420    2.702620    2.751820
  O      1.180640    4.532260    3.737890
  C      1.496360    3.968040    5.002280
  C     -0.154800    6.965280   -0.898750
  N     -0.433060    8.247680   -0.503390
  C     -0.386130    8.796950    0.828180
  C     -1.663510    8.479040    1.606800
  C     -0.810090    9.063590   -1.602370
  O     -1.096570   10.234140   -1.486100
  C     -0.741160    8.175110   -2.738700
  C     -0.358420    6.890590   -2.273290
  C     -0.335050    6.001140   -3.410650
  O     -0.051260    4.824420   -3.525270
  N     -0.711790    6.810680   -4.499200
  C     -0.679680    6.279400   -5.843200
  C     -1.940420    5.485420   -6.171080
  C     -0.953590    8.106560   -4.111180
  C     -1.327510    9.197300   -4.946360
  C     -2.043810    9.136810   -6.094330
  C     -2.294030   10.298950   -6.877670
  O     -1.660440   11.433020   -6.575610
  C     -2.009070   12.382760   -7.465550
  C     -2.915030   11.847190   -8.372910
  C     -3.120160   10.511750   -7.992910
  C     -4.043400    9.594350   -8.674560
  O     -4.657670    9.874960   -9.678310
  O     -4.047880    8.362350   -8.128400
  C     -4.882270    7.410180   -8.775580
  C     -1.462560   13.689490   -7.453930
  C     -0.423910   14.177050   -6.718390
  C      0.106120   15.528980   -6.840860
  C     -0.500530   16.597590   -7.452310
  C      0.067120   17.887760   -7.528970
  N      0.454120   18.963030   -7.607890
  C     -1.777080   16.591050   -8.060570
  N     -2.779090   16.669760   -8.638010
  C      1.380180   15.577270   -6.132420
  C      1.596120   14.321400   -5.500740
  C      0.471750   13.416360   -5.794730
  O      0.340170   12.294000   -5.368200
  C      2.714770   14.063610   -4.761110
  C      3.698080   15.069560   -4.627290
  C      3.495160   16.329620   -5.261280
  C      2.321140   16.568890   -6.012720
  C      4.485720   17.324520   -5.126500
  C      5.621510   17.088840   -4.400800
  C      5.816510   15.849970   -3.771450
  C      4.875440   14.861810   -3.881970
  H      2.208010   -1.433310   -3.546440
  H      1.651520    3.048560   -5.669280
  H      1.391820    1.980250   -7.836220
  H      1.332230   -0.049720   -9.231560
  H      1.635360   -2.270530   -8.209350
  H      1.991950   -2.477560   -5.781180
  H      1.962130    1.972630    0.512620
  H      0.229970    6.349050    2.083060
  H      2.568190    3.773920    5.066450
  H      0.958520    3.028450    5.145330
  H      1.195550    4.699810    5.747310
  H     -0.297000    9.880970    0.701820
  H      0.504020    8.424280    1.340740
  H     -2.520360    8.941240    1.111190
  H     -1.582740    8.887950    2.616760
  H     -1.831860    7.399080    1.668260
  H      0.184230    5.609360   -5.902450
  H     -0.535560    7.101780   -6.546920
  H     -2.016230    4.634510   -5.497590
  H     -1.896430    5.120570   -7.195770
  H     -2.828160    6.104530   -6.048960
  H     -1.012990   10.168120   -4.581550
  H     -2.486440    8.226290   -6.461520
  H     -3.389840   12.352780   -9.188940
  H     -4.785890    6.487910   -8.207090
  H     -4.563970    7.261430   -9.810990
  H     -5.919090    7.757550   -8.772760
  H     -1.920250   14.338550   -8.188850
  H      2.850790   13.099880   -4.293410
  H      2.202830   17.530490   -6.486340
  H      4.331090   18.275920   -5.613350
  H      6.372000   17.860340   -4.298770
  H      6.719740   15.679950   -3.206340
  H      5.018930   13.906100   -3.399790

 Total Charge           Charge          ....    0
 Multiplicity           Mult            ....    1
 Number of Electrons    NEL             ....  504
 Basis Dimension        Dim             .... 1206

ORBITAL ENERGIES
----------------

  NO   OCC          E(Eh)            E(eV)
   0   2.0000     -19.315638      -525.6052
   1   2.0000     -19.306848      -525.3660
   2   2.0000     -19.271963      -524.4168
   3   2.0000     -19.271401      -524.4015
   4   2.0000     -19.216339      -522.9032
   5   2.0000     -19.212442      -522.7971
   6   2.0000     -19.211986      -522.7847
   7   2.0000     -19.208628      -522.6933
   8   2.0000     -19.194559      -522.3105
   9   2.0000     -19.192652      -522.2586
  10   2.0000     -14.460492      -393.4900
  11   2.0000     -14.457718      -393.4145
  12   2.0000     -14.416605      -392.2958
  13   2.0000     -14.411091      -392.1457
  14   2.0000     -14.410543      -392.1308
  15   2.0000     -14.409187      -392.0939
  16   2.0000     -10.415279      -283.4141
  17   2.0000     -10.413191      -283.3573
  18   2.0000     -10.377570      -282.3880
  19   2.0000     -10.377370      -282.3826
  20   2.0000     -10.365485      -282.0592
  21   2.0000     -10.364943      -282.0444
  22   2.0000     -10.364582      -282.0346
  23   2.0000     -10.363019      -281.9921
  24   2.0000     -10.362672      -281.9826
  25   2.0000     -10.354139      -281.7505
  26   2.0000     -10.351600      -281.6814
  27   2.0000     -10.342617      -281.4369
  28   2.0000     -10.339548      -281.3534
  29   2.0000     -10.338461      -281.3238
  30   2.0000     -10.337251      -281.2909
  31   2.0000     -10.331055      -281.1223
  32   2.0000     -10.330503      -281.1073
  33   2.0000     -10.330461      -281.1061
  34   2.0000     -10.322342      -280.8852
  35   2.0000     -10.319355      -280.8039
  36   2.0000     -10.315461      -280.6980
  37   2.0000     -10.313596      -280.6472
  38   2.0000     -10.312796      -280.6255
  39   2.0000     -10.312631      -280.6210
  40   2.0000     -10.311707      -280.5958
  41   2.0000     -10.307587      -280.4837
  42   2.0000     -10.305967      -280.4396
  43   2.0000     -10.305325      -280.4222
  44   2.0000     -10.302046      -280.3329
  45   2.0000     -10.301567      -280.3199
  46   2.0000     -10.301313      -280.3130
  47   2.0000     -10.300734      -280.2972
  48   2.0000     -10.300305      -280.2855
  49   2.0000     -10.299771      -280.2710
  50   2.0000     -10.298670      -280.2411
  51   2.0000     -10.296979      -280.1950
  52   2.0000     -10.293601      -280.1031
  53   2.0000     -10.293452      -280.0991
  54   2.0000     -10.293304      -280.0950
  55   2.0000     -10.293177      -280.0916
  56   2.0000     -10.292853      -280.0828
  57   2.0000     -10.292796      -280.0812
  58   2.0000     -10.290997      -280.0323
  59   2.0000     -10.289583      -279.9938
  60   2.0000     -10.284880      -279.8658
  61   2.0000     -10.283242      -279.8212
  62   2.0000     -10.283072      -279.8166
  63   2.0000     -10.282940      -279.8130
  64   2.0000     -10.282622      -279.8044
  65   2.0000     -10.282501      -279.8011
  66   2.0000     -10.282166      -279.7919
  67   2.0000     -10.282067      -279.7893
  68   2.0000     -10.281648      -279.7779
  69   2.0000     -10.281484      -279.7734
  70   2.0000     -10.270664      -279.4790
  71   2.0000     -10.270139      -279.4647
  72   2.0000     -10.266418      -279.3634
  73   2.0000     -10.264401      -279.3086
  74   2.0000      -1.241261       -33.7764
  75   2.0000      -1.236399       -33.6441
  76   2.0000      -1.206356       -32.8266
  77   2.0000      -1.199251       -32.6333
  78   2.0000      -1.137191       -30.9446
  79   2.0000      -1.130438       -30.7608
  80   2.0000      -1.126956       -30.6660
  81   2.0000      -1.126287       -30.6478
  82   2.0000      -1.112956       -30.2851
  83   2.0000      -1.103827       -30.0367
  84   2.0000      -1.068270       -29.0691
  85   2.0000      -1.059101       -28.8196
  86   2.0000      -1.014250       -27.5991
  87   2.0000      -1.012027       -27.5386
  88   2.0000      -0.993850       -27.0440
  89   2.0000      -0.993427       -27.0325
  90   2.0000      -0.989647       -26.9297
  91   2.0000      -0.988590       -26.9009
  92   2.0000      -0.967872       -26.3371
  93   2.0000      -0.967312       -26.3219
  94   2.0000      -0.938726       -25.5440
  95   2.0000      -0.936901       -25.4944
  96   2.0000      -0.930775       -25.3277
  97   2.0000      -0.928565       -25.2675
  98   2.0000      -0.926571       -25.2133
  99   2.0000      -0.918767       -25.0009
 100   2.0000      -0.911719       -24.8091
 101   2.0000      -0.901414       -24.5287
 102   2.0000      -0.889773       -24.2119
 103   2.0000      -0.881426       -23.9848
 104   2.0000      -0.876924       -23.8623
 105   2.0000      -0.876049       -23.8385
 106   2.0000      -0.874469       -23.7955
 107   2.0000      -0.857363       -23.3300
 108   2.0000      -0.847467       -23.0607
 109   2.0000      -0.833302       -22.6753
 110   2.0000      -0.828699       -22.5501
 111   2.0000      -0.823989       -22.4219
 112   2.0000      -0.823731       -22.4149
 113   2.0000      -0.823562       -22.4102
 114   2.0000      -0.814290       -22.1580
 115   2.0000      -0.804634       -21.8952
 116   2.0000      -0.778015       -21.1709
 117   2.0000      -0.766747       -20.8643
 118   2.0000      -0.763560       -20.7775
 119   2.0000      -0.757470       -20.6118
 120   2.0000      -0.755275       -20.5521
 121   2.0000      -0.742844       -20.2138
 122   2.0000      -0.734291       -19.9811
 123   2.0000      -0.725796       -19.7499
 124   2.0000      -0.717944       -19.5362
 125   2.0000      -0.711636       -19.3646
 126   2.0000      -0.703057       -19.1311
 127   2.0000      -0.699387       -19.0313
 128   2.0000      -0.699126       -19.0242
 129   2.0000      -0.696228       -18.9453
 130   2.0000      -0.693002       -18.8575
 131   2.0000      -0.691271       -18.8104
 132   2.0000      -0.684102       -18.6153
 133   2.0000      -0.679881       -18.5005
 134   2.0000      -0.671583       -18.2747
 135   2.0000      -0.668580       -18.1930
 136   2.0000      -0.656546       -17.8655
 137   2.0000      -0.653997       -17.7962
 138   2.0000      -0.649224       -17.6663
 139   2.0000      -0.644590       -17.5402
 140   2.0000      -0.636541       -17.3212
 141   2.0000      -0.628893       -17.1131
 142   2.0000      -0.626890       -17.0585
 143   2.0000      -0.613507       -16.6944
 144   2.0000      -0.607697       -16.5363
 145   2.0000      -0.602712       -16.4006
 146   2.0000      -0.602272       -16.3886
 147   2.0000      -0.596685       -16.2366
 148   2.0000      -0.594573       -16.1792
 149   2.0000      -0.593238       -16.1428
 150   2.0000      -0.588449       -16.0125
 151   2.0000      -0.586599       -15.9622
 152   2.0000      -0.582057       -15.8386
 153   2.0000      -0.579974       -15.7819
 154   2.0000      -0.578458       -15.7406
 155   2.0000      -0.574328       -15.6283
 156   2.0000      -0.573926       -15.6173
 157   2.0000      -0.571561       -15.5530
 158   2.0000      -0.566320       -15.4104
 159   2.0000      -0.558651       -15.2017
 160   2.0000      -0.557018       -15.1572
 161   2.0000      -0.553375       -15.0581
 162   2.0000      -0.549394       -14.9498
 163   2.0000      -0.547603       -14.9010
 164   2.0000      -0.546135       -14.8611
 165   2.0000      -0.543029       -14.7766
 166   2.0000      -0.542045       -14.7498
 167   2.0000      -0.541923       -14.7465
 168   2.0000      -0.536157       -14.5896
 169   2.0000      -0.535378       -14.5684
 170   2.0000      -0.530815       -14.4442
 171   2.0000      -0.529770       -14.4158
 172   2.0000      -0.529048       -14.3961
 173   2.0000      -0.524974       -14.2853
 174   2.0000      -0.519216       -14.1286
 175   2.0000      -0.516218       -14.0470
 176   2.0000      -0.515523       -14.0281
 177   2.0000      -0.514581       -14.0025
 178   2.0000      -0.513639       -13.9768
 179   2.0000      -0.511158       -13.9093
 180   2.0000      -0.509750       -13.8710
 181   2.0000      -0.508103       -13.8262
 182   2.0000      -0.505845       -13.7647
 183   2.0000      -0.503858       -13.7107
 184   2.0000      -0.503174       -13.6921
 185   2.0000      -0.500277       -13.6132
 186   2.0000      -0.498602       -13.5676
 187   2.0000      -0.493359       -13.4250
 188   2.0000      -0.492273       -13.3954
 189   2.0000      -0.490482       -13.3467
 190   2.0000      -0.488980       -13.3058
 191   2.0000      -0.487088       -13.2544
 192   2.0000      -0.484001       -13.1703
 193   2.0000      -0.480770       -13.0824
 194   2.0000      -0.478620       -13.0239
 195   2.0000      -0.478029       -13.0078
 196   2.0000      -0.476060       -12.9543
 197   2.0000      -0.471179       -12.8214
 198   2.0000      -0.467983       -12.7345
 199   2.0000      -0.461390       -12.5551
 200   2.0000      -0.460895       -12.5416
 201   2.0000      -0.460360       -12.5270
 202   2.0000      -0.459656       -12.5079
 203   2.0000      -0.459438       -12.5020
 204   2.0000      -0.457071       -12.4375
 205   2.0000      -0.448520       -12.2048
 206   2.0000      -0.446726       -12.1560
 207   2.0000      -0.444457       -12.0943
 208   2.0000      -0.442777       -12.0486
 209   2.0000      -0.441253       -12.0071
 210   2.0000      -0.440025       -11.9737
 211   2.0000      -0.438687       -11.9373
 212   2.0000      -0.437251       -11.8982
 213   2.0000      -0.436095       -11.8667
 214   2.0000      -0.434007       -11.8099
 215   2.0000      -0.430791       -11.7224
 216   2.0000      -0.430058       -11.7025
 217   2.0000      -0.428203       -11.6520
 218   2.0000      -0.427474       -11.6322
 219   2.0000      -0.424699       -11.5566
 220   2.0000      -0.423904       -11.5350
 221   2.0000      -0.421694       -11.4749
 222   2.0000      -0.418808       -11.3963
 223   2.0000      -0.415330       -11.3017
 224   2.0000      -0.414445       -11.2776
 225   2.0000      -0.410493       -11.1701
 226   2.0000      -0.405236       -11.0270
 227   2.0000      -0.402995       -10.9660
 228   2.0000      -0.398839       -10.8530
 229   2.0000      -0.390131       -10.6160
 230   2.0000      -0.389309       -10.5936
 231   2.0000      -0.385362       -10.4862
 232   2.0000      -0.383438       -10.4339
 233   2.0000      -0.380636       -10.3576
 234   2.0000      -0.374188       -10.1822
 235   2.0000      -0.369736       -10.0610
 236   2.0000      -0.369666       -10.0591
 237   2.0000      -0.366222        -9.9654
 238   2.0000      -0.359788        -9.7903
 239   2.0000      -0.349882        -9.5208
 240   2.0000      -0.345859        -9.4113
 241   2.0000      -0.335446        -9.1280
 242   2.0000      -0.333108        -9.0643
 243   2.0000      -0.327795        -8.9197
 244   2.0000      -0.319867        -8.7040
 245   2.0000      -0.313331        -8.5262
 246   2.0000      -0.312517        -8.5040
 247   2.0000      -0.300446        -8.1756
 248   2.0000      -0.293488        -7.9862
 249   2.0000      -0.285592        -7.7713
 250   2.0000      -0.283210        -7.7065
 251   2.0000      -0.244081        -6.6418
 252   0.0000      -0.105262        -2.8643
 253   0.0000      -0.090805        -2.4709
 254   0.0000      -0.071244        -1.9387
 255   0.0000      -0.051103        -1.3906
 256   0.0000      -0.048694        -1.3250

MULLIKEN ATOMIC CHARGES
-----------------------
   0 C :    0.312400
   1 C :   -0.296187
   2 C :   -0.157884
   3 N :    0.126661
   4 C :   -0.214442
   5 N :    0.159022
   6 C :    0.041233
   7 C :    0.010731
   8 C :   -0.080752
   9 C :    0.088578
  10 C :    0.098352
  11 C :   -0.070450
  12 C :   -0.017243
  13 C :    0.033865
  14 C :    0.032667
  15 C :   -0.013091
  16 C :    0.132797
  17 O :   -0.134955
  18 C :   -0.086383
  19 C :   -0.016669
  20 C :    0.122118
  21 O :   -0.176247
  22 C :    0.155796
  23 C :   -0.091173
  24 C :    0.039677
  25 C :    0.158570
  26 O :   -0.183133
  27 O :   -0.301468
  28 C :    0.190521
  29 C :    0.151859
  30 N :   -0.273270
  31 C :    0.098097
  32 C :   -0.008528
  33 C :    0.150399
  34 O :   -0.178163
  35 C :   -0.031633
  36 C :   -0.027520
  37 C :    0.153233
  38 O :   -0.213016
  39 N :   -0.261475
  40 C :    0.111167
  41 C :   -0.004402
  42 C :    0.114288
  43 C :   -0.008042
  44 C :   -0.047090
  45 C :    0.146640
  46 O :   -0.145061
  47 C :    0.162190
  48 C :   -0.037243
  49 C :    0.001063
  50 C :    0.175424
  51 O :   -0.197179
  52 O :   -0.315459
  53 C :    0.189687
  54 C :   -0.036400
  55 C :   -0.066589
  56 C :    0.308114
  57 C :   -0.347072
  58 C :   -0.180277
  59 N :    0.143593
  60 C :   -0.180954
  61 N :    0.139475
  62 C :    0.050521
  63 C :   -0.009087
  64 C :    0.142764
  65 O :   -0.121987
  66 C :   -0.077383
  67 C :    0.095884
  68 C :    0.094873
  69 C :   -0.080597
  70 C :   -0.017839
  71 C :    0.034052
  72 C :    0.036847
  73 C :   -0.013657
  74 H :   -0.012449
  75 H :   -0.014812
  76 H :   -0.017693
  77 H :   -0.006778
  78 H :   -0.006438
  79 H :   -0.019145
  80 H :    0.041866
  81 H :   -0.003505
  82 H :    0.038277
  83 H :    0.036487
  84 H :    0.037059
  85 H :    0.047658
  86 H :    0.029112
  87 H :    0.034787
  88 H :    0.025352
  89 H :    0.020985
  90 H :    0.038606
  91 H :    0.030548
  92 H :    0.032729
  93 H :    0.018228
  94 H :    0.017643
  95 H :    0.053708
  96 H :    0.006060
  97 H :    0.019212
  98 H :    0.034630
  99 H :    0.037187
 100 H :    0.038548
 101 H :    0.018175
 102 H :   -0.011763
 103 H :   -0.009599
 104 H :   -0.011166
 105 H :   -0.004196
 106 H :   -0.006091
 107 H :   -0.016380
Sum of atomic charges:   -0.0000000

LOEWDIN ATOMIC CHARGES
----------------------
   0 C :    0.072676
   1 C :   -0.114794
   2 C :   -0.005723
   3 N :   -0.067664
   4 C :   -0.020075
   5 N :   -0.062806
   6 C :   -0.013488
   7 C :   -0.057823
   8 C :    0.031459
   9 C :   -0.010591
  10 C :   -0.004570
  11 C :    0.015863
  12 C :   -0.008810
  13 C :   -0.014751
  14 C :   -0.016433
  15 C :   -0.008984
  16 C :    0.085173
  17 O :   -0.133086
  18 C :   -0.054953
  19 C :    0.033364
  20 C :    0.062031
  21 O :    0.064338
  22 C :    0.039260
  23 C :   -0.018198
  24 C :   -0.077800
  25 C :    0.082297
  26 O :   -0.156061
  27 O :   -0.089798
  28 C :    0.083224
  29 C :    0.064221
  30 N :   -0.001353
  31 C :    0.035027
  32 C :   -0.064872
  33 C :    0.084040
  34 O :   -0.183689
  35 C :   -0.112552
  36 C :   -0.112243
  37 C :    0.081878
  38 O :   -0.192930
  39 N :    0.008264
  40 C :    0.038510
  41 C :   -0.063987
  42 C :    0.075308
  43 C :    0.011594
  44 C :   -0.031714
  45 C :    0.079583
  46 O :    0.062121
  47 C :    0.016280
  48 C :    0.014908
  49 C :   -0.109298
  50 C :    0.092168
  51 O :   -0.172043
  52 O :   -0.097742
  53 C :    0.082478
  54 C :    0.046923
  55 C :   -0.084195
  56 C :    0.076715
  57 C :   -0.140773
  58 C :   -0.017834
  59 N :   -0.053488
  60 C :   -0.020271
  61 N :   -0.055939
  62 C :   -0.027449
  63 C :   -0.054721
  64 C :    0.077575
  65 O :   -0.130690
  66 C :    0.032595
  67 C :   -0.007392
  68 C :   -0.006881
  69 C :    0.019333
  70 C :   -0.005645
  71 C :   -0.014895
  72 C :   -0.012360
  73 C :   -0.009104
  74 H :    0.038870
  75 H :    0.037541
  76 H :    0.031748
  77 H :    0.031864
  78 H :    0.032024
  79 H :    0.031176
  80 H :    0.057424
  81 H :    0.038347
  82 H :    0.026467
  83 H :    0.025682
  84 H :    0.027275
  85 H :    0.039768
  86 H :    0.024518
  87 H :    0.035058
  88 H :    0.031717
  89 H :    0.021303
  90 H :    0.032552
  91 H :    0.028762
  92 H :    0.032290
  93 H :    0.028402
  94 H :    0.017984
  95 H :    0.055981
  96 H :    0.035494
  97 H :    0.047065
  98 H :    0.024718
  99 H :    0.025534
 100 H :    0.026625
 101 H :    0.054890
 102 H :    0.039613
 103 H :    0.038397
 104 H :    0.034165
 105 H :    0.033170
 106 H :    0.032370
 107 H :    0.032465

  Mayer bond orders larger than 0.100000
B(  0-C ,  1-C ) :   1.6696 B(  0-C ,  6-C ) :   1.0059 B(  0-C , 18-C ) :   1.0270
B(  1-C ,  2-C ) :   1.1346 B(  1-C ,  4-C ) :   1.1711 B(  2-C ,  3-N ) :   2.9230
B(  4-C ,  5-N ) :   2.9925 B(  6-C ,  7-C ) :   1.2075 B(  6-C , 11-C ) :   1.4671
B(  7-C ,  8-C ) :   1.4696 B(  7-C , 16-C ) :   0.9223 B(  8-C ,  9-C ) :   1.1907
B(  8-C , 74-H ) :   1.0155 B(  9-C , 10-C ) :   1.2559 B(  9-C , 15-C ) :   1.2432
B( 10-C , 11-C ) :   1.2012 B( 10-C , 12-C ) :   1.2406 B( 11-C , 75-H ) :   0.9934
B( 12-C , 13-C ) :   1.4891 B( 12-C , 76-H ) :   0.9979 B( 13-C , 14-C ) :   1.2594
B( 13-C , 77-H ) :   0.9888 B( 14-C , 15-C ) :   1.4912 B( 14-C , 78-H ) :   0.9891
B( 15-C , 79-H ) :   0.9980 B( 16-C , 17-O ) :   2.2729 B( 16-C , 18-C ) :   0.9233
B( 18-C , 19-C ) :   1.6225 B( 19-C , 20-C ) :   1.1424 B( 19-C , 80-H ) :   0.9325
B( 20-C , 21-O ) :   1.1689 B( 20-C , 22-C ) :   0.1138 B( 20-C , 24-C ) :   1.3929
B( 21-O , 22-C ) :   1.1655 B( 22-C , 23-C ) :   1.3899 B( 22-C , 29-C ) :   1.0347
B( 23-C , 24-C ) :   1.2378 B( 23-C , 81-H ) :   1.0201 B( 24-C , 25-C ) :   0.9151
B( 25-C , 26-O ) :   2.1061 B( 25-C , 27-O ) :   1.2597 B( 27-O , 28-C ) :   0.9176
B( 28-C , 82-H ) :   0.9757 B( 28-C , 83-H ) :   0.9764 B( 28-C , 84-H ) :   0.9809
B( 29-C , 30-N ) :   1.2149 B( 29-C , 36-C ) :   1.3565 B( 30-N , 31-C ) :   0.9419
B( 30-N , 33-C ) :   1.0049 B( 31-C , 32-C ) :   1.1159 B( 31-C , 85-H ) :   0.9255
B( 31-C , 86-H ) :   0.9500 B( 32-C , 87-H ) :   0.9626 B( 32-C , 88-H ) :   0.9687
B( 32-C , 89-H ) :   0.9679 B( 33-C , 34-O ) :   2.1569 B( 33-C , 35-C ) :   0.9782
B( 35-C , 36-C ) :   1.2196 B( 35-C , 42-C ) :   1.3597 B( 36-C , 37-C ) :   0.9819
B( 37-C , 38-O ) :   2.0384 B( 37-C , 39-N ) :   1.0544 B( 39-N , 40-C ) :   0.9344
B( 39-N , 42-C ) :   1.1904 B( 40-C , 41-C ) :   1.1146 B( 40-C , 90-H ) :   0.9297
B( 40-C , 91-H ) :   0.9464 B( 41-C , 92-H ) :   0.9586 B( 41-C , 93-H ) :   0.9687
B( 41-C , 94-H ) :   0.9606 B( 42-C , 43-C ) :   1.1172 B( 43-C , 44-C ) :   1.6073
B( 43-C , 95-H ) :   0.9530 B( 44-C , 45-C ) :   1.1723 B( 44-C , 96-H ) :   0.9520
B( 45-C , 46-O ) :   1.2325 B( 45-C , 49-C ) :   1.3084 B( 46-O , 47-C ) :   1.1295
B( 47-C , 48-C ) :   1.3661 B( 47-C , 54-C ) :   1.1894 B( 48-C , 49-C ) :   1.2782
B( 48-C , 97-H ) :   1.0214 B( 49-C , 50-C ) :   0.9354 B( 50-C , 51-O ) :   2.1505
B( 50-C , 52-O ) :   1.2065 B( 52-O , 53-C ) :   0.9162 B( 53-C , 98-H ) :   0.9794
B( 53-C , 99-H ) :   0.9765 B( 53-C ,100-H ) :   0.9756 B( 54-C , 55-C ) :   1.5635
B( 54-C ,101-H ) :   0.9363 B( 55-C , 56-C ) :   1.0636 B( 55-C , 64-C ) :   0.9166
B( 56-C , 57-C ) :   1.6273 B( 56-C , 62-C ) :   0.9940 B( 57-C , 58-C ) :   1.1454
B( 57-C , 60-C ) :   1.1373 B( 58-C , 59-N ) :   2.9661 B( 60-C , 61-N ) :   2.9656
B( 62-C , 63-C ) :   1.2175 B( 62-C , 69-C ) :   1.4440 B( 63-C , 64-C ) :   0.9424
B( 63-C , 66-C ) :   1.4751 B( 64-C , 65-O ) :   2.2458 B( 66-C , 67-C ) :   1.1786
B( 66-C ,102-H ) :   1.0153 B( 67-C , 68-C ) :   1.2573 B( 67-C , 73-C ) :   1.2456
B( 68-C , 69-C ) :   1.2105 B( 68-C , 70-C ) :   1.2377 B( 69-C ,103-H ) :   0.9892
B( 70-C , 71-C ) :   1.4925 B( 70-C ,104-H ) :   0.9964 B( 71-C , 72-C ) :   1.2595
B( 71-C ,105-H ) :   0.9875 B( 72-C , 73-C ) :   1.4897 B( 72-C ,106-H ) :   0.9881
B( 73-C ,107-H ) :   0.9971

-----------------------------------------------------------------------------
         ABSORPTION SPECTRUM VIA TRANSITION ELECTRIC DIPOLE MOMENTS
-----------------------------------------------------------------------------
State   Energy  Wavelength   fosc         T2         TX        TY        TZ
        (cm-1)    (nm)                  (au**2)     (au)      (au)      (au)
-----------------------------------------------------------------------------
   0   14048.9    711.8   0.491372233  11.51446   0.86361  -2.86284   1.60399
   1   18176.5    550.2   0.267352708   4.84229   0.72809   1.20709  -1.68971
   2   22331.2    447.8   0.140444758   2.07047   1.21590   0.41562   0.64754
   3   23307.8    429.0   0.312946529   4.42022   0.23881   1.34199   1.60071
   4   24110.6    414.8   0.302718310   4.13339  -0.50707  -1.86758   0.62323
   5   25749.1    388.4   0.151779981   1.94057  -0.89880  -1.06412   0.01909
   6   25912.4    385.9   0.003959524   0.05030   0.14974  -0.01684   0.16613
   7   26004.6    384.5   0.099819423   1.26369  -0.42747   0.67806   0.78816
   8   26519.6    377.1   0.007864996   0.09764   0.03503   0.05627  -0.30536
   9   27119.2    368.7   0.037756961   0.45835  -0.06426   0.26306   0.62050
  10   27448.9    364.3   0.163570302   1.96180  -0.48752   1.07229   0.75783
  11   27790.3    359.8   0.016065149   0.19031  -0.11041  -0.32559  -0.26854
  12   27870.1    358.8   0.203310595   2.40158   0.24074   0.83281   1.28454
  13   28912.9    345.9   0.026431863   0.30096   0.24610   0.35768  -0.33535
  14   28976.3    345.1   0.087835783   0.99794  -0.79869  -0.02001  -0.59969
  15   29199.4    342.5   0.142468710   1.60628   0.14969   1.25765  -0.04669
  16   29355.0    340.7   0.056171093   0.62995   0.63757  -0.09332   0.46341
  17   31046.8    322.1   0.016560065   0.17560   0.12763  -0.28627  -0.27813
  18   31353.0    318.9   0.086051787   0.90356  -0.19819   0.87948   0.30132
  19   32179.6    310.8   0.274279672   2.80601   1.41876  -0.03445   0.88992
  20   32315.4    309.5   0.135950874   1.38500  -1.00910   0.12401  -0.59273
  21   32381.3    308.8   0.063252489   0.64307   0.38500  -0.42752  -0.55864
  22   32543.4    307.3   0.094754187   0.95854   0.08538  -0.14610   0.96432
  23   32888.5    304.1   0.581694698   5.82272   0.16269   2.17096   1.04076
  24   33238.7    300.9   0.047729448   0.47274   0.13699   0.33761   0.58309
  25   33348.6    299.9   0.256570876   2.53283  -1.37890   0.03851  -0.79370
  26   34090.8    293.3   0.076669313   0.74039  -0.06224  -0.61480  -0.59877
  27   34546.0    289.5   0.017252625   0.16441   0.07615  -0.38398  -0.10570
  28   34706.2    288.1   0.007057932   0.06695   0.06268   0.10270   0.22907
  29   35002.7    285.7   0.011297376   0.10626  -0.04182  -0.31208  -0.08433
  30   35449.0    282.1   0.005487041   0.05096  -0.01835  -0.15004   0.16765
  31   35628.1    280.7   0.006817160   0.06299   0.16167  -0.01565   0.19134
  32   36462.2    274.3   0.272541729   2.46074  -0.40777   1.28886   0.79580
  33   36584.5    273.3   0.481912316   4.33657   1.47535  -0.06736   1.46812
  34   36746.9    272.1   0.123013315   1.10206  -0.65498  -0.18419  -0.79946
  35   37078.0    269.7   0.195430448   1.73521   0.89617  -0.41479   0.87180
  36   37176.9    269.0   0.151201083   1.33893   0.60975  -0.43610   0.88145
  37   37690.4    265.3   0.005920696   0.05172  -0.17425   0.14296   0.03023
  38   38220.9    261.6   0.156345692   1.34667   0.65250   0.04116   0.95876
  39   38384.9    260.5   0.019476655   0.16704   0.00395   0.40868   0.00225
  40   38668.0    258.6   0.009087860   0.07737  -0.15491   0.23103   0.00014
  41   39022.2    256.3   0.006417679   0.05414  -0.10179  -0.19806   0.06748
  42   39405.7    253.8   0.013500881   0.11279  -0.09961  -0.27457   0.16577
  43   39730.2    251.7   0.129673495   1.07450  -0.41827  -0.93382  -0.16592
  44   39889.8    250.7   0.128366184   1.05941   0.21300   0.90240  -0.44690

FINAL SINGLE POINT ENERGY     -3307.266993191039

DIPOLE MOMENT
-------------
                                X             Y             Z
Electronic contribution:      8.74358      18.32983      -8.08182
Nuclear contribution   :     -8.69448     -21.00676       9.33717
                        -----------------------------------------
Total Dipole Moment    :      0.04910      -2.67693       1.25535
                        -----------------------------------------
Magnitude (a.u.)       :      2.95708
Magnitude (Debye)      :      7.51629

Rotational constants in cm-1:     0.001203     0.000464     0.000398
Rotational constants in MHz :    36.054942    13.898062    11.939819

                             ****ORCA TERMINATED NORMALLY****
TOTAL RUN TIME: 0 days 0 hours 10 minutes 23 seconds 776 msec
