                         Program Version 4.2.0 -  RELEASE  -
|  1> # ORCA input file
|  2> # SCF done       -212.679094597814          0.000336684199
|  3> ! CAM-B3LYP def2-SVP def2/J RIJCOSX Grid4 TightSCF
|  4> %maxcore 5000
|  5> %tddft
|  6>     Mode sTDDFT
|  7>     Ethresh 5.0
|  8>     maxcore 5000
|  9> end
| 10>
| 11> %pal
| 12>   nprocs 6
| 13>   end
| 14> * xyz 0 1
| 15>    C        1.34102        -0.48624        -0.55587
| 16>    C        0.84404        -1.65244        -0.04246
| 17>    C        1.55038        -2.87490        -0.02921
| 18>    N        2.07571        -3.89382         0.02001
| 19>    C       -0.44313        -1.80698         0.51701
| 20>    N       -1.48119        -2.01121         0.96187
| 21>    C        2.62030        -0.32185        -1.23007
| 22>    C        2.71611         1.01402        -1.71719
| 23>    C        3.80465         1.45151        -2.41706
| 24>    C        4.86417         0.55421        -2.67324
| 25>    C        4.78063        -0.78172        -2.18239
| 26>    C        3.64507        -1.20416        -1.45536
| 27>    C        5.84584        -1.66828        -2.44227
| 28>    C        6.93901        -1.25841        -3.15583
| 29>    C        7.01913         0.05607        -3.64041
| 30>    C        6.00426         0.94317        -3.40405
| 31>    C        1.50859         1.76363        -1.35313
| 32>    O        1.30014         2.94478        -1.52001
| 33>    C        0.64133         0.79073        -0.61588
| 34>    C       -0.50672         1.12151         0.01558
| 35>    C       -1.24947         2.33534        -0.21562
| 36>    C       -1.49759         2.88605        -1.46462
| 37>    C       -1.08416         2.35118        -2.68880
| 38>    N       -0.76181         1.88202        -3.68494
| 39>    S       -2.53527         4.25859        -1.39659
| 40>    C       -2.61351         4.16553         0.33755
| 41>    C       -1.91038         3.06425         0.81227
| 42>    C       -1.86756         2.59175         2.13311
| 43>    N       -1.81476         2.12476         3.18014
| 44>    C       -3.43971         5.13195         0.99453
| 45>    N       -3.34235         5.62650         2.27051
| 46>    C       -2.22790         5.53548         3.18626
| 47>    C       -0.94242         6.08904         2.57984
| 48>    C       -4.41215         6.51009         2.55847
| 49>    O       -4.53384         7.07364         3.62618
| 50>    C       -5.20610         6.53186         1.35437
| 51>    C       -4.55601         5.70505         0.40364
| 52>    C       -5.35074         5.69123        -0.80256
| 53>    O       -5.17945         5.14290        -1.87305
| 54>    N       -6.45440         6.50195        -0.49693
| 55>    C       -7.46577         6.76569        -1.49373
| 56>    C       -7.20175         8.06975        -2.24068
| 57>    C       -6.37864         7.01664         0.77781
| 58>    C       -7.37547         7.84743         1.35538
| 59>    C       -7.31010         8.24663         2.65043
| 60>    C       -8.29470         8.99706         3.35402
| 61>    S       -8.41301         8.72941         5.06200
| 62>    C       -9.78936         9.78289         5.18059
| 63>    C      -10.11386        10.31748         3.92326
| 64>    C       -9.26097         9.89380         2.90296
| 65>    C       -9.30921        10.52667         1.54562
| 66>    N       -7.93568        10.77726         1.03463
| 67>    O       -7.73802        10.53794        -0.13255
| 68>    O       -7.13578        11.24741         1.79980
| 69>    C       -9.97517        11.90365         1.66227
| 70>    C      -11.36987        11.74535         2.24925
| 71>    C      -11.33353        11.15494         3.65990
| 72>    N      -12.48010        10.18910         3.82341
| 73>    O      -12.72217         9.46167         2.89510
| 74>    O      -13.03788        10.17921         4.88934
| 75>    C      -10.46428        10.13810         6.36659
| 76>    C      -10.28829         9.69996         7.64649
| 77>    C      -11.03717        10.17323         8.79936
| 78>    C      -11.85067        11.27510         8.84918
| 79>    C      -12.54355        11.68982        10.00636
| 80>    N      -13.13190        12.07589        10.91297
| 81>    C      -12.06985        12.17175         7.78212
| 82>    N      -12.25897        12.95752         6.96529
| 83>    C      -10.70479         9.30294         9.92049
| 84>    C       -9.71169         8.37168         9.49558
| 85>    C       -9.39767         8.61033         8.08120
| 86>    O       -8.57621         8.02422         7.40039
| 87>    C       -9.18753         7.43696        10.34153
| 88>    C       -9.64352         7.38644        11.67765
| 89>    C      -10.64187         8.30764        12.10909
| 90>    C      -11.16507         9.26559        11.21010
| 91>    C      -11.09019         8.24621        13.44403
| 92>    C      -10.57661         7.32203        14.31313
| 93>    C       -9.59332         6.41657        13.88756
| 94>    C       -9.13685         6.44768        12.59751
| 95>    H        3.84900         2.46796        -2.77861
| 96>    H        3.61380        -2.21962        -1.09353
| 97>    H        5.77879        -2.67960        -2.06911
| 98>    H        7.74828        -1.94552        -3.35215
| 99>    H        7.88906         0.36176        -4.20206
|100>    H        6.05988         1.95611        -3.77468
|101>    H       -0.93166         0.45822         0.75952
|102>    H       -2.08681         4.50597         3.51795
|103>    H       -2.52254         6.13841         4.05049
|104>    H       -0.61110         5.49086         1.73382
|105>    H       -0.15802         6.08078         3.33107
|106>    H       -1.09226         7.11318         2.24484
|107>    H       -8.45113         6.77343        -1.02119
|108>    H       -7.42062         5.92778        -2.19557
|109>    H       -7.21474         8.92269        -1.56684
|110>    H       -7.96296         8.21499        -3.00198
|111>    H       -6.23064         8.02462        -2.72708
|112>    H       -8.21928         8.10478         0.73280
|113>    H       -6.47997         7.90489         3.25631
|114>    H       -9.82984         9.91275         0.80263
|115>    H      -10.04198        12.36900         0.67769
|116>    H       -9.36227        12.53654         2.30861
|117>    H      -11.94573        11.07455         1.60588
|118>    H      -11.87062        12.71301         2.27086
|119>    H      -11.46581        11.92241         4.42744
|120>    H      -11.25183        10.86514         6.23176
|121>    H       -8.43360         6.74571         9.99537
|122>    H      -11.92230         9.94597        11.56612
|123>    H      -11.84662         8.94594        13.76765
|124>    H      -10.92549         7.28416        15.33410
|125>    H       -9.19928         5.69425        14.58657
|126>    H       -8.38012         5.75299        12.26381
|127> *
|128>
|129>                          ****END OF INPUT****

CARTESIAN COORDINATES (ANGSTROEM)
---------------------------------
  C      1.341020   -0.486240   -0.555870
  C      0.844040   -1.652440   -0.042460
  C      1.550380   -2.874900   -0.029210
  N      2.075710   -3.893820    0.020010
  C     -0.443130   -1.806980    0.517010
  N     -1.481190   -2.011210    0.961870
  C      2.620300   -0.321850   -1.230070
  C      2.716110    1.014020   -1.717190
  C      3.804650    1.451510   -2.417060
  C      4.864170    0.554210   -2.673240
  C      4.780630   -0.781720   -2.182390
  C      3.645070   -1.204160   -1.455360
  C      5.845840   -1.668280   -2.442270
  C      6.939010   -1.258410   -3.155830
  C      7.019130    0.056070   -3.640410
  C      6.004260    0.943170   -3.404050
  C      1.508590    1.763630   -1.353130
  O      1.300140    2.944780   -1.520010
  C      0.641330    0.790730   -0.615880
  C     -0.506720    1.121510    0.015580
  C     -1.249470    2.335340   -0.215620
  C     -1.497590    2.886050   -1.464620
  C     -1.084160    2.351180   -2.688800
  N     -0.761810    1.882020   -3.684940
  S     -2.535270    4.258590   -1.396590
  C     -2.613510    4.165530    0.337550
  C     -1.910380    3.064250    0.812270
  C     -1.867560    2.591750    2.133110
  N     -1.814760    2.124760    3.180140
  C     -3.439710    5.131950    0.994530
  N     -3.342350    5.626500    2.270510
  C     -2.227900    5.535480    3.186260
  C     -0.942420    6.089040    2.579840
  C     -4.412150    6.510090    2.558470
  O     -4.533840    7.073640    3.626180
  C     -5.206100    6.531860    1.354370
  C     -4.556010    5.705050    0.403640
  C     -5.350740    5.691230   -0.802560
  O     -5.179450    5.142900   -1.873050
  N     -6.454400    6.501950   -0.496930
  C     -7.465770    6.765690   -1.493730
  C     -7.201750    8.069750   -2.240680
  C     -6.378640    7.016640    0.777810
  C     -7.375470    7.847430    1.355380
  C     -7.310100    8.246630    2.650430
  C     -8.294700    8.997060    3.354020
  S     -8.413010    8.729410    5.062000
  C     -9.789360    9.782890    5.180590
  C    -10.113860   10.317480    3.923260
  C     -9.260970    9.893800    2.902960
  C     -9.309210   10.526670    1.545620
  N     -7.935680   10.777260    1.034630
  O     -7.738020   10.537940   -0.132550
  O     -7.135780   11.247410    1.799800
  C     -9.975170   11.903650    1.662270
  C    -11.369870   11.745350    2.249250
  C    -11.333530   11.154940    3.659900
  N    -12.480100   10.189100    3.823410
  O    -12.722170    9.461670    2.895100
  O    -13.037880   10.179210    4.889340
  C    -10.464280   10.138100    6.366590
  C    -10.288290    9.699960    7.646490
  C    -11.037170   10.173230    8.799360
  C    -11.850670   11.275100    8.849180
  C    -12.543550   11.689820   10.006360
  N    -13.131900   12.075890   10.912970
  C    -12.069850   12.171750    7.782120
  N    -12.258970   12.957520    6.965290
  C    -10.704790    9.302940    9.920490
  C     -9.711690    8.371680    9.495580
  C     -9.397670    8.610330    8.081200
  O     -8.576210    8.024220    7.400390
  C     -9.187530    7.436960   10.341530
  C     -9.643520    7.386440   11.677650
  C    -10.641870    8.307640   12.109090
  C    -11.165070    9.265590   11.210100
  C    -11.090190    8.246210   13.444030
  C    -10.576610    7.322030   14.313130
  C     -9.593320    6.416570   13.887560
  C     -9.136850    6.447680   12.597510
  H      3.849000    2.467960   -2.778610
  H      3.613800   -2.219620   -1.093530
  H      5.778790   -2.679600   -2.069110
  H      7.748280   -1.945520   -3.352150
  H      7.889060    0.361760   -4.202060
  H      6.059880    1.956110   -3.774680
  H     -0.931660    0.458220    0.759520
  H     -2.086810    4.505970    3.517950
  H     -2.522540    6.138410    4.050490
  H     -0.611100    5.490860    1.733820
  H     -0.158020    6.080780    3.331070
  H     -1.092260    7.113180    2.244840
  H     -8.451130    6.773430   -1.021190
  H     -7.420620    5.927780   -2.195570
  H     -7.214740    8.922690   -1.566840
  H     -7.962960    8.214990   -3.001980
  H     -6.230640    8.024620   -2.727080
  H     -8.219280    8.104780    0.732800
  H     -6.479970    7.904890    3.256310
  H     -9.829840    9.912750    0.802630
  H    -10.041980   12.369000    0.677690
  H     -9.362270   12.536540    2.308610
  H    -11.945730   11.074550    1.605880
  H    -11.870620   12.713010    2.270860
  H    -11.465810   11.922410    4.427440
  H    -11.251830   10.865140    6.231760
  H     -8.433600    6.745710    9.995370
  H    -11.922300    9.945970   11.566120
  H    -11.846620    8.945940   13.767650
  H    -10.925490    7.284160   15.334100
  H     -9.199280    5.694250   14.586570
  H     -8.380120    5.752990   12.263810

 Total Charge           Charge          ....    0
 Multiplicity           Mult            ....    1
 Number of Electrons    NEL             ....  558
 Basis Dimension        Dim             .... 1288

ORBITAL ENERGIES
----------------

  NO   OCC          E(Eh)            E(eV)
   0   2.0000     -89.001563     -2421.8556
   1   2.0000     -88.982932     -2421.3487
   2   2.0000     -19.265973      -524.2538
   3   2.0000     -19.265772      -524.2483
   4   2.0000     -19.264465      -524.2127
   5   2.0000     -19.264244      -524.2067
   6   2.0000     -19.228475      -523.2334
   7   2.0000     -19.223650      -523.1021
   8   2.0000     -19.205299      -522.6027
   9   2.0000     -19.201843      -522.5087
  10   2.0000     -14.663121      -399.0038
  11   2.0000     -14.660784      -398.9402
  12   2.0000     -14.467075      -393.6691
  13   2.0000     -14.466661      -393.6579
  14   2.0000     -14.426636      -392.5687
  15   2.0000     -14.424809      -392.5190
  16   2.0000     -14.421097      -392.4180
  17   2.0000     -14.420788      -392.4096
  18   2.0000     -14.420692      -392.4070
  19   2.0000     -14.418934      -392.3592
  20   2.0000     -10.388820      -282.6942
  21   2.0000     -10.384913      -282.5878
  22   2.0000     -10.376178      -282.3502
  23   2.0000     -10.375292      -282.3260
  24   2.0000     -10.361031      -281.9380
  25   2.0000     -10.357697      -281.8473
  26   2.0000     -10.356768      -281.8220
  27   2.0000     -10.356553      -281.8161
  28   2.0000     -10.356186      -281.8061
  29   2.0000     -10.354030      -281.7475
  30   2.0000     -10.351190      -281.6702
  31   2.0000     -10.347845      -281.5792
  32   2.0000     -10.346796      -281.5506
  33   2.0000     -10.346610      -281.5456
  34   2.0000     -10.341249      -281.3997
  35   2.0000     -10.333528      -281.1896
  36   2.0000     -10.331272      -281.1282
  37   2.0000     -10.329941      -281.0920
  38   2.0000     -10.328947      -281.0649
  39   2.0000     -10.328926      -281.0644
  40   2.0000     -10.328231      -281.0455
  41   2.0000     -10.326697      -281.0037
  42   2.0000     -10.323844      -280.9261
  43   2.0000     -10.322914      -280.9008
  44   2.0000     -10.322301      -280.8841
  45   2.0000     -10.322149      -280.8799
  46   2.0000     -10.321674      -280.8670
  47   2.0000     -10.316053      -280.7141
  48   2.0000     -10.314821      -280.6806
  49   2.0000     -10.314461      -280.6707
  50   2.0000     -10.312255      -280.6107
  51   2.0000     -10.311706      -280.5958
  52   2.0000     -10.310224      -280.5555
  53   2.0000     -10.308194      -280.5002
  54   2.0000     -10.307786      -280.4891
  55   2.0000     -10.307156      -280.4720
  56   2.0000     -10.306850      -280.4637
  57   2.0000     -10.304663      -280.4041
  58   2.0000     -10.302054      -280.3331
  59   2.0000     -10.302003      -280.3318
  60   2.0000     -10.301899      -280.3289
  61   2.0000     -10.301759      -280.3251
  62   2.0000     -10.301599      -280.3208
  63   2.0000     -10.301435      -280.3163
  64   2.0000     -10.301352      -280.3140
  65   2.0000     -10.301192      -280.3097
  66   2.0000     -10.294129      -280.1175
  67   2.0000     -10.293615      -280.1035
  68   2.0000     -10.290059      -280.0067
  69   2.0000     -10.290034      -280.0061
  70   2.0000     -10.289595      -279.9941
  71   2.0000     -10.289545      -279.9928
  72   2.0000     -10.289375      -279.9881
  73   2.0000     -10.289351      -279.9875
  74   2.0000     -10.288923      -279.9758
  75   2.0000     -10.288825      -279.9732
  76   2.0000     -10.279298      -279.7139
  77   2.0000     -10.274278      -279.5773
  78   2.0000     -10.265894      -279.3492
  79   2.0000     -10.259932      -279.1869
  80   2.0000      -8.095823      -220.2985
  81   2.0000      -8.076206      -219.7647
  82   2.0000      -6.065105      -165.0399
  83   2.0000      -6.060544      -164.9158
  84   2.0000      -6.058221      -164.8526
  85   2.0000      -6.045393      -164.5035
  86   2.0000      -6.040895      -164.3811
  87   2.0000      -6.038773      -164.3234
  88   2.0000      -1.347199       -36.6592
  89   2.0000      -1.345950       -36.6252
  90   2.0000      -1.167902       -31.7802
  91   2.0000      -1.167595       -31.7719
  92   2.0000      -1.147196       -31.2168
  93   2.0000      -1.143938       -31.1281
  94   2.0000      -1.139918       -31.0188
  95   2.0000      -1.139515       -31.0078
  96   2.0000      -1.077706       -29.3259
  97   2.0000      -1.069681       -29.1075
  98   2.0000      -1.037515       -28.2322
  99   2.0000      -1.030266       -28.0350
 100   2.0000      -1.024240       -27.8710
 101   2.0000      -1.023657       -27.8551
 102   2.0000      -1.009513       -27.4703
 103   2.0000      -1.004995       -27.3473
 104   2.0000      -1.003445       -27.3051
 105   2.0000      -0.999427       -27.1958
 106   2.0000      -0.999032       -27.1850
 107   2.0000      -0.997356       -27.1394
 108   2.0000      -0.977964       -26.6118
 109   2.0000      -0.976644       -26.5758
 110   2.0000      -0.972917       -26.4744
 111   2.0000      -0.955028       -25.9876
 112   2.0000      -0.941386       -25.6164
 113   2.0000      -0.934121       -25.4187
 114   2.0000      -0.930445       -25.3187
 115   2.0000      -0.923893       -25.1404
 116   2.0000      -0.920735       -25.0545
 117   2.0000      -0.908366       -24.7179
 118   2.0000      -0.900736       -24.5103
 119   2.0000      -0.894802       -24.3488
 120   2.0000      -0.886575       -24.1249
 121   2.0000      -0.885251       -24.0889
 122   2.0000      -0.883733       -24.0476
 123   2.0000      -0.877464       -23.8770
 124   2.0000      -0.868100       -23.6222
 125   2.0000      -0.859905       -23.3992
 126   2.0000      -0.847043       -23.0492
 127   2.0000      -0.838986       -22.8300
 128   2.0000      -0.832649       -22.6575
 129   2.0000      -0.832630       -22.6570
 130   2.0000      -0.826173       -22.4813
 131   2.0000      -0.820508       -22.3272
 132   2.0000      -0.807599       -21.9759
 133   2.0000      -0.795084       -21.6353
 134   2.0000      -0.777411       -21.1544
 135   2.0000      -0.768493       -20.9118
 136   2.0000      -0.767547       -20.8860
 137   2.0000      -0.766115       -20.8471
 138   2.0000      -0.752503       -20.4766
 139   2.0000      -0.748628       -20.3712
 140   2.0000      -0.738121       -20.0853
 141   2.0000      -0.727026       -19.7834
 142   2.0000      -0.725483       -19.7414
 143   2.0000      -0.717700       -19.5296
 144   2.0000      -0.713738       -19.4218
 145   2.0000      -0.709756       -19.3134
 146   2.0000      -0.707555       -19.2536
 147   2.0000      -0.706650       -19.2289
 148   2.0000      -0.702344       -19.1117
 149   2.0000      -0.700503       -19.0617
 150   2.0000      -0.693880       -18.8814
 151   2.0000      -0.686267       -18.6743
 152   2.0000      -0.682427       -18.5698
 153   2.0000      -0.674047       -18.3417
 154   2.0000      -0.666221       -18.1288
 155   2.0000      -0.663780       -18.0624
 156   2.0000      -0.657887       -17.9020
 157   2.0000      -0.655277       -17.8310
 158   2.0000      -0.652432       -17.7536
 159   2.0000      -0.648186       -17.6380
 160   2.0000      -0.642692       -17.4885
 161   2.0000      -0.640732       -17.4352
 162   2.0000      -0.633022       -17.2254
 163   2.0000      -0.631248       -17.1771
 164   2.0000      -0.624902       -17.0044
 165   2.0000      -0.622425       -16.9370
 166   2.0000      -0.615776       -16.7561
 167   2.0000      -0.611272       -16.6336
 168   2.0000      -0.610999       -16.6261
 169   2.0000      -0.608074       -16.5465
 170   2.0000      -0.604024       -16.4363
 171   2.0000      -0.599749       -16.3200
 172   2.0000      -0.595409       -16.2019
 173   2.0000      -0.592814       -16.1313
 174   2.0000      -0.589929       -16.0528
 175   2.0000      -0.583069       -15.8661
 176   2.0000      -0.577064       -15.7027
 177   2.0000      -0.571248       -15.5444
 178   2.0000      -0.566364       -15.4115
 179   2.0000      -0.561053       -15.2670
 180   2.0000      -0.559428       -15.2228
 181   2.0000      -0.557251       -15.1636
 182   2.0000      -0.556552       -15.1445
 183   2.0000      -0.550466       -14.9789
 184   2.0000      -0.549563       -14.9544
 185   2.0000      -0.548727       -14.9316
 186   2.0000      -0.546477       -14.8704
 187   2.0000      -0.546211       -14.8631
 188   2.0000      -0.542676       -14.7670
 189   2.0000      -0.541662       -14.7394
 190   2.0000      -0.540049       -14.6955
 191   2.0000      -0.537426       -14.6241
 192   2.0000      -0.534996       -14.5580
 193   2.0000      -0.533122       -14.5070
 194   2.0000      -0.528820       -14.3899
 195   2.0000      -0.526536       -14.3278
 196   2.0000      -0.525054       -14.2874
 197   2.0000      -0.523230       -14.2378
 198   2.0000      -0.521673       -14.1954
 199   2.0000      -0.519572       -14.1383
 200   2.0000      -0.517756       -14.0889
 201   2.0000      -0.515382       -14.0243
 202   2.0000      -0.512734       -13.9522
 203   2.0000      -0.511743       -13.9252
 204   2.0000      -0.509060       -13.8522
 205   2.0000      -0.504231       -13.7208
 206   2.0000      -0.502278       -13.6677
 207   2.0000      -0.500245       -13.6124
 208   2.0000      -0.499550       -13.5934
 209   2.0000      -0.498554       -13.5663
 210   2.0000      -0.495641       -13.4871
 211   2.0000      -0.491835       -13.3835
 212   2.0000      -0.490572       -13.3491
 213   2.0000      -0.486448       -13.2369
 214   2.0000      -0.482498       -13.1294
 215   2.0000      -0.479807       -13.0562
 216   2.0000      -0.475300       -12.9336
 217   2.0000      -0.473277       -12.8785
 218   2.0000      -0.470553       -12.8044
 219   2.0000      -0.470332       -12.7984
 220   2.0000      -0.467947       -12.7335
 221   2.0000      -0.463780       -12.6201
 222   2.0000      -0.458581       -12.4786
 223   2.0000      -0.456742       -12.4286
 224   2.0000      -0.455083       -12.3834
 225   2.0000      -0.453903       -12.3513
 226   2.0000      -0.453463       -12.3394
 227   2.0000      -0.452067       -12.3014
 228   2.0000      -0.451156       -12.2766
 229   2.0000      -0.449790       -12.2394
 230   2.0000      -0.448752       -12.2112
 231   2.0000      -0.448368       -12.2007
 232   2.0000      -0.445937       -12.1346
 233   2.0000      -0.445535       -12.1236
 234   2.0000      -0.444797       -12.1035
 235   2.0000      -0.442029       -12.0282
 236   2.0000      -0.440309       -11.9814
 237   2.0000      -0.439619       -11.9626
 238   2.0000      -0.438920       -11.9436
 239   2.0000      -0.437952       -11.9173
 240   2.0000      -0.435540       -11.8516
 241   2.0000      -0.433094       -11.7851
 242   2.0000      -0.431312       -11.7366
 243   2.0000      -0.430812       -11.7230
 244   2.0000      -0.429759       -11.6943
 245   2.0000      -0.424693       -11.5565
 246   2.0000      -0.421499       -11.4696
 247   2.0000      -0.420212       -11.4345
 248   2.0000      -0.418796       -11.3960
 249   2.0000      -0.415861       -11.3162
 250   2.0000      -0.414421       -11.2770
 251   2.0000      -0.412446       -11.2232
 252   2.0000      -0.411861       -11.2073
 253   2.0000      -0.406249       -11.0546
 254   2.0000      -0.403845       -10.9892
 255   2.0000      -0.401853       -10.9350
 256   2.0000      -0.400895       -10.9089
 257   2.0000      -0.395108       -10.7514
 258   2.0000      -0.391779       -10.6608
 259   2.0000      -0.388226       -10.5642
 260   2.0000      -0.385973       -10.5029
 261   2.0000      -0.383130       -10.4255
 262   2.0000      -0.379001       -10.3131
 263   2.0000      -0.371371       -10.1055
 264   2.0000      -0.357229        -9.7207
 265   2.0000      -0.354024        -9.6335
 266   2.0000      -0.349530        -9.5112
 267   2.0000      -0.346923        -9.4403
 268   2.0000      -0.344906        -9.3854
 269   2.0000      -0.338745        -9.2177
 270   2.0000      -0.337380        -9.1806
 271   2.0000      -0.327627        -8.9152
 272   2.0000      -0.323115        -8.7924
 273   2.0000      -0.322369        -8.7721
 274   2.0000      -0.314349        -8.5539
 275   2.0000      -0.303287        -8.2529
 276   2.0000      -0.296890        -8.0788
 277   2.0000      -0.292365        -7.9557
 278   2.0000      -0.253994        -6.9115
 279   0.0000      -0.113562        -3.0902
 280   0.0000      -0.100673        -2.7394
 281   0.0000      -0.087823        -2.3898
 282   0.0000      -0.065120        -1.7720
 283   0.0000      -0.063943        -1.7400

MULLIKEN ATOMIC CHARGES
-----------------------
   0 C :    0.308388
   1 C :   -0.334646
   2 C :   -0.179568
   3 N :    0.153144
   4 C :   -0.197058
   5 N :    0.177496
   6 C :    0.054343
   7 C :   -0.005387
   8 C :   -0.069680
   9 C :    0.096730
  10 C :    0.098591
  11 C :   -0.082857
  12 C :   -0.017999
  13 C :    0.037567
  14 C :    0.038204
  15 C :   -0.012665
  16 C :    0.149205
  17 O :   -0.139283
  18 C :   -0.069496
  19 C :   -0.062059
  20 C :    0.197919
  21 C :   -0.272277
  22 C :   -0.192732
  23 N :    0.170027
  24 S :    0.324267
  25 C :   -0.150937
  26 C :   -0.029918
  27 C :   -0.251319
  28 N :    0.166848
  29 C :    0.129449
  30 N :   -0.252243
  31 C :    0.088686
  32 C :   -0.010024
  33 C :    0.174218
  34 O :   -0.198676
  35 C :   -0.075206
  36 C :   -0.071724
  37 C :    0.155049
  38 O :   -0.194701
  39 N :   -0.261676
  40 C :    0.094779
  41 C :    0.000381
  42 C :    0.142679
  43 C :   -0.010174
  44 C :    0.037678
  45 C :   -0.121821
  46 S :    0.254553
  47 C :   -0.080937
  48 C :   -0.060188
  49 C :    0.023860
  50 C :    0.108200
  51 N :    0.199722
  52 O :   -0.224970
  53 O :   -0.197027
  54 C :    0.055431
  55 C :    0.096427
  56 C :    0.091366
  57 N :    0.200672
  58 O :   -0.220566
  59 O :   -0.207478
  60 C :   -0.056533
  61 C :   -0.085372
  62 C :    0.318822
  63 C :   -0.341519
  64 C :   -0.183957
  65 N :    0.151298
  66 C :   -0.172189
  67 N :    0.135528
  68 C :    0.047352
  69 C :   -0.008497
  70 C :    0.172528
  71 O :   -0.170446
  72 C :   -0.077532
  73 C :    0.097439
  74 C :    0.097142
  75 C :   -0.082256
  76 C :   -0.020391
  77 C :    0.039652
  78 C :    0.037506
  79 C :   -0.015460
  80 H :   -0.010054
  81 H :   -0.007720
  82 H :   -0.008293
  83 H :   -0.002210
  84 H :   -0.003369
  85 H :   -0.015631
  86 H :    0.058566
  87 H :    0.040151
  88 H :    0.048985
  89 H :    0.026978
  90 H :    0.032523
  91 H :    0.024422
  92 H :    0.023394
  93 H :    0.044426
  94 H :    0.026251
  95 H :    0.020812
  96 H :    0.024808
  97 H :   -0.026244
  98 H :    0.026853
  99 H :    0.044802
 100 H :    0.032465
 101 H :    0.040412
 102 H :    0.036933
 103 H :    0.035382
 104 H :    0.055152
 105 H :    0.021324
 106 H :   -0.009041
 107 H :   -0.006924
 108 H :   -0.008111
 109 H :   -0.003293
 110 H :   -0.002502
 111 H :   -0.014947
Sum of atomic charges:   -0.0000000

LOEWDIN ATOMIC CHARGES
----------------------
   0 C :    0.073569
   1 C :   -0.122551
   2 C :   -0.015693
   3 N :   -0.043900
   4 C :   -0.023385
   5 N :   -0.036428
   6 C :   -0.024625
   7 C :   -0.054334
   8 C :    0.039846
   9 C :   -0.006844
  10 C :   -0.003838
  11 C :    0.021689
  12 C :   -0.004433
  13 C :   -0.010599
  14 C :   -0.010055
  15 C :   -0.007262
  16 C :    0.089163
  17 O :   -0.131231
  18 C :   -0.061980
  19 C :    0.063512
  20 C :   -0.015796
  21 C :   -0.193948
  22 C :   -0.049057
  23 N :   -0.034021
  24 S :    0.597537
  25 C :   -0.141899
  26 C :   -0.093002
  27 C :   -0.029404
  28 N :   -0.036783
  29 C :    0.040567
  30 N :    0.004762
  31 C :    0.031169
  32 C :   -0.061751
  33 C :    0.084537
  34 O :   -0.186945
  35 C :   -0.123808
  36 C :   -0.116675
  37 C :    0.075155
  38 O :   -0.194957
  39 N :    0.003573
  40 C :    0.036815
  41 C :   -0.065666
  42 C :    0.091825
  43 C :   -0.040630
  44 C :    0.008772
  45 C :   -0.158391
  46 S :    0.567746
  47 C :   -0.181723
  48 C :   -0.042392
  49 C :   -0.067871
  50 C :    0.015055
  51 N :    0.278285
  52 O :   -0.191376
  53 O :   -0.175527
  54 C :   -0.014831
  55 C :   -0.026524
  56 C :    0.022066
  57 N :    0.275017
  58 O :   -0.190525
  59 O :   -0.180493
  60 C :    0.050322
  61 C :   -0.091219
  62 C :    0.080153
  63 C :   -0.136862
  64 C :   -0.017375
  65 N :   -0.050111
  66 C :   -0.011698
  67 N :   -0.060577
  68 C :   -0.025570
  69 C :   -0.056334
  70 C :    0.085364
  71 O :   -0.159531
  72 C :    0.035903
  73 C :   -0.007851
  74 C :   -0.005435
  75 C :    0.022188
  76 C :   -0.004715
  77 C :   -0.011096
  78 C :   -0.010279
  79 C :   -0.007966
  80 H :    0.040960
  81 H :    0.039540
  82 H :    0.035384
  83 H :    0.034234
  84 H :    0.033677
  85 H :    0.032913
  86 H :    0.053050
  87 H :    0.027417
  88 H :    0.038938
  89 H :    0.022612
  90 H :    0.035822
  91 H :    0.029286
  92 H :    0.022982
  93 H :    0.038165
  94 H :    0.020780
  95 H :    0.030314
  96 H :    0.030745
  97 H :    0.026562
  98 H :    0.041586
  99 H :    0.041340
 100 H :    0.038331
 101 H :    0.035535
 102 H :    0.035114
 103 H :    0.042275
 104 H :    0.047514
 105 H :    0.041530
 106 H :    0.040755
 107 H :    0.039678
 108 H :    0.035272
 109 H :    0.034004
 110 H :    0.033902
 111 H :    0.032967

  Mayer bond orders larger than 0.100000
B(  0-C ,  1-C ) :   1.6685 B(  0-C ,  6-C ) :   1.0024 B(  0-C , 18-C ) :   1.0288
B(  1-C ,  2-C ) :   1.1411 B(  1-C ,  4-C ) :   1.1424 B(  2-C ,  3-N ) :   2.9658
B(  4-C ,  5-N ) :   2.9827 B(  6-C ,  7-C ) :   1.2120 B(  6-C , 11-C ) :   1.4385
B(  7-C ,  8-C ) :   1.4683 B(  7-C , 16-C ) :   0.9511 B(  8-C ,  9-C ) :   1.1817
B(  8-C , 80-H ) :   1.0159 B(  9-C , 10-C ) :   1.2536 B(  9-C , 15-C ) :   1.2431
B( 10-C , 11-C ) :   1.2135 B( 10-C , 12-C ) :   1.2359 B( 11-C , 81-H ) :   0.9891
B( 12-C , 13-C ) :   1.4929 B( 12-C , 82-H ) :   0.9971 B( 13-C , 14-C ) :   1.2577
B( 13-C , 83-H ) :   0.9880 B( 14-C , 15-C ) :   1.4911 B( 14-C , 84-H ) :   0.9883
B( 15-C , 85-H ) :   0.9972 B( 16-C , 17-O ) :   2.2262 B( 16-C , 18-C ) :   0.9118
B( 18-C , 19-C ) :   1.7090 B( 19-C , 20-C ) :   1.0671 B( 19-C , 86-H ) :   0.9199
B( 20-C , 21-C ) :   1.4773 B( 20-C , 26-C ) :   1.2759 B( 21-C , 22-C ) :   1.2057
B( 21-C , 24-S ) :   1.1786 B( 21-C , 25-C ) :   0.1219 B( 22-C , 23-N ) :   3.0067
B( 24-S , 25-C ) :   1.1988 B( 25-C , 26-C ) :   1.4408 B( 25-C , 29-C ) :   1.0720
B( 26-C , 27-C ) :   1.1455 B( 27-C , 28-N ) :   2.9038 B( 29-C , 30-N ) :   1.2237
B( 29-C , 36-C ) :   1.4009 B( 30-N , 31-C ) :   0.9347 B( 30-N , 33-C ) :   1.0341
B( 31-C , 32-C ) :   1.1150 B( 31-C , 87-H ) :   0.9400 B( 31-C , 88-H ) :   0.9228
B( 32-C , 89-H ) :   0.9662 B( 32-C , 90-H ) :   0.9669 B( 32-C , 91-H ) :   0.9652
B( 33-C , 34-O ) :   2.0279 B( 33-C , 35-C ) :   0.9994 B( 34-O , 98-H ) :   0.1115
B( 35-C , 36-C ) :   1.2357 B( 35-C , 42-C ) :   1.3405 B( 36-C , 37-C ) :   0.9533
B( 37-C , 38-O ) :   2.1136 B( 37-C , 39-N ) :   1.0553 B( 39-N , 40-C ) :   0.9355
B( 39-N , 42-C ) :   1.1655 B( 40-C , 41-C ) :   1.1217 B( 40-C , 92-H ) :   0.9491
B( 40-C , 93-H ) :   0.9282 B( 41-C , 94-H ) :   0.9581 B( 41-C , 95-H ) :   0.9650
B( 41-C , 96-H ) :   0.9602 B( 42-C , 43-C ) :   1.1797 B( 43-C , 44-C ) :   1.6254
B( 43-C , 97-H ) :   0.9534 B( 44-C , 45-C ) :   1.1165 B( 44-C , 98-H ) :   0.9202
B( 45-C , 46-S ) :   1.1576 B( 45-C , 49-C ) :   1.4257 B( 46-S , 47-C ) :   1.1292
B( 47-C , 48-C ) :   1.3813 B( 47-C , 60-C ) :   1.2203 B( 48-C , 49-C ) :   1.4119
B( 48-C , 56-C ) :   1.0435 B( 49-C , 50-C ) :   0.9655 B( 50-C , 51-N ) :   0.8362
B( 50-C , 54-C ) :   1.0647 B( 50-C , 99-H ) :   0.8925 B( 51-N , 52-O ) :   1.4945
B( 51-N , 53-O ) :   1.5971 B( 52-O , 53-O ) :   0.2679 B( 54-C , 55-C ) :   1.1222
B( 54-C ,100-H ) :   0.9297 B( 54-C ,101-H ) :   0.9248 B( 55-C , 56-C ) :   1.0389
B( 55-C ,102-H ) :   0.8985 B( 55-C ,103-H ) :   0.9236 B( 56-C , 57-N ) :   0.8300
B( 56-C ,104-H ) :   0.8711 B( 57-N , 58-O ) :   1.5754 B( 57-N , 59-O ) :   1.5769
B( 58-O , 59-O ) :   0.2648 B( 60-C , 61-C ) :   1.5777 B( 60-C ,105-H ) :   0.9147
B( 61-C , 62-C ) :   1.0623 B( 61-C , 70-C ) :   0.9596 B( 62-C , 63-C ) :   1.6385
B( 62-C , 68-C ) :   0.9904 B( 63-C , 64-C ) :   1.1456 B( 63-C , 66-C ) :   1.1456
B( 64-C , 65-N ) :   2.9672 B( 66-C , 67-N ) :   2.9625 B( 68-C , 69-C ) :   1.2125
B( 68-C , 75-C ) :   1.4484 B( 69-C , 70-C ) :   0.9601 B( 69-C , 72-C ) :   1.4663
B( 70-C , 71-O ) :   2.1437 B( 72-C , 73-C ) :   1.1765 B( 72-C ,106-H ) :   1.0185
B( 73-C , 74-C ) :   1.2558 B( 73-C , 79-C ) :   1.2444 B( 74-C , 75-C ) :   1.2029
B( 74-C , 76-C ) :   1.2394 B( 75-C ,107-H ) :   0.9920 B( 76-C , 77-C ) :   1.4873
B( 76-C ,108-H ) :   0.9986 B( 77-C , 78-C ) :   1.2597 B( 77-C ,109-H ) :   0.9886
B( 78-C , 79-C ) :   1.4865 B( 78-C ,110-H ) :   0.9892 B( 79-C ,111-H ) :   0.9989

-----------------------------------------------------------------------------
         ABSORPTION SPECTRUM VIA TRANSITION ELECTRIC DIPOLE MOMENTS
-----------------------------------------------------------------------------
State   Energy  Wavelength   fosc         T2         TX        TY        TZ
        (cm-1)    (nm)                  (au**2)     (au)      (au)      (au)
-----------------------------------------------------------------------------
   0   15366.7    650.8   0.899843539  19.27805   3.24557  -2.13071  -2.05046
   1   19822.8    504.5   0.027512220   0.45691   0.45693  -0.48734  -0.10311
   2   21508.8    464.9   0.262582345   4.01907   0.78501  -0.72676   1.69548
   3   23723.6    421.5   0.463139893   6.42699   0.99045  -0.88923  -2.15761
   4   25235.1    396.3   0.047928541   0.62527   0.01689  -0.78589   0.08581
   5   25549.8    391.4   0.340722617   4.39025  -0.56509  -0.02653   2.01748
   6   25746.2    388.4   0.040249847   0.51467  -0.60409   0.36173  -0.13748
   7   26464.8    377.9   0.022317166   0.27762  -0.32926   0.16135   0.37838
   8   26702.4    374.5   0.008821837   0.10876  -0.11677   0.00893   0.30830
   9   27862.1    358.9   0.028790021   0.34018  -0.12769   0.36351  -0.43787
  10   27979.0    357.4   0.001497636   0.01762  -0.08336  -0.09670  -0.03635
  11   28302.2    353.3   0.006856355   0.07975   0.18107   0.00044   0.21672
  12   28540.1    350.4   0.026695864   0.30794   0.43451   0.16817  -0.30142
  13   28775.2    347.5   0.029842799   0.34143   0.14694   0.56187  -0.06433
  14   28926.6    345.7   0.089967456   1.02391  -0.18057   0.48572  -0.86913
  15   29524.0    338.7   0.061214939   0.68259   0.41241  -0.71543  -0.02585
  16   29794.6    335.6   0.071600854   0.79114  -0.23068   0.36423   0.77799
  17   30511.9    327.7   0.050543416   0.54534   0.43955  -0.51689  -0.29149
  18   31395.4    318.5   0.323574836   3.39301   1.19868  -1.39405   0.11315
  19   31579.8    316.7   0.029586906   0.30844  -0.42229   0.32303   0.16051
  20   32260.4    310.0   0.391532170   3.99552   0.22513  -1.27594   1.52211
  21   32402.0    308.6   0.228160367   2.31816   1.38058  -0.56127  -0.31167
  22   33298.3    300.3   0.996535491   9.85248   2.78676   0.28437  -1.41618
  23   33510.1    298.4   0.248134864   2.43774   0.69942  -0.89232   1.07346
  24   33636.5    297.3   0.109616042   1.07285   0.09069  -0.74831   0.71039
  25   33824.4    295.6   0.080186744   0.78045   0.25149  -0.83541  -0.13890
  26   34007.4    294.1   0.037280887   0.36090   0.28868  -0.31347   0.42344
  27   34140.3    292.9   0.016138510   0.15562   0.17264  -0.31185   0.16902
  28   34298.7    291.6   0.016139878   0.15492   0.24639  -0.08384  -0.29526
  29   34420.8    290.5   0.031607993   0.30231   0.29834  -0.45090  -0.09997
  30   35175.3    284.3   0.146486054   1.37099  -0.78532   0.79127  -0.35800
  31   35351.2    282.9   0.012883190   0.11998   0.14984   0.11135  -0.29176
  32   36053.9    277.4   0.015319765   0.13989   0.06840  -0.13333  -0.34268
  33   36455.4    274.3   0.183952763   1.66119   0.09758  -0.05834   1.28385
  34   36767.5    272.0   0.198069020   1.77349   0.57538  -1.19834  -0.08001
  35   36783.4    271.9   0.031532873   0.28222  -0.40426   0.08895   0.33299
  36   36865.2    271.3   0.002541494   0.02270   0.11182  -0.10047  -0.00988
  37   37218.6    268.7   0.026114835   0.23099  -0.17415   0.38705   0.22553
  38   37395.9    267.4   0.067678946   0.59581  -0.02476   0.34338   0.69086
  39   37624.2    265.8   0.021622848   0.18920   0.05569  -0.16321  -0.39933
  40   37890.0    263.9   0.036009757   0.31288  -0.04991   0.11529   0.54506
  41   37935.8    263.6   0.037879885   0.32873  -0.36691  -0.30260   0.32022
  42   38014.6    263.1   0.029728688   0.25745   0.27162   0.31372  -0.29199
  43   38371.0    260.6   0.062237330   0.53398  -0.56899   0.45529  -0.05417
  44   38436.2    260.2   0.059163979   0.50675   0.48187   0.15701  -0.49990
  45   38621.4    258.9   0.244305611   2.08248   0.40203  -1.35108   0.30893
  46   39057.2    256.0   0.052835412   0.44535   0.08716  -0.22483  -0.62226
  47   39435.9    253.6   0.051236634   0.42772   0.20505  -0.58315   0.21358
  48   39591.3    252.6   0.035943358   0.29888   0.08003   0.53611  -0.07116
  49   39788.3    251.3   0.394444298   3.26367  -0.67986   0.57357   1.57241
  50   39940.8    250.4   0.053134493   0.43796  -0.33168   0.56165  -0.11180
  51   40149.3    249.1   0.055282098   0.45330   0.26963  -0.43087   0.44152

FINAL SINGLE POINT ENERGY     -4246.542026745547

DIPOLE MOMENT
-------------
                                X             Y             Z
Electronic contribution:     -1.72159     -16.37192       2.20067
Nuclear contribution   :      2.99766      17.80765      -2.15295
                        -----------------------------------------
Total Dipole Moment    :      1.27607       1.43573       0.04772
                        -----------------------------------------
Magnitude (a.u.)       :      1.92145
Magnitude (Debye)      :      4.88393

Rotational constants in cm-1:     0.001409     0.000248     0.000220
Rotational constants in MHz :    42.252522     7.439058     6.603102

                             ****ORCA TERMINATED NORMALLY****
TOTAL RUN TIME: 0 days 0 hours 13 minutes 20 seconds 967 msec
