                         Program Version 4.2.0 -  RELEASE  -
|  1> # ORCA input file
|  2> # SCF done       -185.925722916978          0.000318430518
|  3> ! CAM-B3LYP def2-SVP def2/J RIJCOSX Grid4 TightSCF
|  4> %maxcore 5000
|  5> %tddft
|  6>     Mode sTDDFT
|  7>     Ethresh 5.0
|  8>     maxcore 5000
|  9> end
| 10>
| 11> %pal
| 12>   nprocs 6
| 13>   end
| 14> * xyz 0 1
| 15>    C        2.64016         3.38661         1.05971
| 16>    C        2.03247         3.06816         2.24311
| 17>    C        2.40010         3.61619         3.48971
| 18>    N        2.63550         4.04262         4.52842
| 19>    C        0.98324         2.13432         2.35253
| 20>    N        0.12997         1.37782         2.48868
| 21>    C        3.84000         4.19254         0.90531
| 22>    C        4.42604         3.90102        -0.36270
| 23>    C        5.58452         4.49955        -0.76886
| 24>    C        6.20983         5.43787         0.08256
| 25>    C        5.61627         5.74763         1.34178
| 26>    C        4.42146         5.10807         1.74116
| 27>    C        6.24485         6.69642         2.17397
| 28>    C        7.40580         7.30766         1.78572
| 29>    C        7.99085         7.00004         0.54801
| 30>    C        7.40603         6.08517        -0.28513
| 31>    C        3.58160         2.93625        -1.08492
| 32>    O        3.77999         2.40414        -2.14868
| 33>    C        2.34755         2.80446        -0.23999
| 34>    C        1.20369         2.35270        -0.79487
| 35>    C       -0.13525         2.51452        -0.29489
| 36>    C       -1.16564         1.62194        -0.54765
| 37>    C       -1.04461         0.42190        -1.25424
| 38>    N       -0.93184        -0.55398        -1.84627
| 39>    S       -2.66863         2.10824         0.15259
| 40>    C       -1.94568         3.53989         0.79298
| 41>    C       -0.60286         3.62856         0.46311
| 42>    C        0.15912         4.78684         0.67821
| 43>    N        0.76819         5.75076         0.81078
| 44>    C       -2.77179         4.48562         1.49106
| 45>    N       -2.46812         5.13502         2.65882
| 46>    C       -1.37230         4.85319         3.56369
| 47>    C       -0.48887         6.07108         3.80883
| 48>    C       -3.51793         6.00582         3.04380
| 49>    O       -3.51169         6.64736         4.07177
| 50>    C       -4.49481         5.88442         1.98619
| 51>    C       -4.01799         4.90815         1.07037
| 52>    C       -4.97037         4.79532        -0.01389
| 53>    O       -4.99491         4.09069        -0.99979
| 54>    N       -5.97197         5.72414         0.31968
| 55>    C       -7.10618         5.93745        -0.54726
| 56>    C       -6.90937         7.15121        -1.45229
| 57>    C       -5.69620         6.38483         1.49688
| 58>    C       -6.52243         7.40601         2.03590
| 59>    C       -6.26825         8.01329         3.21949
| 60>    C       -7.06159         9.06890         3.73755
| 61>    S       -8.38749         9.83639         2.85471
| 62>    C       -8.55291        10.87005         4.26450
| 63>    N       -7.69140        10.57735         5.20046
| 64>    N       -6.88250         9.60673         4.91186
| 65>    C       -9.50593        11.92556         4.32067
| 66>    C       -9.66030        12.68611         5.42754
| 67>    C      -10.54768        13.79280         5.56292
| 68>    C      -10.89371        14.70144         4.61095
| 69>    C      -11.79332        15.82714         4.82303
| 70>    C      -12.79253        15.88777         5.75595
| 71>    C      -13.66671        16.98568         5.90132
| 72>    N      -14.39961        17.85346         6.06536
| 73>    C      -13.10970        14.84460         6.65275
| 74>    N      -13.43413        14.02691         7.39004
| 75>    C      -11.50298        16.82790         3.80732
| 76>    C      -10.54354        16.28698         2.90429
| 77>    C      -10.19338        14.91485         3.31012
| 78>    O       -9.46370        14.15347         2.71491
| 79>    C      -10.07275        17.00166         1.84023
| 80>    C      -10.54560        18.31616         1.63056
| 81>    C      -11.50125        18.86664         2.53361
| 82>    C      -11.97324        18.10166         3.62451
| 83>    C      -11.96093        20.18168         2.31677
| 84>    C      -11.50094        20.91860         1.25956
| 85>    C      -10.56068        20.37558         0.37101
| 86>    C      -10.09392        19.10190         0.55193
| 87>    H        6.01715         4.26323        -1.72962
| 88>    H        3.98021         5.37029         2.68996
| 89>    H        5.79154         6.92813         3.12634
| 90>    H        7.88032         8.03208         2.43035
| 91>    H        8.90656         7.49260         0.25736
| 92>    H        7.85153         5.84577        -1.23950
| 93>    H        1.29826         1.86153        -1.75823
| 94>    H       -0.79331         4.02162         3.15718
| 95>    H       -1.80749         4.53581         4.51792
| 96>    H       -0.06054         6.43879         2.87978
| 97>    H        0.31878         5.79403         4.48103
| 98>    H       -1.07475         6.86210         4.26747
| 99>    H       -8.01215         6.04074         0.05561
|100>    H       -7.19188         5.03597        -1.16050
|101>    H       -6.77315         8.05882        -0.86851
|102>    H       -7.77694         7.27483        -2.09427
|103>    H       -6.03206         7.00772        -2.07802
|104>    H       -7.38802         7.70835         1.46145
|105>    H       -5.42527         7.72006         3.83193
|106>    H      -10.10863        12.07986         3.44009
|107>    H       -9.09807        12.40949         6.31042
|108>    H      -10.91637        13.95690         6.56972
|109>    H       -9.34630        16.56966         1.16800
|110>    H      -12.68946        18.54702         4.29692
|111>    H      -12.68577        20.59494         3.00259
|112>    H      -11.85912        21.92481         1.10203
|113>    H      -10.20770        20.97172        -0.45708
|114>    H       -9.36981        18.67858        -0.12869
|115> *
|116>
|117>                          ****END OF INPUT****

CARTESIAN COORDINATES (ANGSTROEM)
---------------------------------
  C      2.640160    3.386610    1.059710
  C      2.032470    3.068160    2.243110
  C      2.400100    3.616190    3.489710
  N      2.635500    4.042620    4.528420
  C      0.983240    2.134320    2.352530
  N      0.129970    1.377820    2.488680
  C      3.840000    4.192540    0.905310
  C      4.426040    3.901020   -0.362700
  C      5.584520    4.499550   -0.768860
  C      6.209830    5.437870    0.082560
  C      5.616270    5.747630    1.341780
  C      4.421460    5.108070    1.741160
  C      6.244850    6.696420    2.173970
  C      7.405800    7.307660    1.785720
  C      7.990850    7.000040    0.548010
  C      7.406030    6.085170   -0.285130
  C      3.581600    2.936250   -1.084920
  O      3.779990    2.404140   -2.148680
  C      2.347550    2.804460   -0.239990
  C      1.203690    2.352700   -0.794870
  C     -0.135250    2.514520   -0.294890
  C     -1.165640    1.621940   -0.547650
  C     -1.044610    0.421900   -1.254240
  N     -0.931840   -0.553980   -1.846270
  S     -2.668630    2.108240    0.152590
  C     -1.945680    3.539890    0.792980
  C     -0.602860    3.628560    0.463110
  C      0.159120    4.786840    0.678210
  N      0.768190    5.750760    0.810780
  C     -2.771790    4.485620    1.491060
  N     -2.468120    5.135020    2.658820
  C     -1.372300    4.853190    3.563690
  C     -0.488870    6.071080    3.808830
  C     -3.517930    6.005820    3.043800
  O     -3.511690    6.647360    4.071770
  C     -4.494810    5.884420    1.986190
  C     -4.017990    4.908150    1.070370
  C     -4.970370    4.795320   -0.013890
  O     -4.994910    4.090690   -0.999790
  N     -5.971970    5.724140    0.319680
  C     -7.106180    5.937450   -0.547260
  C     -6.909370    7.151210   -1.452290
  C     -5.696200    6.384830    1.496880
  C     -6.522430    7.406010    2.035900
  C     -6.268250    8.013290    3.219490
  C     -7.061590    9.068900    3.737550
  S     -8.387490    9.836390    2.854710
  C     -8.552910   10.870050    4.264500
  N     -7.691400   10.577350    5.200460
  N     -6.882500    9.606730    4.911860
  C     -9.505930   11.925560    4.320670
  C     -9.660300   12.686110    5.427540
  C    -10.547680   13.792800    5.562920
  C    -10.893710   14.701440    4.610950
  C    -11.793320   15.827140    4.823030
  C    -12.792530   15.887770    5.755950
  C    -13.666710   16.985680    5.901320
  N    -14.399610   17.853460    6.065360
  C    -13.109700   14.844600    6.652750
  N    -13.434130   14.026910    7.390040
  C    -11.502980   16.827900    3.807320
  C    -10.543540   16.286980    2.904290
  C    -10.193380   14.914850    3.310120
  O     -9.463700   14.153470    2.714910
  C    -10.072750   17.001660    1.840230
  C    -10.545600   18.316160    1.630560
  C    -11.501250   18.866640    2.533610
  C    -11.973240   18.101660    3.624510
  C    -11.960930   20.181680    2.316770
  C    -11.500940   20.918600    1.259560
  C    -10.560680   20.375580    0.371010
  C    -10.093920   19.101900    0.551930
  H      6.017150    4.263230   -1.729620
  H      3.980210    5.370290    2.689960
  H      5.791540    6.928130    3.126340
  H      7.880320    8.032080    2.430350
  H      8.906560    7.492600    0.257360
  H      7.851530    5.845770   -1.239500
  H      1.298260    1.861530   -1.758230
  H     -0.793310    4.021620    3.157180
  H     -1.807490    4.535810    4.517920
  H     -0.060540    6.438790    2.879780
  H      0.318780    5.794030    4.481030
  H     -1.074750    6.862100    4.267470
  H     -8.012150    6.040740    0.055610
  H     -7.191880    5.035970   -1.160500
  H     -6.773150    8.058820   -0.868510
  H     -7.776940    7.274830   -2.094270
  H     -6.032060    7.007720   -2.078020
  H     -7.388020    7.708350    1.461450
  H     -5.425270    7.720060    3.831930
  H    -10.108630   12.079860    3.440090
  H     -9.098070   12.409490    6.310420
  H    -10.916370   13.956900    6.569720
  H     -9.346300   16.569660    1.168000
  H    -12.689460   18.547020    4.296920
  H    -12.685770   20.594940    3.002590
  H    -11.859120   21.924810    1.102030
  H    -10.207700   20.971720   -0.457080
  H     -9.369810   18.678580   -0.128690

 Total Charge           Charge          ....    0
 Multiplicity           Mult            ....    1
 Number of Electrons    NEL             ....  498
 Basis Dimension        Dim             .... 1156

ORBITAL ENERGIES
----------------

  NO   OCC          E(Eh)            E(eV)
   0   2.0000     -89.008402     -2422.0418
   1   2.0000     -88.984757     -2421.3983
   2   2.0000     -19.226297      -523.1741
   3   2.0000     -19.225588      -523.1548
   4   2.0000     -19.204902      -522.5920
   5   2.0000     -19.201808      -522.5078
   6   2.0000     -14.468190      -393.6995
   7   2.0000     -14.467623      -393.6840
   8   2.0000     -14.450834      -393.2272
   9   2.0000     -14.449202      -393.1828
  10   2.0000     -14.432296      -392.7227
  11   2.0000     -14.428893      -392.6301
  12   2.0000     -14.426982      -392.5781
  13   2.0000     -14.426691      -392.5702
  14   2.0000     -14.420386      -392.3987
  15   2.0000     -14.419161      -392.3653
  16   2.0000     -10.389909      -282.7238
  17   2.0000     -10.384816      -282.5852
  18   2.0000     -10.377415      -282.3838
  19   2.0000     -10.377170      -282.3771
  20   2.0000     -10.361380      -281.9475
  21   2.0000     -10.360632      -281.9271
  22   2.0000     -10.360201      -281.9154
  23   2.0000     -10.358392      -281.8662
  24   2.0000     -10.355249      -281.7806
  25   2.0000     -10.354817      -281.7689
  26   2.0000     -10.353693      -281.7383
  27   2.0000     -10.353205      -281.7250
  28   2.0000     -10.349010      -281.6109
  29   2.0000     -10.345583      -281.5176
  30   2.0000     -10.345285      -281.5095
  31   2.0000     -10.339839      -281.3613
  32   2.0000     -10.333094      -281.1778
  33   2.0000     -10.332353      -281.1576
  34   2.0000     -10.330602      -281.1100
  35   2.0000     -10.328476      -281.0521
  36   2.0000     -10.327080      -281.0141
  37   2.0000     -10.323881      -280.9271
  38   2.0000     -10.322621      -280.8928
  39   2.0000     -10.321471      -280.8615
  40   2.0000     -10.320842      -280.8444
  41   2.0000     -10.318202      -280.7725
  42   2.0000     -10.312735      -280.6238
  43   2.0000     -10.312336      -280.6129
  44   2.0000     -10.312000      -280.6038
  45   2.0000     -10.310511      -280.5633
  46   2.0000     -10.309619      -280.5390
  47   2.0000     -10.309495      -280.5356
  48   2.0000     -10.308787      -280.5164
  49   2.0000     -10.304060      -280.3877
  50   2.0000     -10.303943      -280.3845
  51   2.0000     -10.303703      -280.3780
  52   2.0000     -10.303569      -280.3744
  53   2.0000     -10.303529      -280.3733
  54   2.0000     -10.303353      -280.3685
  55   2.0000     -10.302981      -280.3584
  56   2.0000     -10.302768      -280.3526
  57   2.0000     -10.300645      -280.2948
  58   2.0000     -10.297444      -280.2077
  59   2.0000     -10.295461      -280.1537
  60   2.0000     -10.291827      -280.0549
  61   2.0000     -10.291510      -280.0462
  62   2.0000     -10.291347      -280.0418
  63   2.0000     -10.291045      -280.0336
  64   2.0000     -10.290982      -280.0318
  65   2.0000     -10.290690      -280.0239
  66   2.0000     -10.290542      -280.0199
  67   2.0000     -10.290180      -280.0100
  68   2.0000     -10.280462      -279.7456
  69   2.0000     -10.275138      -279.6007
  70   2.0000     -10.274629      -279.5869
  71   2.0000     -10.243497      -278.7397
  72   2.0000      -8.103046      -220.4951
  73   2.0000      -8.080950      -219.8938
  74   2.0000      -6.072345      -165.2369
  75   2.0000      -6.067821      -165.1138
  76   2.0000      -6.065415      -165.0483
  77   2.0000      -6.049478      -164.6147
  78   2.0000      -6.046302      -164.5282
  79   2.0000      -6.043420      -164.4498
  80   2.0000      -1.155359       -31.4389
  81   2.0000      -1.147185       -31.2165
  82   2.0000      -1.142228       -31.0816
  83   2.0000      -1.141084       -31.0505
  84   2.0000      -1.139479       -31.0068
  85   2.0000      -1.079004       -29.3612
  86   2.0000      -1.071102       -29.1462
  87   2.0000      -1.045525       -28.4502
  88   2.0000      -1.028651       -27.9910
  89   2.0000      -1.023361       -27.8471
  90   2.0000      -1.015647       -27.6372
  91   2.0000      -1.008545       -27.4439
  92   2.0000      -1.005607       -27.3640
  93   2.0000      -1.003813       -27.3151
  94   2.0000      -1.002622       -27.2827
  95   2.0000      -0.998161       -27.1614
  96   2.0000      -0.979759       -26.6606
  97   2.0000      -0.977810       -26.6076
  98   2.0000      -0.961804       -26.1720
  99   2.0000      -0.946660       -25.7599
 100   2.0000      -0.941108       -25.6089
 101   2.0000      -0.936531       -25.4843
 102   2.0000      -0.930510       -25.3205
 103   2.0000      -0.925999       -25.1977
 104   2.0000      -0.913864       -24.8675
 105   2.0000      -0.908401       -24.7188
 106   2.0000      -0.900405       -24.5013
 107   2.0000      -0.896974       -24.4079
 108   2.0000      -0.890162       -24.2225
 109   2.0000      -0.887806       -24.1584
 110   2.0000      -0.885760       -24.1028
 111   2.0000      -0.878638       -23.9090
 112   2.0000      -0.860417       -23.4131
 113   2.0000      -0.849883       -23.1265
 114   2.0000      -0.834983       -22.7210
 115   2.0000      -0.833879       -22.6910
 116   2.0000      -0.828320       -22.5397
 117   2.0000      -0.825330       -22.4584
 118   2.0000      -0.810109       -22.0442
 119   2.0000      -0.801404       -21.8073
 120   2.0000      -0.797684       -21.7061
 121   2.0000      -0.771639       -20.9974
 122   2.0000      -0.767237       -20.8776
 123   2.0000      -0.765291       -20.8246
 124   2.0000      -0.758083       -20.6285
 125   2.0000      -0.750627       -20.4256
 126   2.0000      -0.738307       -20.0903
 127   2.0000      -0.723059       -19.6754
 128   2.0000      -0.721079       -19.6215
 129   2.0000      -0.715515       -19.4702
 130   2.0000      -0.709892       -19.3171
 131   2.0000      -0.709556       -19.3080
 132   2.0000      -0.705482       -19.1971
 133   2.0000      -0.703675       -19.1480
 134   2.0000      -0.696439       -18.9511
 135   2.0000      -0.693520       -18.8716
 136   2.0000      -0.686572       -18.6826
 137   2.0000      -0.679972       -18.5030
 138   2.0000      -0.673208       -18.3189
 139   2.0000      -0.665005       -18.0957
 140   2.0000      -0.658942       -17.9307
 141   2.0000      -0.649654       -17.6780
 142   2.0000      -0.642510       -17.4836
 143   2.0000      -0.637026       -17.3344
 144   2.0000      -0.628208       -17.0944
 145   2.0000      -0.622363       -16.9354
 146   2.0000      -0.615065       -16.7368
 147   2.0000      -0.612565       -16.6687
 148   2.0000      -0.609601       -16.5881
 149   2.0000      -0.602405       -16.3923
 150   2.0000      -0.601298       -16.3621
 151   2.0000      -0.596542       -16.2327
 152   2.0000      -0.591299       -16.0901
 153   2.0000      -0.587402       -15.9840
 154   2.0000      -0.580380       -15.7929
 155   2.0000      -0.573269       -15.5994
 156   2.0000      -0.565699       -15.3935
 157   2.0000      -0.564139       -15.3510
 158   2.0000      -0.560547       -15.2533
 159   2.0000      -0.557556       -15.1719
 160   2.0000      -0.557218       -15.1627
 161   2.0000      -0.553559       -15.0631
 162   2.0000      -0.552568       -15.0361
 163   2.0000      -0.552254       -15.0276
 164   2.0000      -0.551846       -15.0165
 165   2.0000      -0.549244       -14.9457
 166   2.0000      -0.547681       -14.9031
 167   2.0000      -0.543093       -14.7783
 168   2.0000      -0.541821       -14.7437
 169   2.0000      -0.537768       -14.6334
 170   2.0000      -0.534212       -14.5366
 171   2.0000      -0.534067       -14.5327
 172   2.0000      -0.527161       -14.3448
 173   2.0000      -0.527018       -14.3409
 174   2.0000      -0.522991       -14.2313
 175   2.0000      -0.522361       -14.2142
 176   2.0000      -0.520721       -14.1695
 177   2.0000      -0.517319       -14.0770
 178   2.0000      -0.516231       -14.0474
 179   2.0000      -0.515738       -14.0339
 180   2.0000      -0.513708       -13.9787
 181   2.0000      -0.511031       -13.9059
 182   2.0000      -0.510085       -13.8801
 183   2.0000      -0.505800       -13.7635
 184   2.0000      -0.501394       -13.6436
 185   2.0000      -0.495388       -13.4802
 186   2.0000      -0.494478       -13.4554
 187   2.0000      -0.491145       -13.3647
 188   2.0000      -0.491000       -13.3608
 189   2.0000      -0.482724       -13.1356
 190   2.0000      -0.482425       -13.1274
 191   2.0000      -0.477442       -12.9919
 192   2.0000      -0.477108       -12.9828
 193   2.0000      -0.474076       -12.9003
 194   2.0000      -0.472839       -12.8666
 195   2.0000      -0.471358       -12.8263
 196   2.0000      -0.469393       -12.7728
 197   2.0000      -0.468708       -12.7542
 198   2.0000      -0.463771       -12.6199
 199   2.0000      -0.461663       -12.5625
 200   2.0000      -0.460533       -12.5317
 201   2.0000      -0.456126       -12.4118
 202   2.0000      -0.454541       -12.3687
 203   2.0000      -0.453003       -12.3268
 204   2.0000      -0.452835       -12.3223
 205   2.0000      -0.450859       -12.2685
 206   2.0000      -0.448306       -12.1990
 207   2.0000      -0.448181       -12.1956
 208   2.0000      -0.445962       -12.1352
 209   2.0000      -0.445208       -12.1147
 210   2.0000      -0.442487       -12.0407
 211   2.0000      -0.440972       -11.9995
 212   2.0000      -0.440300       -11.9812
 213   2.0000      -0.438826       -11.9411
 214   2.0000      -0.437999       -11.9186
 215   2.0000      -0.436119       -11.8674
 216   2.0000      -0.433046       -11.7838
 217   2.0000      -0.432654       -11.7731
 218   2.0000      -0.429698       -11.6927
 219   2.0000      -0.428650       -11.6642
 220   2.0000      -0.425931       -11.5902
 221   2.0000      -0.424237       -11.5441
 222   2.0000      -0.423410       -11.5216
 223   2.0000      -0.416941       -11.3455
 224   2.0000      -0.415317       -11.3014
 225   2.0000      -0.413675       -11.2567
 226   2.0000      -0.407860       -11.0984
 227   2.0000      -0.406533       -11.0623
 228   2.0000      -0.400746       -10.9049
 229   2.0000      -0.392784       -10.6882
 230   2.0000      -0.385314       -10.4849
 231   2.0000      -0.383478       -10.4350
 232   2.0000      -0.371207       -10.1010
 233   2.0000      -0.370253       -10.0751
 234   2.0000      -0.360035        -9.7971
 235   2.0000      -0.350582        -9.5398
 236   2.0000      -0.346374        -9.4253
 237   2.0000      -0.344944        -9.3864
 238   2.0000      -0.341402        -9.2900
 239   2.0000      -0.339331        -9.2337
 240   2.0000      -0.332951        -9.0600
 241   2.0000      -0.328403        -8.9363
 242   2.0000      -0.325682        -8.8623
 243   2.0000      -0.322853        -8.7853
 244   2.0000      -0.319726        -8.7002
 245   2.0000      -0.304662        -8.2903
 246   2.0000      -0.300267        -8.1707
 247   2.0000      -0.294077        -8.0022
 248   2.0000      -0.258598        -7.0368
 249   0.0000      -0.112531        -3.0621
 250   0.0000      -0.104088        -2.8324
 251   0.0000      -0.091247        -2.4830
 252   0.0000      -0.066169        -1.8006
 253   0.0000      -0.063394        -1.7250

MULLIKEN ATOMIC CHARGES
-----------------------
   0 C :    0.243695
   1 C :   -0.326893
   2 C :   -0.164062
   3 N :    0.162856
   4 C :   -0.189084
   5 N :    0.167136
   6 C :    0.046743
   7 C :    0.011521
   8 C :   -0.076647
   9 C :    0.093246
  10 C :    0.090694
  11 C :   -0.063442
  12 C :   -0.011610
  13 C :    0.034239
  14 C :    0.039015
  15 C :   -0.011990
  16 C :    0.140329
  17 O :   -0.125401
  18 C :   -0.100781
  19 C :    0.009378
  20 C :    0.193507
  21 C :   -0.270505
  22 C :   -0.190301
  23 N :    0.168974
  24 S :    0.337557
  25 C :   -0.128682
  26 C :   -0.071171
  27 C :   -0.249274
  28 N :    0.192423
  29 C :    0.079102
  30 N :   -0.253770
  31 C :    0.127620
  32 C :   -0.025302
  33 C :    0.178038
  34 O :   -0.191842
  35 C :   -0.068211
  36 C :   -0.041045
  37 C :    0.141282
  38 O :   -0.182640
  39 N :   -0.268518
  40 C :    0.097088
  41 C :    0.003292
  42 C :    0.150985
  43 C :   -0.041252
  44 C :    0.077928
  45 C :   -0.098357
  46 S :    0.097677
  47 C :   -0.106001
  48 N :   -0.041887
  49 N :   -0.015764
  50 C :    0.135861
  51 C :    0.000457
  52 C :    0.005202
  53 C :   -0.085802
  54 C :    0.279387
  55 C :   -0.327135
  56 C :   -0.179453
  57 N :    0.153016
  58 C :   -0.210082
  59 N :    0.166974
  60 C :    0.055007
  61 C :   -0.005578
  62 C :    0.150462
  63 O :   -0.149627
  64 C :   -0.079401
  65 C :    0.098204
  66 C :    0.096855
  67 C :   -0.083136
  68 C :   -0.021027
  69 C :    0.038982
  70 C :    0.037801
  71 C :   -0.015833
  72 H :   -0.008852
  73 H :   -0.000823
  74 H :   -0.008537
  75 H :   -0.001145
  76 H :   -0.002824
  77 H :   -0.015663
  78 H :    0.043715
  79 H :    0.010133
  80 H :    0.032911
  81 H :    0.025078
  82 H :    0.027865
  83 H :    0.041970
  84 H :    0.026077
  85 H :    0.046832
  86 H :    0.015161
  87 H :    0.027842
  88 H :    0.033596
  89 H :   -0.012676
  90 H :    0.045613
  91 H :    0.013402
  92 H :    0.037627
  93 H :    0.040859
  94 H :   -0.012632
  95 H :   -0.005538
  96 H :   -0.007968
  97 H :   -0.003227
  98 H :   -0.003329
  99 H :   -0.016487
Sum of atomic charges:   -0.0000000

LOEWDIN ATOMIC CHARGES
----------------------
   0 C :    0.077206
   1 C :   -0.132735
   2 C :   -0.014854
   3 N :   -0.042192
   4 C :   -0.021013
   5 N :   -0.047521
   6 C :   -0.020202
   7 C :   -0.057025
   8 C :    0.036842
   9 C :   -0.006213
  10 C :   -0.003289
  11 C :    0.028920
  12 C :   -0.002929
  13 C :   -0.010243
  14 C :   -0.009158
  15 C :   -0.007908
  16 C :    0.087757
  17 O :   -0.125783
  18 C :   -0.057527
  19 C :    0.060350
  20 C :   -0.017300
  21 C :   -0.197070
  22 C :   -0.054079
  23 N :   -0.021908
  24 S :    0.585709
  25 C :   -0.129814
  26 C :   -0.098263
  27 C :   -0.022982
  28 N :   -0.040572
  29 C :    0.038138
  30 N :    0.007432
  31 C :    0.041671
  32 C :   -0.068226
  33 C :    0.084908
  34 O :   -0.179068
  35 C :   -0.121518
  36 C :   -0.115429
  37 C :    0.077337
  38 O :   -0.189093
  39 N :   -0.003942
  40 C :    0.036629
  41 C :   -0.060514
  42 C :    0.088077
  43 C :   -0.044163
  44 C :    0.021293
  45 C :   -0.148477
  46 S :    0.395188
  47 C :   -0.141186
  48 N :   -0.065197
  49 N :   -0.049699
  50 C :    0.007769
  51 C :   -0.004289
  52 C :    0.064502
  53 C :   -0.079082
  54 C :    0.073223
  55 C :   -0.132190
  56 C :   -0.017423
  57 N :   -0.048029
  58 C :   -0.026672
  59 N :   -0.044187
  60 C :   -0.026370
  61 C :   -0.056170
  62 C :    0.084834
  63 O :   -0.136283
  64 C :    0.033232
  65 C :   -0.007930
  66 C :   -0.005439
  67 C :    0.020664
  68 C :   -0.004944
  69 C :   -0.011423
  70 C :   -0.010809
  71 C :   -0.009116
  72 H :    0.040810
  73 H :    0.041150
  74 H :    0.035546
  75 H :    0.034509
  76 H :    0.033874
  77 H :    0.032745
  78 H :    0.056954
  79 H :    0.023575
  80 H :    0.035184
  81 H :    0.021763
  82 H :    0.031610
  83 H :    0.030234
  84 H :    0.024319
  85 H :    0.039737
  86 H :    0.021486
  87 H :    0.032578
  88 H :    0.033998
  89 H :    0.024217
  90 H :    0.054347
  91 H :    0.037242
  92 H :    0.046560
  93 H :    0.049634
  94 H :    0.039053
  95 H :    0.039587
  96 H :    0.035271
  97 H :    0.033980
  98 H :    0.033562
  99 H :    0.032239

  Mayer bond orders larger than 0.100000
B(  0-C ,  1-C ) :   1.6588 B(  0-C ,  6-C ) :   1.0197 B(  0-C , 18-C ) :   1.0008
B(  1-C ,  2-C ) :   1.1436 B(  1-C ,  4-C ) :   1.1827 B(  2-C ,  3-N ) :   2.9366
B(  4-C ,  5-N ) :   2.9491 B(  6-C ,  7-C ) :   1.2088 B(  6-C , 11-C ) :   1.4535
B(  7-C ,  8-C ) :   1.4670 B(  7-C , 16-C ) :   0.9233 B(  8-C ,  9-C ) :   1.1918
B(  8-C , 72-H ) :   1.0159 B(  9-C , 10-C ) :   1.2514 B(  9-C , 15-C ) :   1.2436
B( 10-C , 11-C ) :   1.2092 B( 10-C , 12-C ) :   1.2403 B( 11-C , 73-H ) :   0.9933
B( 12-C , 13-C ) :   1.4906 B( 12-C , 74-H ) :   0.9976 B( 13-C , 14-C ) :   1.2577
B( 13-C , 75-H ) :   0.9893 B( 14-C , 15-C ) :   1.4905 B( 14-C , 76-H ) :   0.9892
B( 15-C , 77-H ) :   0.9978 B( 16-C , 17-O ) :   2.2894 B( 16-C , 18-C ) :   0.9113
B( 18-C , 19-C ) :   1.7561 B( 19-C , 20-C ) :   1.0338 B( 19-C , 78-H ) :   0.9381
B( 20-C , 21-C ) :   1.4720 B( 20-C , 26-C ) :   1.2463 B( 21-C , 22-C ) :   1.2109
B( 21-C , 24-S ) :   1.1621 B( 21-C , 25-C ) :   0.1196 B( 22-C , 23-N ) :   3.0030
B( 24-S , 25-C ) :   1.2164 B( 25-C , 26-C ) :   1.4858 B( 25-C , 29-C ) :   1.0393
B( 26-C , 27-C ) :   1.1778 B( 27-C , 28-N ) :   2.9028 B( 29-C , 30-N ) :   1.2358
B( 29-C , 36-C ) :   1.4271 B( 30-N , 31-C ) :   0.9231 B( 30-N , 33-C ) :   1.0274
B( 31-C , 32-C ) :   1.1074 B( 31-C , 79-H ) :   0.9500 B( 31-C , 80-H ) :   0.9396
B( 32-C , 81-H ) :   0.9570 B( 32-C , 82-H ) :   0.9590 B( 32-C , 83-H ) :   0.9590
B( 33-C , 34-O ) :   2.0411 B( 33-C , 35-C ) :   0.9959 B( 35-C , 36-C ) :   1.2158
B( 35-C , 42-C ) :   1.3627 B( 36-C , 37-C ) :   0.9476 B( 37-C , 38-O ) :   2.1652
B( 37-C , 39-N ) :   1.0360 B( 39-N , 40-C ) :   0.9418 B( 39-N , 42-C ) :   1.1604
B( 40-C , 41-C ) :   1.1196 B( 40-C , 84-H ) :   0.9508 B( 40-C , 85-H ) :   0.9283
B( 41-C , 86-H ) :   0.9688 B( 41-C , 87-H ) :   0.9682 B( 41-C , 88-H ) :   0.9636
B( 42-C , 43-C ) :   1.1583 B( 43-C , 44-C ) :   1.5835 B( 43-C , 89-H ) :   0.9609
B( 44-C , 45-C ) :   1.1178 B( 44-C , 90-H ) :   0.9600 B( 45-C , 46-S ) :   1.0866
B( 45-C , 49-N ) :   1.6564 B( 46-S , 47-C ) :   1.1026 B( 47-C , 48-N ) :   1.6609
B( 47-C , 50-C ) :   1.1243 B( 48-N , 49-N ) :   1.2471 B( 50-C , 51-C ) :   1.7338
B( 50-C , 91-H ) :   0.9322 B( 51-C , 52-C ) :   1.1331 B( 51-C , 92-H ) :   0.9506
B( 52-C , 53-C ) :   1.6556 B( 52-C , 93-H ) :   0.9481 B( 53-C , 54-C ) :   1.0383
B( 53-C , 62-C ) :   0.9304 B( 54-C , 55-C ) :   1.6630 B( 54-C , 60-C ) :   0.9997
B( 55-C , 56-C ) :   1.1377 B( 55-C , 58-C ) :   1.1353 B( 56-C , 57-N ) :   2.9741
B( 58-C , 59-N ) :   3.0118 B( 60-C , 61-C ) :   1.2091 B( 60-C , 67-C ) :   1.4464
B( 61-C , 62-C ) :   0.9505 B( 61-C , 64-C ) :   1.4706 B( 62-C , 63-O ) :   2.2085
B( 64-C , 65-C ) :   1.1807 B( 64-C , 94-H ) :   1.0170 B( 65-C , 66-C ) :   1.2548
B( 65-C , 71-C ) :   1.2435 B( 66-C , 67-C ) :   1.2066 B( 66-C , 68-C ) :   1.2382
B( 67-C , 95-H ) :   0.9927 B( 68-C , 69-C ) :   1.4904 B( 68-C , 96-H ) :   0.9983
B( 69-C , 70-C ) :   1.2588 B( 69-C , 97-H ) :   0.9883 B( 70-C , 71-C ) :   1.4880
B( 70-C , 98-H ) :   0.9893 B( 71-C , 99-H ) :   0.9986

-----------------------------------------------------------------------------
         ABSORPTION SPECTRUM VIA TRANSITION ELECTRIC DIPOLE MOMENTS
-----------------------------------------------------------------------------
State   Energy  Wavelength   fosc         T2         TX        TY        TZ
        (cm-1)    (nm)                  (au**2)     (au)      (au)      (au)
-----------------------------------------------------------------------------
   0   16606.9    602.2   0.982970828  19.48620   3.32928  -2.85361  -0.50896
   1   19143.3    522.4   0.017893516   0.30772   0.44900   0.25135   0.20723
   2   22235.5    449.7   0.212556028   3.14704   0.37058  -1.64079  -0.56350
   3   23922.5    418.0   0.239822510   3.30034   1.20034  -1.24583  -0.55446
   4   25310.2    395.1   0.046963329   0.61086   0.45953   0.57829  -0.25546
   5   25510.4    392.0   0.001269235   0.01638   0.08420   0.03180  -0.09099
   6   25948.3    385.4   0.099716528   1.26513  -0.22662   1.07984  -0.21845
   7   26639.6    375.4   0.000623228   0.00770  -0.01033  -0.08678  -0.00797
   8   27564.4    362.8   0.047300106   0.56492  -0.12457   0.07165  -0.73775
   9   27585.5    362.5   0.034142744   0.40747   0.34438  -0.53387  -0.06212
  10   27765.3    360.2   0.015008344   0.17795  -0.08629   0.41285  -0.00809
  11   28089.2    356.0   0.429795245   5.03730  -1.26181   1.74068   0.64434
  12   28735.1    348.0   0.172716365   1.97877  -1.32093  -0.41630  -0.24618
  13   28856.6    346.5   0.081654321   0.93156  -0.52011  -0.57306  -0.57676
  14   29150.9    343.0   0.031490771   0.35564  -0.46356  -0.36411   0.09040
  15   30112.8    332.1   0.088621426   0.96887   0.45819   0.81152  -0.31680
  16   30408.0    328.9   0.100501869   1.08808  -0.72512  -0.58691  -0.46671
  17   30426.4    328.7   0.078683499   0.85135   0.61645   0.68625  -0.02005
  18   31716.2    315.3   0.006286117   0.06525   0.01151   0.24984  -0.05194
  19   31848.6    314.0   0.147978863   1.52963   0.34016  -0.96337   0.69702
  20   32433.4    308.3   0.023009168   0.23355  -0.46903  -0.05355  -0.10340
  21   33054.9    302.5   0.216161551   2.15287  -1.35063  -0.15847   0.55095
  22   33331.5    300.0   0.553004666   5.46197   0.60323   1.40107  -1.77062
  23   33372.4    299.6   0.286017926   2.82151  -1.23528  -0.81475   0.79485
  24   33451.9    298.9   0.061030302   0.60062  -0.41517  -0.43075   0.49265
  25   33670.8    297.0   0.472786720   4.62262   1.57825   1.42440  -0.32070
  26   33968.7    294.4   0.060647640   0.58777   0.28661   0.70991   0.04075
  27   34623.5    288.8   0.008338592   0.07929  -0.17629  -0.02092  -0.21856
  28   34721.9    288.0   0.019965000   0.18930  -0.30761  -0.06361  -0.30104
  29   34765.5    287.6   0.107356945   1.01662  -0.63691  -0.76369   0.16654
  30   35631.6    280.6   0.033626127   0.31068  -0.05774  -0.31761  -0.45439
  31   35925.7    278.4   0.091586392   0.83927   0.01662   0.81601   0.41608
  32   36070.4    277.2   0.213546622   1.94902   0.94246  -0.19477  -1.01137
  33   36534.6    273.7   0.119273328   1.07477  -0.12560   0.10496  -1.02371
  34   37078.4    269.7   0.004322423   0.03838   0.05947   0.18008  -0.04913
  35   37163.3    269.1   0.031694092   0.28076  -0.30545  -0.36578  -0.23167
  36   37197.0    268.8   0.015020430   0.13294   0.26831  -0.24423  -0.03603
  37   37376.3    267.5   0.012028658   0.10595  -0.30106   0.11845   0.03582
  38   37638.0    265.7   0.000526303   0.00460   0.03583  -0.04214   0.03929
  39   37848.7    264.2   0.070341749   0.61184   0.61873   0.44528  -0.17532
  40   37998.9    263.2   0.185566448   1.60770  -1.14507  -0.54070  -0.06443
  41   38291.0    261.2   0.333592871   2.86811   0.88949   0.13206  -1.43509
  42   38498.5    259.8   0.051182149   0.43767   0.23904   0.18780   0.58759
  43   39115.9    255.7   0.028033081   0.23594  -0.00952  -0.38775  -0.29240
  44   39605.1    252.5   0.029800141   0.24771   0.42773  -0.10143  -0.23339
  45   39729.0    251.7   0.071586883   0.59320  -0.72069   0.15206   0.22514
  46   40027.1    249.8   0.018247811   0.15008   0.32053   0.21621   0.02437

FINAL SINGLE POINT ENERGY     -3791.464586990716

DIPOLE MOMENT
-------------
                                X             Y             Z
Electronic contribution:     -5.15508     -30.92610       6.03213
Nuclear contribution   :      6.29676      34.11301      -8.68607
                        -----------------------------------------
Total Dipole Moment    :      1.14168       3.18692      -2.65394
                        -----------------------------------------
Magnitude (a.u.)       :      4.30154
Magnitude (Debye)      :     10.93365

Rotational constants in cm-1:     0.001619     0.000252     0.000237
Rotational constants in MHz :    48.529402     7.551525     7.109165

                             ****ORCA TERMINATED NORMALLY****
TOTAL RUN TIME: 0 days 0 hours 10 minutes 1 seconds 199 msec
