                         Program Version 4.2.0 -  RELEASE  -
|  1> # ORCA input file
|  2> # SCF done       -213.457673375170          0.000519550441
|  3> ! CAM-B3LYP def2-SVP def2/J RIJCOSX Grid4 TightSCF
|  4> %maxcore 5000
|  5> %tddft
|  6>     Mode sTDDFT
|  7>     Ethresh 5.0
|  8>     maxcore 5000
|  9> end
| 10>
| 11> %pal
| 12>   nprocs 6
| 13>   end
| 14> * xyz 0 1
| 15>    C       -1.62801         1.91881        -4.90692
| 16>    C       -0.36029         1.68337        -5.37351
| 17>    C       -0.06586         0.84969        -6.47360
| 18>    N        0.24038         0.18966        -7.36114
| 19>    C        0.82106         2.24664        -4.84906
| 20>    N        1.81530         2.68809        -4.47725
| 21>    C       -2.85621         1.36933        -5.46871
| 22>    C       -3.96517         1.89076        -4.73958
| 23>    C       -5.25347         1.55791        -5.04529
| 24>    C       -5.49860         0.66800        -6.11472
| 25>    C       -4.39654         0.13879        -6.84710
| 26>    C       -3.07306         0.50291        -6.50737
| 27>    C       -4.65267        -0.74827        -7.91207
| 28>    C       -5.93506        -1.09663        -8.23984
| 29>    C       -7.01898        -0.57494        -7.51831
| 30>    C       -6.80550         0.28873        -6.47800
| 31>    C       -3.47187         2.78698        -3.68738
| 32>    O       -4.14321         3.43372        -2.90161
| 33>    C       -2.00480         2.76611        -3.78680
| 34>    C       -1.13081         3.39495        -2.94850
| 35>    C       -1.36697         4.22526        -1.83511
| 36>    S       -2.91744         4.81287        -1.32604
| 37>    C       -2.19370         5.79689        -0.09665
| 38>    C       -0.80821         5.66715        -0.08328
| 39>    C       -0.34505         4.75568        -1.03629
| 40>    C        1.09020         4.34324        -1.11853
| 41>    N        1.23419         2.88043        -0.73976
| 42>    O        2.25520         2.56686        -0.19189
| 43>    O        0.33669         2.13418        -1.03535
| 44>    C        2.01218         5.16944        -0.21712
| 45>    C        1.48238         6.58207        -0.01948
| 46>    C        0.13596         6.50914         0.70911
| 47>    N       -0.36277         7.90108         0.82985
| 48>    O       -0.11289         8.48681         1.85335
| 49>    O       -0.94064         8.37311        -0.12011
| 50>    C       -2.97549         6.56223         0.82108
| 51>    N       -4.14794         7.19939         0.51663
| 52>    C       -4.78381         7.32774        -0.77306
| 53>    C       -5.89763         6.30302        -0.96641
| 54>    C       -4.68123         7.87967         1.63650
| 55>    O       -5.69803         8.53712         1.60047
| 56>    C       -3.75117         7.58699         2.70000
| 57>    C       -2.71294         6.77948         2.17374
| 58>    C       -1.82448         6.46666         3.26882
| 59>    O       -0.82604         5.76943         3.32904
| 60>    N       -2.34710         7.15728         4.37216
| 61>    C       -1.69915         7.02914         5.65534
| 62>    C       -2.47512         6.11730         6.60203
| 63>    C       -3.50866         7.82541         4.04890
| 64>    C       -4.36326         8.63214         4.84358
| 65>    C       -4.19241         9.07990         6.11232
| 66>    C       -5.13711         9.88421         6.80484
| 67>    S       -4.75633        10.44391         8.40969
| 68>    C       -6.29453        11.23083         8.57779
| 69>    C       -7.04867        11.06593         7.41058
| 70>    C       -6.39319        10.31563         6.42411
| 71>    C       -8.31587        11.63382         7.17753
| 72>    N       -9.33293        12.09211         6.91318
| 73>    C       -6.59806        11.89649         9.78850
| 74>    C       -7.83006        12.31819        10.18154
| 75>    C       -8.00745        12.97123        11.42394
| 76>    C       -9.21471        13.28069        11.98037
| 77>    C       -9.44477        13.99109        13.22528
| 78>    C       -8.49456        14.53520        14.05152
| 79>    C       -8.78597        15.22819        15.24553
| 80>    N       -8.94863        15.80020        16.22760
| 81>    C       -7.10027        14.49353        13.84458
| 82>    N       -5.95529        14.50552        13.75263
| 83>    C      -10.88566        14.04577        13.44618
| 84>    C      -11.54008        13.39534        12.36140
| 85>    C      -10.53449        12.88769        11.41243
| 86>    O      -10.74562        12.25115        10.40344
| 87>    C      -12.89901        13.28508        12.29796
| 88>    C      -13.68362        13.82940        13.33905
| 89>    C      -13.03764        14.48049        14.42950
| 90>    C      -11.62816        14.58113        14.46610
| 91>    C      -13.82945        15.01553        15.46617
| 92>    C      -15.19331        14.91238        15.42956
| 93>    C      -15.82816        14.27115        14.35526
| 94>    C      -15.08948        13.74187        13.33192
| 95>    H       -6.07556         1.96824        -4.47784
| 96>    H       -2.26201         0.08339        -7.08092
| 97>    H       -3.81508        -1.14728        -8.46499
| 98>    H       -6.12086        -1.77657        -9.05754
| 99>    H       -8.02394        -0.86056        -7.79047
|100>    H       -7.63618         0.69358        -5.91874
|101>    H       -0.08482         3.23921        -3.16422
|102>    H        1.43958         4.37673        -2.15918
|103>    H        3.01358         5.20128        -0.64517
|104>    H        2.08874         4.68475         0.75874
|105>    H        1.34417         7.07623        -0.98480
|106>    H        2.19168         7.16167         0.57228
|107>    H        0.26284         6.12787         1.73371
|108>    H       -4.02854         7.24141        -1.55620
|109>    H       -5.21529         8.33297        -0.80161
|110>    H       -5.50834         5.28830        -0.95257
|111>    H       -6.38105         6.47280        -1.92392
|112>    H       -6.63767         6.41266        -0.17766
|113>    H       -1.53716         8.01914         6.08781
|114>    H       -0.72120         6.58562         5.44544
|115>    H       -3.48512         6.48506         6.76767
|116>    H       -1.96161         6.05816         7.55767
|117>    H       -2.53842         5.11716         6.18045
|118>    H       -5.25273         8.93032         4.30401
|119>    H       -3.30090         8.84798         6.67325
|120>    H       -6.83448        10.10006         5.46770
|121>    H       -5.76211        12.03115        10.46596
|122>    H       -8.69938        12.14210         9.56609
|123>    H       -7.10329        13.23112        11.96021
|124>    H      -13.36832        12.78600        11.46323
|125>    H      -11.17148        15.07845        15.30684
|126>    H      -13.33606        15.50846        16.29100
|127>    H      -15.79096        15.32438        16.22885
|128>    H      -16.90540        14.19854        14.34286
|129>    H      -15.57238        13.24702        12.50205
|130> *
|131>
|132>                          ****END OF INPUT****

CARTESIAN COORDINATES (ANGSTROEM)
---------------------------------
  C     -1.628010    1.918810   -4.906920
  C     -0.360290    1.683370   -5.373510
  C     -0.065860    0.849690   -6.473600
  N      0.240380    0.189660   -7.361140
  C      0.821060    2.246640   -4.849060
  N      1.815300    2.688090   -4.477250
  C     -2.856210    1.369330   -5.468710
  C     -3.965170    1.890760   -4.739580
  C     -5.253470    1.557910   -5.045290
  C     -5.498600    0.668000   -6.114720
  C     -4.396540    0.138790   -6.847100
  C     -3.073060    0.502910   -6.507370
  C     -4.652670   -0.748270   -7.912070
  C     -5.935060   -1.096630   -8.239840
  C     -7.018980   -0.574940   -7.518310
  C     -6.805500    0.288730   -6.478000
  C     -3.471870    2.786980   -3.687380
  O     -4.143210    3.433720   -2.901610
  C     -2.004800    2.766110   -3.786800
  C     -1.130810    3.394950   -2.948500
  C     -1.366970    4.225260   -1.835110
  S     -2.917440    4.812870   -1.326040
  C     -2.193700    5.796890   -0.096650
  C     -0.808210    5.667150   -0.083280
  C     -0.345050    4.755680   -1.036290
  C      1.090200    4.343240   -1.118530
  N      1.234190    2.880430   -0.739760
  O      2.255200    2.566860   -0.191890
  O      0.336690    2.134180   -1.035350
  C      2.012180    5.169440   -0.217120
  C      1.482380    6.582070   -0.019480
  C      0.135960    6.509140    0.709110
  N     -0.362770    7.901080    0.829850
  O     -0.112890    8.486810    1.853350
  O     -0.940640    8.373110   -0.120110
  C     -2.975490    6.562230    0.821080
  N     -4.147940    7.199390    0.516630
  C     -4.783810    7.327740   -0.773060
  C     -5.897630    6.303020   -0.966410
  C     -4.681230    7.879670    1.636500
  O     -5.698030    8.537120    1.600470
  C     -3.751170    7.586990    2.700000
  C     -2.712940    6.779480    2.173740
  C     -1.824480    6.466660    3.268820
  O     -0.826040    5.769430    3.329040
  N     -2.347100    7.157280    4.372160
  C     -1.699150    7.029140    5.655340
  C     -2.475120    6.117300    6.602030
  C     -3.508660    7.825410    4.048900
  C     -4.363260    8.632140    4.843580
  C     -4.192410    9.079900    6.112320
  C     -5.137110    9.884210    6.804840
  S     -4.756330   10.443910    8.409690
  C     -6.294530   11.230830    8.577790
  C     -7.048670   11.065930    7.410580
  C     -6.393190   10.315630    6.424110
  C     -8.315870   11.633820    7.177530
  N     -9.332930   12.092110    6.913180
  C     -6.598060   11.896490    9.788500
  C     -7.830060   12.318190   10.181540
  C     -8.007450   12.971230   11.423940
  C     -9.214710   13.280690   11.980370
  C     -9.444770   13.991090   13.225280
  C     -8.494560   14.535200   14.051520
  C     -8.785970   15.228190   15.245530
  N     -8.948630   15.800200   16.227600
  C     -7.100270   14.493530   13.844580
  N     -5.955290   14.505520   13.752630
  C    -10.885660   14.045770   13.446180
  C    -11.540080   13.395340   12.361400
  C    -10.534490   12.887690   11.412430
  O    -10.745620   12.251150   10.403440
  C    -12.899010   13.285080   12.297960
  C    -13.683620   13.829400   13.339050
  C    -13.037640   14.480490   14.429500
  C    -11.628160   14.581130   14.466100
  C    -13.829450   15.015530   15.466170
  C    -15.193310   14.912380   15.429560
  C    -15.828160   14.271150   14.355260
  C    -15.089480   13.741870   13.331920
  H     -6.075560    1.968240   -4.477840
  H     -2.262010    0.083390   -7.080920
  H     -3.815080   -1.147280   -8.464990
  H     -6.120860   -1.776570   -9.057540
  H     -8.023940   -0.860560   -7.790470
  H     -7.636180    0.693580   -5.918740
  H     -0.084820    3.239210   -3.164220
  H      1.439580    4.376730   -2.159180
  H      3.013580    5.201280   -0.645170
  H      2.088740    4.684750    0.758740
  H      1.344170    7.076230   -0.984800
  H      2.191680    7.161670    0.572280
  H      0.262840    6.127870    1.733710
  H     -4.028540    7.241410   -1.556200
  H     -5.215290    8.332970   -0.801610
  H     -5.508340    5.288300   -0.952570
  H     -6.381050    6.472800   -1.923920
  H     -6.637670    6.412660   -0.177660
  H     -1.537160    8.019140    6.087810
  H     -0.721200    6.585620    5.445440
  H     -3.485120    6.485060    6.767670
  H     -1.961610    6.058160    7.557670
  H     -2.538420    5.117160    6.180450
  H     -5.252730    8.930320    4.304010
  H     -3.300900    8.847980    6.673250
  H     -6.834480   10.100060    5.467700
  H     -5.762110   12.031150   10.465960
  H     -8.699380   12.142100    9.566090
  H     -7.103290   13.231120   11.960210
  H    -13.368320   12.786000   11.463230
  H    -11.171480   15.078450   15.306840
  H    -13.336060   15.508460   16.291000
  H    -15.790960   15.324380   16.228850
  H    -16.905400   14.198540   14.342860
  H    -15.572380   13.247020   12.502050

 Total Charge           Charge          ....    0
 Multiplicity           Mult            ....    1
 Number of Electrons    NEL             ....  560
 Basis Dimension        Dim             .... 1303

ORBITAL ENERGIES
----------------

  NO   OCC          E(Eh)            E(eV)
   0   2.0000     -88.988168     -2421.4912
   1   2.0000     -88.984560     -2421.3930
   2   2.0000     -19.258583      -524.0527
   3   2.0000     -19.257411      -524.0208
   4   2.0000     -19.251662      -523.8644
   5   2.0000     -19.250337      -523.8283
   6   2.0000     -19.232267      -523.3366
   7   2.0000     -19.214359      -522.8493
   8   2.0000     -19.201542      -522.5005
   9   2.0000     -19.199070      -522.4333
  10   2.0000     -14.655712      -398.8022
  11   2.0000     -14.648518      -398.6064
  12   2.0000     -14.463895      -393.5826
  13   2.0000     -14.463217      -393.5641
  14   2.0000     -14.429007      -392.6332
  15   2.0000     -14.420882      -392.4122
  16   2.0000     -14.417242      -392.3131
  17   2.0000     -14.414165      -392.2294
  18   2.0000     -14.413080      -392.1998
  19   2.0000     -10.385556      -282.6054
  20   2.0000     -10.381567      -282.4968
  21   2.0000     -10.379542      -282.4417
  22   2.0000     -10.364871      -282.0425
  23   2.0000     -10.359393      -281.8934
  24   2.0000     -10.352256      -281.6992
  25   2.0000     -10.350143      -281.6417
  26   2.0000     -10.349519      -281.6247
  27   2.0000     -10.348844      -281.6064
  28   2.0000     -10.342001      -281.4201
  29   2.0000     -10.340284      -281.3734
  30   2.0000     -10.340182      -281.3707
  31   2.0000     -10.333709      -281.1945
  32   2.0000     -10.333155      -281.1794
  33   2.0000     -10.332913      -281.1729
  34   2.0000     -10.332657      -281.1659
  35   2.0000     -10.332086      -281.1503
  36   2.0000     -10.331138      -281.1246
  37   2.0000     -10.328591      -281.0552
  38   2.0000     -10.323740      -280.9233
  39   2.0000     -10.320097      -280.8241
  40   2.0000     -10.317537      -280.7544
  41   2.0000     -10.317087      -280.7422
  42   2.0000     -10.316964      -280.7389
  43   2.0000     -10.315217      -280.6913
  44   2.0000     -10.315200      -280.6909
  45   2.0000     -10.314963      -280.6844
  46   2.0000     -10.312882      -280.6278
  47   2.0000     -10.312399      -280.6146
  48   2.0000     -10.310254      -280.5563
  49   2.0000     -10.308559      -280.5102
  50   2.0000     -10.308549      -280.5099
  51   2.0000     -10.308453      -280.5073
  52   2.0000     -10.306555      -280.4556
  53   2.0000     -10.304957      -280.4121
  54   2.0000     -10.304525      -280.4004
  55   2.0000     -10.304272      -280.3935
  56   2.0000     -10.303978      -280.3855
  57   2.0000     -10.301611      -280.3211
  58   2.0000     -10.299856      -280.2733
  59   2.0000     -10.299466      -280.2627
  60   2.0000     -10.297350      -280.2051
  61   2.0000     -10.296773      -280.1894
  62   2.0000     -10.296398      -280.1792
  63   2.0000     -10.296146      -280.1724
  64   2.0000     -10.295459      -280.1537
  65   2.0000     -10.294534      -280.1285
  66   2.0000     -10.293941      -280.1124
  67   2.0000     -10.292774      -280.0806
  68   2.0000     -10.292275      -280.0670
  69   2.0000     -10.291843      -280.0553
  70   2.0000     -10.291361      -280.0422
  71   2.0000     -10.286495      -279.9098
  72   2.0000     -10.285457      -279.8815
  73   2.0000     -10.284821      -279.8642
  74   2.0000     -10.284653      -279.8596
  75   2.0000     -10.284242      -279.8485
  76   2.0000     -10.274064      -279.5715
  77   2.0000     -10.271451      -279.5004
  78   2.0000     -10.270546      -279.4758
  79   2.0000     -10.258427      -279.1460
  80   2.0000      -8.083966      -219.9759
  81   2.0000      -8.077093      -219.7889
  82   2.0000      -6.053032      -164.7114
  83   2.0000      -6.049041      -164.6028
  84   2.0000      -6.046491      -164.5334
  85   2.0000      -6.046313      -164.5285
  86   2.0000      -6.041778      -164.4051
  87   2.0000      -6.039578      -164.3453
  88   2.0000      -1.340499       -36.4768
  89   2.0000      -1.331660       -36.2363
  90   2.0000      -1.162666       -31.6378
  91   2.0000      -1.151789       -31.3418
  92   2.0000      -1.147034       -31.2124
  93   2.0000      -1.143409       -31.1137
  94   2.0000      -1.136108       -30.9151
  95   2.0000      -1.129340       -30.7309
  96   2.0000      -1.073937       -29.2233
  97   2.0000      -1.065282       -28.9878
  98   2.0000      -1.028429       -27.9850
  99   2.0000      -1.023572       -27.8528
 100   2.0000      -1.022762       -27.8308
 101   2.0000      -1.017943       -27.6996
 102   2.0000      -1.008413       -27.4403
 103   2.0000      -1.001928       -27.2639
 104   2.0000      -0.997880       -27.1537
 105   2.0000      -0.993673       -27.0392
 106   2.0000      -0.992644       -27.0112
 107   2.0000      -0.979489       -26.6533
 108   2.0000      -0.970635       -26.4123
 109   2.0000      -0.964962       -26.2579
 110   2.0000      -0.944091       -25.6900
 111   2.0000      -0.940721       -25.5983
 112   2.0000      -0.936414       -25.4811
 113   2.0000      -0.931134       -25.3374
 114   2.0000      -0.924952       -25.1692
 115   2.0000      -0.915960       -24.9245
 116   2.0000      -0.912431       -24.8285
 117   2.0000      -0.893895       -24.3241
 118   2.0000      -0.890883       -24.2422
 119   2.0000      -0.887873       -24.1603
 120   2.0000      -0.882947       -24.0262
 121   2.0000      -0.879836       -23.9415
 122   2.0000      -0.877691       -23.8832
 123   2.0000      -0.868621       -23.6364
 124   2.0000      -0.861541       -23.4437
 125   2.0000      -0.853832       -23.2339
 126   2.0000      -0.837474       -22.7888
 127   2.0000      -0.835883       -22.7455
 128   2.0000      -0.833247       -22.6738
 129   2.0000      -0.826908       -22.5013
 130   2.0000      -0.826244       -22.4832
 131   2.0000      -0.816613       -22.2212
 132   2.0000      -0.803865       -21.8743
 133   2.0000      -0.781980       -21.2788
 134   2.0000      -0.772730       -21.0270
 135   2.0000      -0.771496       -20.9935
 136   2.0000      -0.765534       -20.8312
 137   2.0000      -0.760648       -20.6983
 138   2.0000      -0.741697       -20.1826
 139   2.0000      -0.736156       -20.0318
 140   2.0000      -0.729105       -19.8400
 141   2.0000      -0.726790       -19.7770
 142   2.0000      -0.717112       -19.5136
 143   2.0000      -0.713316       -19.4103
 144   2.0000      -0.707795       -19.2601
 145   2.0000      -0.705201       -19.1895
 146   2.0000      -0.703344       -19.1390
 147   2.0000      -0.700598       -19.0642
 148   2.0000      -0.699538       -19.0354
 149   2.0000      -0.689370       -18.7587
 150   2.0000      -0.688016       -18.7219
 151   2.0000      -0.684995       -18.6397
 152   2.0000      -0.683723       -18.6051
 153   2.0000      -0.671155       -18.2631
 154   2.0000      -0.669212       -18.2102
 155   2.0000      -0.662157       -18.0182
 156   2.0000      -0.658260       -17.9122
 157   2.0000      -0.651523       -17.7289
 158   2.0000      -0.646920       -17.6036
 159   2.0000      -0.644248       -17.5309
 160   2.0000      -0.640759       -17.4359
 161   2.0000      -0.636397       -17.3172
 162   2.0000      -0.633005       -17.2249
 163   2.0000      -0.628889       -17.1129
 164   2.0000      -0.626700       -17.0534
 165   2.0000      -0.620101       -16.8738
 166   2.0000      -0.615332       -16.7440
 167   2.0000      -0.613559       -16.6958
 168   2.0000      -0.605383       -16.4733
 169   2.0000      -0.601048       -16.3553
 170   2.0000      -0.598346       -16.2818
 171   2.0000      -0.597957       -16.2712
 172   2.0000      -0.592517       -16.1232
 173   2.0000      -0.590092       -16.0572
 174   2.0000      -0.586958       -15.9719
 175   2.0000      -0.584560       -15.9067
 176   2.0000      -0.581538       -15.8245
 177   2.0000      -0.565595       -15.3906
 178   2.0000      -0.563561       -15.3353
 179   2.0000      -0.560825       -15.2608
 180   2.0000      -0.559024       -15.2118
 181   2.0000      -0.556649       -15.1472
 182   2.0000      -0.555446       -15.1145
 183   2.0000      -0.552248       -15.0274
 184   2.0000      -0.549026       -14.9397
 185   2.0000      -0.547734       -14.9046
 186   2.0000      -0.546213       -14.8632
 187   2.0000      -0.544649       -14.8206
 188   2.0000      -0.544393       -14.8137
 189   2.0000      -0.537675       -14.6309
 190   2.0000      -0.536801       -14.6071
 191   2.0000      -0.535857       -14.5814
 192   2.0000      -0.533427       -14.5153
 193   2.0000      -0.528592       -14.3837
 194   2.0000      -0.527984       -14.3672
 195   2.0000      -0.525807       -14.3079
 196   2.0000      -0.523883       -14.2556
 197   2.0000      -0.522667       -14.2225
 198   2.0000      -0.519975       -14.1492
 199   2.0000      -0.519344       -14.1321
 200   2.0000      -0.517235       -14.0747
 201   2.0000      -0.515490       -14.0272
 202   2.0000      -0.513415       -13.9707
 203   2.0000      -0.512434       -13.9440
 204   2.0000      -0.510005       -13.8780
 205   2.0000      -0.506090       -13.7714
 206   2.0000      -0.504764       -13.7353
 207   2.0000      -0.501670       -13.6511
 208   2.0000      -0.499806       -13.6004
 209   2.0000      -0.498595       -13.5674
 210   2.0000      -0.496260       -13.5039
 211   2.0000      -0.495547       -13.4845
 212   2.0000      -0.485696       -13.2165
 213   2.0000      -0.483970       -13.1695
 214   2.0000      -0.482737       -13.1359
 215   2.0000      -0.480287       -13.0693
 216   2.0000      -0.478026       -13.0077
 217   2.0000      -0.476277       -12.9602
 218   2.0000      -0.475971       -12.9518
 219   2.0000      -0.473122       -12.8743
 220   2.0000      -0.467571       -12.7232
 221   2.0000      -0.465960       -12.6794
 222   2.0000      -0.463014       -12.5993
 223   2.0000      -0.461976       -12.5710
 224   2.0000      -0.460034       -12.5181
 225   2.0000      -0.456916       -12.4333
 226   2.0000      -0.454145       -12.3579
 227   2.0000      -0.452736       -12.3196
 228   2.0000      -0.451158       -12.2766
 229   2.0000      -0.449518       -12.2320
 230   2.0000      -0.448576       -12.2064
 231   2.0000      -0.447058       -12.1651
 232   2.0000      -0.444380       -12.0922
 233   2.0000      -0.443257       -12.0616
 234   2.0000      -0.442790       -12.0489
 235   2.0000      -0.441079       -12.0024
 236   2.0000      -0.439325       -11.9546
 237   2.0000      -0.439018       -11.9463
 238   2.0000      -0.437787       -11.9128
 239   2.0000      -0.435891       -11.8612
 240   2.0000      -0.435338       -11.8462
 241   2.0000      -0.433696       -11.8015
 242   2.0000      -0.433192       -11.7877
 243   2.0000      -0.431504       -11.7418
 244   2.0000      -0.429881       -11.6977
 245   2.0000      -0.427279       -11.6269
 246   2.0000      -0.425472       -11.5777
 247   2.0000      -0.421421       -11.4674
 248   2.0000      -0.419557       -11.4167
 249   2.0000      -0.417152       -11.3513
 250   2.0000      -0.414016       -11.2659
 251   2.0000      -0.411153       -11.1880
 252   2.0000      -0.410476       -11.1696
 253   2.0000      -0.405285       -11.0284
 254   2.0000      -0.401534       -10.9263
 255   2.0000      -0.396661       -10.7937
 256   2.0000      -0.393759       -10.7147
 257   2.0000      -0.389347       -10.5947
 258   2.0000      -0.388440       -10.5700
 259   2.0000      -0.384193       -10.4544
 260   2.0000      -0.381495       -10.3810
 261   2.0000      -0.379925       -10.3383
 262   2.0000      -0.376058       -10.2330
 263   2.0000      -0.369851       -10.0642
 264   2.0000      -0.360583        -9.8120
 265   2.0000      -0.356377        -9.6975
 266   2.0000      -0.346875        -9.4390
 267   2.0000      -0.345979        -9.4146
 268   2.0000      -0.341805        -9.3010
 269   2.0000      -0.338715        -9.2169
 270   2.0000      -0.335100        -9.1185
 271   2.0000      -0.333393        -9.0721
 272   2.0000      -0.325014        -8.8441
 273   2.0000      -0.324281        -8.8241
 274   2.0000      -0.315591        -8.5877
 275   2.0000      -0.308698        -8.4001
 276   2.0000      -0.297254        -8.0887
 277   2.0000      -0.295018        -8.0278
 278   2.0000      -0.283878        -7.7247
 279   2.0000      -0.247811        -6.7433
 280   0.0000      -0.116210        -3.1622
 281   0.0000      -0.102787        -2.7970
 282   0.0000      -0.078161        -2.1269
 283   0.0000      -0.066733        -1.8159
 284   0.0000      -0.057262        -1.5582

MULLIKEN ATOMIC CHARGES
-----------------------
   0 C :    0.331501
   1 C :   -0.351055
   2 C :   -0.183401
   3 N :    0.150850
   4 C :   -0.162278
   5 N :    0.130945
   6 C :    0.041997
   7 C :   -0.002893
   8 C :   -0.075298
   9 C :    0.094244
  10 C :    0.094656
  11 C :   -0.076331
  12 C :   -0.015914
  13 C :    0.035530
  14 C :    0.037850
  15 C :   -0.015404
  16 C :    0.172731
  17 O :   -0.178709
  18 C :   -0.097947
  19 C :    0.016613
  20 C :   -0.050879
  21 S :    0.206443
  22 C :   -0.161873
  23 C :    0.048262
  24 C :   -0.082382
  25 C :    0.074692
  26 N :    0.209681
  27 O :   -0.204202
  28 O :   -0.218925
  29 C :    0.101390
  30 C :    0.077366
  31 C :    0.093648
  32 N :    0.182714
  33 O :   -0.215678
  34 O :   -0.219382
  35 C :    0.092118
  36 N :   -0.258463
  37 C :    0.097113
  38 C :    0.002825
  39 C :    0.156475
  40 O :   -0.186638
  41 C :   -0.040569
  42 C :   -0.040520
  43 C :    0.152852
  44 O :   -0.223785
  45 N :   -0.260794
  46 C :    0.102068
  47 C :   -0.001564
  48 C :    0.123591
  49 C :   -0.038904
  50 C :    0.091963
  51 C :   -0.086077
  52 S :    0.168007
  53 C :   -0.055769
  54 C :   -0.050536
  55 C :    0.014368
  56 C :   -0.187457
  57 N :    0.147597
  58 C :    0.052319
  59 C :   -0.015620
  60 C :   -0.049146
  61 C :   -0.061289
  62 C :    0.339567
  63 C :   -0.350607
  64 C :   -0.181319
  65 N :    0.148031
  66 C :   -0.190786
  67 N :    0.143066
  68 C :    0.043781
  69 C :   -0.002651
  70 C :    0.148448
  71 O :   -0.135199
  72 C :   -0.080888
  73 C :    0.099946
  74 C :    0.096903
  75 C :   -0.085942
  76 C :   -0.019559
  77 C :    0.036842
  78 C :    0.035068
  79 C :   -0.016506
  80 H :   -0.011862
  81 H :   -0.007582
  82 H :   -0.006914
  83 H :   -0.001469
  84 H :   -0.003121
  85 H :   -0.015998
  86 H :   -0.022586
  87 H :    0.078399
  88 H :    0.029847
  89 H :    0.035856
  90 H :    0.023369
  91 H :    0.030797
  92 H :    0.072185
  93 H :    0.036853
  94 H :    0.038432
  95 H :    0.030614
  96 H :    0.021216
  97 H :    0.030306
  98 H :    0.028510
  99 H :    0.046541
 100 H :    0.021033
 101 H :    0.024559
 102 H :    0.029682
 103 H :    0.011853
 104 H :   -0.020598
 105 H :    0.016136
 106 H :    0.008581
 107 H :    0.055601
 108 H :    0.012128
 109 H :   -0.010513
 110 H :   -0.008291
 111 H :   -0.009262
 112 H :   -0.005079
 113 H :   -0.003721
 114 H :   -0.016428
Sum of atomic charges:    0.0000000

LOEWDIN ATOMIC CHARGES
----------------------
   0 C :    0.081898
   1 C :   -0.139404
   2 C :   -0.017548
   3 N :   -0.049640
   4 C :   -0.010344
   5 N :   -0.062766
   6 C :   -0.025930
   7 C :   -0.056092
   8 C :    0.035102
   9 C :   -0.007987
  10 C :   -0.005564
  11 C :    0.023447
  12 C :   -0.003852
  13 C :   -0.011004
  14 C :   -0.009687
  15 C :   -0.008552
  16 C :    0.088383
  17 O :   -0.167130
  18 C :   -0.095706
  19 C :    0.064088
  20 C :   -0.171298
  21 S :    0.565985
  22 C :   -0.176284
  23 C :   -0.041382
  24 C :   -0.045373
  25 C :    0.015767
  26 N :    0.274081
  27 O :   -0.172998
  28 O :   -0.182356
  29 C :   -0.024387
  30 C :   -0.015211
  31 C :    0.004857
  32 N :    0.278040
  33 O :   -0.187308
  34 O :   -0.200560
  35 C :    0.057584
  36 N :    0.006676
  37 C :    0.031179
  38 C :   -0.064033
  39 C :    0.083187
  40 O :   -0.187330
  41 C :   -0.105569
  42 C :   -0.130105
  43 C :    0.085623
  44 O :   -0.200998
  45 N :    0.003554
  46 C :    0.036639
  47 C :   -0.062986
  48 C :    0.074503
  49 C :   -0.016492
  50 C :   -0.026623
  51 C :   -0.160435
  52 S :    0.474420
  53 C :   -0.148447
  54 C :   -0.085024
  55 C :   -0.012837
  56 C :   -0.032617
  57 N :   -0.033164
  58 C :   -0.004876
  59 C :   -0.008816
  60 C :    0.062694
  61 C :   -0.082230
  62 C :    0.075392
  63 C :   -0.137898
  64 C :   -0.016891
  65 N :   -0.053393
  66 C :   -0.019520
  67 N :   -0.054557
  68 C :   -0.026308
  69 C :   -0.055126
  70 C :    0.083317
  71 O :   -0.132265
  72 C :    0.033226
  73 C :   -0.007553
  74 C :   -0.006261
  75 C :    0.019297
  76 C :   -0.005413
  77 C :   -0.013694
  78 C :   -0.012164
  79 C :   -0.009268
  80 H :    0.039569
  81 H :    0.039826
  82 H :    0.035666
  83 H :    0.034420
  84 H :    0.033733
  85 H :    0.032452
  86 H :    0.038775
  87 H :    0.056380
  88 H :    0.042000
  89 H :    0.038834
  90 H :    0.029318
  91 H :    0.038381
  92 H :    0.044356
  93 H :    0.021192
  94 H :    0.037050
  95 H :    0.014881
  96 H :    0.031659
  97 H :    0.030734
  98 H :    0.021212
  99 H :    0.039365
 100 H :    0.021610
 101 H :    0.031787
 102 H :    0.033459
 103 H :    0.047551
 104 H :    0.029085
 105 H :    0.045875
 106 H :    0.037495
 107 H :    0.041590
 108 H :    0.041842
 109 H :    0.040091
 110 H :    0.038908
 111 H :    0.034681
 112 H :    0.033151
 113 H :    0.033071
 114 H :    0.032314

  Mayer bond orders larger than 0.100000
B(  0-C ,  1-C ) :   1.6280 B(  0-C ,  6-C ) :   0.9900 B(  0-C , 18-C ) :   1.0670
B(  1-C ,  2-C ) :   1.1481 B(  1-C ,  4-C ) :   1.1499 B(  2-C ,  3-N ) :   2.9623
B(  4-C ,  5-N ) :   2.9482 B(  6-C ,  7-C ) :   1.2130 B(  6-C , 11-C ) :   1.4533
B(  7-C ,  8-C ) :   1.4659 B(  7-C , 16-C ) :   0.9638 B(  8-C ,  9-C ) :   1.1806
B(  8-C , 80-H ) :   1.0163 B(  9-C , 10-C ) :   1.2551 B(  9-C , 15-C ) :   1.2446
B( 10-C , 11-C ) :   1.2057 B( 10-C , 12-C ) :   1.2411 B( 11-C , 81-H ) :   0.9888
B( 12-C , 13-C ) :   1.4870 B( 12-C , 82-H ) :   0.9974 B( 13-C , 14-C ) :   1.2603
B( 13-C , 83-H ) :   0.9893 B( 14-C , 15-C ) :   1.4886 B( 14-C , 84-H ) :   0.9895
B( 15-C , 85-H ) :   0.9976 B( 16-C , 17-O ) :   2.1264 B( 16-C , 18-C ) :   0.9624
B( 18-C , 19-C ) :   1.5850 B( 19-C , 20-C ) :   1.2115 B( 19-C , 86-H ) :   0.9029
B( 20-C , 21-S ) :   1.1254 B( 20-C , 22-C ) :   0.1066 B( 20-C , 24-C ) :   1.3908
B( 21-S , 22-C ) :   1.1223 B( 22-C , 23-C ) :   1.4818 B( 22-C , 35-C ) :   1.0638
B( 23-C , 24-C ) :   1.4157 B( 23-C , 31-C ) :   0.9686 B( 24-C , 25-C ) :   1.0132
B( 25-C , 26-N ) :   0.8270 B( 25-C , 29-C ) :   1.0800 B( 25-C , 87-H ) :   0.8530
B( 26-N , 27-O ) :   1.6019 B( 26-N , 28-O ) :   1.5824 B( 27-O , 28-O ) :   0.2645
B( 29-C , 30-C ) :   1.1049 B( 29-C , 88-H ) :   0.9124 B( 29-C , 89-H ) :   0.9084
B( 30-C , 31-C ) :   1.0613 B( 30-C , 90-H ) :   0.9236 B( 30-C , 91-H ) :   0.9275
B( 31-C , 32-N ) :   0.8292 B( 31-C , 92-H ) :   0.8501 B( 32-N , 33-O ) :   1.5555
B( 32-N , 34-O ) :   1.5694 B( 33-O , 34-O ) :   0.2628 B( 35-C , 36-N ) :   1.2238
B( 35-C , 42-C ) :   1.3733 B( 36-N , 37-C ) :   0.9357 B( 36-N , 39-C ) :   1.0227
B( 37-C , 38-C ) :   1.1142 B( 37-C , 93-H ) :   0.9469 B( 37-C , 94-H ) :   0.9298
B( 38-C , 95-H ) :   0.9625 B( 38-C , 96-H ) :   0.9666 B( 38-C , 97-H ) :   0.9635
B( 39-C , 40-O ) :   2.1276 B( 39-C , 41-C ) :   0.9812 B( 41-C , 42-C ) :   1.2244
B( 41-C , 48-C ) :   1.3593 B( 42-C , 43-C ) :   0.9893 B( 43-C , 44-O ) :   1.9995
B( 43-C , 45-N ) :   1.0669 B( 44-O , 92-H ) :   0.1078 B( 45-N , 46-C ) :   0.9415
B( 45-N , 48-C ) :   1.1556 B( 46-C , 47-C ) :   1.1166 B( 46-C , 98-H ) :   0.9503
B( 46-C , 99-H ) :   0.9220 B( 47-C ,100-H ) :   0.9685 B( 47-C ,101-H ) :   0.9679
B( 47-C ,102-H ) :   0.9614 B( 48-C , 49-C ) :   1.1899 B( 49-C , 50-C ) :   1.6067
B( 49-C ,103-H ) :   0.9463 B( 50-C , 51-C ) :   1.1139 B( 50-C ,104-H ) :   0.9608
B( 51-C , 52-S ) :   1.1318 B( 51-C , 55-C ) :   1.4611 B( 52-S , 53-C ) :   1.1382
B( 53-C , 54-C ) :   1.4333 B( 53-C , 58-C ) :   1.1274 B( 54-C , 55-C ) :   1.3189
B( 54-C , 56-C ) :   1.1146 B( 55-C ,105-H ) :   0.9996 B( 56-C , 57-N ) :   2.9946
B( 58-C , 59-C ) :   1.5936 B( 58-C ,106-H ) :   0.9583 B( 59-C , 60-C ) :   1.1579
B( 59-C ,107-H ) :   0.9665 B( 60-C , 61-C ) :   1.5527 B( 60-C ,108-H ) :   0.9618
B( 61-C , 62-C ) :   1.0592 B( 61-C , 70-C ) :   0.9340 B( 62-C , 63-C ) :   1.6250
B( 62-C , 68-C ) :   0.9904 B( 63-C , 64-C ) :   1.1452 B( 63-C , 66-C ) :   1.1471
B( 64-C , 65-N ) :   2.9614 B( 66-C , 67-N ) :   2.9582 B( 68-C , 69-C ) :   1.2143
B( 68-C , 75-C ) :   1.4468 B( 69-C , 70-C ) :   0.9435 B( 69-C , 72-C ) :   1.4728
B( 70-C , 71-O ) :   2.2137 B( 72-C , 73-C ) :   1.1784 B( 72-C ,109-H ) :   1.0162
B( 73-C , 74-C ) :   1.2547 B( 73-C , 79-C ) :   1.2444 B( 74-C , 75-C ) :   1.2083
B( 74-C , 76-C ) :   1.2398 B( 75-C ,110-H ) :   0.9884 B( 76-C , 77-C ) :   1.4903
B( 76-C ,111-H ) :   0.9967 B( 77-C , 78-C ) :   1.2589 B( 77-C ,112-H ) :   0.9879
B( 78-C , 79-C ) :   1.4885 B( 78-C ,113-H ) :   0.9891 B( 79-C ,114-H ) :   0.9975

-----------------------------------------------------------------------------
         ABSORPTION SPECTRUM VIA TRANSITION ELECTRIC DIPOLE MOMENTS
-----------------------------------------------------------------------------
State   Energy  Wavelength   fosc         T2         TX        TY        TZ
        (cm-1)    (nm)                  (au**2)     (au)      (au)      (au)
-----------------------------------------------------------------------------
   0   14597.3    685.1   1.785707230  40.27301   1.54067  -3.02010  -5.36454
   1   18945.3    527.8   0.210976672   3.66615  -1.34029   0.61000   1.22380
   2   22980.2    435.2   0.303302532   4.34507   1.23285  -1.16202  -1.21444
   3   23936.5    417.8   0.078558467   1.08046   0.10226  -0.28741  -0.99368
   4   24905.0    401.5   0.260806390   3.44753  -0.36692   1.22119   1.34966
   5   24939.8    401.0   0.308179122   4.06804   1.36605  -0.81414  -1.24062
   6   25876.5    386.5   0.016787850   0.21358   0.28685  -0.21310  -0.29307
   7   26231.7    381.2   0.191529303   2.40372   0.04869  -1.00675  -1.17805
   8   26486.4    377.6   0.004354335   0.05412   0.19210   0.08005   0.10398
   9   27089.5    369.1   0.210143892   2.55383   0.70418   1.01852   1.01024
  10   27708.5    360.9   0.005820765   0.06916  -0.11513  -0.17228  -0.16193
  11   27883.1    358.6   0.002402859   0.02837   0.12196   0.11596  -0.00694
  12   27979.9    357.4   0.030721667   0.36147   0.59619   0.03631  -0.06868
  13   28654.7    349.0   0.063938980   0.73459   0.63267  -0.15831   0.55611
  14   28770.5    347.6   0.004756663   0.05443   0.01629  -0.11892  -0.20005
  15   28951.9    345.4   0.014167035   0.16109   0.28879   0.20706   0.18660
  16   29857.1    334.9   0.218762357   2.41213   1.51285  -0.10342  -0.33576
  17   31363.3    318.8   0.003029292   0.03180   0.11216   0.08004  -0.11318
  18   31713.1    315.3   0.041829447   0.43423  -0.53426  -0.22719  -0.31173
  19   32115.1    311.4   0.112201797   1.15018  -0.94202  -0.46370  -0.21854
  20   32620.3    306.6   0.310822178   3.13689   1.58181   0.61378   0.50798
  21   32653.4    306.2   0.311844026   3.14401  -1.70578   0.21959   0.43142
  22   32931.5    303.7   0.023165155   0.23158  -0.45815   0.00285   0.14722
  23   33071.8    302.4   0.025471725   0.25356  -0.19245   0.41661   0.20726
  24   33235.3    300.9   0.146348731   1.44966   1.15143   0.27679   0.21735
  25   33503.8    298.5   0.205061692   2.01496  -1.35001  -0.30210  -0.31806
  26   33749.2    296.3   0.264934337   2.58435   1.48727   0.45038   0.41173
  27   33865.9    295.3   0.018090910   0.17586   0.41015  -0.00836   0.08699
  28   34133.4    293.0   0.014807763   0.14282   0.32778  -0.17994   0.05477
  29   34346.8    291.1   0.033834933   0.32431  -0.34143   0.44191   0.11159
  30   35000.9    285.7   0.055652544   0.52346  -0.70057  -0.00314  -0.18070
  31   35101.1    284.9   0.104334921   0.97855  -0.98136  -0.11028   0.05760
  32   35434.6    282.2   0.092327663   0.85779  -0.84013  -0.17740  -0.34713
  33   35709.2    280.0   0.043102863   0.39738   0.47638   0.18453   0.36931
  34   36471.7    274.2   0.005285754   0.04771   0.00947   0.00210  -0.21821
  35   36966.8    270.5   0.001777500   0.01583   0.08710   0.08001  -0.04293
  36   37241.6    268.5   0.203658408   1.80032  -1.27968  -0.29674  -0.27326
  37   37359.1    267.7   0.101838034   0.89741   0.64502  -0.67942  -0.14054
  38   38033.5    262.9   0.044596000   0.38602  -0.37911  -0.31850  -0.37530
  39   38089.9    262.5   0.121339197   1.04874   0.89889  -0.01383   0.49045
  40   38366.1    260.6   0.090203422   0.77402  -0.56317   0.23652   0.63318
  41   38579.6    259.2   0.017752670   0.15149  -0.27664   0.20034   0.18661
  42   38820.4    257.6   0.037181136   0.31531   0.46071  -0.27791  -0.16068
  43   38968.4    256.6   0.235250849   1.98744  -0.97912   0.68379   0.74913
  44   39307.6    254.4   0.155084011   1.29887   1.06395   0.06570   0.40320
  45   39726.2    251.7   0.114698803   0.95051  -0.26795  -0.53454  -0.77005
  46   39822.6    251.1   0.012861444   0.10633  -0.17354   0.15480   0.22857
  47   39891.4    250.7   0.003678704   0.03036   0.17101  -0.02868  -0.01711
  48   40133.9    249.2   0.029477052   0.24180  -0.49138  -0.00289   0.01824
  49   40277.1    248.3   0.236716213   1.93484   0.55267  -0.70661  -1.06306

FINAL SINGLE POINT ENERGY     -4231.736400460482

DIPOLE MOMENT
-------------
                                X             Y             Z
Electronic contribution:     11.78143       6.99012       1.61046
Nuclear contribution   :    -14.06204      -8.64607      -2.72132
                        -----------------------------------------
Total Dipole Moment    :     -2.28060      -1.65595      -1.11087
                        -----------------------------------------
Magnitude (a.u.)       :      3.02941
Magnitude (Debye)      :      7.70015

Rotational constants in cm-1:     0.001700     0.000180     0.000166
Rotational constants in MHz :    50.965754     5.406038     4.981690

                             ****ORCA TERMINATED NORMALLY****
TOTAL RUN TIME: 0 days 0 hours 13 minutes 20 seconds 452 msec
