                         Program Version 4.2.0 -  RELEASE  -
|  1> # ORCA input file
|  2> # SCF done       -187.072367666685          0.000326220239
|  3> ! CAM-B3LYP def2-SVP def2/J RIJCOSX Grid4 TightSCF
|  4> %maxcore 5000
|  5> %tddft
|  6>     Mode sTDDFT
|  7>     Ethresh 5.0
|  8>     maxcore 5000
|  9> end
| 10>
| 11> %pal
| 12>   nprocs 6
| 13>   end
| 14> * xyz 0 1
| 15>    C        2.15791         7.67635         8.49884
| 16>    C        2.96308         7.93432         7.41949
| 17>    C        4.27306         7.43151         7.28173
| 18>    N        5.33878         7.03774         7.11949
| 19>    C        2.60183         8.80137         6.36976
| 20>    N        2.35240         9.52404         5.51327
| 21>    C        2.57465         6.98858         9.71583
| 22>    C        1.67663         7.34053        10.76626
| 23>    C        1.83877         6.86601        12.03604
| 24>    C        2.91649         5.99499        12.31403
| 25>    C        3.80780         5.62744        11.26441
| 26>    C        3.62053         6.14025         9.96017
| 27>    C        4.87356         4.75142        11.55336
| 28>    C        5.05404         4.26236        12.81857
| 29>    C        4.17692         4.62518        13.85154
| 30>    C        3.13149         5.47338        13.60493
| 31>    C        0.62498         8.22284        10.23262
| 32>    O       -0.27303         8.76907        10.83011
| 33>    C        0.85664         8.25630         8.75706
| 34>    C       -0.13982         8.69602         7.94311
| 35>    C       -0.32284         8.45140         6.56007
| 36>    S       -1.38501         9.46125         5.61851
| 37>    C       -1.13542         8.51527         4.18648
| 38>    C       -0.27850         7.43807         4.46394
| 39>    C        0.17351         7.41881         5.78760
| 40>    C        0.11843         6.44461         3.55360
| 41>    N        0.46978         5.59892         2.86159
| 42>    C       -1.77189         8.89673         2.98770
| 43>    C       -1.66166         8.23183         1.80080
| 44>    C       -2.30974         8.62596         0.61912
| 45>    C       -3.15524         9.72738         0.36692
| 46>    C       -3.62034         9.78106        -0.98092
| 47>    N       -4.43663        10.76688        -1.39133
| 48>    C       -4.76683        11.65764        -0.49558
| 49>    C       -4.30810        11.61691         0.84817
| 50>    C       -4.71718        12.66526         1.82463
| 51>    N       -3.51402        10.65837         1.26673
| 52>    C       -3.13992         8.72062        -1.78018
| 53>    S       -2.11934         7.69037        -0.82703
| 54>    C       -3.37304         8.43020        -3.13172
| 55>    C       -4.15012         9.19162        -3.96182
| 56>    C       -4.38287         8.89679        -5.31889
| 57>    C       -5.14358         9.65317        -6.19580
| 58>    C       -5.14613         9.03926        -7.47211
| 59>    C       -4.31911         7.81979        -7.33917
| 60>    C       -3.87180         7.74842        -6.06121
| 61>    C       -4.01495         6.88729        -8.33796
| 62>    N       -3.73459         6.09953        -9.12561
| 63>    C       -5.77359         9.47163        -8.62176
| 64>    C       -5.76736         8.83989        -9.89971
| 65>    C       -6.45660         9.62700       -10.79926
| 66>    C       -6.97931        10.77672       -10.07634
| 67>    C       -6.58014        10.69007        -8.77831
| 68>    C       -6.91612        11.60401        -7.77387
| 69>    N       -7.21136        12.36426        -6.96438
| 70>    C       -6.63731         9.30639       -12.17119
| 71>    C       -6.79696        10.17878       -13.20558
| 72>    C       -7.09052         9.83142       -14.58470
| 73>    C       -7.56660         8.62653       -15.03166
| 74>    C       -7.85753         8.34559       -16.38301
| 75>    N       -8.10709         8.05719       -17.46577
| 76>    C       -7.86891         7.52148       -14.20783
| 77>    N       -8.16401         6.59380       -13.59901
| 78>    C       -6.87697        11.02005       -15.40005
| 79>    C       -6.52528        12.10156       -14.54266
| 80>    C       -6.47250        11.63140       -13.14812
| 81>    O       -6.15103        12.28018       -12.17646
| 82>    C       -6.26939        13.35236       -15.02613
| 83>    C       -6.35545        13.58364       -16.41712
| 84>    C       -6.70008        12.50544       -17.28280
| 85>    C       -6.95885        11.22068       -16.75280
| 86>    C       -6.77616        12.74628       -18.66976
| 87>    C       -6.52544        13.99143       -19.17876
| 88>    C       -6.18701        15.05234       -18.32544
| 89>    C       -6.10438        14.85299       -16.97400
| 90>    H        1.15241         7.14987        12.81988
| 91>    H        4.30331         5.83827         9.18120
| 92>    H        5.54785         4.47755        10.75530
| 93>    H        5.87436         3.59314        13.03030
| 94>    H        4.33343         4.22904        14.84365
| 95>    H        2.45306         5.75597        14.39652
| 96>    H       -0.93511         9.24151         8.44191
| 97>    H        0.81032         6.64148         6.17319
| 98>    H       -2.39089         9.78229         3.02228
| 99>    H       -1.05047         7.34285         1.73285
|100>    H       -5.42330        12.44996        -0.82857
|101>    H       -4.40156        13.64639         1.47312
|102>    H       -4.26599        12.46638         2.79230
|103>    H       -5.80128        12.67999         1.92628
|104>    H       -2.88817         7.54008        -3.50945
|105>    H       -4.61672        10.07962        -3.55889
|106>    H       -5.65429        10.56354        -5.95083
|107>    H       -3.24516         6.97366        -5.66097
|108>    H       -5.26394         7.92122       -10.13078
|109>    H       -7.61015        11.53697       -10.49277
|110>    H       -6.59406         8.24675       -12.39619
|111>    H       -6.00458        14.15570       -14.35465
|112>    H       -7.20955        10.42336       -17.43437
|113>    H       -7.03804        11.92656       -19.32256
|114>    H       -6.58647        14.16583       -20.24252
|115>    H       -5.99166        16.02816       -18.74428
|116>    H       -5.84382        15.66579       -16.31195
|117> *
|118>
|119>                          ****END OF INPUT****

CARTESIAN COORDINATES (ANGSTROEM)
---------------------------------
  C      2.157910    7.676350    8.498840
  C      2.963080    7.934320    7.419490
  C      4.273060    7.431510    7.281730
  N      5.338780    7.037740    7.119490
  C      2.601830    8.801370    6.369760
  N      2.352400    9.524040    5.513270
  C      2.574650    6.988580    9.715830
  C      1.676630    7.340530   10.766260
  C      1.838770    6.866010   12.036040
  C      2.916490    5.994990   12.314030
  C      3.807800    5.627440   11.264410
  C      3.620530    6.140250    9.960170
  C      4.873560    4.751420   11.553360
  C      5.054040    4.262360   12.818570
  C      4.176920    4.625180   13.851540
  C      3.131490    5.473380   13.604930
  C      0.624980    8.222840   10.232620
  O     -0.273030    8.769070   10.830110
  C      0.856640    8.256300    8.757060
  C     -0.139820    8.696020    7.943110
  C     -0.322840    8.451400    6.560070
  S     -1.385010    9.461250    5.618510
  C     -1.135420    8.515270    4.186480
  C     -0.278500    7.438070    4.463940
  C      0.173510    7.418810    5.787600
  C      0.118430    6.444610    3.553600
  N      0.469780    5.598920    2.861590
  C     -1.771890    8.896730    2.987700
  C     -1.661660    8.231830    1.800800
  C     -2.309740    8.625960    0.619120
  C     -3.155240    9.727380    0.366920
  C     -3.620340    9.781060   -0.980920
  N     -4.436630   10.766880   -1.391330
  C     -4.766830   11.657640   -0.495580
  C     -4.308100   11.616910    0.848170
  C     -4.717180   12.665260    1.824630
  N     -3.514020   10.658370    1.266730
  C     -3.139920    8.720620   -1.780180
  S     -2.119340    7.690370   -0.827030
  C     -3.373040    8.430200   -3.131720
  C     -4.150120    9.191620   -3.961820
  C     -4.382870    8.896790   -5.318890
  C     -5.143580    9.653170   -6.195800
  C     -5.146130    9.039260   -7.472110
  C     -4.319110    7.819790   -7.339170
  C     -3.871800    7.748420   -6.061210
  C     -4.014950    6.887290   -8.337960
  N     -3.734590    6.099530   -9.125610
  C     -5.773590    9.471630   -8.621760
  C     -5.767360    8.839890   -9.899710
  C     -6.456600    9.627000  -10.799260
  C     -6.979310   10.776720  -10.076340
  C     -6.580140   10.690070   -8.778310
  C     -6.916120   11.604010   -7.773870
  N     -7.211360   12.364260   -6.964380
  C     -6.637310    9.306390  -12.171190
  C     -6.796960   10.178780  -13.205580
  C     -7.090520    9.831420  -14.584700
  C     -7.566600    8.626530  -15.031660
  C     -7.857530    8.345590  -16.383010
  N     -8.107090    8.057190  -17.465770
  C     -7.868910    7.521480  -14.207830
  N     -8.164010    6.593800  -13.599010
  C     -6.876970   11.020050  -15.400050
  C     -6.525280   12.101560  -14.542660
  C     -6.472500   11.631400  -13.148120
  O     -6.151030   12.280180  -12.176460
  C     -6.269390   13.352360  -15.026130
  C     -6.355450   13.583640  -16.417120
  C     -6.700080   12.505440  -17.282800
  C     -6.958850   11.220680  -16.752800
  C     -6.776160   12.746280  -18.669760
  C     -6.525440   13.991430  -19.178760
  C     -6.187010   15.052340  -18.325440
  C     -6.104380   14.852990  -16.974000
  H      1.152410    7.149870   12.819880
  H      4.303310    5.838270    9.181200
  H      5.547850    4.477550   10.755300
  H      5.874360    3.593140   13.030300
  H      4.333430    4.229040   14.843650
  H      2.453060    5.755970   14.396520
  H     -0.935110    9.241510    8.441910
  H      0.810320    6.641480    6.173190
  H     -2.390890    9.782290    3.022280
  H     -1.050470    7.342850    1.732850
  H     -5.423300   12.449960   -0.828570
  H     -4.401560   13.646390    1.473120
  H     -4.265990   12.466380    2.792300
  H     -5.801280   12.679990    1.926280
  H     -2.888170    7.540080   -3.509450
  H     -4.616720   10.079620   -3.558890
  H     -5.654290   10.563540   -5.950830
  H     -3.245160    6.973660   -5.660970
  H     -5.263940    7.921220  -10.130780
  H     -7.610150   11.536970  -10.492770
  H     -6.594060    8.246750  -12.396190
  H     -6.004580   14.155700  -14.354650
  H     -7.209550   10.423360  -17.434370
  H     -7.038040   11.926560  -19.322560
  H     -6.586470   14.165830  -20.242520
  H     -5.991660   16.028160  -18.744280
  H     -5.843820   15.665790  -16.311950

 Total Charge           Charge          ....    0
 Multiplicity           Mult            ....    1
 Number of Electrons    NEL             ....  510
 Basis Dimension        Dim             .... 1193

ORBITAL ENERGIES
----------------

  NO   OCC          E(Eh)            E(eV)
   0   2.0000     -88.994786     -2421.6712
   1   2.0000     -88.984131     -2421.3813
   2   2.0000     -19.220920      -523.0278
   3   2.0000     -19.217865      -522.9447
   4   2.0000     -14.446591      -393.1117
   5   2.0000     -14.441018      -392.9601
   6   2.0000     -14.418854      -392.3570
   7   2.0000     -14.418028      -392.3345
   8   2.0000     -14.416231      -392.2856
   9   2.0000     -14.415880      -392.2760
  10   2.0000     -14.415731      -392.2720
  11   2.0000     -14.412201      -392.1759
  12   2.0000     -14.401233      -391.8775
  13   2.0000     -10.371739      -282.2294
  14   2.0000     -10.369288      -282.1627
  15   2.0000     -10.346815      -281.5511
  16   2.0000     -10.345417      -281.5131
  17   2.0000     -10.344615      -281.4913
  18   2.0000     -10.344520      -281.4887
  19   2.0000     -10.342354      -281.4298
  20   2.0000     -10.341705      -281.4121
  21   2.0000     -10.336518      -281.2710
  22   2.0000     -10.334345      -281.2118
  23   2.0000     -10.333776      -281.1963
  24   2.0000     -10.332247      -281.1547
  25   2.0000     -10.330492      -281.1070
  26   2.0000     -10.327779      -281.0331
  27   2.0000     -10.327472      -281.0248
  28   2.0000     -10.326312      -280.9932
  29   2.0000     -10.323984      -280.9299
  30   2.0000     -10.321692      -280.8675
  31   2.0000     -10.321412      -280.8599
  32   2.0000     -10.320466      -280.8342
  33   2.0000     -10.319908      -280.8190
  34   2.0000     -10.319414      -280.8055
  35   2.0000     -10.318623      -280.7840
  36   2.0000     -10.318048      -280.7684
  37   2.0000     -10.316919      -280.7376
  38   2.0000     -10.313738      -280.6511
  39   2.0000     -10.313330      -280.6400
  40   2.0000     -10.313136      -280.6347
  41   2.0000     -10.311247      -280.5833
  42   2.0000     -10.308425      -280.5065
  43   2.0000     -10.306576      -280.4562
  44   2.0000     -10.306477      -280.4535
  45   2.0000     -10.305530      -280.4277
  46   2.0000     -10.304628      -280.4032
  47   2.0000     -10.304339      -280.3953
  48   2.0000     -10.304096      -280.3887
  49   2.0000     -10.303830      -280.3815
  50   2.0000     -10.302596      -280.3479
  51   2.0000     -10.302213      -280.3375
  52   2.0000     -10.300554      -280.2923
  53   2.0000     -10.300306      -280.2856
  54   2.0000     -10.299977      -280.2766
  55   2.0000     -10.299718      -280.2696
  56   2.0000     -10.299434      -280.2618
  57   2.0000     -10.299195      -280.2554
  58   2.0000     -10.298833      -280.2455
  59   2.0000     -10.298694      -280.2417
  60   2.0000     -10.298253      -280.2297
  61   2.0000     -10.296241      -280.1750
  62   2.0000     -10.294175      -280.1187
  63   2.0000     -10.292488      -280.0728
  64   2.0000     -10.290746      -280.0254
  65   2.0000     -10.288853      -279.9739
  66   2.0000     -10.288404      -279.9617
  67   2.0000     -10.288146      -279.9547
  68   2.0000     -10.288009      -279.9509
  69   2.0000     -10.287607      -279.9400
  70   2.0000     -10.287458      -279.9360
  71   2.0000     -10.287216      -279.9294
  72   2.0000     -10.286672      -279.9146
  73   2.0000     -10.285361      -279.8789
  74   2.0000     -10.281619      -279.7771
  75   2.0000      -8.089685      -220.1315
  76   2.0000      -8.079783      -219.8621
  77   2.0000      -6.058470      -164.8593
  78   2.0000      -6.054542      -164.7525
  79   2.0000      -6.052715      -164.7027
  80   2.0000      -6.048933      -164.5998
  81   2.0000      -6.044863      -164.4891
  82   2.0000      -6.042044      -164.4124
  83   2.0000      -1.136266       -30.9194
  84   2.0000      -1.133253       -30.8374
  85   2.0000      -1.100914       -29.9574
  86   2.0000      -1.025873       -27.9154
  87   2.0000      -1.024557       -27.8796
  88   2.0000      -1.019481       -27.7415
  89   2.0000      -1.018127       -27.7046
  90   2.0000      -1.016305       -27.6551
  91   2.0000      -1.004792       -27.3418
  92   2.0000      -1.001323       -27.2474
  93   2.0000      -1.000192       -27.2166
  94   2.0000      -0.998871       -27.1807
  95   2.0000      -0.997330       -27.1387
  96   2.0000      -0.994288       -27.0559
  97   2.0000      -0.994254       -27.0550
  98   2.0000      -0.986077       -26.8325
  99   2.0000      -0.979374       -26.6501
 100   2.0000      -0.974375       -26.5141
 101   2.0000      -0.972109       -26.4524
 102   2.0000      -0.934940       -25.4410
 103   2.0000      -0.927626       -25.2420
 104   2.0000      -0.926207       -25.2034
 105   2.0000      -0.917071       -24.9548
 106   2.0000      -0.907409       -24.6919
 107   2.0000      -0.902082       -24.5469
 108   2.0000      -0.892313       -24.2811
 109   2.0000      -0.886495       -24.1227
 110   2.0000      -0.884193       -24.0601
 111   2.0000      -0.882997       -24.0276
 112   2.0000      -0.880737       -23.9661
 113   2.0000      -0.875070       -23.8119
 114   2.0000      -0.861934       -23.4544
 115   2.0000      -0.854774       -23.2596
 116   2.0000      -0.843411       -22.9504
 117   2.0000      -0.836674       -22.7671
 118   2.0000      -0.831044       -22.6139
 119   2.0000      -0.829859       -22.5816
 120   2.0000      -0.824855       -22.4454
 121   2.0000      -0.812176       -22.1004
 122   2.0000      -0.799149       -21.7460
 123   2.0000      -0.788970       -21.4690
 124   2.0000      -0.770057       -20.9543
 125   2.0000      -0.766582       -20.8597
 126   2.0000      -0.763363       -20.7722
 127   2.0000      -0.762006       -20.7352
 128   2.0000      -0.749247       -20.3880
 129   2.0000      -0.738286       -20.0898
 130   2.0000      -0.730514       -19.8783
 131   2.0000      -0.726722       -19.7751
 132   2.0000      -0.716244       -19.4900
 133   2.0000      -0.708781       -19.2869
 134   2.0000      -0.705182       -19.1890
 135   2.0000      -0.703720       -19.1492
 136   2.0000      -0.699699       -19.0398
 137   2.0000      -0.693008       -18.8577
 138   2.0000      -0.681686       -18.5496
 139   2.0000      -0.679711       -18.4959
 140   2.0000      -0.677718       -18.4417
 141   2.0000      -0.673563       -18.3286
 142   2.0000      -0.670216       -18.2375
 143   2.0000      -0.661732       -18.0067
 144   2.0000      -0.657419       -17.8893
 145   2.0000      -0.648222       -17.6390
 146   2.0000      -0.642271       -17.4771
 147   2.0000      -0.638087       -17.3632
 148   2.0000      -0.635264       -17.2864
 149   2.0000      -0.630280       -17.1508
 150   2.0000      -0.626094       -17.0369
 151   2.0000      -0.614474       -16.7207
 152   2.0000      -0.610550       -16.6139
 153   2.0000      -0.609661       -16.5897
 154   2.0000      -0.607943       -16.5430
 155   2.0000      -0.594587       -16.1795
 156   2.0000      -0.592166       -16.1137
 157   2.0000      -0.581977       -15.8364
 158   2.0000      -0.575586       -15.6625
 159   2.0000      -0.572414       -15.5762
 160   2.0000      -0.563119       -15.3232
 161   2.0000      -0.561149       -15.2696
 162   2.0000      -0.556509       -15.1434
 163   2.0000      -0.553924       -15.0730
 164   2.0000      -0.553083       -15.0501
 165   2.0000      -0.548972       -14.9383
 166   2.0000      -0.548289       -14.9197
 167   2.0000      -0.545618       -14.8470
 168   2.0000      -0.543842       -14.7987
 169   2.0000      -0.539111       -14.6700
 170   2.0000      -0.538279       -14.6473
 171   2.0000      -0.534060       -14.5325
 172   2.0000      -0.531735       -14.4692
 173   2.0000      -0.529433       -14.4066
 174   2.0000      -0.527116       -14.3436
 175   2.0000      -0.524286       -14.2665
 176   2.0000      -0.522585       -14.2203
 177   2.0000      -0.520928       -14.1752
 178   2.0000      -0.519556       -14.1378
 179   2.0000      -0.519338       -14.1319
 180   2.0000      -0.516604       -14.0575
 181   2.0000      -0.516468       -14.0538
 182   2.0000      -0.513970       -13.9858
 183   2.0000      -0.511489       -13.9183
 184   2.0000      -0.509817       -13.8728
 185   2.0000      -0.506004       -13.7691
 186   2.0000      -0.502386       -13.6706
 187   2.0000      -0.499512       -13.5924
 188   2.0000      -0.498809       -13.5733
 189   2.0000      -0.496664       -13.5149
 190   2.0000      -0.492397       -13.3988
 191   2.0000      -0.492025       -13.3887
 192   2.0000      -0.490400       -13.3445
 193   2.0000      -0.488968       -13.3055
 194   2.0000      -0.486645       -13.2423
 195   2.0000      -0.485628       -13.2146
 196   2.0000      -0.484672       -13.1886
 197   2.0000      -0.479665       -13.0524
 198   2.0000      -0.473442       -12.8830
 199   2.0000      -0.469303       -12.7704
 200   2.0000      -0.468012       -12.7353
 201   2.0000      -0.467362       -12.7176
 202   2.0000      -0.465768       -12.6742
 203   2.0000      -0.458061       -12.4645
 204   2.0000      -0.457112       -12.4386
 205   2.0000      -0.454580       -12.3697
 206   2.0000      -0.452161       -12.3039
 207   2.0000      -0.450122       -12.2484
 208   2.0000      -0.448966       -12.2170
 209   2.0000      -0.448904       -12.2153
 210   2.0000      -0.445506       -12.1228
 211   2.0000      -0.444594       -12.0980
 212   2.0000      -0.442871       -12.0511
 213   2.0000      -0.442120       -12.0307
 214   2.0000      -0.442023       -12.0281
 215   2.0000      -0.440742       -11.9932
 216   2.0000      -0.436754       -11.8847
 217   2.0000      -0.435381       -11.8473
 218   2.0000      -0.435064       -11.8387
 219   2.0000      -0.434259       -11.8168
 220   2.0000      -0.434073       -11.8117
 221   2.0000      -0.432689       -11.7741
 222   2.0000      -0.430742       -11.7211
 223   2.0000      -0.429941       -11.6993
 224   2.0000      -0.426265       -11.5993
 225   2.0000      -0.426008       -11.5923
 226   2.0000      -0.420229       -11.4350
 227   2.0000      -0.418842       -11.3973
 228   2.0000      -0.415828       -11.3153
 229   2.0000      -0.414625       -11.2825
 230   2.0000      -0.410070       -11.1586
 231   2.0000      -0.409062       -11.1311
 232   2.0000      -0.405283       -11.0283
 233   2.0000      -0.401909       -10.9365
 234   2.0000      -0.398279       -10.8377
 235   2.0000      -0.395124       -10.7519
 236   2.0000      -0.388220       -10.5640
 237   2.0000      -0.379464       -10.3257
 238   2.0000      -0.376686       -10.2502
 239   2.0000      -0.363144        -9.8817
 240   2.0000      -0.352280        -9.5860
 241   2.0000      -0.346356        -9.4248
 242   2.0000      -0.343136        -9.3372
 243   2.0000      -0.342698        -9.3253
 244   2.0000      -0.339113        -9.2277
 245   2.0000      -0.338442        -9.2095
 246   2.0000      -0.324627        -8.8335
 247   2.0000      -0.321946        -8.7606
 248   2.0000      -0.318075        -8.6552
 249   2.0000      -0.316528        -8.6132
 250   2.0000      -0.300886        -8.1875
 251   2.0000      -0.298448        -8.1212
 252   2.0000      -0.293655        -7.9908
 253   2.0000      -0.286192        -7.7877
 254   2.0000      -0.243960        -6.6385
 255   0.0000      -0.135592        -3.6896
 256   0.0000      -0.103361        -2.8126
 257   0.0000      -0.085251        -2.3198
 258   0.0000      -0.077000        -2.0953
 259   0.0000      -0.058544        -1.5931

MULLIKEN ATOMIC CHARGES
-----------------------
   0 C :    0.261437
   1 C :   -0.336613
   2 C :   -0.173249
   3 N :    0.159562
   4 C :   -0.195235
   5 N :    0.168555
   6 C :    0.032839
   7 C :    0.018933
   8 C :   -0.079572
   9 C :    0.092881
  10 C :    0.092732
  11 C :   -0.079578
  12 C :   -0.016433
  13 C :    0.035574
  14 C :    0.038111
  15 C :   -0.015933
  16 C :    0.135682
  17 O :   -0.142162
  18 C :   -0.135062
  19 C :    0.096043
  20 C :   -0.118379
  21 S :    0.182115
  22 C :   -0.018145
  23 C :   -0.096164
  24 C :    0.060878
  25 C :   -0.165854
  26 N :    0.118177
  27 C :    0.029453
  28 C :    0.030079
  29 C :   -0.160047
  30 C :    0.057787
  31 C :    0.037233
  32 N :    0.003654
  33 C :    0.031914
  34 C :   -0.137663
  35 C :    0.101826
  36 N :   -0.008691
  37 C :   -0.150034
  38 S :    0.218278
  39 C :    0.030623
  40 C :   -0.009658
  41 C :    0.129472
  42 C :   -0.115079
  43 C :    0.139081
  44 C :   -0.097771
  45 C :   -0.006563
  46 C :   -0.171839
  47 N :    0.136034
  48 C :    0.102615
  49 C :   -0.076791
  50 C :    0.080096
  51 C :    0.069224
  52 C :   -0.130646
  53 C :   -0.173856
  54 N :    0.123178
  55 C :   -0.028569
  56 C :   -0.089919
  57 C :    0.308010
  58 C :   -0.336352
  59 C :   -0.179609
  60 N :    0.150345
  61 C :   -0.205283
  62 N :    0.168063
  63 C :    0.050823
  64 C :   -0.010744
  65 C :    0.145473
  66 O :   -0.144003
  67 C :   -0.074683
  68 C :    0.095547
  69 C :    0.094615
  70 C :   -0.080317
  71 C :   -0.017197
  72 C :    0.034501
  73 C :    0.038588
  74 C :   -0.015287
  75 H :   -0.011390
  76 H :   -0.005047
  77 H :   -0.009260
  78 H :   -0.003143
  79 H :   -0.004933
  80 H :   -0.016744
  81 H :    0.025382
  82 H :    0.013389
  83 H :   -0.002004
  84 H :   -0.011462
  85 H :    0.011292
  86 H :    0.040435
  87 H :    0.032573
  88 H :    0.040482
  89 H :   -0.022478
  90 H :    0.010137
  91 H :    0.003155
  92 H :    0.002038
  93 H :    0.010726
  94 H :    0.002281
  95 H :    0.039031
  96 H :   -0.011716
  97 H :   -0.007618
  98 H :   -0.008452
  99 H :   -0.002836
 100 H :   -0.004853
 101 H :   -0.016031
Sum of atomic charges:   -0.0000000

LOEWDIN ATOMIC CHARGES
----------------------
   0 C :    0.064347
   1 C :   -0.138780
   2 C :   -0.020328
   3 N :   -0.048134
   4 C :   -0.018429
   5 N :   -0.043081
   6 C :   -0.023873
   7 C :   -0.057662
   8 C :    0.033503
   9 C :   -0.008817
  10 C :   -0.005126
  11 C :    0.016850
  12 C :   -0.005847
  13 C :   -0.011888
  14 C :   -0.011894
  15 C :   -0.009042
  16 C :    0.083394
  17 O :   -0.142367
  18 C :   -0.086966
  19 C :    0.046494
  20 C :   -0.186149
  21 S :    0.486172
  22 C :   -0.116793
  23 C :   -0.107009
  24 C :    0.013615
  25 C :   -0.026746
  26 N :   -0.057129
  27 C :   -0.040898
  28 C :   -0.014879
  29 C :   -0.177909
  30 C :   -0.035049
  31 C :   -0.041745
  32 N :   -0.022809
  33 C :    0.017213
  34 C :    0.004680
  35 C :   -0.050738
  36 N :   -0.043971
  37 C :   -0.175107
  38 S :    0.520298
  39 C :   -0.025095
  40 C :   -0.000924
  41 C :   -0.004482
  42 C :   -0.031880
  43 C :    0.047323
  44 C :   -0.072142
  45 C :    0.053286
  46 C :   -0.031954
  47 N :   -0.056741
  48 C :    0.022471
  49 C :    0.020736
  50 C :   -0.033888
  51 C :    0.074401
  52 C :   -0.097152
  53 C :   -0.026593
  54 N :   -0.072442
  55 C :    0.075748
  56 C :   -0.084139
  57 C :    0.072961
  58 C :   -0.132204
  59 C :   -0.016692
  60 N :   -0.049901
  61 C :   -0.025366
  62 N :   -0.043737
  63 C :   -0.025731
  64 C :   -0.056816
  65 C :    0.084352
  66 O :   -0.132973
  67 C :    0.034199
  68 C :   -0.008169
  69 C :   -0.005333
  70 C :    0.020072
  71 C :   -0.005009
  72 C :   -0.012210
  73 C :   -0.011285
  74 C :   -0.008942
  75 H :    0.039685
  76 H :    0.039094
  77 H :    0.034885
  78 H :    0.033728
  79 H :    0.033043
  80 H :    0.032130
  81 H :    0.046940
  82 H :    0.042817
  83 H :    0.030455
  84 H :    0.037658
  85 H :    0.030250
  86 H :    0.044156
  87 H :    0.039683
  88 H :    0.043863
  89 H :    0.028732
  90 H :    0.038063
  91 H :    0.036693
  92 H :    0.035519
  93 H :    0.038557
  94 H :    0.036892
  95 H :    0.052590
  96 H :    0.039648
  97 H :    0.039335
  98 H :    0.035138
  99 H :    0.033814
 100 H :    0.033085
 101 H :    0.032400

  Mayer bond orders larger than 0.100000
B(  0-C ,  1-C ) :   1.6515 B(  0-C ,  6-C ) :   0.9987 B(  0-C , 18-C ) :   1.0341
B(  1-C ,  2-C ) :   1.1321 B(  1-C ,  4-C ) :   1.1650 B(  2-C ,  3-N ) :   2.9891
B(  4-C ,  5-N ) :   2.9951 B(  6-C ,  7-C ) :   1.2140 B(  6-C , 11-C ) :   1.4577
B(  7-C ,  8-C ) :   1.4729 B(  7-C , 16-C ) :   0.9199 B(  8-C ,  9-C ) :   1.1854
B(  8-C , 75-H ) :   1.0154 B(  9-C , 10-C ) :   1.2557 B(  9-C , 15-C ) :   1.2453
B( 10-C , 11-C ) :   1.2057 B( 10-C , 12-C ) :   1.2412 B( 11-C , 76-H ) :   0.9935
B( 12-C , 13-C ) :   1.4890 B( 12-C , 77-H ) :   0.9971 B( 13-C , 14-C ) :   1.2609
B( 13-C , 78-H ) :   0.9889 B( 14-C , 15-C ) :   1.4897 B( 14-C , 79-H ) :   0.9885
B( 15-C , 80-H ) :   0.9971 B( 16-C , 17-O ) :   2.2716 B( 16-C , 18-C ) :   0.9360
B( 18-C , 19-C ) :   1.6875 B( 19-C , 20-C ) :   1.1067 B( 19-C , 81-H ) :   0.9305
B( 20-C , 21-S ) :   1.1073 B( 20-C , 24-C ) :   1.4354 B( 21-S , 22-C ) :   1.1596
B( 22-C , 23-C ) :   1.3983 B( 22-C , 27-C ) :   1.1681 B( 23-C , 24-C ) :   1.3508
B( 23-C , 25-C ) :   1.1162 B( 24-C , 82-H ) :   0.9958 B( 25-C , 26-N ) :   2.9624
B( 27-C , 28-C ) :   1.6288 B( 27-C , 83-H ) :   0.9329 B( 28-C , 29-C ) :   1.2105
B( 28-C , 84-H ) :   0.9317 B( 29-C , 30-C ) :   1.2773 B( 29-C , 37-C ) :   0.1248
B( 29-C , 38-S ) :   1.1696 B( 30-C , 31-C ) :   1.2383 B( 30-C , 36-N ) :   1.4049
B( 31-C , 32-N ) :   1.4147 B( 31-C , 37-C ) :   1.2754 B( 32-N , 33-C ) :   1.6952
B( 33-C , 34-C ) :   1.1679 B( 33-C , 85-H ) :   0.9812 B( 34-C , 35-C ) :   1.0500
B( 34-C , 36-N ) :   1.6774 B( 35-C , 86-H ) :   0.9517 B( 35-C , 87-H ) :   0.9537
B( 35-C , 88-H ) :   0.9512 B( 37-C , 38-S ) :   1.1684 B( 37-C , 39-C ) :   1.2026
B( 39-C , 40-C ) :   1.5645 B( 39-C , 89-H ) :   0.9487 B( 40-C , 41-C ) :   1.1458
B( 40-C , 90-H ) :   0.9682 B( 41-C , 42-C ) :   1.4732 B( 41-C , 45-C ) :   1.0237
B( 42-C , 43-C ) :   1.1464 B( 42-C , 91-H ) :   1.0114 B( 43-C , 44-C ) :   1.0892
B( 43-C , 48-C ) :   1.3822 B( 44-C , 45-C ) :   1.7049 B( 44-C , 46-C ) :   1.0872
B( 45-C , 92-H ) :   1.0138 B( 46-C , 47-N ) :   2.9650 B( 48-C , 49-C ) :   1.1148
B( 48-C , 52-C ) :   1.1265 B( 49-C , 50-C ) :   1.4970 B( 49-C , 93-H ) :   1.0056
B( 50-C , 51-C ) :   1.0690 B( 50-C , 55-C ) :   1.1115 B( 51-C , 52-C ) :   1.6529
B( 51-C , 94-H ) :   1.0083 B( 52-C , 53-C ) :   1.0951 B( 53-C , 54-N ) :   2.9649
B( 55-C , 56-C ) :   1.6114 B( 55-C , 95-H ) :   0.9502 B( 56-C , 57-C ) :   1.0454
B( 56-C , 65-C ) :   0.9361 B( 57-C , 58-C ) :   1.6510 B( 57-C , 63-C ) :   0.9934
B( 58-C , 59-C ) :   1.1420 B( 58-C , 61-C ) :   1.1413 B( 59-C , 60-N ) :   2.9672
B( 61-C , 62-N ) :   2.9917 B( 63-C , 64-C ) :   1.2117 B( 63-C , 70-C ) :   1.4508
B( 64-C , 65-C ) :   0.9465 B( 64-C , 67-C ) :   1.4703 B( 65-C , 66-O ) :   2.2169
B( 67-C , 68-C ) :   1.1830 B( 67-C , 96-H ) :   1.0151 B( 68-C , 69-C ) :   1.2551
B( 68-C , 74-C ) :   1.2428 B( 69-C , 70-C ) :   1.2072 B( 69-C , 71-C ) :   1.2411
B( 70-C , 97-H ) :   0.9892 B( 71-C , 72-C ) :   1.4895 B( 71-C , 98-H ) :   0.9964
B( 72-C , 73-C ) :   1.2597 B( 72-C , 99-H ) :   0.9889 B( 73-C , 74-C ) :   1.4906
B( 73-C ,100-H ) :   0.9882 B( 74-C ,101-H ) :   0.9970

-----------------------------------------------------------------------------
         ABSORPTION SPECTRUM VIA TRANSITION ELECTRIC DIPOLE MOMENTS
-----------------------------------------------------------------------------
State   Energy  Wavelength   fosc         T2         TX        TY        TZ
        (cm-1)    (nm)                  (au**2)     (au)      (au)      (au)
-----------------------------------------------------------------------------
   0   10448.8    957.1   1.711717299  53.93148  -2.62789   0.91812  -6.79579
   1   16752.7    596.9   0.543031875  10.67126   1.68362  -0.33720   2.77903
   2   17296.4    578.2   0.046716802   0.88919   0.38858  -0.30719   0.80239
   3   20047.5    498.8   0.039868290   0.65470   0.03301  -0.12344  -0.79898
   4   20525.8    487.2   0.024715327   0.39641  -0.57507   0.01940  -0.25559
   5   22125.8    452.0   0.106217733   1.58042   0.42418   0.14944   1.17395
   6   23331.8    428.6   0.296310842   4.18096   0.23261  -0.41240   1.98916
   7   24814.6    403.0   0.026654495   0.35362   0.03279   0.28788   0.51930
   8   25240.5    396.2   0.032290703   0.42117   0.37619   0.10344  -0.51860
   9   25730.3    388.6   0.044000873   0.56298   0.15152  -0.13256  -0.72281
  10   25807.8    387.5   0.001789084   0.02282  -0.11193  -0.10042  -0.01451
  11   26469.5    377.8   0.022380613   0.27836  -0.11516  -0.49071  -0.15587
  12   26766.9    373.6   0.151698423   1.86577   0.50081  -0.56557   1.13802
  13   27844.8    359.1   0.082630783   0.97695  -0.78405   0.24278  -0.55071
  14   28199.0    354.6   0.183811068   2.14592  -0.64463   0.35661  -1.26617
  15   28640.8    349.2   0.223464005   2.56861  -0.68794   0.75621  -1.23430
  16   28851.9    346.6   0.108302497   1.23578   0.29357   0.14766   1.06198
  17   29249.1    341.9   0.031487234   0.35440  -0.26691   0.03462  -0.53100
  18   29404.0    340.1   0.076862519   0.86057   0.22333  -0.80654   0.40023
  19   29780.1    335.8   0.149308199   1.65057   0.02352   0.55811  -1.15695
  20   30248.5    330.6   0.081132020   0.88301   0.05302   0.92649  -0.14770
  21   30590.3    326.9   0.101474827   1.09207   0.08939  -0.48794   0.91978
  22   30727.5    325.4   0.308273256   3.30282   0.14059   1.22976  -1.33069
  23   31368.9    318.8   0.104647011   1.09826  -0.56236   0.14842  -0.87177
  24   31972.2    312.8   0.013111007   0.13500   0.25472  -0.26474  -0.00571
  25   32149.5    311.0   0.025521171   0.26134  -0.11106  -0.34685   0.35875
  26   32557.9    307.1   0.131958481   1.33431  -0.00063  -0.09130  -1.15151
  27   32727.4    305.6   0.150264398   1.51154   0.05068  -0.59177   1.07647
  28   32982.3    303.2   0.001784299   0.01781   0.11424   0.04865   0.04891
  29   33280.1    300.5   0.194361001   1.92265   0.33800  -1.21373   0.57902
  30   33336.7    300.0   0.158436526   1.56462   0.10331  -0.32974  -1.20217
  31   33664.5    297.0   0.016505567   0.16141   0.10605   0.37122  -0.11116
  32   33816.4    295.7   0.075082162   0.73095   0.21821   0.25365   0.78676
  33   33895.9    295.0   0.039600235   0.38462  -0.59579  -0.11598   0.12726
  34   34399.2    290.7   0.080300090   0.76850  -0.03331  -0.71593   0.50481
  35   34963.0    286.0   0.484838917   4.56525  -0.06246   0.85055  -1.95906
  36   35179.2    284.3   0.065943578   0.61711  -0.01944   0.60067  -0.50589
  37   35912.6    278.5   0.392890418   3.60164  -0.54977  -1.73898   0.52472
  38   36080.1    277.2   0.060589482   0.55285   0.31064   0.67322  -0.05586
  39   36257.1    275.8   0.053682055   0.48743  -0.06517  -0.66984   0.18573
  40   36453.0    274.3   0.071200277   0.64302  -0.34172   0.38486  -0.61492
  41   36633.0    273.0   0.160356164   1.44108   0.03240   1.18707  -0.17576
  42   36888.1    271.1   0.006880658   0.06141  -0.01530  -0.05954   0.24006
  43   37084.7    269.7   0.089811729   0.79729  -0.14752  -0.27386   0.83697
  44   37106.5    269.5   0.042868290   0.38033   0.11695  -0.38088  -0.47073
  45   37365.0    267.6   0.029862702   0.26311   0.14236   0.15680  -0.46718
  46   37811.3    264.5   0.156260851   1.36052   0.25516  -1.08921  -0.33020
  47   37848.1    264.2   0.005640163   0.04906  -0.15933  -0.04027  -0.14849
  48   37874.3    264.0   0.024717635   0.21485  -0.29460   0.31091  -0.17719
  49   38162.5    262.0   0.039283347   0.33888  -0.07916   0.05973  -0.57363
  50   38451.7    260.1   0.015489480   0.13262  -0.13116   0.11784   0.31863
  51   38960.8    256.7   0.092541550   0.78196  -0.35836  -0.21697   0.77876
  52   39133.0    255.5   0.058574472   0.49277   0.35420  -0.16734  -0.58250
  53   39584.1    252.6   0.122972493   1.02273   0.64914   0.08658   0.77062
  54   39915.3    250.5   0.022761823   0.18773   0.11942  -0.04731  -0.41380
  55   39928.1    250.5   0.009010064   0.07429   0.09485  -0.09374   0.23771

FINAL SINGLE POINT ENERGY     -3814.166953714966

DIPOLE MOMENT
-------------
                                X             Y             Z
Electronic contribution:      0.06951     -12.05022      -2.66159
Nuclear contribution   :     -0.05399      14.01004       5.54605
                        -----------------------------------------
Total Dipole Moment    :      0.01552       1.95983       2.88446
                        -----------------------------------------
Magnitude (a.u.)       :      3.48730
Magnitude (Debye)      :      8.86402

Rotational constants in cm-1:     0.003133     0.000145     0.000143
Rotational constants in MHz :    93.916959     4.352218     4.290910

                             ****ORCA TERMINATED NORMALLY****
TOTAL RUN TIME: 0 days 0 hours 10 minutes 25 seconds 253 msec
