                         Program Version 4.2.0 -  RELEASE  -
|  1> # ORCA input file
|  2> # SCF done       -175.689703385338          0.000460069853
|  3> ! CAM-B3LYP def2-SVP def2/J RIJCOSX Grid4 TightSCF
|  4> %maxcore 5000
|  5> %tddft
|  6>     Mode sTDDFT
|  7>     Ethresh 5.0
|  8>     maxcore 5000
|  9> end
| 10>
| 11> %pal
| 12>   nprocs 6
| 13>   end
| 14> * xyz 0 1
| 15>    C       -2.67763         2.33286        -6.65257
| 16>    C       -2.64864         2.99872        -7.84959
| 17>    C       -2.54841         2.35803        -9.10303
| 18>    N       -2.47395         1.89825       -10.15213
| 19>    C       -2.65607         4.40103        -8.00901
| 20>    N       -2.63155         5.52973        -8.21974
| 21>    C       -2.53880         0.89262        -6.48558
| 22>    C       -2.39627         0.61384        -5.09726
| 23>    C       -2.23437        -0.65810        -4.62831
| 24>    C       -2.21351        -1.73183        -5.54595
| 25>    C       -2.36409        -1.46234        -6.93721
| 26>    C       -2.52645        -0.13392        -7.39267
| 27>    C       -2.34611        -2.54201        -7.84354
| 28>    C       -2.18607        -3.82627        -7.39924
| 29>    C       -2.03783        -4.09037        -6.02938
| 30>    C       -2.05086        -3.06550        -5.12248
| 31>    C       -2.45856         1.86843        -4.32961
| 32>    O       -2.32182         1.97507        -3.12893
| 33>    C       -2.74666         2.93256        -5.32674
| 34>    C       -3.16471         4.21245        -5.10200
| 35>    C       -3.24785         4.96545        -3.90838
| 36>    S       -4.05925         6.51682        -4.00539
| 37>    C       -3.74403         6.86572        -2.34295
| 38>    C       -3.02770         5.81239        -1.75322
| 39>    C       -2.75759         4.75759        -2.63365
| 40>    C       -2.60087         5.77595        -0.41486
| 41>    N       -2.23239         5.71757         0.67092
| 42>    C       -4.20399         8.08716        -1.79072
| 43>    C       -3.95432         8.51744        -0.52892
| 44>    C       -4.41702         9.74605         0.00243
| 45>    S       -5.49264        10.77285        -0.90027
| 46>    C       -5.50343        11.93754         0.38785
| 47>    C       -4.69497        11.55080         1.45443
| 48>    C       -4.10032        10.29520         1.24117
| 49>    C       -3.17571         9.62515         2.20967
| 50>    C       -1.71399         9.92990         1.87214
| 51>    C       -4.49605        12.37774         2.68512
| 52>    C       -5.61114        12.14714         3.70846
| 53>    C       -6.29477        13.10807         0.25761
| 54>    O       -6.39201        13.98131         1.27611
| 55>    C       -7.21093        14.99579         0.91283
| 56>    C       -7.66242        14.77673        -0.38811
| 57>    C       -7.07320        13.55539        -0.81520
| 58>    C       -7.25097        12.94684        -2.06395
| 59>    N       -7.41296        12.46686        -3.09289
| 60>    C       -8.52638        15.60008        -1.12284
| 61>    N       -9.23510        16.27634        -1.71768
| 62>    C       -7.48205        16.04960         1.81781
| 63>    C       -6.94127        16.08643         3.06546
| 64>    C       -7.20120        17.13265         3.97827
| 65>    C       -6.66294        17.21086         5.23177
| 66>    C       -6.88669        18.26008         6.21167
| 67>    C       -7.73494        19.33038         6.09404
| 68>    C       -7.91175        20.31232         7.09222
| 69>    N       -8.10293        21.14402         7.85999
| 70>    C       -8.56023        19.61235         4.98510
| 71>    N       -9.26244        19.91255         4.12741
| 72>    C       -6.05313        17.96955         7.37325
| 73>    C       -5.34843        16.75489         7.13665
| 74>    C       -5.70895        16.22766         5.81220
| 75>    O       -5.30110        15.19822         5.31158
| 76>    C       -4.48364        16.22967         8.05363
| 77>    C       -4.27858        16.90833         9.27502
| 78>    C       -4.98039        18.12382         9.52111
| 79>    C       -5.86924        18.64317         8.55211
| 80>    C       -4.77001        18.79325        10.74382
| 81>    C       -3.90782        18.28837        11.67882
| 82>    C       -3.21620        17.09237        11.43462
| 83>    C       -3.39772        16.41682        10.25836
| 84>    H       -2.12501        -0.84204        -3.56978
| 85>    H       -2.64491         0.03650        -8.45088
| 86>    H       -2.45913        -2.33348        -8.89728
| 87>    H       -2.17272        -4.64627        -8.10144
| 88>    H       -1.91346        -5.10987        -5.69632
| 89>    H       -1.93724        -3.26262        -4.06651
| 90>    H       -3.51678         4.75978        -5.96929
| 91>    H       -2.22518         3.86893        -2.34645
| 92>    H       -4.78574         8.71440        -2.45505
| 93>    H       -3.35213         7.91011         0.12928
| 94>    H       -3.33147         8.54571         2.18554
| 95>    H       -3.39439         9.96731         3.22108
| 96>    H       -1.46957         9.56809         0.87632
| 97>    H       -1.05758         9.44136         2.58715
| 98>    H       -1.52766        11.00124         1.90281
| 99>    H       -4.47240        13.43435         2.41783
|100>    H       -3.53609        12.13042         3.13803
|101>    H       -6.58444        12.35060         3.26873
|102>    H       -5.46996        12.81315         4.55504
|103>    H       -5.60342        11.11792         4.06039
|104>    H       -8.14586        16.82786         1.46652
|105>    H       -6.28525        15.28859         3.38153
|106>    H       -7.86674        17.91561         3.63874
|107>    H       -3.96107        15.30702         7.84824
|108>    H       -6.38166        19.56648         8.76985
|109>    H       -5.30458        19.71367        10.92734
|110>    H       -3.75374        18.80830        12.61237
|111>    H       -2.53907        16.70907        12.18316
|112>    H       -2.86811        15.49540        10.06478
|113> *
|114>
|115>                          ****END OF INPUT****

CARTESIAN COORDINATES (ANGSTROEM)
---------------------------------
  C     -2.677630    2.332860   -6.652570
  C     -2.648640    2.998720   -7.849590
  C     -2.548410    2.358030   -9.103030
  N     -2.473950    1.898250  -10.152130
  C     -2.656070    4.401030   -8.009010
  N     -2.631550    5.529730   -8.219740
  C     -2.538800    0.892620   -6.485580
  C     -2.396270    0.613840   -5.097260
  C     -2.234370   -0.658100   -4.628310
  C     -2.213510   -1.731830   -5.545950
  C     -2.364090   -1.462340   -6.937210
  C     -2.526450   -0.133920   -7.392670
  C     -2.346110   -2.542010   -7.843540
  C     -2.186070   -3.826270   -7.399240
  C     -2.037830   -4.090370   -6.029380
  C     -2.050860   -3.065500   -5.122480
  C     -2.458560    1.868430   -4.329610
  O     -2.321820    1.975070   -3.128930
  C     -2.746660    2.932560   -5.326740
  C     -3.164710    4.212450   -5.102000
  C     -3.247850    4.965450   -3.908380
  S     -4.059250    6.516820   -4.005390
  C     -3.744030    6.865720   -2.342950
  C     -3.027700    5.812390   -1.753220
  C     -2.757590    4.757590   -2.633650
  C     -2.600870    5.775950   -0.414860
  N     -2.232390    5.717570    0.670920
  C     -4.203990    8.087160   -1.790720
  C     -3.954320    8.517440   -0.528920
  C     -4.417020    9.746050    0.002430
  S     -5.492640   10.772850   -0.900270
  C     -5.503430   11.937540    0.387850
  C     -4.694970   11.550800    1.454430
  C     -4.100320   10.295200    1.241170
  C     -3.175710    9.625150    2.209670
  C     -1.713990    9.929900    1.872140
  C     -4.496050   12.377740    2.685120
  C     -5.611140   12.147140    3.708460
  C     -6.294770   13.108070    0.257610
  O     -6.392010   13.981310    1.276110
  C     -7.210930   14.995790    0.912830
  C     -7.662420   14.776730   -0.388110
  C     -7.073200   13.555390   -0.815200
  C     -7.250970   12.946840   -2.063950
  N     -7.412960   12.466860   -3.092890
  C     -8.526380   15.600080   -1.122840
  N     -9.235100   16.276340   -1.717680
  C     -7.482050   16.049600    1.817810
  C     -6.941270   16.086430    3.065460
  C     -7.201200   17.132650    3.978270
  C     -6.662940   17.210860    5.231770
  C     -6.886690   18.260080    6.211670
  C     -7.734940   19.330380    6.094040
  C     -7.911750   20.312320    7.092220
  N     -8.102930   21.144020    7.859990
  C     -8.560230   19.612350    4.985100
  N     -9.262440   19.912550    4.127410
  C     -6.053130   17.969550    7.373250
  C     -5.348430   16.754890    7.136650
  C     -5.708950   16.227660    5.812200
  O     -5.301100   15.198220    5.311580
  C     -4.483640   16.229670    8.053630
  C     -4.278580   16.908330    9.275020
  C     -4.980390   18.123820    9.521110
  C     -5.869240   18.643170    8.552110
  C     -4.770010   18.793250   10.743820
  C     -3.907820   18.288370   11.678820
  C     -3.216200   17.092370   11.434620
  C     -3.397720   16.416820   10.258360
  H     -2.125010   -0.842040   -3.569780
  H     -2.644910    0.036500   -8.450880
  H     -2.459130   -2.333480   -8.897280
  H     -2.172720   -4.646270   -8.101440
  H     -1.913460   -5.109870   -5.696320
  H     -1.937240   -3.262620   -4.066510
  H     -3.516780    4.759780   -5.969290
  H     -2.225180    3.868930   -2.346450
  H     -4.785740    8.714400   -2.455050
  H     -3.352130    7.910110    0.129280
  H     -3.331470    8.545710    2.185540
  H     -3.394390    9.967310    3.221080
  H     -1.469570    9.568090    0.876320
  H     -1.057580    9.441360    2.587150
  H     -1.527660   11.001240    1.902810
  H     -4.472400   13.434350    2.417830
  H     -3.536090   12.130420    3.138030
  H     -6.584440   12.350600    3.268730
  H     -5.469960   12.813150    4.555040
  H     -5.603420   11.117920    4.060390
  H     -8.145860   16.827860    1.466520
  H     -6.285250   15.288590    3.381530
  H     -7.866740   17.915610    3.638740
  H     -3.961070   15.307020    7.848240
  H     -6.381660   19.566480    8.769850
  H     -5.304580   19.713670   10.927340
  H     -3.753740   18.808300   12.612370
  H     -2.539070   16.709070   12.183160
  H     -2.868110   15.495400   10.064780

 Total Charge           Charge          ....    0
 Multiplicity           Mult            ....    1
 Number of Electrons    NEL             ....  476
 Basis Dimension        Dim             .... 1119

ORBITAL ENERGIES
----------------

  NO   OCC          E(Eh)            E(eV)
   0   2.0000     -88.986193     -2421.4374
   1   2.0000     -88.976850     -2421.1832
   2   2.0000     -19.340561      -526.2834
   3   2.0000     -19.228987      -523.2473
   4   2.0000     -19.223573      -523.1000
   5   2.0000     -14.427386      -392.5891
   6   2.0000     -14.424360      -392.5068
   7   2.0000     -14.423558      -392.4850
   8   2.0000     -14.421188      -392.4205
   9   2.0000     -14.419366      -392.3709
  10   2.0000     -14.418455      -392.3461
  11   2.0000     -14.416520      -392.2935
  12   2.0000     -10.395239      -282.8688
  13   2.0000     -10.382150      -282.5127
  14   2.0000     -10.379030      -282.4278
  15   2.0000     -10.374716      -282.3104
  16   2.0000     -10.350425      -281.6494
  17   2.0000     -10.349014      -281.6110
  18   2.0000     -10.348696      -281.6023
  19   2.0000     -10.348161      -281.5878
  20   2.0000     -10.345027      -281.5025
  21   2.0000     -10.343683      -281.4659
  22   2.0000     -10.342086      -281.4225
  23   2.0000     -10.331321      -281.1295
  24   2.0000     -10.330499      -281.1072
  25   2.0000     -10.328860      -281.0626
  26   2.0000     -10.326779      -281.0060
  27   2.0000     -10.326122      -280.9881
  28   2.0000     -10.325967      -280.9839
  29   2.0000     -10.325779      -280.9787
  30   2.0000     -10.325202      -280.9630
  31   2.0000     -10.324912      -280.9551
  32   2.0000     -10.323706      -280.9223
  33   2.0000     -10.322306      -280.8842
  34   2.0000     -10.321174      -280.8534
  35   2.0000     -10.320799      -280.8432
  36   2.0000     -10.319327      -280.8032
  37   2.0000     -10.312340      -280.6130
  38   2.0000     -10.310951      -280.5752
  39   2.0000     -10.310324      -280.5582
  40   2.0000     -10.309347      -280.5316
  41   2.0000     -10.307414      -280.4790
  42   2.0000     -10.307029      -280.4685
  43   2.0000     -10.305901      -280.4378
  44   2.0000     -10.305306      -280.4216
  45   2.0000     -10.305019      -280.4138
  46   2.0000     -10.304775      -280.4072
  47   2.0000     -10.304526      -280.4004
  48   2.0000     -10.304369      -280.3961
  49   2.0000     -10.303573      -280.3745
  50   2.0000     -10.300241      -280.2838
  51   2.0000     -10.300001      -280.2773
  52   2.0000     -10.299737      -280.2701
  53   2.0000     -10.299522      -280.2643
  54   2.0000     -10.299266      -280.2573
  55   2.0000     -10.296385      -280.1789
  56   2.0000     -10.293242      -280.0934
  57   2.0000     -10.292755      -280.0801
  58   2.0000     -10.292299      -280.0677
  59   2.0000     -10.291757      -280.0529
  60   2.0000     -10.291658      -280.0502
  61   2.0000     -10.288798      -279.9724
  62   2.0000     -10.288324      -279.9595
  63   2.0000     -10.288089      -279.9531
  64   2.0000     -10.287582      -279.9393
  65   2.0000     -10.284201      -279.8473
  66   2.0000     -10.281201      -279.7657
  67   2.0000     -10.268215      -279.4123
  68   2.0000     -10.261941      -279.2416
  69   2.0000      -8.082020      -219.9229
  70   2.0000      -8.071648      -219.6407
  71   2.0000      -6.051092      -164.6586
  72   2.0000      -6.047045      -164.5485
  73   2.0000      -6.044335      -164.4747
  74   2.0000      -6.040990      -164.3837
  75   2.0000      -6.036875      -164.2717
  76   2.0000      -6.033654      -164.1841
  77   2.0000      -1.262266       -34.3480
  78   2.0000      -1.142546       -31.0903
  79   2.0000      -1.138476       -30.9795
  80   2.0000      -1.025440       -27.9037
  81   2.0000      -1.025263       -27.8988
  82   2.0000      -1.020650       -27.7733
  83   2.0000      -1.017324       -27.6828
  84   2.0000      -1.013274       -27.5726
  85   2.0000      -1.006061       -27.3763
  86   2.0000      -1.005301       -27.3556
  87   2.0000      -1.001524       -27.2528
  88   2.0000      -1.000444       -27.2235
  89   2.0000      -0.998502       -27.1706
  90   2.0000      -0.995742       -27.0955
  91   2.0000      -0.979274       -26.6474
  92   2.0000      -0.974462       -26.5165
  93   2.0000      -0.959603       -26.1121
  94   2.0000      -0.956074       -26.0161
  95   2.0000      -0.937997       -25.5242
  96   2.0000      -0.931675       -25.3522
  97   2.0000      -0.926299       -25.2059
  98   2.0000      -0.917955       -24.9788
  99   2.0000      -0.908824       -24.7304
 100   2.0000      -0.901843       -24.5404
 101   2.0000      -0.893300       -24.3079
 102   2.0000      -0.888432       -24.1755
 103   2.0000      -0.885818       -24.1043
 104   2.0000      -0.883205       -24.0332
 105   2.0000      -0.881096       -23.9758
 106   2.0000      -0.869173       -23.6514
 107   2.0000      -0.856159       -23.2973
 108   2.0000      -0.841546       -22.8996
 109   2.0000      -0.835379       -22.7318
 110   2.0000      -0.830841       -22.6083
 111   2.0000      -0.819255       -22.2930
 112   2.0000      -0.814753       -22.1705
 113   2.0000      -0.804848       -21.9010
 114   2.0000      -0.797366       -21.6974
 115   2.0000      -0.779064       -21.1994
 116   2.0000      -0.769956       -20.9516
 117   2.0000      -0.765212       -20.8225
 118   2.0000      -0.761220       -20.7139
 119   2.0000      -0.750074       -20.4106
 120   2.0000      -0.739369       -20.1192
 121   2.0000      -0.733433       -19.9577
 122   2.0000      -0.721114       -19.6225
 123   2.0000      -0.715658       -19.4740
 124   2.0000      -0.711217       -19.3532
 125   2.0000      -0.707096       -19.2411
 126   2.0000      -0.705035       -19.1850
 127   2.0000      -0.701891       -19.0994
 128   2.0000      -0.694415       -18.8960
 129   2.0000      -0.692209       -18.8360
 130   2.0000      -0.682826       -18.5806
 131   2.0000      -0.678452       -18.4616
 132   2.0000      -0.672363       -18.2959
 133   2.0000      -0.661503       -18.0004
 134   2.0000      -0.649945       -17.6859
 135   2.0000      -0.642624       -17.4867
 136   2.0000      -0.640711       -17.4346
 137   2.0000      -0.634070       -17.2539
 138   2.0000      -0.626967       -17.0607
 139   2.0000      -0.622964       -16.9517
 140   2.0000      -0.616398       -16.7730
 141   2.0000      -0.613724       -16.7003
 142   2.0000      -0.610429       -16.6106
 143   2.0000      -0.608999       -16.5717
 144   2.0000      -0.600018       -16.3273
 145   2.0000      -0.596834       -16.2407
 146   2.0000      -0.586363       -15.9558
 147   2.0000      -0.582818       -15.8593
 148   2.0000      -0.580513       -15.7966
 149   2.0000      -0.565214       -15.3803
 150   2.0000      -0.563206       -15.3256
 151   2.0000      -0.561334       -15.2747
 152   2.0000      -0.555550       -15.1173
 153   2.0000      -0.554004       -15.0752
 154   2.0000      -0.551133       -14.9971
 155   2.0000      -0.549180       -14.9439
 156   2.0000      -0.546115       -14.8606
 157   2.0000      -0.545079       -14.8324
 158   2.0000      -0.542078       -14.7507
 159   2.0000      -0.540942       -14.7198
 160   2.0000      -0.538264       -14.6469
 161   2.0000      -0.534087       -14.5333
 162   2.0000      -0.532070       -14.4784
 163   2.0000      -0.529241       -14.4014
 164   2.0000      -0.525745       -14.3062
 165   2.0000      -0.522922       -14.2294
 166   2.0000      -0.522172       -14.2090
 167   2.0000      -0.517553       -14.0833
 168   2.0000      -0.517264       -14.0755
 169   2.0000      -0.514326       -13.9955
 170   2.0000      -0.512107       -13.9351
 171   2.0000      -0.510150       -13.8819
 172   2.0000      -0.504515       -13.7285
 173   2.0000      -0.502176       -13.6649
 174   2.0000      -0.499711       -13.5978
 175   2.0000      -0.498297       -13.5593
 176   2.0000      -0.497222       -13.5301
 177   2.0000      -0.494751       -13.4629
 178   2.0000      -0.492974       -13.4145
 179   2.0000      -0.489614       -13.3231
 180   2.0000      -0.489452       -13.3187
 181   2.0000      -0.486258       -13.2318
 182   2.0000      -0.484492       -13.1837
 183   2.0000      -0.483151       -13.1472
 184   2.0000      -0.472701       -12.8629
 185   2.0000      -0.471439       -12.8285
 186   2.0000      -0.468120       -12.7382
 187   2.0000      -0.466678       -12.6990
 188   2.0000      -0.459699       -12.5091
 189   2.0000      -0.455526       -12.3955
 190   2.0000      -0.455197       -12.3865
 191   2.0000      -0.453923       -12.3519
 192   2.0000      -0.453074       -12.3288
 193   2.0000      -0.451367       -12.2823
 194   2.0000      -0.450827       -12.2676
 195   2.0000      -0.450791       -12.2667
 196   2.0000      -0.449553       -12.2330
 197   2.0000      -0.446899       -12.1608
 198   2.0000      -0.446589       -12.1523
 199   2.0000      -0.446015       -12.1367
 200   2.0000      -0.444652       -12.0996
 201   2.0000      -0.442577       -12.0431
 202   2.0000      -0.440666       -11.9911
 203   2.0000      -0.440361       -11.9828
 204   2.0000      -0.439375       -11.9560
 205   2.0000      -0.436088       -11.8666
 206   2.0000      -0.435835       -11.8597
 207   2.0000      -0.433653       -11.8003
 208   2.0000      -0.432724       -11.7750
 209   2.0000      -0.430859       -11.7243
 210   2.0000      -0.428526       -11.6608
 211   2.0000      -0.427357       -11.6290
 212   2.0000      -0.426635       -11.6093
 213   2.0000      -0.423834       -11.5331
 214   2.0000      -0.422231       -11.4895
 215   2.0000      -0.421308       -11.4644
 216   2.0000      -0.417252       -11.3540
 217   2.0000      -0.412771       -11.2321
 218   2.0000      -0.410462       -11.1692
 219   2.0000      -0.407205       -11.0806
 220   2.0000      -0.404485       -11.0066
 221   2.0000      -0.400146       -10.8885
 222   2.0000      -0.385666       -10.4945
 223   2.0000      -0.382704       -10.4139
 224   2.0000      -0.376483       -10.2446
 225   2.0000      -0.370259       -10.0753
 226   2.0000      -0.354209        -9.6385
 227   2.0000      -0.347883        -9.4664
 228   2.0000      -0.347353        -9.4519
 229   2.0000      -0.342511        -9.3202
 230   2.0000      -0.328945        -8.9511
 231   2.0000      -0.328143        -8.9292
 232   2.0000      -0.323066        -8.7911
 233   2.0000      -0.318794        -8.6748
 234   2.0000      -0.303374        -8.2552
 235   2.0000      -0.297953        -8.1077
 236   2.0000      -0.290095        -7.8939
 237   2.0000      -0.260210        -7.0807
 238   0.0000      -0.117717        -3.2032
 239   0.0000      -0.103139        -2.8066
 240   0.0000      -0.075012        -2.0412
 241   0.0000      -0.067969        -1.8495
 242   0.0000      -0.058958        -1.6043

MULLIKEN ATOMIC CHARGES
-----------------------
   0 C :    0.301155
   1 C :   -0.341324
   2 C :   -0.184429
   3 N :    0.150744
   4 C :   -0.204180
   5 N :    0.161681
   6 C :    0.045376
   7 C :   -0.003519
   8 C :   -0.079412
   9 C :    0.096785
  10 C :    0.095048
  11 C :   -0.078479
  12 C :   -0.018947
  13 C :    0.035005
  14 C :    0.036245
  15 C :   -0.015014
  16 C :    0.162261
  17 O :   -0.155747
  18 C :   -0.088659
  19 C :    0.054146
  20 C :   -0.107312
  21 S :    0.182146
  22 C :   -0.047755
  23 C :   -0.096101
  24 C :    0.041955
  25 C :   -0.157776
  26 N :    0.113783
  27 C :    0.034577
  28 C :   -0.003251
  29 C :   -0.054356
  30 S :    0.139408
  31 C :   -0.208599
  32 C :   -0.036197
  33 C :   -0.079114
  34 C :    0.047015
  35 C :    0.033391
  36 C :    0.085374
  37 C :    0.023718
  38 C :    0.196186
  39 O :   -0.191294
  40 C :    0.144942
  41 C :   -0.002344
  42 C :   -0.020792
  43 C :   -0.335900
  44 N :    0.250522
  45 C :   -0.296680
  46 N :    0.243288
  47 C :   -0.029735
  48 C :    0.001542
  49 C :   -0.035996
  50 C :   -0.060481
  51 C :    0.333550
  52 C :   -0.349133
  53 C :   -0.179572
  54 N :    0.153084
  55 C :   -0.190779
  56 N :    0.152269
  57 C :    0.050651
  58 C :   -0.004408
  59 C :    0.154809
  60 O :   -0.154444
  61 C :   -0.079512
  62 C :    0.099348
  63 C :    0.097029
  64 C :   -0.083059
  65 C :   -0.019408
  66 C :    0.039936
  67 C :    0.035427
  68 C :   -0.015073
  69 H :   -0.011515
  70 H :   -0.005419
  71 H :   -0.008001
  72 H :   -0.002464
  73 H :   -0.004408
  74 H :   -0.015729
  75 H :    0.017639
  76 H :    0.027216
  77 H :    0.005489
  78 H :    0.009667
  79 H :    0.030945
  80 H :    0.010054
  81 H :    0.014604
  82 H :    0.028796
  83 H :    0.011619
  84 H :    0.014949
  85 H :    0.004968
  86 H :    0.006840
  87 H :    0.038615
  88 H :    0.005830
  89 H :    0.036497
  90 H :    0.039401
  91 H :    0.015493
  92 H :   -0.015450
  93 H :   -0.008497
  94 H :   -0.007524
  95 H :   -0.002911
  96 H :   -0.002736
  97 H :   -0.017585
Sum of atomic charges:   -0.0000000

LOEWDIN ATOMIC CHARGES
----------------------
   0 C :    0.075898
   1 C :   -0.138606
   2 C :   -0.017440
   3 N :   -0.051359
   4 C :   -0.026529
   5 N :   -0.049016
   6 C :   -0.026555
   7 C :   -0.055813
   8 C :    0.033145
   9 C :   -0.008273
  10 C :   -0.005773
  11 C :    0.020209
  12 C :   -0.005146
  13 C :   -0.012400
  14 C :   -0.011540
  15 C :   -0.009243
  16 C :    0.088393
  17 O :   -0.141316
  18 C :   -0.088156
  19 C :    0.046423
  20 C :   -0.182375
  21 S :    0.486796
  22 C :   -0.118869
  23 C :   -0.116965
  24 C :    0.024614
  25 C :   -0.023347
  26 N :   -0.060720
  27 C :   -0.056052
  28 C :   -0.001757
  29 C :   -0.162837
  30 S :    0.472229
  31 C :   -0.198147
  32 C :   -0.017974
  33 C :   -0.032131
  34 C :   -0.030230
  35 C :   -0.044629
  36 C :   -0.031701
  37 C :   -0.049781
  38 C :    0.073409
  39 O :    0.047576
  40 C :    0.055455
  41 C :   -0.064470
  42 C :   -0.100589
  43 C :   -0.051084
  44 N :   -0.026278
  45 C :   -0.035091
  46 N :   -0.017332
  47 C :    0.006150
  48 C :   -0.013230
  49 C :    0.064004
  50 C :   -0.081059
  51 C :    0.072752
  52 C :   -0.132659
  53 C :   -0.016787
  54 N :   -0.048654
  55 C :   -0.021381
  56 N :   -0.045874
  57 C :   -0.025232
  58 C :   -0.057580
  59 C :    0.090199
  60 O :   -0.148403
  61 C :    0.033655
  62 C :   -0.008266
  63 C :   -0.004951
  64 C :    0.020780
  65 C :   -0.004308
  66 C :   -0.010814
  67 C :   -0.010625
  68 C :   -0.009089
  69 H :    0.039320
  70 H :    0.039474
  71 H :    0.035153
  72 H :    0.033844
  73 H :    0.033136
  74 H :    0.032282
  75 H :    0.044544
  76 H :    0.043321
  77 H :    0.029021
  78 H :    0.042334
  79 H :    0.036988
  80 H :    0.031105
  81 H :    0.025223
  82 H :    0.030461
  83 H :    0.023421
  84 H :    0.029884
  85 H :    0.029708
  86 H :    0.018615
  87 H :    0.030372
  88 H :    0.021293
  89 H :    0.052503
  90 H :    0.037675
  91 H :    0.043951
  92 H :    0.038194
  93 H :    0.039478
  94 H :    0.035556
  95 H :    0.034188
  96 H :    0.033759
  97 H :    0.031948

  Mayer bond orders larger than 0.100000
B(  0-C ,  1-C ) :   1.6361 B(  0-C ,  6-C ) :   0.9899 B(  0-C , 18-C ) :   1.0646
B(  1-C ,  2-C ) :   1.1449 B(  1-C ,  4-C ) :   1.1380 B(  2-C ,  3-N ) :   2.9697
B(  4-C ,  5-N ) :   2.9936 B(  6-C ,  7-C ) :   1.2153 B(  6-C , 11-C ) :   1.4500
B(  7-C ,  8-C ) :   1.4699 B(  7-C , 16-C ) :   0.9545 B(  8-C ,  9-C ) :   1.1791
B(  8-C , 69-H ) :   1.0168 B(  9-C , 10-C ) :   1.2557 B(  9-C , 15-C ) :   1.2455
B( 10-C , 11-C ) :   1.2072 B( 10-C , 12-C ) :   1.2390 B( 11-C , 70-H ) :   0.9904
B( 12-C , 13-C ) :   1.4896 B( 12-C , 71-H ) :   0.9976 B( 13-C , 14-C ) :   1.2601
B( 13-C , 72-H ) :   0.9889 B( 14-C , 15-C ) :   1.4872 B( 14-C , 73-H ) :   0.9895
B( 15-C , 74-H ) :   0.9981 B( 16-C , 17-O ) :   2.1722 B( 16-C , 18-C ) :   0.9369
B( 18-C , 19-C ) :   1.6186 B( 19-C , 20-C ) :   1.1842 B( 19-C , 75-H ) :   0.9197
B( 20-C , 21-S ) :   1.0960 B( 20-C , 24-C ) :   1.4439 B( 21-S , 22-C ) :   1.1801
B( 22-C , 23-C ) :   1.3984 B( 22-C , 27-C ) :   1.1674 B( 23-C , 24-C ) :   1.3065
B( 23-C , 25-C ) :   1.1181 B( 24-C , 76-H ) :   0.9798 B( 25-C , 26-N ) :   2.9692
B( 27-C , 28-C ) :   1.6386 B( 27-C , 77-H ) :   0.9471 B( 28-C , 29-C ) :   1.1846
B( 28-C , 78-H ) :   0.9502 B( 29-C , 30-S ) :   1.0984 B( 29-C , 31-C ) :   0.1197
B( 29-C , 33-C ) :   1.4589 B( 30-S , 31-C ) :   1.1308 B( 31-C , 32-C ) :   1.4521
B( 31-C , 38-C ) :   1.1775 B( 32-C , 33-C ) :   1.3183 B( 32-C , 36-C ) :   1.0908
B( 33-C , 34-C ) :   1.0802 B( 34-C , 35-C ) :   1.1075 B( 34-C , 79-H ) :   0.9129
B( 34-C , 80-H ) :   0.9162 B( 35-C , 81-H ) :   0.9677 B( 35-C , 82-H ) :   0.9664
B( 35-C , 83-H ) :   0.9664 B( 36-C , 37-C ) :   1.1120 B( 36-C , 84-H ) :   0.9057
B( 36-C , 85-H ) :   0.9092 B( 37-C , 86-H ) :   0.9649 B( 37-C , 87-H ) :   0.9570
B( 37-C , 88-H ) :   0.9637 B( 38-C , 39-O ) :   1.1765 B( 38-C , 42-C ) :   1.3762
B( 39-O , 40-C ) :   1.1228 B( 40-C , 41-C ) :   1.3773 B( 40-C , 47-C ) :   1.1731
B( 41-C , 42-C ) :   1.3312 B( 41-C , 45-C ) :   1.1519 B( 42-C , 43-C ) :   1.1521
B( 42-C , 44-N ) :   0.1042 B( 43-C , 44-N ) :   3.0006 B( 45-C , 46-N ) :   3.0204
B( 47-C , 48-C ) :   1.5474 B( 47-C , 89-H ) :   0.9692 B( 48-C , 49-C ) :   1.1392
B( 48-C , 90-H ) :   0.9908 B( 49-C , 50-C ) :   1.5511 B( 49-C , 91-H ) :   0.9636
B( 50-C , 51-C ) :   1.0567 B( 50-C , 59-C ) :   0.9437 B( 51-C , 52-C ) :   1.6361
B( 51-C , 57-C ) :   0.9877 B( 52-C , 53-C ) :   1.1447 B( 52-C , 55-C ) :   1.1451
B( 53-C , 54-N ) :   2.9619 B( 55-C , 56-N ) :   2.9598 B( 57-C , 58-C ) :   1.2150
B( 57-C , 64-C ) :   1.4462 B( 58-C , 59-C ) :   0.9527 B( 58-C , 61-C ) :   1.4652
B( 59-C , 60-O ) :   2.1591 B( 61-C , 62-C ) :   1.1806 B( 61-C , 92-H ) :   1.0162
B( 62-C , 63-C ) :   1.2556 B( 62-C , 68-C ) :   1.2421 B( 63-C , 64-C ) :   1.2068
B( 63-C , 65-C ) :   1.2384 B( 64-C , 93-H ) :   0.9896 B( 65-C , 66-C ) :   1.4904
B( 65-C , 94-H ) :   0.9978 B( 66-C , 67-C ) :   1.2583 B( 66-C , 95-H ) :   0.9887
B( 67-C , 68-C ) :   1.4884 B( 67-C , 96-H ) :   0.9894 B( 68-C , 97-H ) :   0.9983

-----------------------------------------------------------------------------
         ABSORPTION SPECTRUM VIA TRANSITION ELECTRIC DIPOLE MOMENTS
-----------------------------------------------------------------------------
State   Energy  Wavelength   fosc         T2         TX        TY        TZ
        (cm-1)    (nm)                  (au**2)     (au)      (au)      (au)
-----------------------------------------------------------------------------
   0   16675.5    599.7   2.216094321  43.75065  -1.18374   5.02517   4.13486
   1   20633.1    484.7   0.246217323   3.92852  -0.82703   1.72180   0.52909
   2   24408.8    409.7   0.009016823   0.12161  -0.21875   0.26479  -0.06042
   3   25500.2    392.2   0.048564199   0.62697   0.02768   0.77950   0.13634
   4   26358.7    379.4   0.005918691   0.07392   0.00582   0.16184  -0.21840
   5   26594.8    376.0   0.270954189   3.35408  -0.75205   0.66265  -1.53278
   6   26682.9    374.8   0.024510970   0.30242   0.21682  -0.20246   0.46305
   7   27800.2    359.7   0.008854701   0.10486  -0.03592  -0.08650  -0.30998
   8   27888.4    358.6   0.035980878   0.42474  -0.00633  -0.48511  -0.43517
   9   28877.3    346.3   0.092816220   1.05814   0.56529  -0.85940  -0.00401
  10   29092.6    343.7   0.091495321   1.03536   0.63361  -0.75380   0.25628
  11   29499.6    339.0   0.347450693   3.87751  -0.41806  -0.15849  -1.91771
  12   30192.2    331.2   0.262859366   2.86619  -0.16839  -1.52438  -0.71701
  13   31024.0    322.3   0.052590830   0.55807   0.35962   0.06463   0.65159
  14   32404.7    308.6   0.142092943   1.44358   0.67009  -0.68630   0.72357
  15   32780.8    305.1   0.681155278   6.84072  -1.45631   0.15018  -2.16733
  16   32993.3    303.1   0.361901758   3.61111   0.26353   1.88167   0.03115
  17   33805.4    295.8   0.338397635   3.29547  -0.51072   1.53884  -0.81646
  18   33883.8    295.1   0.005157010   0.05011   0.07527  -0.16137   0.13564
  19   34251.7    292.0   0.064162617   0.61670   0.30374  -0.69244   0.21206
  20   34437.4    290.4   0.007787095   0.07444  -0.16099  -0.16004  -0.15137
  21   34507.9    289.8   0.046058612   0.43941   0.43640   0.07713   0.49297
  22   34951.6    286.1   0.011356938   0.10697  -0.27100  -0.04833  -0.17662
  23   35237.0    283.8   0.063604565   0.59424   0.07780  -0.66326  -0.38506
  24   35356.1    282.8   0.020487882   0.19077   0.12138   0.19660   0.37065
  25   35818.5    279.2   0.227836622   2.09408  -0.64187  -0.06814  -1.29516
  26   36481.9    274.1   0.076441017   0.68980   0.23468  -0.53621   0.58924
  27   36633.0    273.0   0.270045897   2.42684   0.81992  -0.75312   1.08967
  28   37873.3    264.0   0.144015277   1.25185   0.15261  -0.66200   0.88900
  29   38047.5    262.8   0.203563454   1.76136  -0.67850   1.11763  -0.22784
  30   38581.2    259.2   0.111224632   0.94908  -0.19418  -0.09740   0.94967
  31   38931.5    256.9   0.050924432   0.43063  -0.18118   0.61239   0.15093
  32   39481.8    253.3   0.177039199   1.47621   0.18574  -0.17274   1.18822
  33   39857.2    250.9   0.073214871   0.60474  -0.31345   0.14580  -0.69659
  34   40073.9    249.5   0.088272938   0.72517  -0.06100   0.53967   0.65590

FINAL SINGLE POINT ENERGY     -3590.928843317203

DIPOLE MOMENT
-------------
                                X             Y             Z
Electronic contribution:    -19.84062       9.60046     -39.46235
Nuclear contribution   :     22.06314     -12.42183      43.26230
                        -----------------------------------------
Total Dipole Moment    :      2.22252      -2.82137       3.79995
                        -----------------------------------------
Magnitude (a.u.)       :      5.22871
Magnitude (Debye)      :     13.29031

Rotational constants in cm-1:     0.002473     0.000230     0.000213
Rotational constants in MHz :    74.135335     6.889472     6.389734

                             ****ORCA TERMINATED NORMALLY****
TOTAL RUN TIME: 0 days 0 hours 9 minutes 8 seconds 994 msec
