                         Program Version 4.2.0 -  RELEASE  -
|  1> # ORCA input file
|  2> # SCF done       -178.052131236902          0.000368939240
|  3> ! CAM-B3LYP def2-SVP def2/J RIJCOSX Grid4 TightSCF
|  4> %maxcore 5000
|  5> %tddft
|  6>     Mode sTDDFT
|  7>     Ethresh 5.0
|  8>     maxcore 5000
|  9> end
| 10>
| 11> %pal
| 12>   nprocs 6
| 13>   end
| 14> * xyz 0 1
| 15>    C        4.08165         4.98185        -2.73270
| 16>    C        3.82660         5.34630        -4.02894
| 17>    C        4.79409         5.32762        -5.05657
| 18>    N        5.53130         5.34310        -5.93628
| 19>    C        2.57491         5.74644        -4.54308
| 20>    N        1.58991         6.06156        -5.04318
| 21>    C        5.34962         4.46252        -2.23883
| 22>    C        5.16138         4.01340        -0.90135
| 23>    C        6.17717         3.46301        -0.17377
| 24>    C        7.45625         3.34164        -0.76081
| 25>    C        7.65575         3.79674        -2.09656
| 26>    C        6.58286         4.35749        -2.82647
| 27>    C        8.93770         3.67596        -2.67060
| 28>    C        9.97357         3.13142        -1.96142
| 29>    C        9.77591         2.68338        -0.64670
| 30>    C        8.54401         2.78576        -0.05923
| 31>    C        3.76846         4.25000        -0.48985
| 32>    O        3.27594         3.93414         0.57285
| 33>    C        3.13022         4.96037        -1.62923
| 34>    C        1.93739         5.62316        -1.65531
| 35>    C        0.89360         5.70674        -0.70610
| 36>    S       -0.39353         6.84372        -1.07305
| 37>    C       -1.25764         6.42768         0.36505
| 38>    C       -0.56512         5.43880         1.07810
| 39>    C        0.63336         5.04141         0.47641
| 40>    C       -1.05525         4.91337         2.28698
| 41>    N       -1.47434         4.49968         3.27102
| 42>    C       -2.48661         7.01931         0.74085
| 43>    C       -3.09452         8.00807         0.03878
| 44>    C       -4.32499         8.61657         0.38693
| 45>    N       -4.86116         9.62834        -0.35969
| 46>    C       -6.05119        10.03412         0.15325
| 47>    C       -6.29200         9.25438         1.30828
| 48>    C       -5.21053         8.37858         1.43917
| 49>    C       -7.38821         9.42921         2.27967
| 50>    O       -8.02963        10.45139         2.35348
| 51>    C       -7.61734         8.26011         3.20252
| 52>    C       -6.82304        11.04712        -0.48227
| 53>    C       -8.17815        11.26034        -0.42947
| 54>    C       -8.50794        12.37289        -1.25717
| 55>    C       -7.22953        12.87583        -1.80288
| 56>    C       -6.24144        12.05927        -1.35965
| 57>    C       -7.01791        14.00309        -2.60666
| 58>    N       -6.76544        14.92882        -3.23780
| 59>    C       -9.75753        12.85948        -1.55001
| 60>    C      -10.06573        13.96677        -2.40028
| 61>    C      -11.43065        14.12912        -2.45318
| 62>    C      -12.03181        13.10792        -1.59899
| 63>    C      -11.04828        12.33411        -1.07272
| 64>    C      -11.25100        11.20948        -0.26290
| 65>    N      -11.45960        10.27621         0.37281
| 66>    C      -12.21725        15.11287        -3.11058
| 67>    C      -11.87987        15.90225        -4.16936
| 68>    C      -12.67954        16.99920        -4.69482
| 69>    C      -13.86848        17.46664        -4.19648
| 70>    C      -14.59239        18.54129        -4.75662
| 71>    N      -15.23776        19.40092        -5.15961
| 72>    C      -14.55889        16.96203        -3.07432
| 73>    N      -15.18782        16.62172        -2.17532
| 74>    C      -11.97483        17.55761        -5.84282
| 75>    C      -10.79130        16.79872        -6.06400
| 76>    C      -10.69966        15.72122        -5.06699
| 77>    O       -9.87838        14.83239        -5.04361
| 78>    C       -9.91542        17.09558        -7.06826
| 79>    C      -10.18437        18.19611        -7.91137
| 80>    C      -11.36936        18.95966        -7.70164
| 81>    C      -12.26040        18.62253        -6.65739
| 82>    C      -11.62929        20.05554        -8.54996
| 83>    C      -10.76021        20.38481        -9.55416
| 84>    C       -9.59249        19.63394        -9.75765
| 85>    C       -9.31085        18.56263        -8.95407
| 86>    H        6.00663         3.12696         0.83827
| 87>    H        6.76795         4.69780        -3.83283
| 88>    H        9.08456         4.02107        -3.68350
| 89>    H       10.95161         3.04283        -2.41000
| 90>    H       10.60465         2.25697        -0.10164
| 91>    H        8.38590         2.44263         0.95270
| 92>    H        1.74334         6.21778        -2.54097
| 93>    H        1.29236         4.29873         0.88866
| 94>    H       -2.93338         6.64066         1.64976
| 95>    H       -2.61397         8.37398        -0.86142
| 96>    H       -4.45573         9.98367        -1.21145
| 97>    H       -5.06453         7.66128         2.22083
| 98>    H       -6.79721         8.19564         3.91533
| 99>    H       -7.66234         7.33077         2.64077
|100>    H       -8.54453         8.41065         3.74855
|101>    H       -8.88911        10.68780         0.12985
|102>    H       -5.19318        12.17303        -1.57133
|103>    H       -9.33013        14.57198        -2.88880
|104>    H      -13.08923        12.99259        -1.44456
|105>    H      -13.21072        15.22865        -2.69332
|106>    H       -9.02402        16.50246        -7.20829
|107>    H      -13.14754        19.22154        -6.52815
|108>    H      -12.52881        20.63145        -8.38897
|109>    H      -10.96729        21.22695       -10.19733
|110>    H       -8.91747        19.90900       -10.55424
|111>    H       -8.41360        17.98058        -9.10512
|112> *
|113>
|114>                          ****END OF INPUT****

CARTESIAN COORDINATES (ANGSTROEM)
---------------------------------
  C      4.081650    4.981850   -2.732700
  C      3.826600    5.346300   -4.028940
  C      4.794090    5.327620   -5.056570
  N      5.531300    5.343100   -5.936280
  C      2.574910    5.746440   -4.543080
  N      1.589910    6.061560   -5.043180
  C      5.349620    4.462520   -2.238830
  C      5.161380    4.013400   -0.901350
  C      6.177170    3.463010   -0.173770
  C      7.456250    3.341640   -0.760810
  C      7.655750    3.796740   -2.096560
  C      6.582860    4.357490   -2.826470
  C      8.937700    3.675960   -2.670600
  C      9.973570    3.131420   -1.961420
  C      9.775910    2.683380   -0.646700
  C      8.544010    2.785760   -0.059230
  C      3.768460    4.250000   -0.489850
  O      3.275940    3.934140    0.572850
  C      3.130220    4.960370   -1.629230
  C      1.937390    5.623160   -1.655310
  C      0.893600    5.706740   -0.706100
  S     -0.393530    6.843720   -1.073050
  C     -1.257640    6.427680    0.365050
  C     -0.565120    5.438800    1.078100
  C      0.633360    5.041410    0.476410
  C     -1.055250    4.913370    2.286980
  N     -1.474340    4.499680    3.271020
  C     -2.486610    7.019310    0.740850
  C     -3.094520    8.008070    0.038780
  C     -4.324990    8.616570    0.386930
  N     -4.861160    9.628340   -0.359690
  C     -6.051190   10.034120    0.153250
  C     -6.292000    9.254380    1.308280
  C     -5.210530    8.378580    1.439170
  C     -7.388210    9.429210    2.279670
  O     -8.029630   10.451390    2.353480
  C     -7.617340    8.260110    3.202520
  C     -6.823040   11.047120   -0.482270
  C     -8.178150   11.260340   -0.429470
  C     -8.507940   12.372890   -1.257170
  C     -7.229530   12.875830   -1.802880
  C     -6.241440   12.059270   -1.359650
  C     -7.017910   14.003090   -2.606660
  N     -6.765440   14.928820   -3.237800
  C     -9.757530   12.859480   -1.550010
  C    -10.065730   13.966770   -2.400280
  C    -11.430650   14.129120   -2.453180
  C    -12.031810   13.107920   -1.598990
  C    -11.048280   12.334110   -1.072720
  C    -11.251000   11.209480   -0.262900
  N    -11.459600   10.276210    0.372810
  C    -12.217250   15.112870   -3.110580
  C    -11.879870   15.902250   -4.169360
  C    -12.679540   16.999200   -4.694820
  C    -13.868480   17.466640   -4.196480
  C    -14.592390   18.541290   -4.756620
  N    -15.237760   19.400920   -5.159610
  C    -14.558890   16.962030   -3.074320
  N    -15.187820   16.621720   -2.175320
  C    -11.974830   17.557610   -5.842820
  C    -10.791300   16.798720   -6.064000
  C    -10.699660   15.721220   -5.066990
  O     -9.878380   14.832390   -5.043610
  C     -9.915420   17.095580   -7.068260
  C    -10.184370   18.196110   -7.911370
  C    -11.369360   18.959660   -7.701640
  C    -12.260400   18.622530   -6.657390
  C    -11.629290   20.055540   -8.549960
  C    -10.760210   20.384810   -9.554160
  C     -9.592490   19.633940   -9.757650
  C     -9.310850   18.562630   -8.954070
  H      6.006630    3.126960    0.838270
  H      6.767950    4.697800   -3.832830
  H      9.084560    4.021070   -3.683500
  H     10.951610    3.042830   -2.410000
  H     10.604650    2.256970   -0.101640
  H      8.385900    2.442630    0.952700
  H      1.743340    6.217780   -2.540970
  H      1.292360    4.298730    0.888660
  H     -2.933380    6.640660    1.649760
  H     -2.613970    8.373980   -0.861420
  H     -4.455730    9.983670   -1.211450
  H     -5.064530    7.661280    2.220830
  H     -6.797210    8.195640    3.915330
  H     -7.662340    7.330770    2.640770
  H     -8.544530    8.410650    3.748550
  H     -8.889110   10.687800    0.129850
  H     -5.193180   12.173030   -1.571330
  H     -9.330130   14.571980   -2.888800
  H    -13.089230   12.992590   -1.444560
  H    -13.210720   15.228650   -2.693320
  H     -9.024020   16.502460   -7.208290
  H    -13.147540   19.221540   -6.528150
  H    -12.528810   20.631450   -8.388970
  H    -10.967290   21.226950  -10.197330
  H     -8.917470   19.909000  -10.554240
  H     -8.413600   17.980580   -9.105120

 Total Charge           Charge          ....    0
 Multiplicity           Mult            ....    1
 Number of Electrons    NEL             ....  476
 Basis Dimension        Dim             .... 1128

ORBITAL ENERGIES
----------------

  NO   OCC          E(Eh)            E(eV)
   0   2.0000     -88.989274     -2421.5213
   1   2.0000     -19.226824      -523.1885
   2   2.0000     -19.219323      -522.9844
   3   2.0000     -19.207627      -522.6661
   4   2.0000     -14.501627      -394.6093
   5   2.0000     -14.423215      -392.4756
   6   2.0000     -14.420523      -392.4024
   7   2.0000     -14.419847      -392.3840
   8   2.0000     -14.417487      -392.3198
   9   2.0000     -14.415917      -392.2771
  10   2.0000     -14.415481      -392.2652
  11   2.0000     -14.406643      -392.0247
  12   2.0000     -10.377826      -282.3950
  13   2.0000     -10.370885      -282.2061
  14   2.0000     -10.365233      -282.0523
  15   2.0000     -10.350128      -281.6413
  16   2.0000     -10.348480      -281.5965
  17   2.0000     -10.347487      -281.5694
  18   2.0000     -10.346518      -281.5431
  19   2.0000     -10.344541      -281.4893
  20   2.0000     -10.343778      -281.4685
  21   2.0000     -10.338123      -281.3146
  22   2.0000     -10.334693      -281.2213
  23   2.0000     -10.333701      -281.1943
  24   2.0000     -10.333662      -281.1932
  25   2.0000     -10.328227      -281.0453
  26   2.0000     -10.328051      -281.0406
  27   2.0000     -10.327929      -281.0372
  28   2.0000     -10.326085      -280.9871
  29   2.0000     -10.323757      -280.9237
  30   2.0000     -10.323509      -280.9170
  31   2.0000     -10.322958      -280.9020
  32   2.0000     -10.322839      -280.8987
  33   2.0000     -10.322668      -280.8941
  34   2.0000     -10.320128      -280.8250
  35   2.0000     -10.317594      -280.7560
  36   2.0000     -10.316936      -280.7381
  37   2.0000     -10.316297      -280.7207
  38   2.0000     -10.316209      -280.7183
  39   2.0000     -10.312940      -280.6294
  40   2.0000     -10.311704      -280.5957
  41   2.0000     -10.310957      -280.5754
  42   2.0000     -10.309698      -280.5411
  43   2.0000     -10.308584      -280.5108
  44   2.0000     -10.308389      -280.5055
  45   2.0000     -10.307900      -280.4922
  46   2.0000     -10.305992      -280.4403
  47   2.0000     -10.304858      -280.4094
  48   2.0000     -10.302952      -280.3576
  49   2.0000     -10.302738      -280.3517
  50   2.0000     -10.302322      -280.3404
  51   2.0000     -10.302229      -280.3379
  52   2.0000     -10.299120      -280.2533
  53   2.0000     -10.298991      -280.2498
  54   2.0000     -10.298839      -280.2457
  55   2.0000     -10.298407      -280.2339
  56   2.0000     -10.297614      -280.2123
  57   2.0000     -10.296633      -280.1856
  58   2.0000     -10.294504      -280.1277
  59   2.0000     -10.292769      -280.0805
  60   2.0000     -10.291297      -280.0404
  61   2.0000     -10.290786      -280.0265
  62   2.0000     -10.290534      -280.0197
  63   2.0000     -10.290062      -280.0068
  64   2.0000     -10.289747      -279.9982
  65   2.0000     -10.289638      -279.9953
  66   2.0000     -10.287686      -279.9422
  67   2.0000     -10.287140      -279.9273
  68   2.0000     -10.286959      -279.9224
  69   2.0000     -10.286513      -279.9102
  70   2.0000     -10.270302      -279.4691
  71   2.0000      -8.084904      -220.0014
  72   2.0000      -6.053978      -164.7371
  73   2.0000      -6.050077      -164.6310
  74   2.0000      -6.047146      -164.5512
  75   2.0000      -1.141617       -31.0650
  76   2.0000      -1.135277       -30.8924
  77   2.0000      -1.128306       -30.7028
  78   2.0000      -1.117482       -30.4082
  79   2.0000      -1.027595       -27.9623
  80   2.0000      -1.023957       -27.8633
  81   2.0000      -1.023191       -27.8424
  82   2.0000      -1.021361       -27.7927
  83   2.0000      -1.005050       -27.3488
  84   2.0000      -1.004852       -27.3434
  85   2.0000      -1.001076       -27.2407
  86   2.0000      -0.999716       -27.2036
  87   2.0000      -0.996773       -27.1236
  88   2.0000      -0.995522       -27.0895
  89   2.0000      -0.990623       -26.9562
  90   2.0000      -0.984117       -26.7792
  91   2.0000      -0.977454       -26.5979
  92   2.0000      -0.972738       -26.4696
  93   2.0000      -0.943202       -25.6658
  94   2.0000      -0.930297       -25.3147
  95   2.0000      -0.927313       -25.2335
  96   2.0000      -0.916095       -24.9282
  97   2.0000      -0.915142       -24.9023
  98   2.0000      -0.909668       -24.7533
  99   2.0000      -0.895850       -24.3773
 100   2.0000      -0.889453       -24.2033
 101   2.0000      -0.886082       -24.1115
 102   2.0000      -0.883447       -24.0398
 103   2.0000      -0.881013       -23.9736
 104   2.0000      -0.870270       -23.6813
 105   2.0000      -0.862522       -23.4704
 106   2.0000      -0.853869       -23.2350
 107   2.0000      -0.841406       -22.8958
 108   2.0000      -0.835422       -22.7330
 109   2.0000      -0.833602       -22.6835
 110   2.0000      -0.829703       -22.5774
 111   2.0000      -0.823825       -22.4174
 112   2.0000      -0.806451       -21.9447
 113   2.0000      -0.795453       -21.6454
 114   2.0000      -0.775403       -21.0998
 115   2.0000      -0.768643       -20.9159
 116   2.0000      -0.764513       -20.8035
 117   2.0000      -0.754659       -20.5353
 118   2.0000      -0.739808       -20.1312
 119   2.0000      -0.738834       -20.1047
 120   2.0000      -0.729125       -19.8405
 121   2.0000      -0.721936       -19.6449
 122   2.0000      -0.711918       -19.3723
 123   2.0000      -0.710257       -19.3271
 124   2.0000      -0.706242       -19.2178
 125   2.0000      -0.704858       -19.1802
 126   2.0000      -0.700123       -19.0513
 127   2.0000      -0.697879       -18.9902
 128   2.0000      -0.686925       -18.6922
 129   2.0000      -0.682366       -18.5681
 130   2.0000      -0.679655       -18.4943
 131   2.0000      -0.671746       -18.2791
 132   2.0000      -0.664249       -18.0751
 133   2.0000      -0.657850       -17.9010
 134   2.0000      -0.646433       -17.5903
 135   2.0000      -0.642828       -17.4922
 136   2.0000      -0.638147       -17.3649
 137   2.0000      -0.634455       -17.2644
 138   2.0000      -0.622705       -16.9447
 139   2.0000      -0.618788       -16.8381
 140   2.0000      -0.611771       -16.6471
 141   2.0000      -0.611049       -16.6275
 142   2.0000      -0.607950       -16.5432
 143   2.0000      -0.601593       -16.3702
 144   2.0000      -0.589797       -16.0492
 145   2.0000      -0.585749       -15.9390
 146   2.0000      -0.574449       -15.6315
 147   2.0000      -0.568621       -15.4730
 148   2.0000      -0.564378       -15.3575
 149   2.0000      -0.562948       -15.3186
 150   2.0000      -0.559431       -15.2229
 151   2.0000      -0.557112       -15.1598
 152   2.0000      -0.553936       -15.0734
 153   2.0000      -0.551528       -15.0078
 154   2.0000      -0.548253       -14.9187
 155   2.0000      -0.547939       -14.9102
 156   2.0000      -0.545915       -14.8551
 157   2.0000      -0.544887       -14.8271
 158   2.0000      -0.542140       -14.7524
 159   2.0000      -0.536818       -14.6076
 160   2.0000      -0.536436       -14.5972
 161   2.0000      -0.532552       -14.4915
 162   2.0000      -0.528338       -14.3768
 163   2.0000      -0.528229       -14.3738
 164   2.0000      -0.526465       -14.3258
 165   2.0000      -0.525995       -14.3131
 166   2.0000      -0.523046       -14.2328
 167   2.0000      -0.520885       -14.1740
 168   2.0000      -0.520630       -14.1671
 169   2.0000      -0.518001       -14.0955
 170   2.0000      -0.517752       -14.0888
 171   2.0000      -0.513294       -13.9674
 172   2.0000      -0.511835       -13.9277
 173   2.0000      -0.507662       -13.8142
 174   2.0000      -0.505838       -13.7645
 175   2.0000      -0.502532       -13.6746
 176   2.0000      -0.501435       -13.6447
 177   2.0000      -0.500001       -13.6057
 178   2.0000      -0.499419       -13.5899
 179   2.0000      -0.496114       -13.4999
 180   2.0000      -0.492387       -13.3985
 181   2.0000      -0.491637       -13.3781
 182   2.0000      -0.487308       -13.2603
 183   2.0000      -0.482432       -13.1277
 184   2.0000      -0.476832       -12.9753
 185   2.0000      -0.475843       -12.9484
 186   2.0000      -0.474343       -12.9075
 187   2.0000      -0.470819       -12.8116
 188   2.0000      -0.467509       -12.7216
 189   2.0000      -0.465917       -12.6783
 190   2.0000      -0.455333       -12.3903
 191   2.0000      -0.453652       -12.3445
 192   2.0000      -0.451991       -12.2993
 193   2.0000      -0.450767       -12.2660
 194   2.0000      -0.448763       -12.2115
 195   2.0000      -0.447094       -12.1660
 196   2.0000      -0.446687       -12.1550
 197   2.0000      -0.445345       -12.1184
 198   2.0000      -0.444287       -12.0897
 199   2.0000      -0.442749       -12.0478
 200   2.0000      -0.442101       -12.0302
 201   2.0000      -0.439991       -11.9728
 202   2.0000      -0.439225       -11.9519
 203   2.0000      -0.439046       -11.9470
 204   2.0000      -0.437113       -11.8944
 205   2.0000      -0.436344       -11.8735
 206   2.0000      -0.435421       -11.8484
 207   2.0000      -0.434602       -11.8261
 208   2.0000      -0.433438       -11.7944
 209   2.0000      -0.431233       -11.7344
 210   2.0000      -0.428667       -11.6646
 211   2.0000      -0.425533       -11.5793
 212   2.0000      -0.421739       -11.4761
 213   2.0000      -0.420182       -11.4337
 214   2.0000      -0.419482       -11.4147
 215   2.0000      -0.413018       -11.2388
 216   2.0000      -0.409082       -11.1317
 217   2.0000      -0.407730       -11.0949
 218   2.0000      -0.403149       -10.9703
 219   2.0000      -0.399677       -10.8758
 220   2.0000      -0.385020       -10.4769
 221   2.0000      -0.380427       -10.3519
 222   2.0000      -0.373475       -10.1628
 223   2.0000      -0.362511        -9.8644
 224   2.0000      -0.359193        -9.7741
 225   2.0000      -0.350471        -9.5368
 226   2.0000      -0.346180        -9.4200
 227   2.0000      -0.342043        -9.3075
 228   2.0000      -0.340947        -9.2776
 229   2.0000      -0.334385        -9.0991
 230   2.0000      -0.326685        -8.8896
 231   2.0000      -0.322395        -8.7728
 232   2.0000      -0.318862        -8.6767
 233   2.0000      -0.307832        -8.3765
 234   2.0000      -0.299974        -8.1627
 235   2.0000      -0.297047        -8.0831
 236   2.0000      -0.289938        -7.8896
 237   2.0000      -0.260417        -7.0863
 238   0.0000      -0.137401        -3.7389
 239   0.0000      -0.106475        -2.8973
 240   0.0000      -0.083495        -2.2720
 241   0.0000      -0.068854        -1.8736
 242   0.0000      -0.056908        -1.5486

MULLIKEN ATOMIC CHARGES
-----------------------
   0 C :    0.304615
   1 C :   -0.351688
   2 C :   -0.182324
   3 N :    0.152853
   4 C :   -0.200201
   5 N :    0.157593
   6 C :    0.046345
   7 C :   -0.000380
   8 C :   -0.078898
   9 C :    0.097464
  10 C :    0.096286
  11 C :   -0.080370
  12 C :   -0.017017
  13 C :    0.036610
  14 C :    0.037425
  15 C :   -0.015252
  16 C :    0.159749
  17 O :   -0.152821
  18 C :   -0.085460
  19 C :    0.050365
  20 C :   -0.098542
  21 S :    0.140880
  22 C :   -0.028958
  23 C :   -0.080908
  24 C :    0.041577
  25 C :   -0.178541
  26 N :    0.138455
  27 C :   -0.015516
  28 C :    0.021461
  29 C :    0.112606
  30 N :   -0.025391
  31 C :    0.059204
  32 C :    0.016400
  33 C :   -0.083868
  34 C :   -0.012043
  35 O :   -0.172944
  36 C :    0.039759
  37 C :    0.084439
  38 C :   -0.072919
  39 C :    0.105078
  40 C :   -0.090924
  41 C :   -0.032846
  42 C :   -0.168129
  43 N :    0.140053
  44 C :    0.075824
  45 C :   -0.042909
  46 C :    0.085493
  47 C :   -0.001849
  48 C :   -0.082368
  49 C :   -0.173250
  50 N :    0.135561
  51 C :   -0.023137
  52 C :   -0.063801
  53 C :    0.320066
  54 C :   -0.355985
  55 C :   -0.179526
  56 N :    0.151139
  57 C :   -0.183103
  58 N :    0.153469
  59 C :    0.054725
  60 C :   -0.010469
  61 C :    0.140168
  62 O :   -0.136852
  63 C :   -0.072891
  64 C :    0.096305
  65 C :    0.096423
  66 C :   -0.082932
  67 C :   -0.018141
  68 C :    0.036913
  69 C :    0.035580
  70 C :   -0.012793
  71 H :   -0.011566
  72 H :   -0.007355
  73 H :   -0.008362
  74 H :   -0.003437
  75 H :   -0.003354
  76 H :   -0.016745
  77 H :    0.014392
  78 H :    0.028934
  79 H :    0.017177
  80 H :   -0.011546
  81 H :    0.128300
  82 H :   -0.008055
  83 H :    0.042577
  84 H :    0.037866
  85 H :    0.043147
  86 H :    0.014749
  87 H :   -0.008027
  88 H :    0.021161
  89 H :    0.011547
  90 H :    0.011569
  91 H :   -0.007551
  92 H :   -0.008289
  93 H :   -0.008240
  94 H :   -0.003840
  95 H :   -0.003835
  96 H :   -0.016154
Sum of atomic charges:   -0.0000000

LOEWDIN ATOMIC CHARGES
----------------------
   0 C :    0.076672
   1 C :   -0.140194
   2 C :   -0.017485
   3 N :   -0.051305
   4 C :   -0.025072
   5 N :   -0.052405
   6 C :   -0.027034
   7 C :   -0.056012
   8 C :    0.033958
   9 C :   -0.007826
  10 C :   -0.005707
  11 C :    0.020853
  12 C :   -0.004801
  13 C :   -0.011796
  14 C :   -0.010644
  15 C :   -0.008692
  16 C :    0.088478
  17 O :   -0.139887
  18 C :   -0.086899
  19 C :    0.043654
  20 C :   -0.175339
  21 S :    0.463453
  22 C :   -0.119575
  23 C :   -0.111192
  24 C :    0.021726
  25 C :   -0.031958
  26 N :   -0.050351
  27 C :   -0.041489
  28 C :   -0.008493
  29 C :   -0.013019
  30 N :    0.113751
  31 C :    0.025386
  32 C :   -0.086961
  33 C :   -0.026257
  34 C :    0.082563
  35 O :   -0.135960
  36 C :   -0.074202
  37 C :   -0.020166
  38 C :   -0.001992
  39 C :    0.051485
  40 C :   -0.069716
  41 C :    0.040175
  42 C :   -0.033758
  43 N :   -0.051526
  44 C :    0.032818
  45 C :    0.041539
  46 C :   -0.039463
  47 C :    0.061685
  48 C :   -0.086816
  49 C :   -0.030863
  50 N :   -0.058087
  51 C :    0.065762
  52 C :   -0.072636
  53 C :    0.074978
  54 C :   -0.134219
  55 C :   -0.016361
  56 N :   -0.049905
  57 C :   -0.021947
  58 N :   -0.048131
  59 C :   -0.026741
  60 C :   -0.056267
  61 C :    0.084164
  62 O :   -0.127440
  63 C :    0.036433
  64 C :   -0.007294
  65 C :   -0.005410
  66 C :    0.020244
  67 C :   -0.005080
  68 C :   -0.012274
  69 C :   -0.011053
  70 C :   -0.008080
  71 H :    0.039557
  72 H :    0.039258
  73 H :    0.035111
  74 H :    0.033858
  75 H :    0.033565
  76 H :    0.032375
  77 H :    0.043347
  78 H :    0.043725
  79 H :    0.044056
  80 H :    0.026453
  81 H :    0.093715
  82 H :    0.031884
  83 H :    0.046287
  84 H :    0.040424
  85 H :    0.044355
  86 H :    0.037492
  87 H :    0.031157
  88 H :    0.036606
  89 H :    0.041587
  90 H :    0.046417
  91 H :    0.041213
  92 H :    0.039010
  93 H :    0.035025
  94 H :    0.033583
  95 H :    0.033297
  96 H :    0.032646

  Mayer bond orders larger than 0.100000
B(  0-C ,  1-C ) :   1.6308 B(  0-C ,  6-C ) :   0.9881 B(  0-C , 18-C ) :   1.0672
B(  1-C ,  2-C ) :   1.1476 B(  1-C ,  4-C ) :   1.1399 B(  2-C ,  3-N ) :   2.9697
B(  4-C ,  5-N ) :   2.9860 B(  6-C ,  7-C ) :   1.2146 B(  6-C , 11-C ) :   1.4503
B(  7-C ,  8-C ) :   1.4701 B(  7-C , 16-C ) :   0.9552 B(  8-C ,  9-C ) :   1.1804
B(  8-C , 71-H ) :   1.0153 B(  9-C , 10-C ) :   1.2562 B(  9-C , 15-C ) :   1.2446
B( 10-C , 11-C ) :   1.2075 B( 10-C , 12-C ) :   1.2400 B( 11-C , 72-H ) :   0.9893
B( 12-C , 13-C ) :   1.4899 B( 12-C , 73-H ) :   0.9967 B( 13-C , 14-C ) :   1.2603
B( 13-C , 74-H ) :   0.9883 B( 14-C , 15-C ) :   1.4898 B( 14-C , 75-H ) :   0.9884
B( 15-C , 76-H ) :   0.9971 B( 16-C , 17-O ) :   2.1734 B( 16-C , 18-C ) :   0.9342
B( 18-C , 19-C ) :   1.6221 B( 19-C , 20-C ) :   1.1896 B( 19-C , 77-H ) :   0.9138
B( 20-C , 21-S ) :   1.0914 B( 20-C , 24-C ) :   1.4513 B( 21-S , 22-C ) :   1.1549
B( 22-C , 23-C ) :   1.4011 B( 22-C , 27-C ) :   1.1980 B( 23-C , 24-C ) :   1.2852
B( 23-C , 25-C ) :   1.1061 B( 24-C , 78-H ) :   0.9815 B( 25-C , 26-N ) :   3.0200
B( 27-C , 28-C ) :   1.6359 B( 27-C , 79-H ) :   0.9647 B( 28-C , 29-C ) :   1.1154
B( 28-C , 80-H ) :   0.9603 B( 29-C , 30-N ) :   1.1872 B( 29-C , 31-C ) :   0.1115
B( 29-C , 33-C ) :   1.3808 B( 30-N , 31-C ) :   1.2907 B( 30-N , 81-H ) :   0.9265
B( 31-C , 32-C ) :   1.3552 B( 31-C , 37-C ) :   1.0093 B( 32-C , 33-C ) :   1.3379
B( 32-C , 34-C ) :   0.9153 B( 33-C , 82-H ) :   0.9990 B( 34-C , 35-O ) :   2.1854
B( 34-C , 36-C ) :   1.0578 B( 36-C , 83-H ) :   0.9344 B( 36-C , 84-H ) :   0.9568
B( 36-C , 85-H ) :   0.9490 B( 37-C , 38-C ) :   1.5963 B( 37-C , 41-C ) :   1.0204
B( 38-C , 39-C ) :   1.1266 B( 38-C , 86-H ) :   0.9937 B( 39-C , 40-C ) :   1.0867
B( 39-C , 44-C ) :   1.4177 B( 40-C , 41-C ) :   1.7061 B( 40-C , 42-C ) :   1.0763
B( 41-C , 87-H ) :   1.0133 B( 42-C , 43-N ) :   2.9700 B( 44-C , 45-C ) :   1.1131
B( 44-C , 48-C ) :   1.1093 B( 45-C , 46-C ) :   1.5489 B( 45-C , 88-H ) :   0.9874
B( 46-C , 47-C ) :   1.0322 B( 46-C , 51-C ) :   1.1099 B( 47-C , 48-C ) :   1.6624
B( 47-C , 89-H ) :   1.0236 B( 48-C , 49-C ) :   1.0864 B( 49-C , 50-N ) :   2.9688
B( 51-C , 52-C ) :   1.6175 B( 51-C , 90-H ) :   0.9353 B( 52-C , 53-C ) :   1.0608
B( 52-C , 61-C ) :   0.9216 B( 53-C , 54-C ) :   1.6321 B( 53-C , 59-C ) :   0.9927
B( 54-C , 55-C ) :   1.1478 B( 54-C , 57-C ) :   1.1409 B( 55-C , 56-N ) :   2.9610
B( 57-C , 58-N ) :   2.9607 B( 59-C , 60-C ) :   1.2093 B( 59-C , 66-C ) :   1.4413
B( 60-C , 61-C ) :   0.9413 B( 60-C , 63-C ) :   1.4736 B( 61-C , 62-O ) :   2.2316
B( 63-C , 64-C ) :   1.1794 B( 63-C , 91-H ) :   1.0159 B( 64-C , 65-C ) :   1.2525
B( 64-C , 70-C ) :   1.2462 B( 65-C , 66-C ) :   1.2137 B( 65-C , 67-C ) :   1.2368
B( 66-C , 92-H ) :   0.9889 B( 67-C , 68-C ) :   1.4913 B( 67-C , 93-H ) :   0.9976
B( 68-C , 69-C ) :   1.2570 B( 68-C , 94-H ) :   0.9890 B( 69-C , 70-C ) :   1.4892
B( 69-C , 95-H ) :   0.9894 B( 70-C , 96-H ) :   0.9976

-----------------------------------------------------------------------------
         ABSORPTION SPECTRUM VIA TRANSITION ELECTRIC DIPOLE MOMENTS
-----------------------------------------------------------------------------
State   Energy  Wavelength   fosc         T2         TX        TY        TZ
        (cm-1)    (nm)                  (au**2)     (au)      (au)      (au)
-----------------------------------------------------------------------------
   0   11904.2    840.0   0.870255767  24.06699  -3.91278   2.75878  -1.07065
   1   16222.9    616.4   0.005886713   0.11946  -0.08749   0.11760  -0.31301
   2   19116.7    523.1   1.277823337  22.00559  -4.05470   2.12262   1.02931
   3   20713.0    482.8   0.078203227   1.24296  -0.35798  -0.43770   0.96085
   4   20819.3    480.3   0.004454462   0.07044  -0.25634   0.06867  -0.00317
   5   23011.0    434.6   0.006406437   0.09166  -0.17305   0.24802  -0.01391
   6   23653.4    422.8   0.033333207   0.46394   0.44618  -0.49087   0.15463
   7   24558.8    407.2   0.107848714   1.44572   0.98129  -0.57609   0.38847
   8   25297.9    395.3   0.200745300   2.61238   0.85602  -0.88266   1.04906
   9   26114.6    382.9   0.507043821   6.39201  -0.75277   1.71818  -1.69505
  10   26827.1    372.8   0.038357664   0.47071   0.08201   0.04467  -0.67970
  11   27690.1    361.1   0.098325654   1.16901  -0.78145   0.63694  -0.39072
  12   27835.4    359.3   0.043956982   0.51988  -0.28627   0.46981  -0.46606
  13   28543.6    350.3   0.001227736   0.01416  -0.10033   0.05220   0.03702
  14   28953.6    345.4   0.041203614   0.46850   0.09617   0.23611  -0.63522
  15   29311.8    341.2   0.041271698   0.46354  -0.51401   0.35706  -0.26803
  16   29793.0    335.6   0.265559051   2.93442   1.59693  -0.41873  -0.45705
  17   30091.8    332.3   0.319649759   3.49705   0.21654  -1.25254   1.37161
  18   30401.9    328.9   0.034505541   0.37365  -0.38232   0.30297  -0.36836
  19   30618.2    326.6   0.032441870   0.34882  -0.49116  -0.32560  -0.03966
  20   30997.2    322.6   0.164174685   1.74365   1.13676  -0.28866  -0.60671
  21   31602.2    316.4   0.074636164   0.77751   0.81575  -0.13211  -0.30759
  22   32225.8    310.3   0.011955765   0.12214   0.03200   0.18682  -0.29362
  23   32856.8    304.4   0.175216621   1.75560   0.99789  -0.46849   0.73507
  24   32975.6    303.3   0.278226040   2.77767   1.43919  -0.62681   0.55994
  25   33890.0    295.1   0.049011310   0.47610   0.32611   0.25696  -0.55111
  26   33975.6    294.3   0.023665389   0.22931   0.09575  -0.36763   0.29153
  27   34363.1    291.0   0.135978210   1.30273   0.89451  -0.42265   0.56916
  28   34579.4    289.2   0.131107370   1.24820   0.97734  -0.38067   0.38485
  29   34631.4    288.8   0.035979967   0.34203   0.53287  -0.23873   0.03299
  30   34768.7    287.6   0.134334725   1.27197   1.10692   0.19564  -0.09175
  31   35285.9    283.4   0.211627575   1.97445   1.13916   0.01565  -0.82251
  32   35315.0    283.2   0.454613175   4.23797  -0.49244  -0.96405   1.75102
  33   35472.4    281.9   0.045124065   0.41879   0.42056   0.15262  -0.46757
  34   35640.3    280.6   0.186303694   1.72090  -0.86328  -0.22544   0.96167
  35   35823.3    279.1   0.020510346   0.18849   0.11649  -0.20701  -0.36341
  36   36396.1    274.8   0.042808534   0.38721   0.53701   0.06643  -0.30728
  37   36829.2    271.5   0.009026536   0.08069   0.20820   0.02275  -0.19189
  38   37253.3    268.4   0.033024817   0.29184  -0.35787   0.28015  -0.29205
  39   37415.8    267.3   0.007317302   0.06438   0.13746  -0.06624   0.20273
  40   37867.4    264.1   0.014174839   0.12323   0.01356  -0.15675   0.31382
  41   38304.6    261.1   0.032263142   0.27729   0.46531  -0.19073   0.15621
  42   38395.9    260.4   0.006020969   0.05162  -0.04133   0.20254  -0.09430
  43   38582.2    259.2   0.020323464   0.17341   0.27765  -0.11456  -0.28845
  44   38948.7    256.7   0.083879351   0.70899  -0.75682   0.29739  -0.21856
  45   39100.6    255.8   0.073347115   0.61755   0.61607   0.27246  -0.40470
  46   39601.4    252.5   0.379514478   3.15496  -0.23127  -0.66959   1.62884
  47   39930.9    250.4   0.054962597   0.45314  -0.26929   0.59885  -0.14834
  48   40100.8    249.4   0.029829020   0.24488  -0.16599   0.36428  -0.29091
  49   40292.8    248.2   0.234192022   1.91346   0.97108  -0.91025   0.37672

FINAL SINGLE POINT ENERGY     -3321.807393071406

DIPOLE MOMENT
-------------
                                X             Y             Z
Electronic contribution:    -12.01180       2.00518      -2.37332
Nuclear contribution   :     16.08961      -2.47136       1.56468
                        -----------------------------------------
Total Dipole Moment    :      4.07781      -0.46618      -0.80864
                        -----------------------------------------
Magnitude (a.u.)       :      4.18327
Magnitude (Debye)      :     10.63302

Rotational constants in cm-1:     0.001644     0.000223     0.000198
Rotational constants in MHz :    49.293754     6.671920     5.940242

                             ****ORCA TERMINATED NORMALLY****
TOTAL RUN TIME: 0 days 0 hours 10 minutes 21 seconds 31 msec
