                         Program Version 4.2.0 -  RELEASE  -
|  1> # ORCA input file
|  2> # SCF done       -200.761237162213          0.000652474463
|  3> ! CAM-B3LYP def2-SVP def2/J RIJCOSX Grid4 TightSCF
|  4> %maxcore 5000
|  5> %tddft
|  6>     Mode sTDDFT
|  7>     Ethresh 5.0
|  8>     maxcore 5000
|  9> end
| 10>
| 11> %pal
| 12>   nprocs 6
| 13>   end
| 14> * xyz 0 1
| 15>    C        4.32390         3.56947         0.54001
| 16>    C        4.05796         2.74151         1.59910
| 17>    C        5.00942         1.87520         2.17784
| 18>    N        5.73996         1.15610         2.69469
| 19>    C        2.79974         2.59030         2.22035
| 20>    N        1.80281         2.38943         2.75381
| 21>    C        5.57930         3.62481        -0.19697
| 22>    C        5.39350         4.45622        -1.33740
| 23>    C        6.39722         4.68910        -2.23330
| 24>    C        7.65834         4.08796        -2.02532
| 25>    C        7.85421         3.25778        -0.88380
| 26>    C        6.79591         3.03682         0.02737
| 27>    C        9.11682         2.66297        -0.68613
| 28>    C       10.13744         2.87578        -1.57248
| 29>    C        9.94363         3.69401        -2.69544
| 30>    C        8.73037         4.28705        -2.91722
| 31>    C        4.01517         4.97132        -1.35718
| 32>    O        3.53982         5.70372        -2.20100
| 33>    C        3.37947         4.46081        -0.11595
| 34>    C        2.20145         4.86748         0.44320
| 35>    C        1.14905         5.63094        -0.10956
| 36>    S       -0.04834         6.26062         1.00322
| 37>    C       -0.97259         6.95301        -0.28670
| 38>    C       -0.37164         6.67128        -1.52171
| 39>    C        0.81225         5.93642        -1.41543
| 40>    C       -0.91396         7.07518        -2.75528
| 41>    N       -1.33920         7.37184        -3.77768
| 42>    C       -2.14642         7.70732        -0.07900
| 43>    C       -2.70071         7.90677         1.14767
| 44>    C       -3.85311         8.69835         1.35236
| 45>    N       -4.47003         8.85786         2.57650
| 46>    C       -4.13976         8.17407         3.80418
| 47>    C       -4.63834         6.73182         3.80296
| 48>    C       -5.57831         9.71276         2.49463
| 49>    O       -6.25859        10.02374         3.45740
| 50>    C       -5.63463        10.10630         1.10918
| 51>    C       -4.55726         9.47532         0.43648
| 52>    C       -4.57966         9.91542        -0.94127
| 53>    O       -3.85589         9.66766        -1.88391
| 54>    N       -5.69983        10.76230        -1.01919
| 55>    C       -5.99668        11.48314        -2.23352
| 56>    C       -5.54525        12.93882        -2.14812
| 57>    C       -6.32835        10.89461         0.19093
| 58>    C       -7.47355        11.71622         0.40169
| 59>    C       -7.99034        11.91070         1.63177
| 60>    C       -9.08362        12.79891         1.93934
| 61>    C      -10.21981        13.06023         1.21925
| 62>    O      -11.02594        13.90537         1.88023
| 63>    C      -10.43066        14.21085         3.03601
| 64>    C       -9.22444        13.57545         3.14564
| 65>    C       -8.24646        13.70266         4.24432
| 66>    O       -8.56021        13.90352         5.39525
| 67>    C       -6.86006        13.54470         3.77045
| 68>    C       -6.35938        14.00306         2.56331
| 69>    C       -5.07568        13.54914         2.29452
| 70>    C       -4.58353        12.71374         3.28533
| 71>    S       -5.71316        12.59416         4.61320
| 72>    C       -3.41140        11.92778         3.37567
| 73>    C       -2.52200        11.53315         2.41679
| 74>    C       -1.38269        10.66426         2.68392
| 75>    C       -0.99745        10.13730         3.89005
| 76>    C        0.04770         9.19905         4.03184
| 77>    N        0.85218         8.40025         4.21371
| 78>    C       -1.57870        10.38803         5.15139
| 79>    N       -1.96991        10.52584         6.22274
| 80>    C       -0.71784        10.39158         1.41767
| 81>    C       -1.46384        11.00581         0.37287
| 82>    C       -2.57912        11.76751         0.94977
| 83>    O       -3.36754        12.44982         0.32459
| 84>    C       -1.10945        10.87687        -0.93960
| 85>    C        0.04921        10.13920        -1.26937
| 86>    C        0.83842         9.57659        -0.22436
| 87>    C        0.43280         9.70897         1.12289
| 88>    C        2.01144         8.87166        -0.56227
| 89>    C        2.37888         8.70922        -1.87089
| 90>    C        1.59137         9.24927        -2.89821
| 91>    C        0.45421         9.95345        -2.60478
| 92>    H        6.22990         5.32147        -3.09274
| 93>    H        6.97820         2.40958         0.88535
| 94>    H        9.26088         2.03264         0.17902
| 95>    H       11.10029         2.41410        -1.41326
| 96>    H       10.76034         3.85207        -3.38375
| 97>    H        8.57510         4.91786        -3.78029
| 98>    H        2.03234         4.58944         1.47740
| 99>    H        1.39991         5.63622        -2.26276
|100>    H       -2.60143         8.14507        -0.95871
|101>    H       -2.24190         7.44247         2.01143
|102>    H       -4.62969         8.73415         4.60570
|103>    H       -3.05855         8.20438         3.96618
|104>    H       -5.71930         6.71220         3.68844
|105>    H       -4.37841         6.25487         4.74351
|106>    H       -4.19164         6.16648         2.98775
|107>    H       -7.06644        11.41230        -2.45184
|108>    H       -5.44172        10.97111        -3.02477
|109>    H       -6.13678        13.49174        -1.42235
|110>    H       -5.64473        13.41442        -3.11989
|111>    H       -4.50550        12.97975        -1.83528
|112>    H       -7.89210        12.23212        -0.44997
|113>    H       -7.55463        11.39006         2.47415
|114>    H      -10.56795        12.67797         0.28016
|115>    H      -10.92211        14.89982         3.69406
|116>    H       -6.91155        14.65879         1.91353
|117>    H       -4.52539        13.78934         1.40519
|118>    H       -3.24561        11.53656         4.37249
|119>    H       -1.70464        11.32528        -1.71979
|120>    H        1.04796         9.26312         1.88803
|121>    H        2.61028         8.45215         0.23403
|122>    H        3.26366         8.14498        -2.12129
|123>    H        1.88765         9.10058        -3.92500
|124>    H       -0.15815        10.36545        -3.39206
|125> *
|126>
|127>                          ****END OF INPUT****

CARTESIAN COORDINATES (ANGSTROEM)
---------------------------------
  C      4.323900    3.569470    0.540010
  C      4.057960    2.741510    1.599100
  C      5.009420    1.875200    2.177840
  N      5.739960    1.156100    2.694690
  C      2.799740    2.590300    2.220350
  N      1.802810    2.389430    2.753810
  C      5.579300    3.624810   -0.196970
  C      5.393500    4.456220   -1.337400
  C      6.397220    4.689100   -2.233300
  C      7.658340    4.087960   -2.025320
  C      7.854210    3.257780   -0.883800
  C      6.795910    3.036820    0.027370
  C      9.116820    2.662970   -0.686130
  C     10.137440    2.875780   -1.572480
  C      9.943630    3.694010   -2.695440
  C      8.730370    4.287050   -2.917220
  C      4.015170    4.971320   -1.357180
  O      3.539820    5.703720   -2.201000
  C      3.379470    4.460810   -0.115950
  C      2.201450    4.867480    0.443200
  C      1.149050    5.630940   -0.109560
  S     -0.048340    6.260620    1.003220
  C     -0.972590    6.953010   -0.286700
  C     -0.371640    6.671280   -1.521710
  C      0.812250    5.936420   -1.415430
  C     -0.913960    7.075180   -2.755280
  N     -1.339200    7.371840   -3.777680
  C     -2.146420    7.707320   -0.079000
  C     -2.700710    7.906770    1.147670
  C     -3.853110    8.698350    1.352360
  N     -4.470030    8.857860    2.576500
  C     -4.139760    8.174070    3.804180
  C     -4.638340    6.731820    3.802960
  C     -5.578310    9.712760    2.494630
  O     -6.258590   10.023740    3.457400
  C     -5.634630   10.106300    1.109180
  C     -4.557260    9.475320    0.436480
  C     -4.579660    9.915420   -0.941270
  O     -3.855890    9.667660   -1.883910
  N     -5.699830   10.762300   -1.019190
  C     -5.996680   11.483140   -2.233520
  C     -5.545250   12.938820   -2.148120
  C     -6.328350   10.894610    0.190930
  C     -7.473550   11.716220    0.401690
  C     -7.990340   11.910700    1.631770
  C     -9.083620   12.798910    1.939340
  C    -10.219810   13.060230    1.219250
  O    -11.025940   13.905370    1.880230
  C    -10.430660   14.210850    3.036010
  C     -9.224440   13.575450    3.145640
  C     -8.246460   13.702660    4.244320
  O     -8.560210   13.903520    5.395250
  C     -6.860060   13.544700    3.770450
  C     -6.359380   14.003060    2.563310
  C     -5.075680   13.549140    2.294520
  C     -4.583530   12.713740    3.285330
  S     -5.713160   12.594160    4.613200
  C     -3.411400   11.927780    3.375670
  C     -2.522000   11.533150    2.416790
  C     -1.382690   10.664260    2.683920
  C     -0.997450   10.137300    3.890050
  C      0.047700    9.199050    4.031840
  N      0.852180    8.400250    4.213710
  C     -1.578700   10.388030    5.151390
  N     -1.969910   10.525840    6.222740
  C     -0.717840   10.391580    1.417670
  C     -1.463840   11.005810    0.372870
  C     -2.579120   11.767510    0.949770
  O     -3.367540   12.449820    0.324590
  C     -1.109450   10.876870   -0.939600
  C      0.049210   10.139200   -1.269370
  C      0.838420    9.576590   -0.224360
  C      0.432800    9.708970    1.122890
  C      2.011440    8.871660   -0.562270
  C      2.378880    8.709220   -1.870890
  C      1.591370    9.249270   -2.898210
  C      0.454210    9.953450   -2.604780
  H      6.229900    5.321470   -3.092740
  H      6.978200    2.409580    0.885350
  H      9.260880    2.032640    0.179020
  H     11.100290    2.414100   -1.413260
  H     10.760340    3.852070   -3.383750
  H      8.575100    4.917860   -3.780290
  H      2.032340    4.589440    1.477400
  H      1.399910    5.636220   -2.262760
  H     -2.601430    8.145070   -0.958710
  H     -2.241900    7.442470    2.011430
  H     -4.629690    8.734150    4.605700
  H     -3.058550    8.204380    3.966180
  H     -5.719300    6.712200    3.688440
  H     -4.378410    6.254870    4.743510
  H     -4.191640    6.166480    2.987750
  H     -7.066440   11.412300   -2.451840
  H     -5.441720   10.971110   -3.024770
  H     -6.136780   13.491740   -1.422350
  H     -5.644730   13.414420   -3.119890
  H     -4.505500   12.979750   -1.835280
  H     -7.892100   12.232120   -0.449970
  H     -7.554630   11.390060    2.474150
  H    -10.567950   12.677970    0.280160
  H    -10.922110   14.899820    3.694060
  H     -6.911550   14.658790    1.913530
  H     -4.525390   13.789340    1.405190
  H     -3.245610   11.536560    4.372490
  H     -1.704640   11.325280   -1.719790
  H      1.047960    9.263120    1.888030
  H      2.610280    8.452150    0.234030
  H      3.263660    8.144980   -2.121290
  H      1.887650    9.100580   -3.925000
  H     -0.158150   10.365450   -3.392060

 Total Charge           Charge          ....    0
 Multiplicity           Mult            ....    1
 Number of Electrons    NEL             ....  534
 Basis Dimension        Dim             .... 1251

ORBITAL ENERGIES
----------------

  NO   OCC          E(Eh)            E(eV)
   0   2.0000     -88.983551     -2421.3655
   1   2.0000     -88.973794     -2421.1000
   2   2.0000     -19.315960      -525.6140
   3   2.0000     -19.225960      -523.1650
   4   2.0000     -19.219997      -523.0027
   5   2.0000     -19.214515      -522.8535
   6   2.0000     -19.206261      -522.6289
   7   2.0000     -19.194601      -522.3117
   8   2.0000     -14.462263      -393.5382
   9   2.0000     -14.459546      -393.4643
  10   2.0000     -14.420913      -392.4130
  11   2.0000     -14.418918      -392.3587
  12   2.0000     -14.417429      -392.3182
  13   2.0000     -14.416505      -392.2931
  14   2.0000     -14.407132      -392.0380
  15   2.0000     -10.385261      -282.5973
  16   2.0000     -10.377314      -282.3811
  17   2.0000     -10.377123      -282.3759
  18   2.0000     -10.376861      -282.3687
  19   2.0000     -10.372481      -282.2495
  20   2.0000     -10.350966      -281.6641
  21   2.0000     -10.347985      -281.5830
  22   2.0000     -10.345217      -281.5077
  23   2.0000     -10.345156      -281.5060
  24   2.0000     -10.345111      -281.5048
  25   2.0000     -10.344547      -281.4894
  26   2.0000     -10.343429      -281.4590
  27   2.0000     -10.343105      -281.4502
  28   2.0000     -10.341787      -281.4143
  29   2.0000     -10.331468      -281.1335
  30   2.0000     -10.328795      -281.0608
  31   2.0000     -10.327489      -281.0253
  32   2.0000     -10.323534      -280.9176
  33   2.0000     -10.322891      -280.9001
  34   2.0000     -10.322346      -280.8853
  35   2.0000     -10.320019      -280.8220
  36   2.0000     -10.319210      -280.8000
  37   2.0000     -10.318425      -280.7786
  38   2.0000     -10.313333      -280.6401
  39   2.0000     -10.313059      -280.6326
  40   2.0000     -10.311501      -280.5902
  41   2.0000     -10.308527      -280.5093
  42   2.0000     -10.307683      -280.4863
  43   2.0000     -10.307477      -280.4807
  44   2.0000     -10.307342      -280.4770
  45   2.0000     -10.306880      -280.4645
  46   2.0000     -10.306378      -280.4508
  47   2.0000     -10.304803      -280.4079
  48   2.0000     -10.303187      -280.3640
  49   2.0000     -10.301929      -280.3297
  50   2.0000     -10.301660      -280.3224
  51   2.0000     -10.301374      -280.3147
  52   2.0000     -10.301118      -280.3077
  53   2.0000     -10.300067      -280.2791
  54   2.0000     -10.299723      -280.2697
  55   2.0000     -10.296465      -280.1811
  56   2.0000     -10.295809      -280.1632
  57   2.0000     -10.295126      -280.1446
  58   2.0000     -10.294183      -280.1190
  59   2.0000     -10.293515      -280.1008
  60   2.0000     -10.293282      -280.0944
  61   2.0000     -10.291029      -280.0331
  62   2.0000     -10.290227      -280.0113
  63   2.0000     -10.290005      -280.0053
  64   2.0000     -10.289515      -279.9919
  65   2.0000     -10.289048      -279.9792
  66   2.0000     -10.288479      -279.9638
  67   2.0000     -10.287617      -279.9403
  68   2.0000     -10.285376      -279.8793
  69   2.0000     -10.280944      -279.7587
  70   2.0000     -10.280522      -279.7472
  71   2.0000     -10.279665      -279.7239
  72   2.0000     -10.278667      -279.6967
  73   2.0000     -10.273887      -279.5667
  74   2.0000     -10.265797      -279.3465
  75   2.0000     -10.264818      -279.3199
  76   2.0000     -10.263034      -279.2713
  77   2.0000      -8.078535      -219.8281
  78   2.0000      -8.068284      -219.5492
  79   2.0000      -6.047651      -164.5649
  80   2.0000      -6.043643      -164.4559
  81   2.0000      -6.040868      -164.3804
  82   2.0000      -6.037300      -164.2833
  83   2.0000      -6.033145      -164.1702
  84   2.0000      -6.031022      -164.1125
  85   2.0000      -1.235663       -33.6241
  86   2.0000      -1.144608       -31.1464
  87   2.0000      -1.140865       -31.0445
  88   2.0000      -1.134656       -30.8756
  89   2.0000      -1.134028       -30.8585
  90   2.0000      -1.132645       -30.8208
  91   2.0000      -1.072967       -29.1969
  92   2.0000      -1.062822       -28.9209
  93   2.0000      -1.023170       -27.8419
  94   2.0000      -1.022225       -27.8162
  95   2.0000      -1.019007       -27.7286
  96   2.0000      -1.001930       -27.2639
  97   2.0000      -1.001774       -27.2597
  98   2.0000      -0.999758       -27.2048
  99   2.0000      -0.997115       -27.1329
 100   2.0000      -0.995369       -27.0854
 101   2.0000      -0.987456       -26.8701
 102   2.0000      -0.975209       -26.5368
 103   2.0000      -0.969891       -26.3921
 104   2.0000      -0.946650       -25.7597
 105   2.0000      -0.937494       -25.5105
 106   2.0000      -0.932591       -25.3771
 107   2.0000      -0.925537       -25.1851
 108   2.0000      -0.922810       -25.1109
 109   2.0000      -0.908881       -24.7319
 110   2.0000      -0.906607       -24.6700
 111   2.0000      -0.900039       -24.4913
 112   2.0000      -0.888259       -24.1708
 113   2.0000      -0.884107       -24.0578
 114   2.0000      -0.880797       -23.9677
 115   2.0000      -0.877707       -23.8836
 116   2.0000      -0.876967       -23.8635
 117   2.0000      -0.866529       -23.5795
 118   2.0000      -0.862429       -23.4679
 119   2.0000      -0.847469       -23.0608
 120   2.0000      -0.846047       -23.0221
 121   2.0000      -0.836718       -22.7683
 122   2.0000      -0.831949       -22.6385
 123   2.0000      -0.825587       -22.4654
 124   2.0000      -0.824170       -22.4268
 125   2.0000      -0.810540       -22.0559
 126   2.0000      -0.800677       -21.7875
 127   2.0000      -0.794312       -21.6143
 128   2.0000      -0.778957       -21.1965
 129   2.0000      -0.766030       -20.8447
 130   2.0000      -0.764923       -20.8146
 131   2.0000      -0.762855       -20.7583
 132   2.0000      -0.748936       -20.3796
 133   2.0000      -0.736559       -20.0428
 134   2.0000      -0.733452       -19.9582
 135   2.0000      -0.718976       -19.5643
 136   2.0000      -0.712312       -19.3830
 137   2.0000      -0.711267       -19.3546
 138   2.0000      -0.707685       -19.2571
 139   2.0000      -0.703366       -19.1396
 140   2.0000      -0.702419       -19.1138
 141   2.0000      -0.697570       -18.9818
 142   2.0000      -0.695846       -18.9349
 143   2.0000      -0.683693       -18.6042
 144   2.0000      -0.680753       -18.5242
 145   2.0000      -0.677186       -18.4272
 146   2.0000      -0.671501       -18.2725
 147   2.0000      -0.667623       -18.1669
 148   2.0000      -0.663538       -18.0558
 149   2.0000      -0.655335       -17.8326
 150   2.0000      -0.654571       -17.8118
 151   2.0000      -0.639918       -17.4130
 152   2.0000      -0.636816       -17.3287
 153   2.0000      -0.631373       -17.1805
 154   2.0000      -0.628997       -17.1159
 155   2.0000      -0.619300       -16.8520
 156   2.0000      -0.617648       -16.8071
 157   2.0000      -0.610266       -16.6062
 158   2.0000      -0.607720       -16.5369
 159   2.0000      -0.605381       -16.4733
 160   2.0000      -0.601341       -16.3633
 161   2.0000      -0.597816       -16.2674
 162   2.0000      -0.588817       -16.0225
 163   2.0000      -0.586018       -15.9464
 164   2.0000      -0.582917       -15.8620
 165   2.0000      -0.580117       -15.7858
 166   2.0000      -0.576940       -15.6993
 167   2.0000      -0.574337       -15.6285
 168   2.0000      -0.569365       -15.4932
 169   2.0000      -0.562680       -15.3113
 170   2.0000      -0.554530       -15.0895
 171   2.0000      -0.553225       -15.0540
 172   2.0000      -0.550473       -14.9791
 173   2.0000      -0.546303       -14.8657
 174   2.0000      -0.545024       -14.8309
 175   2.0000      -0.544624       -14.8200
 176   2.0000      -0.544062       -14.8047
 177   2.0000      -0.541070       -14.7233
 178   2.0000      -0.539715       -14.6864
 179   2.0000      -0.537374       -14.6227
 180   2.0000      -0.536481       -14.5984
 181   2.0000      -0.535529       -14.5725
 182   2.0000      -0.533872       -14.5274
 183   2.0000      -0.531809       -14.4713
 184   2.0000      -0.527599       -14.3567
 185   2.0000      -0.526349       -14.3227
 186   2.0000      -0.523752       -14.2520
 187   2.0000      -0.522897       -14.2288
 188   2.0000      -0.520551       -14.1649
 189   2.0000      -0.517507       -14.0821
 190   2.0000      -0.516113       -14.0442
 191   2.0000      -0.515790       -14.0354
 192   2.0000      -0.514149       -13.9907
 193   2.0000      -0.511643       -13.9225
 194   2.0000      -0.510197       -13.8832
 195   2.0000      -0.506281       -13.7766
 196   2.0000      -0.505080       -13.7439
 197   2.0000      -0.501865       -13.6565
 198   2.0000      -0.500911       -13.6305
 199   2.0000      -0.497853       -13.5473
 200   2.0000      -0.497382       -13.5345
 201   2.0000      -0.494672       -13.4607
 202   2.0000      -0.490120       -13.3368
 203   2.0000      -0.488375       -13.2894
 204   2.0000      -0.487071       -13.2539
 205   2.0000      -0.478580       -13.0228
 206   2.0000      -0.477517       -12.9939
 207   2.0000      -0.473871       -12.8947
 208   2.0000      -0.469420       -12.7736
 209   2.0000      -0.468004       -12.7350
 210   2.0000      -0.466228       -12.6867
 211   2.0000      -0.465297       -12.6614
 212   2.0000      -0.462723       -12.5913
 213   2.0000      -0.461905       -12.5691
 214   2.0000      -0.456156       -12.4126
 215   2.0000      -0.455265       -12.3884
 216   2.0000      -0.453496       -12.3402
 217   2.0000      -0.452286       -12.3073
 218   2.0000      -0.450615       -12.2619
 219   2.0000      -0.449862       -12.2414
 220   2.0000      -0.448051       -12.1921
 221   2.0000      -0.446847       -12.1593
 222   2.0000      -0.445638       -12.1264
 223   2.0000      -0.443457       -12.0671
 224   2.0000      -0.442535       -12.0420
 225   2.0000      -0.440697       -11.9920
 226   2.0000      -0.438055       -11.9201
 227   2.0000      -0.436346       -11.8736
 228   2.0000      -0.435711       -11.8563
 229   2.0000      -0.433879       -11.8065
 230   2.0000      -0.432579       -11.7711
 231   2.0000      -0.431412       -11.7393
 232   2.0000      -0.431211       -11.7338
 233   2.0000      -0.430405       -11.7119
 234   2.0000      -0.427783       -11.6406
 235   2.0000      -0.427259       -11.6263
 236   2.0000      -0.423077       -11.5125
 237   2.0000      -0.422241       -11.4898
 238   2.0000      -0.418207       -11.3800
 239   2.0000      -0.416861       -11.3434
 240   2.0000      -0.412429       -11.2228
 241   2.0000      -0.409929       -11.1547
 242   2.0000      -0.407978       -11.1017
 243   2.0000      -0.407001       -11.0751
 244   2.0000      -0.393921       -10.7191
 245   2.0000      -0.387873       -10.5546
 246   2.0000      -0.378539       -10.3006
 247   2.0000      -0.374297       -10.1851
 248   2.0000      -0.360638        -9.8135
 249   2.0000      -0.358059        -9.7433
 250   2.0000      -0.351985        -9.5780
 251   2.0000      -0.351162        -9.5556
 252   2.0000      -0.346415        -9.4264
 253   2.0000      -0.346027        -9.4159
 254   2.0000      -0.340819        -9.2742
 255   2.0000      -0.340417        -9.2632
 256   2.0000      -0.338479        -9.2105
 257   2.0000      -0.326548        -8.8858
 258   2.0000      -0.323356        -8.7990
 259   2.0000      -0.321098        -8.7375
 260   2.0000      -0.317978        -8.6526
 261   2.0000      -0.314679        -8.5629
 262   2.0000      -0.300756        -8.1840
 263   2.0000      -0.295002        -8.0274
 264   2.0000      -0.290460        -7.9038
 265   2.0000      -0.283542        -7.7156
 266   2.0000      -0.244574        -6.6552
 267   0.0000      -0.113206        -3.0805
 268   0.0000      -0.100173        -2.7259
 269   0.0000      -0.077142        -2.0991
 270   0.0000      -0.063685        -1.7330
 271   0.0000      -0.060556        -1.6478

MULLIKEN ATOMIC CHARGES
-----------------------
   0 C :    0.302008
   1 C :   -0.338557
   2 C :   -0.181659
   3 N :    0.149789
   4 C :   -0.205291
   5 N :    0.162980
   6 C :    0.050375
   7 C :   -0.002555
   8 C :   -0.082814
   9 C :    0.100659
  10 C :    0.097119
  11 C :   -0.083583
  12 C :   -0.019217
  13 C :    0.039299
  14 C :    0.035883
  15 C :   -0.018220
  16 C :    0.161022
  17 O :   -0.166884
  18 C :   -0.091162
  19 C :    0.050492
  20 C :   -0.122007
  21 S :    0.158724
  22 C :   -0.016359
  23 C :   -0.102055
  24 C :    0.088500
  25 C :   -0.185851
  26 N :    0.164215
  27 C :   -0.018306
  28 C :   -0.003746
  29 C :    0.089990
  30 N :   -0.260490
  31 C :    0.074837
  32 C :    0.010812
  33 C :    0.164940
  34 O :   -0.224083
  35 C :   -0.063350
  36 C :   -0.034163
  37 C :    0.168553
  38 O :   -0.192991
  39 N :   -0.249582
  40 C :    0.095637
  41 C :    0.002949
  42 C :    0.139188
  43 C :   -0.043844
  44 C :    0.066067
  45 C :    0.018273
  46 C :    0.072373
  47 O :   -0.160569
  48 C :    0.108972
  49 C :   -0.040764
  50 C :    0.171037
  51 O :   -0.148131
  52 C :   -0.231326
  53 C :    0.081394
  54 C :    0.032800
  55 C :   -0.154140
  56 S :    0.255732
  57 C :    0.068046
  58 C :   -0.070466
  59 C :    0.319032
  60 C :   -0.387128
  61 C :   -0.196392
  62 N :    0.155464
  63 C :   -0.203090
  64 N :    0.164815
  65 C :    0.073519
  66 C :   -0.012566
  67 C :    0.178181
  68 O :   -0.172657
  69 C :   -0.065412
  70 C :    0.061455
  71 C :    0.125067
  72 C :   -0.113259
  73 C :   -0.041829
  74 C :    0.064026
  75 C :    0.022747
  76 C :    0.005228
  77 H :   -0.014755
  78 H :   -0.006484
  79 H :   -0.007276
  80 H :   -0.003778
  81 H :   -0.003179
  82 H :   -0.017139
  83 H :    0.028728
  84 H :    0.018838
  85 H :    0.046627
  86 H :   -0.010272
  87 H :    0.047913
  88 H :    0.042527
  89 H :    0.029977
  90 H :    0.031168
  91 H :    0.016249
  92 H :    0.022705
  93 H :    0.046600
  94 H :    0.006476
  95 H :    0.019535
  96 H :    0.041710
  97 H :   -0.029794
  98 H :    0.043815
  99 H :    0.014248
 100 H :    0.029477
 101 H :   -0.000412
 102 H :    0.014436
 103 H :    0.005980
 104 H :   -0.014317
 105 H :   -0.012806
 106 H :   -0.019899
 107 H :   -0.000635
 108 H :   -0.003425
 109 H :   -0.010536
Sum of atomic charges:   -0.0000000

LOEWDIN ATOMIC CHARGES
----------------------
   0 C :    0.074105
   1 C :   -0.136287
   2 C :   -0.016865
   3 N :   -0.050834
   4 C :   -0.026527
   5 N :   -0.046947
   6 C :   -0.025451
   7 C :   -0.057183
   8 C :    0.032488
   9 C :   -0.008630
  10 C :   -0.005103
  11 C :    0.020424
  12 C :   -0.004815
  13 C :   -0.011444
  14 C :   -0.011575
  15 C :   -0.009334
  16 C :    0.089003
  17 O :   -0.147826
  18 C :   -0.091108
  19 C :    0.048895
  20 C :   -0.177681
  21 S :    0.485937
  22 C :   -0.118836
  23 C :   -0.101596
  24 C :    0.030901
  25 C :   -0.028335
  26 N :   -0.046981
  27 C :   -0.006457
  28 C :   -0.023786
  29 C :    0.050846
  30 N :    0.005990
  31 C :    0.033403
  32 C :   -0.058208
  33 C :    0.070587
  34 O :   -0.217685
  35 C :   -0.131177
  36 C :   -0.102339
  37 C :    0.087523
  38 O :   -0.178453
  39 N :    0.011071
  40 C :    0.037352
  41 C :   -0.062921
  42 C :    0.098607
  43 C :   -0.057006
  44 C :    0.055778
  45 C :   -0.070203
  46 C :    0.047034
  47 O :    0.042584
  48 C :    0.079888
  49 C :   -0.105238
  50 C :    0.059560
  51 O :   -0.131858
  52 C :   -0.205623
  53 C :   -0.041087
  54 C :   -0.010613
  55 C :   -0.177410
  56 S :    0.546924
  57 C :    0.053917
  58 C :   -0.090700
  59 C :    0.078355
  60 C :   -0.151059
  61 C :   -0.020390
  62 N :   -0.057813
  63 C :   -0.028948
  64 N :   -0.047434
  65 C :   -0.030369
  66 C :   -0.063532
  67 C :    0.091090
  68 O :   -0.152141
  69 C :    0.046249
  70 C :   -0.014615
  71 C :   -0.011178
  72 C :    0.011494
  73 C :   -0.014419
  74 C :   -0.004170
  75 C :   -0.010577
  76 C :    0.003766
  77 H :    0.038064
  78 H :    0.039644
  79 H :    0.035490
  80 H :    0.033835
  81 H :    0.033462
  82 H :    0.031934
  83 H :    0.047171
  84 H :    0.042708
  85 H :    0.046014
  86 H :    0.026336
  87 H :    0.038312
  88 H :    0.022506
  89 H :    0.032319
  90 H :    0.034568
  91 H :    0.022515
  92 H :    0.022153
  93 H :    0.038735
  94 H :    0.018735
  95 H :    0.028934
  96 H :    0.031368
  97 H :    0.027028
  98 H :    0.038364
  99 H :    0.026521
 100 H :    0.034488
 101 H :    0.034145
 102 H :    0.034152
 103 H :    0.043031
 104 H :    0.038714
 105 H :    0.034390
 106 H :    0.029524
 107 H :    0.031107
 108 H :    0.034692
 109 H :    0.036043

  Mayer bond orders larger than 0.100000
B(  0-C ,  1-C ) :   1.6400 B(  0-C ,  6-C ) :   0.9879 B(  0-C , 18-C ) :   1.0640
B(  1-C ,  2-C ) :   1.1460 B(  1-C ,  4-C ) :   1.1364 B(  2-C ,  3-N ) :   2.9672
B(  4-C ,  5-N ) :   2.9956 B(  6-C ,  7-C ) :   1.2134 B(  6-C , 11-C ) :   1.4500
B(  7-C ,  8-C ) :   1.4659 B(  7-C , 16-C ) :   0.9554 B(  8-C ,  9-C ) :   1.1796
B(  8-C , 77-H ) :   1.0159 B(  9-C , 10-C ) :   1.2571 B(  9-C , 15-C ) :   1.2436
B( 10-C , 11-C ) :   1.2039 B( 10-C , 12-C ) :   1.2397 B( 11-C , 78-H ) :   0.9908
B( 12-C , 13-C ) :   1.4895 B( 12-C , 79-H ) :   0.9973 B( 13-C , 14-C ) :   1.2609
B( 13-C , 80-H ) :   0.9879 B( 14-C , 15-C ) :   1.4891 B( 14-C , 81-H ) :   0.9882
B( 15-C , 82-H ) :   0.9977 B( 16-C , 17-O ) :   2.1395 B( 16-C , 18-C ) :   0.9462
B( 18-C , 19-C ) :   1.6025 B( 19-C , 20-C ) :   1.1861 B( 19-C , 83-H ) :   0.9244
B( 20-C , 21-S ) :   1.0989 B( 20-C , 24-C ) :   1.4364 B( 21-S , 22-C ) :   1.1522
B( 22-C , 23-C ) :   1.3890 B( 22-C , 27-C ) :   1.2012 B( 23-C , 24-C ) :   1.3121
B( 23-C , 25-C ) :   1.1220 B( 24-C , 84-H ) :   0.9868 B( 25-C , 26-N ) :   3.0131
B( 27-C , 28-C ) :   1.5560 B( 27-C , 85-H ) :   0.9429 B( 28-C , 29-C ) :   1.1737
B( 28-C , 86-H ) :   0.9637 B( 29-C , 30-N ) :   1.1405 B( 29-C , 36-C ) :   1.3544
B( 30-N , 31-C ) :   0.9424 B( 30-N , 33-C ) :   1.0683 B( 31-C , 32-C ) :   1.1233
B( 31-C , 87-H ) :   0.9259 B( 31-C , 88-H ) :   0.9434 B( 32-C , 89-H ) :   0.9637
B( 32-C , 90-H ) :   0.9678 B( 32-C , 91-H ) :   0.9667 B( 33-C , 34-O ) :   1.9768
B( 33-C , 35-C ) :   1.0096 B( 34-O , 98-H ) :   0.1164 B( 35-C , 36-C ) :   1.2565
B( 35-C , 42-C ) :   1.3126 B( 36-C , 37-C ) :   0.9672 B( 37-C , 38-O ) :   2.0255
B( 37-C , 39-N ) :   1.0602 B( 39-N , 40-C ) :   0.9441 B( 39-N , 42-C ) :   1.1792
B( 40-C , 41-C ) :   1.1226 B( 40-C , 92-H ) :   0.9498 B( 40-C , 93-H ) :   0.9278
B( 41-C , 94-H ) :   0.9657 B( 41-C , 95-H ) :   0.9648 B( 41-C , 96-H ) :   0.9549
B( 42-C , 43-C ) :   1.1500 B( 43-C , 44-C ) :   1.6780 B( 43-C , 97-H ) :   0.9665
B( 44-C , 45-C ) :   1.0403 B( 44-C , 98-H ) :   0.9177 B( 45-C , 46-C ) :   1.5251
B( 45-C , 49-C ) :   1.2271 B( 46-C , 47-O ) :   1.1564 B( 46-C , 99-H ) :   1.0091
B( 47-O , 48-C ) :   1.1814 B( 48-C , 49-C ) :   1.5334 B( 48-C ,100-H ) :   1.0058
B( 49-C , 50-C ) :   0.9247 B( 50-C , 51-O ) :   2.2802 B( 50-C , 52-C ) :   0.9263
B( 52-C , 53-C ) :   1.4543 B( 52-C , 55-C ) :   0.1010 B( 52-C , 56-S ) :   1.2215
B( 53-C , 54-C ) :   1.3009 B( 53-C ,101-H ) :   0.9978 B( 54-C , 55-C ) :   1.4418
B( 54-C ,102-H ) :   0.9879 B( 55-C , 56-S ) :   1.1502 B( 55-C , 57-C ) :   1.1801
B( 57-C , 58-C ) :   1.6180 B( 57-C ,103-H ) :   0.9094 B( 58-C , 59-C ) :   1.0764
B( 58-C , 67-C ) :   0.9414 B( 59-C , 60-C ) :   1.6127 B( 59-C , 65-C ) :   0.9862
B( 60-C , 61-C ) :   1.1539 B( 60-C , 63-C ) :   1.1393 B( 61-C , 62-N ) :   2.9651
B( 63-C , 64-N ) :   2.9564 B( 65-C , 66-C ) :   1.1969 B( 65-C , 72-C ) :   1.4310
B( 66-C , 67-C ) :   0.9656 B( 66-C , 69-C ) :   1.4539 B( 67-C , 68-O ) :   2.1051
B( 69-C , 70-C ) :   1.1729 B( 69-C ,104-H ) :   1.0168 B( 70-C , 71-C ) :   1.2530
B( 70-C , 76-C ) :   1.2546 B( 71-C , 72-C ) :   1.1921 B( 71-C , 73-C ) :   1.2444
B( 72-C ,105-H ) :   0.9953 B( 73-C , 74-C ) :   1.4660 B( 73-C ,106-H ) :   0.9962
B( 74-C , 75-C ) :   1.2709 B( 74-C ,107-H ) :   0.9806 B( 75-C , 76-C ) :   1.4586
B( 75-C ,108-H ) :   0.9947 B( 76-C ,109-H ) :   1.0004

-----------------------------------------------------------------------------
         ABSORPTION SPECTRUM VIA TRANSITION ELECTRIC DIPOLE MOMENTS
-----------------------------------------------------------------------------
State   Energy  Wavelength   fosc         T2         TX        TY        TZ
        (cm-1)    (nm)                  (au**2)     (au)      (au)      (au)
-----------------------------------------------------------------------------
   0   12609.8    793.0   0.209588162   5.47185  -2.01114   1.14858  -0.32852
   1   14450.3    692.0   0.633451656  14.43149  -2.93203   2.41024   0.15950
   2   20217.0    494.6   0.001174711   0.01913   0.07244   0.05337   0.10504
   3   20657.2    484.1   0.011175851   0.17811   0.01852  -0.32612  -0.26723
   4   22041.6    453.7   0.138549624   2.06937  -1.39736   0.33289  -0.07704
   5   22377.3    446.9   0.432033163   6.35601   2.26470  -1.10651  -0.05284
   6   23379.6    427.7   0.304164903   4.28300   1.59152  -1.31754   0.11893
   7   24007.5    416.5   0.005295483   0.07262  -0.10687   0.24620   0.02409
   8   25184.4    397.1   0.135862246   1.77600  -0.93472   0.65135   0.69140
   9   25469.5    392.6   0.207328057   2.67987  -1.43083   0.73740   0.29807
  10   25718.7    388.8   0.019703455   0.25221   0.42919  -0.21570  -0.14657
  11   26336.5    379.7   0.076121992   0.95154  -0.85965   0.36739   0.27852
  12   26891.3    371.9   0.069827394   0.85485   0.57392   0.33289  -0.64393
  13   27410.9    364.8   0.033441414   0.40164   0.46566  -0.42924   0.02351
  14   27691.0    361.1   0.008133390   0.09670  -0.22295   0.05568  -0.20949
  15   27829.6    359.3   0.017861733   0.21130   0.32932  -0.28407  -0.14882
  16   28171.7    355.0   0.004456935   0.05208  -0.06021  -0.04868   0.21468
  17   28485.7    351.1   0.080910453   0.93509  -0.90999   0.29095   0.14950
  18   28761.0    347.7   0.016430403   0.18807  -0.38570  -0.04283   0.19358
  19   29151.4    343.0   0.465900786   5.26150   1.88656  -0.87208  -0.97049
  20   29330.4    340.9   0.022349297   0.25085  -0.23534   0.44157   0.02197
  21   29873.7    334.7   0.005679926   0.06259  -0.20176  -0.14635  -0.02171
  22   30172.1    331.4   0.009153473   0.09987  -0.31137  -0.02384  -0.04854
  23   30272.6    330.3   0.064245385   0.69866   0.60521  -0.49910   0.28858
  24   30409.6    328.8   0.014391907   0.15581   0.29572   0.05429  -0.25575
  25   30647.0    326.3   0.171509011   1.84236   1.09974  -0.65419  -0.45274
  26   31248.4    320.0   0.137607845   1.44974  -0.55888  -0.25124   1.03647
  27   31419.1    318.3   0.028279598   0.29632  -0.47794   0.14631   0.21559
  28   31768.2    314.8   0.225317070   2.33495  -0.94690  -0.14579   1.19040
  29   32175.7    310.8   0.242109253   2.47719  -0.84188   0.35119   1.28261
  30   32253.9    310.0   0.222441402   2.27044   0.95015  -0.66032  -0.96521
  31   32652.3    306.3   0.563555798   5.68197  -1.99130  -0.08230   1.30764
  32   32672.8    306.1   0.047807267   0.48171  -0.46297  -0.48090   0.19000
  33   32873.8    304.2   0.048869116   0.48940   0.66557  -0.13767   0.16570
  34   33284.6    300.4   0.020021675   0.19803   0.36809  -0.24890  -0.02430
  35   33543.4    298.1   0.097123018   0.95322  -0.29325   0.15447  -0.91835
  36   33599.6    297.6   0.018648959   0.18272  -0.09551   0.16134   0.38415
  37   33905.0    294.9   0.133034584   1.29174   0.41547  -0.21277  -1.03627
  38   33936.1    294.7   0.013804713   0.13392  -0.00635   0.09029  -0.35458
  39   34211.8    292.3   0.037032616   0.35636   0.22297  -0.21852  -0.50881
  40   34709.4    288.1   0.024169855   0.22925  -0.39687  -0.07823   0.25616
  41   34872.7    286.8   0.006441909   0.06081  -0.20107  -0.11554   0.08388
  42   35082.0    285.0   0.021318981   0.20006   0.36011  -0.21816   0.15094
  43   35653.9    280.5   0.044402371   0.40999   0.61664   0.01956  -0.17136
  44   35822.3    279.2   0.048768897   0.44819  -0.57331  -0.17103   0.30043
  45   36167.3    276.5   0.027394944   0.24936   0.19288  -0.35250  -0.29648
  46   36305.3    275.4   0.018324656   0.16617  -0.21120   0.29204  -0.19045
  47   36619.7    273.1   0.029742576   0.26739   0.48475  -0.16887   0.06235
  48   36765.8    272.0   0.050598030   0.45307   0.45018  -0.32557  -0.38001
  49   37069.0    269.8   0.034164172   0.30341  -0.33717   0.19508   0.38946
  50   37345.1    267.8   0.029540968   0.26042  -0.44056   0.23608  -0.10289
  51   37522.8    266.5   0.019142106   0.16795   0.04121   0.11851  -0.39013
  52   37683.8    265.4   0.097821448   0.85458  -0.07098  -0.68028   0.62191
  53   37835.3    264.3   0.062065379   0.54004  -0.00845   0.34855  -0.64690
  54   37879.9    264.0   0.007089166   0.06161   0.24091  -0.05871   0.01139
  55   38196.9    261.8   0.062277085   0.53675  -0.49502   0.37785  -0.38592
  56   38385.5    260.5   0.173646037   1.48927  -0.13976   0.73343  -0.96531
  57   38476.2    259.9   0.037838397   0.32375   0.38161  -0.13442  -0.40008
  58   38563.8    259.3   0.039295660   0.33546  -0.51804  -0.22317  -0.13149
  59   38863.8    257.3   0.078845612   0.66789  -0.41251   0.42367  -0.56412
  60   39032.4    256.2   0.038726263   0.32663  -0.32449   0.45125  -0.13310
  61   39264.1    254.7   0.002324591   0.01949   0.09911   0.09530   0.02418
  62   39519.5    253.0   0.337824926   2.81421  -0.87390   0.08875   1.42921
  63   39733.4    251.7   0.049829846   0.41287   0.54774  -0.33193  -0.05174
  64   39881.1    250.7   0.229454035   1.89410   1.24214  -0.59261   0.00107
  65   40147.5    249.1   0.005724591   0.04694  -0.16280   0.06141  -0.12910
  66   40258.0    248.4   0.000912378   0.00746  -0.02113   0.01067  -0.08307
  67   40293.1    248.2   0.119008266   0.97235  -0.39120   0.01911   0.90496

FINAL SINGLE POINT ENERGY     -4009.078084247554

DIPOLE MOMENT
-------------
                                X             Y             Z
Electronic contribution:      2.19070      -5.26255      21.89202
Nuclear contribution   :     -1.80807       6.93740     -25.31912
                        -----------------------------------------
Total Dipole Moment    :      0.38263       1.67485      -3.42710
                        -----------------------------------------
Magnitude (a.u.)       :      3.83361
Magnitude (Debye)      :      9.74426

Rotational constants in cm-1:     0.002444     0.000400     0.000378
Rotational constants in MHz :    73.262930    12.000931    11.342925

                             ****ORCA TERMINATED NORMALLY****
TOTAL RUN TIME: 0 days 0 hours 15 minutes 2 seconds 383 msec
