                         Program Version 4.2.0 -  RELEASE  -
|  1> # ORCA input file
|  2> # SCF done       -207.381076555501          0.000753823040
|  3> ! CAM-B3LYP def2-SVP def2/J RIJCOSX Grid4 TightSCF
|  4> %maxcore 5000
|  5> %tddft
|  6>     Mode sTDDFT
|  7>     Ethresh 5.0
|  8>     maxcore 5000
|  9> end
| 10>
| 11> %pal
| 12>   nprocs 6
| 13>   end
| 14> * xyz 0 1
| 15>    C        2.67609         4.53038        -5.51316
| 16>    C        3.42720         3.44495        -5.14566
| 17>    C        4.39500         2.83863        -5.97488
| 18>    N        5.20036         2.30486        -6.59465
| 19>    C        3.33542         2.76301        -3.91419
| 20>    N        3.31112         2.15125        -2.94242
| 21>    C        2.73756         5.20298        -6.80647
| 22>    C        1.72906         6.20871        -6.84432
| 23>    C        1.54723         7.01364        -7.93178
| 24>    C        2.38965         6.85206        -9.05409
| 25>    C        3.40307         5.85062        -9.02543
| 26>    C        3.56210         5.02772        -7.88622
| 27>    C        4.24168         5.70233       -10.14866
| 28>    C        4.08953         6.50481       -11.24685
| 29>    C        3.09217         7.49087       -11.27327
| 30>    C        2.25925         7.66010       -10.20044
| 31>    C        1.00075         6.21011        -5.56959
| 32>    O        0.05307         6.91505        -5.27371
| 33>    C        1.65734         5.20015        -4.72074
| 34>    C        1.41994         5.00965        -3.38867
| 35>    C        0.49856         5.65062        -2.53406
| 36>    S       -0.74217         6.79458        -2.97372
| 37>    C       -1.22414         6.98065        -1.32293
| 38>    C       -0.44981         6.17675        -0.46792
| 39>    C        0.49687         5.42530        -1.16017
| 40>    C       -0.61687         6.08497         0.92451
| 41>    N       -0.73596         5.99149         2.06238
| 42>    C       -2.26470         7.88936        -1.01152
| 43>    C       -2.52178         8.38601         0.22817
| 44>    C       -3.57388         9.30036         0.47515
| 45>    N       -3.77567         9.92361         1.68287
| 46>    C       -3.01007         9.73268         2.89223
| 47>    C       -3.37662         8.43423         3.60642
| 48>    C       -4.88831        10.78962         1.65269
| 49>    O       -5.25177        11.45461         2.59733
| 50>    C       -5.39224        10.66313         0.30043
| 51>    C       -4.56909         9.74896        -0.39536
| 52>    C       -5.11326         9.59894        -1.72489
| 53>    O       -4.74037         8.95731        -2.68734
| 54>    N       -6.26984        10.40526        -1.73191
| 55>    C       -7.01201        10.56843        -2.96102
| 56>    C       -6.87530        11.97356        -3.53845
| 57>    C       -6.43907        11.05565        -0.52983
| 58>    C       -7.46476        11.95247        -0.13060
| 59>    C       -8.70556        12.09194        -0.65778
| 60>    C       -9.67195        13.01169        -0.18431
| 61>    S       -9.33018        14.33094         0.91836
| 62>    C      -11.01029        13.03624        -0.52191
| 63>    C      -11.91845        12.25360        -1.37228
| 64>    O      -11.69150        11.30565        -2.08395
| 65>    N      -13.16005        12.85841        -1.20995
| 66>    C      -14.36661        12.36886        -1.84244
| 67>    C      -15.13445        11.43436        -0.91409
| 68>    C      -13.14768        13.95387        -0.34982
| 69>    O      -14.10551        14.63169        -0.07719
| 70>    C      -11.74703        14.06197         0.09446
| 71>    C      -10.99685        14.88987         0.90457
| 72>    C      -11.43488        16.04177         1.59876
| 73>    C      -10.59887        16.93311         2.19066
| 74>    C      -11.07170        18.10690         2.82449
| 75>    C      -10.26957        19.12031         3.26245
| 76>    C      -10.69378        20.35361         3.90213
| 77>    C      -11.93469        20.62439         4.41635
| 78>    C      -12.27936        21.83772         5.04879
| 79>    N      -12.62410        22.80294         5.56582
| 80>    C      -13.02750        19.73180         4.42471
| 81>    N      -13.95526        19.05818         4.48667
| 82>    C       -9.54135        21.24600         3.95501
| 83>    C       -8.40431        20.55113         3.45257
| 84>    C       -8.79801        19.19383         3.04026
| 85>    O       -8.06991        18.33440         2.59098
| 86>    C       -7.17429        21.13841         3.37587
| 87>    C       -7.02289        22.47749         3.79894
| 88>    C       -8.15637        23.18219         4.29821
| 89>    C       -9.41642        22.54528         4.37160
| 90>    C       -7.99541        24.52084         4.71027
| 91>    C       -6.77541        25.13550         4.63220
| 92>    C       -5.66035        24.44072         4.13995
| 93>    C       -5.78123        23.13967         3.73327
| 94>    H        0.77391         7.76738        -7.93279
| 95>    H        4.34177         4.28290        -7.89604
| 96>    H        5.00808         4.94167       -10.12436
| 97>    H        4.73794         6.38408       -12.10159
| 98>    H        2.98717         8.11593       -12.14735
| 99>    H        1.48926         8.41752       -10.21446
|100>    H        2.04580         4.29126        -2.87232
|101>    H        1.17402         4.73821        -0.68228
|102>    H       -2.86494         8.22059        -1.84975
|103>    H       -1.89511         8.10602         1.06101
|104>    H       -3.25114        10.58450         3.53461
|105>    H       -1.94222         9.75721         2.65810
|106>    H       -4.43985         8.42243         3.83363
|107>    H       -2.82119         8.36269         4.53705
|108>    H       -3.13889         7.56551         2.99721
|109>    H       -8.06178        10.30608        -2.80916
|110>    H       -6.57688         9.84280        -3.65542
|111>    H       -7.28273        12.72016        -2.86116
|112>    H       -7.41079        12.03103        -4.48185
|113>    H       -5.82753        12.20221        -3.71889
|114>    H       -7.20842        12.53384         0.74799
|115>    H       -9.06241        11.45801        -1.45646
|116>    H      -14.06361        11.84310        -2.75088
|117>    H      -14.98076        13.23505        -2.10039
|118>    H      -14.51878        10.57827        -0.64710
|119>    H      -16.03212        11.07827        -1.41117
|120>    H      -15.42221        11.96094        -0.00714
|121>    H      -12.50581        16.20735         1.59065
|122>    H       -9.53024        16.77079         2.15318
|123>    H      -12.14573        18.20176         2.92575
|124>    H       -6.32831        20.58814         2.99141
|125>    H      -10.25535        23.10819         4.74878
|126>    H       -8.85639        25.05166         5.08924
|127>    H       -6.66272        26.16143         4.94918
|128>    H       -4.70549        24.94173         4.08425
|129>    H       -4.92661        22.59923         3.35322
|130> *
|131>
|132>                          ****END OF INPUT****

CARTESIAN COORDINATES (ANGSTROEM)
---------------------------------
  C      2.676090    4.530380   -5.513160
  C      3.427200    3.444950   -5.145660
  C      4.395000    2.838630   -5.974880
  N      5.200360    2.304860   -6.594650
  C      3.335420    2.763010   -3.914190
  N      3.311120    2.151250   -2.942420
  C      2.737560    5.202980   -6.806470
  C      1.729060    6.208710   -6.844320
  C      1.547230    7.013640   -7.931780
  C      2.389650    6.852060   -9.054090
  C      3.403070    5.850620   -9.025430
  C      3.562100    5.027720   -7.886220
  C      4.241680    5.702330  -10.148660
  C      4.089530    6.504810  -11.246850
  C      3.092170    7.490870  -11.273270
  C      2.259250    7.660100  -10.200440
  C      1.000750    6.210110   -5.569590
  O      0.053070    6.915050   -5.273710
  C      1.657340    5.200150   -4.720740
  C      1.419940    5.009650   -3.388670
  C      0.498560    5.650620   -2.534060
  S     -0.742170    6.794580   -2.973720
  C     -1.224140    6.980650   -1.322930
  C     -0.449810    6.176750   -0.467920
  C      0.496870    5.425300   -1.160170
  C     -0.616870    6.084970    0.924510
  N     -0.735960    5.991490    2.062380
  C     -2.264700    7.889360   -1.011520
  C     -2.521780    8.386010    0.228170
  C     -3.573880    9.300360    0.475150
  N     -3.775670    9.923610    1.682870
  C     -3.010070    9.732680    2.892230
  C     -3.376620    8.434230    3.606420
  C     -4.888310   10.789620    1.652690
  O     -5.251770   11.454610    2.597330
  C     -5.392240   10.663130    0.300430
  C     -4.569090    9.748960   -0.395360
  C     -5.113260    9.598940   -1.724890
  O     -4.740370    8.957310   -2.687340
  N     -6.269840   10.405260   -1.731910
  C     -7.012010   10.568430   -2.961020
  C     -6.875300   11.973560   -3.538450
  C     -6.439070   11.055650   -0.529830
  C     -7.464760   11.952470   -0.130600
  C     -8.705560   12.091940   -0.657780
  C     -9.671950   13.011690   -0.184310
  S     -9.330180   14.330940    0.918360
  C    -11.010290   13.036240   -0.521910
  C    -11.918450   12.253600   -1.372280
  O    -11.691500   11.305650   -2.083950
  N    -13.160050   12.858410   -1.209950
  C    -14.366610   12.368860   -1.842440
  C    -15.134450   11.434360   -0.914090
  C    -13.147680   13.953870   -0.349820
  O    -14.105510   14.631690   -0.077190
  C    -11.747030   14.061970    0.094460
  C    -10.996850   14.889870    0.904570
  C    -11.434880   16.041770    1.598760
  C    -10.598870   16.933110    2.190660
  C    -11.071700   18.106900    2.824490
  C    -10.269570   19.120310    3.262450
  C    -10.693780   20.353610    3.902130
  C    -11.934690   20.624390    4.416350
  C    -12.279360   21.837720    5.048790
  N    -12.624100   22.802940    5.565820
  C    -13.027500   19.731800    4.424710
  N    -13.955260   19.058180    4.486670
  C     -9.541350   21.246000    3.955010
  C     -8.404310   20.551130    3.452570
  C     -8.798010   19.193830    3.040260
  O     -8.069910   18.334400    2.590980
  C     -7.174290   21.138410    3.375870
  C     -7.022890   22.477490    3.798940
  C     -8.156370   23.182190    4.298210
  C     -9.416420   22.545280    4.371600
  C     -7.995410   24.520840    4.710270
  C     -6.775410   25.135500    4.632200
  C     -5.660350   24.440720    4.139950
  C     -5.781230   23.139670    3.733270
  H      0.773910    7.767380   -7.932790
  H      4.341770    4.282900   -7.896040
  H      5.008080    4.941670  -10.124360
  H      4.737940    6.384080  -12.101590
  H      2.987170    8.115930  -12.147350
  H      1.489260    8.417520  -10.214460
  H      2.045800    4.291260   -2.872320
  H      1.174020    4.738210   -0.682280
  H     -2.864940    8.220590   -1.849750
  H     -1.895110    8.106020    1.061010
  H     -3.251140   10.584500    3.534610
  H     -1.942220    9.757210    2.658100
  H     -4.439850    8.422430    3.833630
  H     -2.821190    8.362690    4.537050
  H     -3.138890    7.565510    2.997210
  H     -8.061780   10.306080   -2.809160
  H     -6.576880    9.842800   -3.655420
  H     -7.282730   12.720160   -2.861160
  H     -7.410790   12.031030   -4.481850
  H     -5.827530   12.202210   -3.718890
  H     -7.208420   12.533840    0.747990
  H     -9.062410   11.458010   -1.456460
  H    -14.063610   11.843100   -2.750880
  H    -14.980760   13.235050   -2.100390
  H    -14.518780   10.578270   -0.647100
  H    -16.032120   11.078270   -1.411170
  H    -15.422210   11.960940   -0.007140
  H    -12.505810   16.207350    1.590650
  H     -9.530240   16.770790    2.153180
  H    -12.145730   18.201760    2.925750
  H     -6.328310   20.588140    2.991410
  H    -10.255350   23.108190    4.748780
  H     -8.856390   25.051660    5.089240
  H     -6.662720   26.161430    4.949180
  H     -4.705490   24.941730    4.084250
  H     -4.926610   22.599230    3.353220

 Total Charge           Charge          ....    0
 Multiplicity           Mult            ....    1
 Number of Electrons    NEL             ....  550
 Basis Dimension        Dim             .... 1294

ORBITAL ENERGIES
----------------

  NO   OCC          E(Eh)            E(eV)
   0   2.0000     -88.984805     -2421.3996
   1   2.0000     -88.984112     -2421.3808
   2   2.0000     -19.230837      -523.2977
   3   2.0000     -19.218740      -522.9685
   4   2.0000     -19.218660      -522.9663
   5   2.0000     -19.218576      -522.9640
   6   2.0000     -19.198389      -522.4147
   7   2.0000     -19.196396      -522.3605
   8   2.0000     -14.460460      -393.4891
   9   2.0000     -14.459795      -393.4710
  10   2.0000     -14.458537      -393.4368
  11   2.0000     -14.423772      -392.4908
  12   2.0000     -14.420298      -392.3963
  13   2.0000     -14.420155      -392.3924
  14   2.0000     -14.415944      -392.2778
  15   2.0000     -14.415013      -392.2524
  16   2.0000     -10.401516      -283.0396
  17   2.0000     -10.401290      -283.0335
  18   2.0000     -10.380624      -282.4711
  19   2.0000     -10.380228      -282.4604
  20   2.0000     -10.378655      -282.4176
  21   2.0000     -10.369212      -282.1606
  22   2.0000     -10.349367      -281.6206
  23   2.0000     -10.349324      -281.6194
  24   2.0000     -10.348424      -281.5949
  25   2.0000     -10.345107      -281.5047
  26   2.0000     -10.343110      -281.4503
  27   2.0000     -10.341065      -281.3947
  28   2.0000     -10.340951      -281.3916
  29   2.0000     -10.338504      -281.3250
  30   2.0000     -10.335947      -281.2554
  31   2.0000     -10.334708      -281.2217
  32   2.0000     -10.332289      -281.1559
  33   2.0000     -10.327453      -281.0243
  34   2.0000     -10.326248      -280.9915
  35   2.0000     -10.323039      -280.9042
  36   2.0000     -10.321279      -280.8563
  37   2.0000     -10.318237      -280.7735
  38   2.0000     -10.317687      -280.7585
  39   2.0000     -10.317313      -280.7484
  40   2.0000     -10.317113      -280.7429
  41   2.0000     -10.313554      -280.6461
  42   2.0000     -10.309715      -280.5416
  43   2.0000     -10.309603      -280.5386
  44   2.0000     -10.309314      -280.5307
  45   2.0000     -10.308876      -280.5188
  46   2.0000     -10.308807      -280.5169
  47   2.0000     -10.308488      -280.5082
  48   2.0000     -10.307768      -280.4886
  49   2.0000     -10.307109      -280.4707
  50   2.0000     -10.305350      -280.4228
  51   2.0000     -10.304787      -280.4075
  52   2.0000     -10.304118      -280.3893
  53   2.0000     -10.303840      -280.3817
  54   2.0000     -10.303601      -280.3752
  55   2.0000     -10.303585      -280.3748
  56   2.0000     -10.303200      -280.3643
  57   2.0000     -10.301732      -280.3244
  58   2.0000     -10.301254      -280.3114
  59   2.0000     -10.298604      -280.2393
  60   2.0000     -10.298362      -280.2327
  61   2.0000     -10.297513      -280.2096
  62   2.0000     -10.297291      -280.2035
  63   2.0000     -10.295919      -280.1662
  64   2.0000     -10.294573      -280.1296
  65   2.0000     -10.292188      -280.0647
  66   2.0000     -10.291708      -280.0516
  67   2.0000     -10.291364      -280.0423
  68   2.0000     -10.290882      -280.0291
  69   2.0000     -10.289267      -279.9852
  70   2.0000     -10.287550      -279.9385
  71   2.0000     -10.286996      -279.9234
  72   2.0000     -10.286703      -279.9154
  73   2.0000     -10.286173      -279.9010
  74   2.0000     -10.271261      -279.4952
  75   2.0000     -10.269652      -279.4514
  76   2.0000     -10.265232      -279.3312
  77   2.0000     -10.261546      -279.2309
  78   2.0000     -10.258944      -279.1601
  79   2.0000      -8.078912      -219.8384
  80   2.0000      -8.078071      -219.8155
  81   2.0000      -6.048194      -164.5797
  82   2.0000      -6.047353      -164.5568
  83   2.0000      -6.044052      -164.4670
  84   2.0000      -6.042727      -164.4310
  85   2.0000      -6.041024      -164.3846
  86   2.0000      -6.040597      -164.3730
  87   2.0000      -1.164314       -31.6826
  88   2.0000      -1.146470       -31.1970
  89   2.0000      -1.141001       -31.0482
  90   2.0000      -1.139844       -31.0167
  91   2.0000      -1.133240       -30.8370
  92   2.0000      -1.133042       -30.8316
  93   2.0000      -1.069814       -29.1111
  94   2.0000      -1.060696       -28.8630
  95   2.0000      -1.056776       -28.7563
  96   2.0000      -1.026029       -27.9197
  97   2.0000      -1.022571       -27.8256
  98   2.0000      -1.018331       -27.7102
  99   2.0000      -1.011255       -27.5177
 100   2.0000      -1.006046       -27.3759
 101   2.0000      -1.000222       -27.2174
 102   2.0000      -0.998954       -27.1829
 103   2.0000      -0.998347       -27.1664
 104   2.0000      -0.993806       -27.0428
 105   2.0000      -0.978293       -26.6207
 106   2.0000      -0.972460       -26.4620
 107   2.0000      -0.939953       -25.5774
 108   2.0000      -0.938136       -25.5280
 109   2.0000      -0.933258       -25.3952
 110   2.0000      -0.926900       -25.2222
 111   2.0000      -0.925298       -25.1787
 112   2.0000      -0.919415       -25.0185
 113   2.0000      -0.909609       -24.7517
 114   2.0000      -0.903162       -24.5763
 115   2.0000      -0.891279       -24.2529
 116   2.0000      -0.889479       -24.2040
 117   2.0000      -0.886573       -24.1249
 118   2.0000      -0.881859       -23.9966
 119   2.0000      -0.878695       -23.9105
 120   2.0000      -0.873118       -23.7587
 121   2.0000      -0.868102       -23.6223
 122   2.0000      -0.848969       -23.1016
 123   2.0000      -0.839614       -22.8471
 124   2.0000      -0.834731       -22.7142
 125   2.0000      -0.833470       -22.6799
 126   2.0000      -0.828981       -22.5577
 127   2.0000      -0.822829       -22.3903
 128   2.0000      -0.814067       -22.1519
 129   2.0000      -0.804162       -21.8824
 130   2.0000      -0.788109       -21.4455
 131   2.0000      -0.779626       -21.2147
 132   2.0000      -0.770205       -20.9583
 133   2.0000      -0.762497       -20.7486
 134   2.0000      -0.762275       -20.7426
 135   2.0000      -0.755460       -20.5571
 136   2.0000      -0.750840       -20.4314
 137   2.0000      -0.734116       -19.9763
 138   2.0000      -0.729048       -19.8384
 139   2.0000      -0.725319       -19.7369
 140   2.0000      -0.712562       -19.3898
 141   2.0000      -0.710626       -19.3371
 142   2.0000      -0.705337       -19.1932
 143   2.0000      -0.704084       -19.1591
 144   2.0000      -0.703472       -19.1425
 145   2.0000      -0.699594       -19.0369
 146   2.0000      -0.695106       -18.9148
 147   2.0000      -0.686450       -18.6793
 148   2.0000      -0.683275       -18.5929
 149   2.0000      -0.679231       -18.4828
 150   2.0000      -0.673526       -18.3276
 151   2.0000      -0.669333       -18.2135
 152   2.0000      -0.665831       -18.1182
 153   2.0000      -0.662937       -18.0394
 154   2.0000      -0.653638       -17.7864
 155   2.0000      -0.644522       -17.5383
 156   2.0000      -0.642345       -17.4791
 157   2.0000      -0.630423       -17.1547
 158   2.0000      -0.628509       -17.1026
 159   2.0000      -0.617763       -16.8102
 160   2.0000      -0.613165       -16.6851
 161   2.0000      -0.607545       -16.5321
 162   2.0000      -0.606881       -16.5141
 163   2.0000      -0.605352       -16.4725
 164   2.0000      -0.600454       -16.3392
 165   2.0000      -0.594281       -16.1712
 166   2.0000      -0.589773       -16.0485
 167   2.0000      -0.584038       -15.8925
 168   2.0000      -0.582764       -15.8578
 169   2.0000      -0.575595       -15.6627
 170   2.0000      -0.571738       -15.5578
 171   2.0000      -0.571012       -15.5380
 172   2.0000      -0.568887       -15.4802
 173   2.0000      -0.560795       -15.2600
 174   2.0000      -0.559258       -15.2182
 175   2.0000      -0.555342       -15.1116
 176   2.0000      -0.550867       -14.9898
 177   2.0000      -0.550159       -14.9706
 178   2.0000      -0.548860       -14.9352
 179   2.0000      -0.547260       -14.8917
 180   2.0000      -0.545095       -14.8328
 181   2.0000      -0.541794       -14.7430
 182   2.0000      -0.540035       -14.6951
 183   2.0000      -0.538549       -14.6547
 184   2.0000      -0.537508       -14.6263
 185   2.0000      -0.536711       -14.6047
 186   2.0000      -0.532548       -14.4914
 187   2.0000      -0.530879       -14.4459
 188   2.0000      -0.527180       -14.3453
 189   2.0000      -0.526358       -14.3229
 190   2.0000      -0.522962       -14.2305
 191   2.0000      -0.522126       -14.2078
 192   2.0000      -0.521373       -14.1873
 193   2.0000      -0.519308       -14.1311
 194   2.0000      -0.516818       -14.0633
 195   2.0000      -0.514954       -14.0126
 196   2.0000      -0.513941       -13.9850
 197   2.0000      -0.513268       -13.9667
 198   2.0000      -0.512604       -13.9487
 199   2.0000      -0.508725       -13.8431
 200   2.0000      -0.506940       -13.7945
 201   2.0000      -0.504286       -13.7223
 202   2.0000      -0.502788       -13.6815
 203   2.0000      -0.502213       -13.6659
 204   2.0000      -0.498926       -13.5765
 205   2.0000      -0.496635       -13.5141
 206   2.0000      -0.494078       -13.4445
 207   2.0000      -0.491379       -13.3711
 208   2.0000      -0.490397       -13.3444
 209   2.0000      -0.488478       -13.2922
 210   2.0000      -0.487217       -13.2579
 211   2.0000      -0.485089       -13.1999
 212   2.0000      -0.481298       -13.0968
 213   2.0000      -0.472990       -12.8707
 214   2.0000      -0.472489       -12.8571
 215   2.0000      -0.470144       -12.7933
 216   2.0000      -0.468811       -12.7570
 217   2.0000      -0.468003       -12.7350
 218   2.0000      -0.465159       -12.6576
 219   2.0000      -0.462906       -12.5963
 220   2.0000      -0.456274       -12.4158
 221   2.0000      -0.455735       -12.4012
 222   2.0000      -0.454334       -12.3631
 223   2.0000      -0.453229       -12.3330
 224   2.0000      -0.452788       -12.3210
 225   2.0000      -0.451040       -12.2734
 226   2.0000      -0.450060       -12.2468
 227   2.0000      -0.448758       -12.2113
 228   2.0000      -0.447919       -12.1885
 229   2.0000      -0.446608       -12.1528
 230   2.0000      -0.444482       -12.0950
 231   2.0000      -0.442950       -12.0533
 232   2.0000      -0.441792       -12.0218
 233   2.0000      -0.441138       -12.0040
 234   2.0000      -0.440711       -11.9924
 235   2.0000      -0.439896       -11.9702
 236   2.0000      -0.434841       -11.8326
 237   2.0000      -0.434105       -11.8126
 238   2.0000      -0.433422       -11.7940
 239   2.0000      -0.432713       -11.7747
 240   2.0000      -0.431916       -11.7530
 241   2.0000      -0.429600       -11.6900
 242   2.0000      -0.427168       -11.6238
 243   2.0000      -0.425662       -11.5828
 244   2.0000      -0.423802       -11.5322
 245   2.0000      -0.421290       -11.4639
 246   2.0000      -0.419753       -11.4221
 247   2.0000      -0.416544       -11.3347
 248   2.0000      -0.413272       -11.2457
 249   2.0000      -0.411912       -11.2087
 250   2.0000      -0.407395       -11.0858
 251   2.0000      -0.402309       -10.9474
 252   2.0000      -0.393349       -10.7036
 253   2.0000      -0.382553       -10.4098
 254   2.0000      -0.380619       -10.3572
 255   2.0000      -0.371221       -10.1014
 256   2.0000      -0.369085       -10.0433
 257   2.0000      -0.358805        -9.7636
 258   2.0000      -0.354693        -9.6517
 259   2.0000      -0.352540        -9.5931
 260   2.0000      -0.352151        -9.5825
 261   2.0000      -0.348582        -9.4854
 262   2.0000      -0.340911        -9.2767
 263   2.0000      -0.339182        -9.2296
 264   2.0000      -0.338046        -9.1987
 265   2.0000      -0.337743        -9.1904
 266   2.0000      -0.334538        -9.1032
 267   2.0000      -0.324097        -8.8191
 268   2.0000      -0.322313        -8.7706
 269   2.0000      -0.317533        -8.6405
 270   2.0000      -0.304679        -8.2907
 271   2.0000      -0.297626        -8.0988
 272   2.0000      -0.293545        -7.9878
 273   2.0000      -0.283571        -7.7164
 274   2.0000      -0.242774        -6.6062
 275   0.0000      -0.118551        -3.2259
 276   0.0000      -0.104256        -2.8369
 277   0.0000      -0.084456        -2.2982
 278   0.0000      -0.065906        -1.7934
 279   0.0000      -0.060907        -1.6574

MULLIKEN ATOMIC CHARGES
-----------------------
   0 C :    0.322766
   1 C :   -0.343784
   2 C :   -0.182297
   3 N :    0.150917
   4 C :   -0.195833
   5 N :    0.154365
   6 C :    0.048196
   7 C :   -0.003845
   8 C :   -0.081494
   9 C :    0.101358
  10 C :    0.100199
  11 C :   -0.087214
  12 C :   -0.022773
  13 C :    0.037560
  14 C :    0.037137
  15 C :   -0.019231
  16 C :    0.174176
  17 O :   -0.176519
  18 C :   -0.093561
  19 C :   -0.012903
  20 C :   -0.055258
  21 S :    0.243998
  22 C :   -0.059137
  23 C :   -0.042032
  24 C :    0.010243
  25 C :   -0.171710
  26 N :    0.127350
  27 C :    0.049682
  28 C :   -0.029443
  29 C :    0.145439
  30 N :   -0.265452
  31 C :    0.092856
  32 C :    0.006041
  33 C :    0.149384
  34 O :   -0.182650
  35 C :   -0.026735
  36 C :   -0.073131
  37 C :    0.168243
  38 O :   -0.207444
  39 N :   -0.266514
  40 C :    0.091936
  41 C :   -0.000564
  42 C :    0.104659
  43 C :   -0.030472
  44 C :   -0.001227
  45 C :   -0.119076
  46 S :    0.174246
  47 C :    0.019496
  48 C :    0.189505
  49 O :   -0.169006
  50 N :   -0.313871
  51 C :    0.132802
  52 C :   -0.007538
  53 C :    0.187214
  54 O :   -0.158378
  55 C :    0.040046
  56 C :   -0.127792
  57 C :    0.020109
  58 C :    0.002562
  59 C :   -0.043647
  60 C :   -0.065766
  61 C :    0.323782
  62 C :   -0.349508
  63 C :   -0.182232
  64 N :    0.151480
  65 C :   -0.198520
  66 N :    0.160210
  67 C :    0.049494
  68 C :   -0.003637
  69 C :    0.150923
  70 O :   -0.150350
  71 C :   -0.078782
  72 C :    0.097794
  73 C :    0.095808
  74 C :   -0.084316
  75 C :   -0.018389
  76 C :    0.037814
  77 C :    0.035969
  78 C :   -0.015460
  79 H :   -0.009304
  80 H :   -0.005775
  81 H :   -0.006012
  82 H :   -0.002147
  83 H :   -0.002688
  84 H :   -0.014655
  85 H :    0.017392
  86 H :    0.017411
  87 H :    0.017802
  88 H :   -0.003296
  89 H :    0.043692
  90 H :    0.028676
  91 H :    0.024421
  92 H :    0.028193
  93 H :    0.024790
  94 H :    0.038964
  95 H :    0.047445
  96 H :    0.023933
  97 H :    0.026012
  98 H :    0.023056
  99 H :    0.023368
 100 H :    0.010400
 101 H :    0.033989
 102 H :    0.032065
 103 H :    0.024186
 104 H :    0.024826
 105 H :    0.031382
 106 H :    0.033020
 107 H :    0.036380
 108 H :    0.022707
 109 H :   -0.013509
 110 H :   -0.008390
 111 H :   -0.009445
 112 H :   -0.004528
 113 H :   -0.004991
 114 H :   -0.017636
Sum of atomic charges:   -0.0000000

LOEWDIN ATOMIC CHARGES
----------------------
   0 C :    0.076464
   1 C :   -0.137205
   2 C :   -0.017117
   3 N :   -0.050051
   4 C :   -0.022443
   5 N :   -0.049127
   6 C :   -0.025661
   7 C :   -0.056606
   8 C :    0.034817
   9 C :   -0.008147
  10 C :   -0.005286
  11 C :    0.021282
  12 C :   -0.004723
  13 C :   -0.011417
  14 C :   -0.010742
  15 C :   -0.008798
  16 C :    0.086389
  17 O :   -0.162335
  18 C :   -0.096720
  19 C :    0.057179
  20 C :   -0.184573
  21 S :    0.555104
  22 C :   -0.138392
  23 C :   -0.110737
  24 C :    0.013077
  25 C :   -0.026755
  26 N :   -0.056438
  27 C :    0.002037
  28 C :   -0.021837
  29 C :    0.081833
  30 N :   -0.001453
  31 C :    0.035784
  32 C :   -0.059331
  33 C :    0.080522
  34 O :   -0.185938
  35 C :   -0.103310
  36 C :   -0.120091
  37 C :    0.082007
  38 O :   -0.195694
  39 N :   -0.002084
  40 C :    0.035587
  41 C :   -0.061835
  42 C :    0.066488
  43 C :   -0.016447
  44 C :   -0.023974
  45 C :   -0.126315
  46 S :    0.472157
  47 C :   -0.091138
  48 C :    0.089305
  49 O :   -0.166845
  50 N :   -0.032686
  51 C :    0.043796
  52 C :   -0.059068
  53 C :    0.089896
  54 O :   -0.156971
  55 C :   -0.076024
  56 C :   -0.137344
  57 C :    0.011646
  58 C :   -0.023676
  59 C :    0.065717
  60 C :   -0.083273
  61 C :    0.073688
  62 C :   -0.135166
  63 C :   -0.016865
  64 N :   -0.051926
  65 C :   -0.022827
  66 N :   -0.047266
  67 C :   -0.025193
  68 C :   -0.055977
  69 C :    0.085604
  70 O :   -0.143381
  71 C :    0.032772
  72 C :   -0.008192
  73 C :   -0.005724
  74 C :    0.019432
  75 C :   -0.005145
  76 C :   -0.012867
  77 C :   -0.012079
  78 C :   -0.009480
  79 H :    0.040203
  80 H :    0.039701
  81 H :    0.035606
  82 H :    0.034241
  83 H :    0.033764
  84 H :    0.032614
  85 H :    0.052350
  86 H :    0.047153
  87 H :    0.039476
  88 H :    0.037272
  89 H :    0.037905
  90 H :    0.025202
  91 H :    0.030238
  92 H :    0.034098
  93 H :    0.024829
  94 H :    0.024645
  95 H :    0.038471
  96 H :    0.022209
  97 H :    0.032905
  98 H :    0.029798
  99 H :    0.043011
 100 H :    0.042388
 101 H :    0.032948
 102 H :    0.032865
 103 H :    0.027754
 104 H :    0.031362
 105 H :    0.029536
 106 H :    0.050007
 107 H :    0.029658
 108 H :    0.045112
 109 H :    0.038905
 110 H :    0.039008
 111 H :    0.034814
 112 H :    0.033374
 113 H :    0.032857
 114 H :    0.031837

  Mayer bond orders larger than 0.100000
B(  0-C ,  1-C ) :   1.6349 B(  0-C ,  6-C ) :   0.9891 B(  0-C , 18-C ) :   1.0637
B(  1-C ,  2-C ) :   1.1476 B(  1-C ,  4-C ) :   1.1416 B(  2-C ,  3-N ) :   2.9637
B(  4-C ,  5-N ) :   2.9696 B(  6-C ,  7-C ) :   1.2125 B(  6-C , 11-C ) :   1.4519
B(  7-C ,  8-C ) :   1.4674 B(  7-C , 16-C ) :   0.9613 B(  8-C ,  9-C ) :   1.1785
B(  8-C , 79-H ) :   1.0177 B(  9-C , 10-C ) :   1.2537 B(  9-C , 15-C ) :   1.2440
B( 10-C , 11-C ) :   1.2041 B( 10-C , 12-C ) :   1.2404 B( 11-C , 80-H ) :   0.9909
B( 12-C , 13-C ) :   1.4897 B( 12-C , 81-H ) :   0.9979 B( 13-C , 14-C ) :   1.2595
B( 13-C , 82-H ) :   0.9882 B( 14-C , 15-C ) :   1.4893 B( 14-C , 83-H ) :   0.9884
B( 15-C , 84-H ) :   0.9983 B( 16-C , 17-O ) :   2.1324 B( 16-C , 18-C ) :   0.9667
B( 18-C , 19-C ) :   1.5465 B( 19-C , 20-C ) :   1.2197 B( 19-C , 85-H ) :   0.9422
B( 20-C , 21-S ) :   1.1045 B( 20-C , 24-C ) :   1.3651 B( 21-S , 22-C ) :   1.1533
B( 22-C , 23-C ) :   1.3682 B( 22-C , 27-C ) :   1.1561 B( 23-C , 24-C ) :   1.3412
B( 23-C , 25-C ) :   1.1024 B( 24-C , 86-H ) :   1.0144 B( 25-C , 26-N ) :   2.9809
B( 27-C , 28-C ) :   1.6067 B( 27-C , 87-H ) :   0.9249 B( 28-C , 29-C ) :   1.1747
B( 28-C , 88-H ) :   0.9501 B( 29-C , 30-N ) :   1.1707 B( 29-C , 36-C ) :   1.3245
B( 30-N , 31-C ) :   0.9365 B( 30-N , 33-C ) :   1.0338 B( 31-C , 32-C ) :   1.1239
B( 31-C , 89-H ) :   0.9274 B( 31-C , 90-H ) :   0.9490 B( 32-C , 91-H ) :   0.9621
B( 32-C , 92-H ) :   0.9668 B( 32-C , 93-H ) :   0.9662 B( 33-C , 34-O ) :   2.1474
B( 33-C , 35-C ) :   0.9650 B( 35-C , 36-C ) :   1.2484 B( 35-C , 42-C ) :   1.3615
B( 36-C , 37-C ) :   0.9920 B( 37-C , 38-O ) :   2.0266 B( 37-C , 39-N ) :   1.0603
B( 38-O , 87-H ) :   0.1053 B( 39-N , 40-C ) :   0.9387 B( 39-N , 42-C ) :   1.1698
B( 40-C , 41-C ) :   1.1178 B( 40-C , 94-H ) :   0.9512 B( 40-C , 95-H ) :   0.9228
B( 41-C , 96-H ) :   0.9662 B( 41-C , 97-H ) :   0.9669 B( 41-C , 98-H ) :   0.9629
B( 42-C , 43-C ) :   1.1797 B( 43-C , 44-C ) :   1.5628 B( 43-C , 99-H ) :   0.9510
B( 44-C , 45-C ) :   1.1846 B( 44-C ,100-H ) :   0.9733 B( 45-C , 46-S ) :   1.1219
B( 45-C , 47-C ) :   1.4777 B( 46-S , 56-C ) :   1.1072 B( 47-C , 48-C ) :   0.8964
B( 47-C , 55-C ) :   1.2713 B( 48-C , 49-O ) :   2.1738 B( 48-C , 50-N ) :   1.0750
B( 50-N , 51-C ) :   0.9167 B( 50-N , 53-C ) :   1.0714 B( 51-C , 52-C ) :   1.1273
B( 51-C ,101-H ) :   0.9400 B( 51-C ,102-H ) :   0.9420 B( 52-C ,103-H ) :   0.9683
B( 52-C ,104-H ) :   0.9701 B( 52-C ,105-H ) :   0.9694 B( 53-C , 54-O ) :   2.1895
B( 53-C , 55-C ) :   0.8879 B( 55-C , 56-C ) :   1.4901 B( 56-C , 57-C ) :   1.1629
B( 57-C , 58-C ) :   1.5543 B( 57-C ,106-H ) :   0.9802 B( 58-C , 59-C ) :   1.1565
B( 58-C ,107-H ) :   0.9731 B( 59-C , 60-C ) :   1.5610 B( 59-C ,108-H ) :   0.9678
B( 60-C , 61-C ) :   1.0536 B( 60-C , 69-C ) :   0.9390 B( 61-C , 62-C ) :   1.6411
B( 61-C , 67-C ) :   0.9895 B( 62-C , 63-C ) :   1.1467 B( 62-C , 65-C ) :   1.1423
B( 63-C , 64-N ) :   2.9667 B( 65-C , 66-N ) :   2.9813 B( 67-C , 68-C ) :   1.2150
B( 67-C , 74-C ) :   1.4495 B( 68-C , 69-C ) :   0.9454 B( 68-C , 71-C ) :   1.4720
B( 69-C , 70-O ) :   2.1984 B( 71-C , 72-C ) :   1.1808 B( 71-C ,109-H ) :   1.0154
B( 72-C , 73-C ) :   1.2563 B( 72-C , 78-C ) :   1.2435 B( 73-C , 74-C ) :   1.2076
B( 73-C , 75-C ) :   1.2400 B( 74-C ,110-H ) :   0.9894 B( 75-C , 76-C ) :   1.4904
B( 75-C ,111-H ) :   0.9967 B( 76-C , 77-C ) :   1.2600 B( 76-C ,112-H ) :   0.9880
B( 77-C , 78-C ) :   1.4892 B( 77-C ,113-H ) :   0.9885 B( 78-C ,114-H ) :   0.9975

-----------------------------------------------------------------------------
         ABSORPTION SPECTRUM VIA TRANSITION ELECTRIC DIPOLE MOMENTS
-----------------------------------------------------------------------------
State   Energy  Wavelength   fosc         T2         TX        TY        TZ
        (cm-1)    (nm)                  (au**2)     (au)      (au)      (au)
-----------------------------------------------------------------------------
   0   12752.6    784.2   1.245114164  32.14286  -4.09399   3.68680   1.33775
   1   17914.5    558.2   0.129380931   2.37761   0.62256   1.40619   0.11247
   2   21717.2    460.5   0.491288215   7.44747  -0.65011  -1.31022  -2.30394
   3   22767.6    439.2   0.294145656   4.25325   0.10492  -1.98261  -0.55812
   4   23806.1    420.1   0.803121286  11.10628  -1.87356   1.73159   2.14421
   5   25171.1    397.3   0.091834972   1.20111   0.14679   1.04775   0.28596
   6   25296.5    395.3   0.048334845   0.62904   0.08040  -0.68177  -0.39719
   7   25801.1    387.6   0.181983695   2.32204  -0.93430   0.34077   1.15455
   8   26392.1    378.9   0.004623050   0.05767  -0.23838   0.02817  -0.00702
   9   26689.9    374.7   0.133792163   1.65029  -0.04507  -0.04277  -1.28313
  10   27053.2    369.6   0.041984030   0.51091  -0.40746  -0.55438   0.19376
  11   27175.9    368.0   0.093117370   1.12803  -0.66971  -0.69406  -0.44476
  12   27303.4    366.3   0.012785400   0.15416   0.04013  -0.19559  -0.33808
  13   27661.0    361.5   0.017680538   0.21043  -0.24545   0.03729   0.38573
  14   28071.5    356.2   0.010028269   0.11761  -0.24920  -0.08774  -0.21865
  15   28828.7    346.9   0.012751097   0.14561  -0.02211  -0.12172   0.36098
  16   28976.3    345.1   0.150045496   1.70473  -1.00529  -0.80553  -0.21270
  17   30280.0    330.3   0.016623354   0.18073  -0.24448  -0.14373   0.31671
  18   30727.5    325.4   0.001735285   0.01859  -0.03666  -0.06835  -0.11214
  19   32052.4    312.0   0.014930962   0.15336   0.14883   0.06355  -0.35661
  20   32161.0    310.9   0.413227487   4.22994  -0.10083  -1.12459   1.71903
  21   32328.4    309.3   0.457124066   4.65506   1.73731   1.27911   0.02578
  22   32560.6    307.1   0.103615345   1.04763  -0.70324  -0.57043  -0.47717
  23   32900.2    303.9   0.016589495   0.16600   0.11306   0.37973   0.09500
  24   33484.9    298.6   0.010689954   0.10510  -0.10671  -0.21447  -0.21844
  25   33537.1    298.2   0.001910125   0.01875   0.01017  -0.13497   0.02073
  26   33651.2    297.2   0.364208315   3.56307  -0.10176  -0.92954   1.63972
  27   33744.4    296.3   0.044826124   0.43733   0.03880   0.62410  -0.21522
  28   33921.9    294.8   0.268057187   2.60150  -1.24418  -0.77079  -0.67779
  29   34088.6    293.4   0.151807275   1.46608  -0.95949   0.45900   0.57860
  30   34199.8    292.4   0.004189363   0.04033  -0.15483   0.00914   0.12756
  31   34307.4    291.5   0.387462396   3.71807  -1.83903  -0.40402  -0.41570
  32   34559.6    289.4   0.026916633   0.25641  -0.32700  -0.24343  -0.30037
  33   34736.2    287.9   0.036817194   0.34893   0.11373  -0.46527   0.34573
  34   34921.4    286.4   0.157007926   1.48015  -0.28689  -0.36149   1.12569
  35   35329.8    283.0   0.160246839   1.49322   0.60185  -0.49764  -0.93987
  36   36346.6    275.1   0.039362734   0.35653   0.16343  -0.56255   0.11558
  37   36498.2    274.0   0.192127531   1.73298  -0.40502   1.18033  -0.41924
  38   36739.5    272.2   0.028217082   0.25285   0.20574   0.33403  -0.31455
  39   36859.5    271.3   0.128113871   1.14425  -0.95837  -0.23428   0.41339
  40   37119.5    269.4   0.080297772   0.71216   0.55308   0.62277   0.13574
  41   37531.4    266.4   0.116243920   1.01965  -0.54776   0.59444  -0.60519
  42   37643.9    265.6   0.020543067   0.17966  -0.28739   0.26491  -0.16397
  43   37774.2    264.7   0.041214978   0.35920   0.57464  -0.07789  -0.15139
  44   38013.9    263.1   0.006594472   0.05711  -0.15383  -0.02272   0.18147
  45   38253.7    261.4   0.005605874   0.04824   0.10275  -0.12615   0.14755
  46   38287.1    261.2   0.020167315   0.17341  -0.22372   0.02772   0.35013
  47   38363.2    260.7   0.038073349   0.32672  -0.23859  -0.07213   0.51439
  48   38612.7    259.0   0.004932945   0.04206   0.18340   0.00206   0.09176
  49   38722.1    258.3   0.091884943   0.78120   0.48370  -0.66449   0.32510
  50   38802.8    257.7   0.012177297   0.10331   0.08760   0.27836  -0.13474
  51   39293.7    254.5   0.212583904   1.78108  -0.21439   0.89647   0.96512
  52   39499.4    253.2   0.159868182   1.33244   0.77249  -0.85038  -0.11203
  53   39724.0    251.7   0.316091550   2.61960  -1.07623   0.45737   1.11899
  54   40147.2    249.1   0.002294027   0.01881  -0.05425   0.04855   0.11624
  55   40298.3    248.1   0.060944504   0.49788  -0.40033   0.52553   0.24785

FINAL SINGLE POINT ENERGY     -4103.699089520818

DIPOLE MOMENT
-------------
                                X             Y             Z
Electronic contribution:     18.44432     -10.32302       5.07061
Nuclear contribution   :    -16.38359      12.28042      -8.22620
                        -----------------------------------------
Total Dipole Moment    :      2.06072       1.95739      -3.15559
                        -----------------------------------------
Magnitude (a.u.)       :      4.24684
Magnitude (Debye)      :     10.79462

Rotational constants in cm-1:     0.001085     0.000194     0.000185
Rotational constants in MHz :    32.513884     5.815565     5.556641

                             ****ORCA TERMINATED NORMALLY****
TOTAL RUN TIME: 0 days 0 hours 11 minutes 21 seconds 57 msec
