                         Program Version 4.2.0 -  RELEASE  -
|  1> # ORCA input file
|  2> # SCF done       -211.347158345162          0.000908466493
|  3> ! CAM-B3LYP def2-SVP def2/J RIJCOSX Grid4 TightSCF
|  4> %maxcore 5000
|  5> %tddft
|  6>     Mode sTDDFT
|  7>     Ethresh 5.0
|  8>     maxcore 5000
|  9> end
| 10>
| 11> %pal
| 12>   nprocs 6
| 13>   end
| 14> * xyz 0 1
| 15>    C       -0.23496         0.77036        -1.36951
| 16>    C       -1.24332         1.55879        -1.85181
| 17>    C       -1.55426         1.66979        -3.22472
| 18>    N       -1.83571         1.77814        -4.33120
| 19>    C       -2.16228         2.25266        -1.03605
| 20>    N       -2.97652         2.77392        -0.41761
| 21>    C        0.54932        -0.18034        -2.14876
| 22>    C        1.11175        -1.14509        -1.26017
| 23>    C        1.85943        -2.19244        -1.71790
| 24>    C        2.09201        -2.31937        -3.10511
| 25>    C        1.55041        -1.34745        -3.99639
| 26>    C        0.77494        -0.27669        -3.49635
| 27>    C        1.79779        -1.48182        -5.37794
| 28>    C        2.53990        -2.52637        -5.85780
| 29>    C        3.07031        -3.48384        -4.97982
| 30>    C        2.85096        -3.38275        -3.63299
| 31>    C        0.76170        -0.80095         0.12726
| 32>    O        1.01615        -1.40745         1.14005
| 33>    C        0.07047         0.52343         0.03371
| 34>    C       -0.06944         1.29756         1.12841
| 35>    C       -0.41152         2.69906         1.14068
| 36>    C        0.10827         3.60592         0.23643
| 37>    C       -0.31254         4.93444         0.21565
| 38>    F        0.29592         5.74874        -0.65752
| 39>    C       -1.28141         5.46049         1.06211
| 40>    C       -1.78145         4.56809         2.04016
| 41>    C       -1.32936         3.20222         2.09252
| 42>    N       -1.94187         2.50875         3.04923
| 43>    S       -2.98711         3.46461         3.79636
| 44>    N       -2.71654         4.80961         2.95867
| 45>    C       -1.82339         6.77361         0.80703
| 46>    N       -2.16025         7.72742         1.72080
| 47>    C       -1.87009         7.72076         3.13415
| 48>    C       -0.36816         7.73506         3.40091
| 49>    C       -2.71926         8.86415         1.09344
| 50>    O       -3.07368         9.85209         1.70587
| 51>    C       -2.73433         8.53216        -0.31294
| 52>    C       -2.15667         7.24870        -0.45342
| 53>    C       -2.22669         6.86126        -1.84959
| 54>    O       -1.89895         5.85406        -2.43301
| 55>    N       -2.82994         7.97219        -2.47360
| 56>    C       -3.02393         8.00605        -3.90389
| 57>    C       -1.95514         8.84393        -4.60076
| 58>    C       -3.14319         8.96787        -1.57981
| 59>    C       -3.78480        10.17277        -1.93612
| 60>    C       -4.11129        11.13086        -1.01977
| 61>    C       -4.77015        12.33993        -1.33577
| 62>    C       -5.16171        12.82969        -2.56915
| 63>    C       -5.79970        14.08429        -2.39663
| 64>    C       -5.78738        14.35512        -0.94400
| 65>    C       -5.16875        13.31552        -0.32883
| 66>    C       -6.32070        15.47525        -0.29716
| 67>    N       -6.75069        16.38248         0.26143
| 68>    C       -6.32675        14.89773        -3.37914
| 69>    C       -6.97114        16.15349        -3.21425
| 70>    C       -7.34954        16.63885        -4.45252
| 71>    C       -6.93273        15.66611        -5.45239
| 72>    C       -6.32626        14.62266        -4.82857
| 73>    C       -5.80133        13.49539        -5.46801
| 74>    N       -5.37663        12.57904        -6.01692
| 75>    C       -8.03264        17.83309        -4.79051
| 76>    C       -8.46693        18.75319        -3.88273
| 77>    C       -9.14378        19.96820        -4.14297
| 78>    C       -9.81737        20.42349        -5.24708
| 79>    C      -10.41787        21.74799        -5.31957
| 80>    C      -10.10725        22.83018        -4.53712
| 81>    C      -10.71701        24.09570        -4.66806
| 82>    N      -11.17837        25.14591        -4.71615
| 83>    C       -9.11416        22.86657        -3.53486
| 84>    N       -8.30882        22.99752        -2.72650
| 85>    C      -11.34995        21.76406        -6.43975
| 86>    C      -11.24911        20.51901        -7.11998
| 87>    C      -10.25751        19.66296        -6.44741
| 88>    O       -9.91311        18.56057        -6.82004
| 89>    C      -11.99238        20.23787        -8.22993
| 90>    C      -12.89407        21.20965        -8.71747
| 91>    C      -13.00893        22.45611        -8.03673
| 92>    C      -12.22310        22.71829        -6.89077
| 93>    C      -13.91476        23.41712        -8.52989
| 94>    C      -14.66961        23.16196        -9.64233
| 95>    C      -14.55479        21.93471       -10.31219
| 96>    C      -13.68572        20.97936        -9.85968
| 97>    H        2.26789        -2.91626        -1.02843
| 98>    H        0.38426         0.45026        -4.19117
| 99>    H        1.38428        -0.74483        -6.05041
|100>    H        2.72209        -2.62156        -6.91766
|101>    H        3.65355        -4.30143        -5.37610
|102>    H        3.25633        -4.11658        -2.95191
|103>    H        0.10594         0.82771         2.08969
|104>    H        0.85291         3.30023        -0.48287
|105>    H       -2.33426         6.84254         3.59042
|106>    H       -2.33320         8.62620         3.53554
|107>    H        0.10312         6.83629         3.00799
|108>    H       -0.18680         7.78143         4.47093
|109>    H        0.09251         8.60190         2.93221
|110>    H       -4.02442         8.38400        -4.13074
|111>    H       -2.95474         6.96790        -4.24052
|112>    H       -1.97604         9.87423        -4.25258
|113>    H       -2.12548         8.83569        -5.67350
|114>    H       -0.96998         8.42974        -4.40032
|115>    H       -4.03341        10.32402        -2.97621
|116>    H       -3.86662        10.96793         0.02173
|117>    H       -5.01243        12.35625        -3.51854
|118>    H       -4.99391        13.20151         0.72504
|119>    H       -7.12536        16.63098        -2.26721
|120>    H       -7.09821        15.77435        -6.50847
|121>    H       -8.21349        17.99318        -5.84262
|122>    H       -8.23411        18.58533        -2.83858
|123>    H       -9.15570        20.63764        -3.28950
|124>    H      -11.89282        19.28561        -8.72957
|125>    H      -12.33819        23.66916        -6.39547
|126>    H      -13.99857        24.36127        -8.01198
|127>    H      -15.35965        23.90516       -10.01279
|128>    H      -15.15833        21.75006       -11.18826
|129>    H      -13.59266        20.03238       -10.37104
|130> *
|131>
|132>                          ****END OF INPUT****

CARTESIAN COORDINATES (ANGSTROEM)
---------------------------------
  C     -0.234960    0.770360   -1.369510
  C     -1.243320    1.558790   -1.851810
  C     -1.554260    1.669790   -3.224720
  N     -1.835710    1.778140   -4.331200
  C     -2.162280    2.252660   -1.036050
  N     -2.976520    2.773920   -0.417610
  C      0.549320   -0.180340   -2.148760
  C      1.111750   -1.145090   -1.260170
  C      1.859430   -2.192440   -1.717900
  C      2.092010   -2.319370   -3.105110
  C      1.550410   -1.347450   -3.996390
  C      0.774940   -0.276690   -3.496350
  C      1.797790   -1.481820   -5.377940
  C      2.539900   -2.526370   -5.857800
  C      3.070310   -3.483840   -4.979820
  C      2.850960   -3.382750   -3.632990
  C      0.761700   -0.800950    0.127260
  O      1.016150   -1.407450    1.140050
  C      0.070470    0.523430    0.033710
  C     -0.069440    1.297560    1.128410
  C     -0.411520    2.699060    1.140680
  C      0.108270    3.605920    0.236430
  C     -0.312540    4.934440    0.215650
  F      0.295920    5.748740   -0.657520
  C     -1.281410    5.460490    1.062110
  C     -1.781450    4.568090    2.040160
  C     -1.329360    3.202220    2.092520
  N     -1.941870    2.508750    3.049230
  S     -2.987110    3.464610    3.796360
  N     -2.716540    4.809610    2.958670
  C     -1.823390    6.773610    0.807030
  N     -2.160250    7.727420    1.720800
  C     -1.870090    7.720760    3.134150
  C     -0.368160    7.735060    3.400910
  C     -2.719260    8.864150    1.093440
  O     -3.073680    9.852090    1.705870
  C     -2.734330    8.532160   -0.312940
  C     -2.156670    7.248700   -0.453420
  C     -2.226690    6.861260   -1.849590
  O     -1.898950    5.854060   -2.433010
  N     -2.829940    7.972190   -2.473600
  C     -3.023930    8.006050   -3.903890
  C     -1.955140    8.843930   -4.600760
  C     -3.143190    8.967870   -1.579810
  C     -3.784800   10.172770   -1.936120
  C     -4.111290   11.130860   -1.019770
  C     -4.770150   12.339930   -1.335770
  C     -5.161710   12.829690   -2.569150
  C     -5.799700   14.084290   -2.396630
  C     -5.787380   14.355120   -0.944000
  C     -5.168750   13.315520   -0.328830
  C     -6.320700   15.475250   -0.297160
  N     -6.750690   16.382480    0.261430
  C     -6.326750   14.897730   -3.379140
  C     -6.971140   16.153490   -3.214250
  C     -7.349540   16.638850   -4.452520
  C     -6.932730   15.666110   -5.452390
  C     -6.326260   14.622660   -4.828570
  C     -5.801330   13.495390   -5.468010
  N     -5.376630   12.579040   -6.016920
  C     -8.032640   17.833090   -4.790510
  C     -8.466930   18.753190   -3.882730
  C     -9.143780   19.968200   -4.142970
  C     -9.817370   20.423490   -5.247080
  C    -10.417870   21.747990   -5.319570
  C    -10.107250   22.830180   -4.537120
  C    -10.717010   24.095700   -4.668060
  N    -11.178370   25.145910   -4.716150
  C     -9.114160   22.866570   -3.534860
  N     -8.308820   22.997520   -2.726500
  C    -11.349950   21.764060   -6.439750
  C    -11.249110   20.519010   -7.119980
  C    -10.257510   19.662960   -6.447410
  O     -9.913110   18.560570   -6.820040
  C    -11.992380   20.237870   -8.229930
  C    -12.894070   21.209650   -8.717470
  C    -13.008930   22.456110   -8.036730
  C    -12.223100   22.718290   -6.890770
  C    -13.914760   23.417120   -8.529890
  C    -14.669610   23.161960   -9.642330
  C    -14.554790   21.934710  -10.312190
  C    -13.685720   20.979360   -9.859680
  H      2.267890   -2.916260   -1.028430
  H      0.384260    0.450260   -4.191170
  H      1.384280   -0.744830   -6.050410
  H      2.722090   -2.621560   -6.917660
  H      3.653550   -4.301430   -5.376100
  H      3.256330   -4.116580   -2.951910
  H      0.105940    0.827710    2.089690
  H      0.852910    3.300230   -0.482870
  H     -2.334260    6.842540    3.590420
  H     -2.333200    8.626200    3.535540
  H      0.103120    6.836290    3.007990
  H     -0.186800    7.781430    4.470930
  H      0.092510    8.601900    2.932210
  H     -4.024420    8.384000   -4.130740
  H     -2.954740    6.967900   -4.240520
  H     -1.976040    9.874230   -4.252580
  H     -2.125480    8.835690   -5.673500
  H     -0.969980    8.429740   -4.400320
  H     -4.033410   10.324020   -2.976210
  H     -3.866620   10.967930    0.021730
  H     -5.012430   12.356250   -3.518540
  H     -4.993910   13.201510    0.725040
  H     -7.125360   16.630980   -2.267210
  H     -7.098210   15.774350   -6.508470
  H     -8.213490   17.993180   -5.842620
  H     -8.234110   18.585330   -2.838580
  H     -9.155700   20.637640   -3.289500
  H    -11.892820   19.285610   -8.729570
  H    -12.338190   23.669160   -6.395470
  H    -13.998570   24.361270   -8.011980
  H    -15.359650   23.905160  -10.012790
  H    -15.158330   21.750060  -11.188260
  H    -13.592660   20.032380  -10.371040

 Total Charge           Charge          ....    0
 Multiplicity           Mult            ....    1
 Number of Electrons    NEL             ....  556
 Basis Dimension        Dim             .... 1317

ORBITAL ENERGIES
----------------

  NO   OCC          E(Eh)            E(eV)
   0   2.0000     -89.035790     -2422.7870
   1   2.0000     -24.798116      -674.7910
   2   2.0000     -19.222904      -523.0818
   3   2.0000     -19.219206      -522.9812
   4   2.0000     -19.198517      -522.4182
   5   2.0000     -19.190629      -522.2036
   6   2.0000     -14.457732      -393.4149
   7   2.0000     -14.454089      -393.3158
   8   2.0000     -14.451069      -393.2336
   9   2.0000     -14.448745      -393.1703
  10   2.0000     -14.419826      -392.3834
  11   2.0000     -14.419336      -392.3701
  12   2.0000     -14.412465      -392.1831
  13   2.0000     -14.412122      -392.1738
  14   2.0000     -14.410129      -392.1195
  15   2.0000     -14.410103      -392.1188
  16   2.0000     -10.387436      -282.6565
  17   2.0000     -10.379315      -282.4355
  18   2.0000     -10.374416      -282.3022
  19   2.0000     -10.373718      -282.2832
  20   2.0000     -10.370122      -282.1854
  21   2.0000     -10.351714      -281.6845
  22   2.0000     -10.348549      -281.5983
  23   2.0000     -10.346565      -281.5443
  24   2.0000     -10.345165      -281.5062
  25   2.0000     -10.342291      -281.4280
  26   2.0000     -10.340229      -281.3719
  27   2.0000     -10.338212      -281.3171
  28   2.0000     -10.337386      -281.2946
  29   2.0000     -10.328209      -281.0449
  30   2.0000     -10.324391      -280.9410
  31   2.0000     -10.324100      -280.9330
  32   2.0000     -10.322922      -280.9010
  33   2.0000     -10.322092      -280.8784
  34   2.0000     -10.321071      -280.8506
  35   2.0000     -10.318128      -280.7705
  36   2.0000     -10.317635      -280.7571
  37   2.0000     -10.316756      -280.7332
  38   2.0000     -10.315308      -280.6938
  39   2.0000     -10.314828      -280.6808
  40   2.0000     -10.314821      -280.6805
  41   2.0000     -10.312937      -280.6293
  42   2.0000     -10.312159      -280.6081
  43   2.0000     -10.310895      -280.5737
  44   2.0000     -10.310701      -280.5684
  45   2.0000     -10.310612      -280.5660
  46   2.0000     -10.310373      -280.5595
  47   2.0000     -10.307657      -280.4856
  48   2.0000     -10.306030      -280.4413
  49   2.0000     -10.305616      -280.4301
  50   2.0000     -10.303892      -280.3832
  51   2.0000     -10.303655      -280.3767
  52   2.0000     -10.303338      -280.3681
  53   2.0000     -10.302933      -280.3571
  54   2.0000     -10.302390      -280.3423
  55   2.0000     -10.301393      -280.3152
  56   2.0000     -10.301227      -280.3106
  57   2.0000     -10.301215      -280.3103
  58   2.0000     -10.300051      -280.2786
  59   2.0000     -10.297733      -280.2156
  60   2.0000     -10.296762      -280.1891
  61   2.0000     -10.296500      -280.1820
  62   2.0000     -10.296220      -280.1744
  63   2.0000     -10.296213      -280.1742
  64   2.0000     -10.295760      -280.1619
  65   2.0000     -10.295301      -280.1494
  66   2.0000     -10.293914      -280.1116
  67   2.0000     -10.291713      -280.0518
  68   2.0000     -10.291395      -280.0431
  69   2.0000     -10.291275      -280.0398
  70   2.0000     -10.291042      -280.0335
  71   2.0000     -10.290462      -280.0177
  72   2.0000     -10.287540      -279.9382
  73   2.0000     -10.285921      -279.8941
  74   2.0000     -10.285853      -279.8923
  75   2.0000     -10.285305      -279.8774
  76   2.0000     -10.284936      -279.8673
  77   2.0000     -10.284411      -279.8530
  78   2.0000     -10.268198      -279.4119
  79   2.0000     -10.265607      -279.3414
  80   2.0000     -10.262365      -279.2531
  81   2.0000     -10.260887      -279.2129
  82   2.0000      -8.127509      -221.1608
  83   2.0000      -6.098710      -165.9543
  84   2.0000      -6.090942      -165.7430
  85   2.0000      -6.089927      -165.7153
  86   2.0000      -1.314472       -35.7686
  87   2.0000      -1.138415       -30.9779
  88   2.0000      -1.138141       -30.9704
  89   2.0000      -1.136427       -30.9237
  90   2.0000      -1.133976       -30.8571
  91   2.0000      -1.129090       -30.7241
  92   2.0000      -1.068336       -29.0709
  93   2.0000      -1.058735       -28.8097
  94   2.0000      -1.024704       -27.8836
  95   2.0000      -1.017927       -27.6992
  96   2.0000      -1.016029       -27.6475
  97   2.0000      -1.003924       -27.3182
  98   2.0000      -1.001785       -27.2600
  99   2.0000      -0.999358       -27.1939
 100   2.0000      -0.996782       -27.1238
 101   2.0000      -0.992497       -27.0072
 102   2.0000      -0.990685       -26.9579
 103   2.0000      -0.987356       -26.8673
 104   2.0000      -0.984797       -26.7977
 105   2.0000      -0.983256       -26.7557
 106   2.0000      -0.975825       -26.5535
 107   2.0000      -0.970493       -26.4085
 108   2.0000      -0.932448       -25.3732
 109   2.0000      -0.930288       -25.3144
 110   2.0000      -0.929057       -25.2809
 111   2.0000      -0.918749       -25.0004
 112   2.0000      -0.915359       -24.9082
 113   2.0000      -0.913089       -24.8464
 114   2.0000      -0.894803       -24.3488
 115   2.0000      -0.891902       -24.2699
 116   2.0000      -0.887022       -24.1371
 117   2.0000      -0.879881       -23.9428
 118   2.0000      -0.875908       -23.8347
 119   2.0000      -0.872792       -23.7499
 120   2.0000      -0.870515       -23.6879
 121   2.0000      -0.860654       -23.4196
 122   2.0000      -0.859509       -23.3884
 123   2.0000      -0.849197       -23.1078
 124   2.0000      -0.834159       -22.6986
 125   2.0000      -0.832311       -22.6483
 126   2.0000      -0.827074       -22.5058
 127   2.0000      -0.820285       -22.3211
 128   2.0000      -0.817880       -22.2556
 129   2.0000      -0.809525       -22.0283
 130   2.0000      -0.790276       -21.5045
 131   2.0000      -0.781365       -21.2620
 132   2.0000      -0.768900       -20.9228
 133   2.0000      -0.765181       -20.8216
 134   2.0000      -0.760539       -20.6953
 135   2.0000      -0.760119       -20.6839
 136   2.0000      -0.755898       -20.5690
 137   2.0000      -0.734786       -19.9945
 138   2.0000      -0.729934       -19.8625
 139   2.0000      -0.723373       -19.6840
 140   2.0000      -0.719065       -19.5668
 141   2.0000      -0.712707       -19.3937
 142   2.0000      -0.711218       -19.3532
 143   2.0000      -0.707529       -19.2528
 144   2.0000      -0.703283       -19.1373
 145   2.0000      -0.701944       -19.1009
 146   2.0000      -0.697895       -18.9907
 147   2.0000      -0.689573       -18.7642
 148   2.0000      -0.684702       -18.6317
 149   2.0000      -0.682480       -18.5712
 150   2.0000      -0.677386       -18.4326
 151   2.0000      -0.674949       -18.3663
 152   2.0000      -0.668298       -18.1853
 153   2.0000      -0.653898       -17.7935
 154   2.0000      -0.649404       -17.6712
 155   2.0000      -0.645297       -17.5594
 156   2.0000      -0.642935       -17.4951
 157   2.0000      -0.639145       -17.3920
 158   2.0000      -0.637130       -17.3372
 159   2.0000      -0.631881       -17.1943
 160   2.0000      -0.621608       -16.9148
 161   2.0000      -0.616243       -16.7688
 162   2.0000      -0.613852       -16.7038
 163   2.0000      -0.609385       -16.5822
 164   2.0000      -0.607456       -16.5297
 165   2.0000      -0.605546       -16.4777
 166   2.0000      -0.601004       -16.3542
 167   2.0000      -0.598666       -16.2905
 168   2.0000      -0.594129       -16.1671
 169   2.0000      -0.590359       -16.0645
 170   2.0000      -0.581133       -15.8134
 171   2.0000      -0.576524       -15.6880
 172   2.0000      -0.572662       -15.5829
 173   2.0000      -0.570705       -15.5297
 174   2.0000      -0.563800       -15.3418
 175   2.0000      -0.558536       -15.1985
 176   2.0000      -0.557667       -15.1749
 177   2.0000      -0.553708       -15.0672
 178   2.0000      -0.551580       -15.0093
 179   2.0000      -0.550501       -14.9799
 180   2.0000      -0.548067       -14.9137
 181   2.0000      -0.545753       -14.8507
 182   2.0000      -0.544684       -14.8216
 183   2.0000      -0.542502       -14.7622
 184   2.0000      -0.541271       -14.7287
 185   2.0000      -0.535541       -14.5728
 186   2.0000      -0.535101       -14.5608
 187   2.0000      -0.533314       -14.5122
 188   2.0000      -0.530635       -14.4393
 189   2.0000      -0.528072       -14.3696
 190   2.0000      -0.525095       -14.2886
 191   2.0000      -0.524066       -14.2606
 192   2.0000      -0.523131       -14.2351
 193   2.0000      -0.522768       -14.2252
 194   2.0000      -0.520757       -14.1705
 195   2.0000      -0.519525       -14.1370
 196   2.0000      -0.517689       -14.0870
 197   2.0000      -0.513991       -13.9864
 198   2.0000      -0.512185       -13.9373
 199   2.0000      -0.511699       -13.9240
 200   2.0000      -0.510528       -13.8922
 201   2.0000      -0.506645       -13.7865
 202   2.0000      -0.505655       -13.7596
 203   2.0000      -0.503374       -13.6975
 204   2.0000      -0.501948       -13.6587
 205   2.0000      -0.497036       -13.5250
 206   2.0000      -0.495548       -13.4845
 207   2.0000      -0.494584       -13.4583
 208   2.0000      -0.491644       -13.3783
 209   2.0000      -0.490844       -13.3565
 210   2.0000      -0.486955       -13.2507
 211   2.0000      -0.483303       -13.1513
 212   2.0000      -0.481728       -13.1085
 213   2.0000      -0.479919       -13.0593
 214   2.0000      -0.476506       -12.9664
 215   2.0000      -0.474962       -12.9244
 216   2.0000      -0.473356       -12.8807
 217   2.0000      -0.470456       -12.8017
 218   2.0000      -0.469374       -12.7723
 219   2.0000      -0.463826       -12.6214
 220   2.0000      -0.462687       -12.5904
 221   2.0000      -0.459144       -12.4939
 222   2.0000      -0.456615       -12.4251
 223   2.0000      -0.453928       -12.3520
 224   2.0000      -0.453708       -12.3460
 225   2.0000      -0.450592       -12.2612
 226   2.0000      -0.448940       -12.2163
 227   2.0000      -0.448115       -12.1938
 228   2.0000      -0.445369       -12.1191
 229   2.0000      -0.444953       -12.1078
 230   2.0000      -0.444402       -12.0928
 231   2.0000      -0.443603       -12.0711
 232   2.0000      -0.441543       -12.0150
 233   2.0000      -0.440972       -11.9995
 234   2.0000      -0.439268       -11.9531
 235   2.0000      -0.438800       -11.9403
 236   2.0000      -0.438005       -11.9187
 237   2.0000      -0.436079       -11.8663
 238   2.0000      -0.435272       -11.8444
 239   2.0000      -0.431860       -11.7515
 240   2.0000      -0.431044       -11.7293
 241   2.0000      -0.430991       -11.7279
 242   2.0000      -0.430544       -11.7157
 243   2.0000      -0.427335       -11.6284
 244   2.0000      -0.424481       -11.5507
 245   2.0000      -0.422059       -11.4848
 246   2.0000      -0.421359       -11.4658
 247   2.0000      -0.418008       -11.3746
 248   2.0000      -0.416782       -11.3412
 249   2.0000      -0.415260       -11.2998
 250   2.0000      -0.414547       -11.2804
 251   2.0000      -0.410007       -11.1569
 252   2.0000      -0.403944       -10.9919
 253   2.0000      -0.400726       -10.9043
 254   2.0000      -0.398391       -10.8408
 255   2.0000      -0.398016       -10.8306
 256   2.0000      -0.389650       -10.6029
 257   2.0000      -0.381743       -10.3878
 258   2.0000      -0.377577       -10.2744
 259   2.0000      -0.375949       -10.2301
 260   2.0000      -0.367185        -9.9916
 261   2.0000      -0.359343        -9.7782
 262   2.0000      -0.351135        -9.5549
 263   2.0000      -0.343176        -9.3383
 264   2.0000      -0.342360        -9.3161
 265   2.0000      -0.339783        -9.2460
 266   2.0000      -0.336119        -9.1463
 267   2.0000      -0.334624        -9.1056
 268   2.0000      -0.324153        -8.8206
 269   2.0000      -0.322631        -8.7792
 270   2.0000      -0.317638        -8.6434
 271   2.0000      -0.315563        -8.5869
 272   2.0000      -0.310345        -8.4449
 273   2.0000      -0.302795        -8.2395
 274   2.0000      -0.298590        -8.1250
 275   2.0000      -0.294314        -8.0087
 276   2.0000      -0.277104        -7.5404
 277   2.0000      -0.240743        -6.5509
 278   0.0000      -0.139532        -3.7969
 279   0.0000      -0.104981        -2.8567
 280   0.0000      -0.085672        -2.3313
 281   0.0000      -0.072739        -1.9793
 282   0.0000      -0.058915        -1.6032

MULLIKEN ATOMIC CHARGES
-----------------------
   0 C :    0.255890
   1 C :   -0.329995
   2 C :   -0.173418
   3 N :    0.159880
   4 C :   -0.150272
   5 N :    0.164040
   6 C :    0.039285
   7 C :    0.006572
   8 C :   -0.077527
   9 C :    0.093436
  10 C :    0.092780
  11 C :   -0.077172
  12 C :   -0.016789
  13 C :    0.036074
  14 C :    0.036581
  15 C :   -0.013141
  16 C :    0.140196
  17 O :   -0.131679
  18 C :   -0.116888
  19 C :    0.035232
  20 C :    0.009763
  21 C :   -0.094913
  22 C :    0.264598
  23 F :   -0.160098
  24 C :   -0.057423
  25 C :    0.060889
  26 C :    0.047123
  27 N :   -0.255787
  28 S :    0.531640
  29 N :   -0.280858
  30 C :    0.078586
  31 N :   -0.244009
  32 C :    0.112915
  33 C :   -0.008192
  34 C :    0.173335
  35 O :   -0.203923
  36 C :   -0.082606
  37 C :   -0.033924
  38 C :    0.139214
  39 O :   -0.182653
  40 N :   -0.266999
  41 C :    0.096755
  42 C :    0.005323
  43 C :    0.157346
  44 C :   -0.010775
  45 C :    0.002754
  46 C :    0.117523
  47 C :   -0.129482
  48 C :    0.128499
  49 C :   -0.096593
  50 C :    0.007393
  51 C :   -0.170557
  52 N :    0.134924
  53 C :    0.108681
  54 C :   -0.101952
  55 C :    0.089494
  56 C :    0.004533
  57 C :   -0.102522
  58 C :   -0.163792
  59 N :    0.121075
  60 C :    0.048238
  61 C :    0.001785
  62 C :   -0.002823
  63 C :   -0.073388
  64 C :    0.299047
  65 C :   -0.343585
  66 C :   -0.182847
  67 N :    0.148285
  68 C :   -0.209455
  69 N :    0.167569
  70 C :    0.049039
  71 C :    0.001070
  72 C :    0.156234
  73 O :   -0.158797
  74 C :   -0.081638
  75 C :    0.098086
  76 C :    0.094830
  77 C :   -0.081037
  78 C :   -0.016743
  79 C :    0.034958
  80 C :    0.036657
  81 C :   -0.015784
  82 H :   -0.009160
  83 H :   -0.002501
  84 H :   -0.008335
  85 H :   -0.001805
  86 H :   -0.003113
  87 H :   -0.015115
  88 H :    0.040304
  89 H :    0.004681
  90 H :    0.035021
  91 H :    0.038122
  92 H :    0.018378
  93 H :    0.023454
  94 H :    0.022624
  95 H :    0.029426
  96 H :    0.047970
  97 H :    0.015184
  98 H :    0.031317
  99 H :    0.027027
 100 H :   -0.011147
 101 H :    0.005642
 102 H :    0.001245
 103 H :    0.013916
 104 H :    0.009088
 105 H :    0.006130
 106 H :    0.014835
 107 H :    0.009622
 108 H :    0.029344
 109 H :   -0.014586
 110 H :   -0.007894
 111 H :   -0.009660
 112 H :   -0.004533
 113 H :   -0.005313
 114 H :   -0.018258
Sum of atomic charges:   -0.0000000

LOEWDIN ATOMIC CHARGES
----------------------
   0 C :    0.063264
   1 C :   -0.121757
   2 C :   -0.014994
   3 N :   -0.041053
   4 C :   -0.009357
   5 N :   -0.045380
   6 C :   -0.024187
   7 C :   -0.059597
   8 C :    0.035376
   9 C :   -0.008306
  10 C :   -0.004362
  11 C :    0.018889
  12 C :   -0.005198
  13 C :   -0.010681
  14 C :   -0.010874
  15 C :   -0.008352
  16 C :    0.084679
  17 O :   -0.132252
  18 C :   -0.067462
  19 C :    0.078387
  20 C :   -0.023782
  21 C :   -0.016209
  22 C :    0.115188
  23 F :   -0.037393
  24 C :   -0.067436
  25 C :   -0.028030
  26 C :   -0.044613
  27 N :   -0.274391
  28 S :    0.663188
  29 N :   -0.279240
  30 C :    0.081712
  31 N :    0.014948
  32 C :    0.030461
  33 C :   -0.062062
  34 C :    0.084414
  35 O :   -0.191791
  36 C :   -0.113622
  37 C :   -0.108743
  38 C :    0.081115
  39 O :   -0.185630
  40 N :   -0.002059
  41 C :    0.036948
  42 C :   -0.059894
  43 C :    0.077648
  44 C :   -0.013218
  45 C :    0.021808
  46 C :   -0.011165
  47 C :   -0.026687
  48 C :    0.047891
  49 C :   -0.081679
  50 C :    0.064727
  51 C :   -0.030299
  52 N :   -0.061364
  53 C :    0.030172
  54 C :   -0.000347
  55 C :   -0.027583
  56 C :    0.058137
  57 C :   -0.087843
  58 C :   -0.027041
  59 N :   -0.072061
  60 C :    0.045930
  61 C :   -0.026549
  62 C :    0.064792
  63 C :   -0.084440
  64 C :    0.074583
  65 C :   -0.137054
  66 C :   -0.016483
  67 N :   -0.053341
  68 C :   -0.028079
  69 N :   -0.046959
  70 C :   -0.025989
  71 C :   -0.055394
  72 C :    0.086312
  73 O :   -0.143705
  74 C :    0.031695
  75 C :   -0.008593
  76 C :   -0.005929
  77 C :    0.019146
  78 C :   -0.005153
  79 C :   -0.013390
  80 C :   -0.012447
  81 C :   -0.009815
  82 H :    0.040441
  83 H :    0.039892
  84 H :    0.035303
  85 H :    0.034257
  86 H :    0.033676
  87 H :    0.032720
  88 H :    0.053893
  89 H :    0.046124
  90 H :    0.019259
  91 H :    0.033716
  92 H :    0.020695
  93 H :    0.031241
  94 H :    0.028102
  95 H :    0.025211
  96 H :    0.039951
  97 H :    0.022020
  98 H :    0.034098
  99 H :    0.031275
 100 H :    0.035728
 101 H :    0.038332
 102 H :    0.031730
 103 H :    0.043651
 104 H :    0.034742
 105 H :    0.040420
 106 H :    0.034463
 107 H :    0.039550
 108 H :    0.049910
 109 H :    0.038205
 110 H :    0.038952
 111 H :    0.034732
 112 H :    0.033281
 113 H :    0.032723
 114 H :    0.031618

  Mayer bond orders larger than 0.100000
B(  0-C ,  1-C ) :   1.6852 B(  0-C ,  6-C ) :   1.0060 B(  0-C , 18-C ) :   0.9973
B(  1-C ,  2-C ) :   1.1353 B(  1-C ,  4-C ) :   1.1629 B(  2-C ,  3-N ) :   2.9885
B(  4-C ,  5-N ) :   2.9713 B(  6-C ,  7-C ) :   1.2130 B(  6-C , 11-C ) :   1.4537
B(  7-C ,  8-C ) :   1.4700 B(  7-C , 16-C ) :   0.9210 B(  8-C ,  9-C ) :   1.1904
B(  8-C , 82-H ) :   1.0154 B(  9-C , 10-C ) :   1.2521 B(  9-C , 15-C ) :   1.2432
B( 10-C , 11-C ) :   1.2102 B( 10-C , 12-C ) :   1.2392 B( 11-C , 83-H ) :   0.9932
B( 12-C , 13-C ) :   1.4927 B( 12-C , 84-H ) :   0.9973 B( 13-C , 14-C ) :   1.2584
B( 13-C , 85-H ) :   0.9888 B( 14-C , 15-C ) :   1.4915 B( 14-C , 86-H ) :   0.9884
B( 15-C , 87-H ) :   0.9974 B( 16-C , 17-O ) :   2.2879 B( 16-C , 18-C ) :   0.9202
B( 18-C , 19-C ) :   1.7664 B( 19-C , 20-C ) :   1.0075 B( 19-C , 88-H ) :   0.9463
B( 20-C , 21-C ) :   1.4146 B( 20-C , 24-C ) :   0.1234 B( 20-C , 26-C ) :   1.2021
B( 21-C , 22-C ) :   1.1813 B( 21-C , 89-H ) :   1.0177 B( 22-C , 23-F ) :   1.1453
B( 22-C , 24-C ) :   1.4327 B( 24-C , 25-C ) :   1.1962 B( 24-C , 30-C ) :   0.9747
B( 25-C , 26-C ) :   1.1615 B( 25-C , 29-N ) :   1.5240 B( 26-C , 27-N ) :   1.5752
B( 27-N , 28-S ) :   1.2806 B( 27-N , 29-N ) :   0.1449 B( 28-S , 29-N ) :   1.2517
B( 30-C , 31-N ) :   1.2364 B( 30-C , 37-C ) :   1.4345 B( 31-N , 32-C ) :   0.9405
B( 31-N , 34-C ) :   1.0452 B( 32-C , 33-C ) :   1.1152 B( 32-C , 90-H ) :   0.9279
B( 32-C , 91-H ) :   0.9280 B( 33-C , 92-H ) :   0.9672 B( 33-C , 93-H ) :   0.9676
B( 33-C , 94-H ) :   0.9660 B( 34-C , 35-O ) :   2.0212 B( 34-C , 36-C ) :   0.9923
B( 35-O ,101-H ) :   0.1130 B( 36-C , 37-C ) :   1.2505 B( 36-C , 43-C ) :   1.3207
B( 37-C , 38-C ) :   0.9547 B( 38-C , 39-O ) :   2.1475 B( 38-C , 40-N ) :   1.0342
B( 40-N , 41-C ) :   0.9407 B( 40-N , 43-C ) :   1.1664 B( 41-C , 42-C ) :   1.1210
B( 41-C , 95-H ) :   0.9500 B( 41-C , 96-H ) :   0.9267 B( 42-C , 97-H ) :   0.9684
B( 42-C , 98-H ) :   0.9679 B( 42-C , 99-H ) :   0.9637 B( 43-C , 44-C ) :   1.1676
B( 44-C , 45-C ) :   1.5552 B( 44-C ,100-H ) :   0.9688 B( 45-C , 46-C ) :   1.1255
B( 45-C ,101-H ) :   0.9556 B( 46-C , 47-C ) :   1.5062 B( 46-C , 50-C ) :   1.0258
B( 47-C , 48-C ) :   1.1525 B( 47-C ,102-H ) :   0.9956 B( 48-C , 49-C ) :   1.0971
B( 48-C , 53-C ) :   1.3809 B( 49-C , 50-C ) :   1.6713 B( 49-C , 51-C ) :   1.0866
B( 50-C ,103-H ) :   1.0282 B( 51-C , 52-N ) :   2.9678 B( 53-C , 54-C ) :   1.1428
B( 53-C , 57-C ) :   1.1118 B( 54-C , 55-C ) :   1.5088 B( 54-C ,104-H ) :   0.9951
B( 55-C , 56-C ) :   1.0429 B( 55-C , 60-C ) :   1.1323 B( 56-C , 57-C ) :   1.6524
B( 56-C ,105-H ) :   1.0259 B( 57-C , 58-C ) :   1.0897 B( 58-C , 59-N ) :   2.9594
B( 60-C , 61-C ) :   1.6056 B( 60-C ,106-H ) :   0.9485 B( 61-C , 62-C ) :   1.2246
B( 61-C ,107-H ) :   0.9623 B( 62-C , 63-C ) :   1.5686 B( 62-C ,108-H ) :   0.9419
B( 63-C , 64-C ) :   1.0680 B( 63-C , 72-C ) :   0.9385 B( 64-C , 65-C ) :   1.6340
B( 64-C , 70-C ) :   0.9876 B( 65-C , 66-C ) :   1.1480 B( 65-C , 68-C ) :   1.1354
B( 66-C , 67-N ) :   2.9664 B( 68-C , 69-N ) :   3.0028 B( 70-C , 71-C ) :   1.2132
B( 70-C , 77-C ) :   1.4518 B( 71-C , 72-C ) :   0.9578 B( 71-C , 74-C ) :   1.4684
B( 72-C , 73-O ) :   2.1703 B( 74-C , 75-C ) :   1.1809 B( 74-C ,109-H ) :   1.0163
B( 75-C , 76-C ) :   1.2546 B( 75-C , 81-C ) :   1.2424 B( 76-C , 77-C ) :   1.2043
B( 76-C , 78-C ) :   1.2429 B( 77-C ,110-H ) :   0.9904 B( 78-C , 79-C ) :   1.4875
B( 78-C ,111-H ) :   0.9971 B( 79-C , 80-C ) :   1.2589 B( 79-C ,112-H ) :   0.9891
B( 80-C , 81-C ) :   1.4893 B( 80-C ,113-H ) :   0.9892 B( 81-C ,114-H ) :   0.9978

-----------------------------------------------------------------------------
         ABSORPTION SPECTRUM VIA TRANSITION ELECTRIC DIPOLE MOMENTS
-----------------------------------------------------------------------------
State   Energy  Wavelength   fosc         T2         TX        TY        TZ
        (cm-1)    (nm)                  (au**2)     (au)      (au)      (au)
-----------------------------------------------------------------------------
   0    8482.5   1178.9   0.790371517  30.67480  -2.46828   4.43321  -2.22015
   1   14529.1    688.3   0.089999037   2.03927  -0.77221   0.91520  -0.77804
   2   14799.9    675.7   0.150253889   3.34228   0.60782  -1.70285   0.27046
   3   17269.9    579.0   0.005661687   0.10793  -0.18383   0.21980  -0.16068
   4   21333.8    468.7   0.301817893   4.65748   0.91807  -1.86300   0.58640
   5   21672.0    461.4   0.078351080   1.19021  -0.02458  -0.26458  -1.05811
   6   22708.1    440.4   0.623715833   9.04235   1.60955  -2.35133   0.96069
   7   22914.8    436.4   0.100333786   1.44147   0.52730  -1.06454   0.17372
   8   23550.4    424.6   0.031638804   0.44228  -0.27770   0.36991  -0.47784
   9   24135.3    414.3   0.083829190   1.14345  -0.21462   1.04291   0.09867
  10   24791.1    403.4   0.101637902   1.34969   0.81478  -0.49075   0.66708
  11   25159.7    397.5   0.177475365   2.32224   0.78059  -1.15249   0.62023
  12   25643.3    390.0   0.017983989   0.23088   0.11651  -0.28059  -0.37226
  13   26209.5    381.5   0.147608967   1.85409  -0.14860   0.70470   1.15560
  14   26271.9    380.6   0.078950905   0.98933  -0.65320   0.74490   0.08823
  15   27101.8    369.0   0.069418700   0.84324  -0.19808   0.86483   0.23679
  16   27330.7    365.9   0.037043591   0.44621  -0.25898   0.12179  -0.60358
  17   27679.4    361.3   0.049890145   0.59338   0.40875  -0.62118  -0.20109
  18   27979.9    357.4   0.030457286   0.35836  -0.31046   0.50960   0.04777
  19   28441.3    351.6   0.038431006   0.44484   0.19540  -0.07668   0.63308
  20   28841.6    346.7   0.007597770   0.08672   0.22587  -0.09057   0.16585
  21   29015.7    344.6   0.002192001   0.02487  -0.01614  -0.01159   0.15645
  22   29156.9    343.0   0.123848997   1.39838   0.05557   0.82067   0.84959
  23   29390.9    340.2   0.083693642   0.93747  -0.66549   0.56575   0.41775
  24   29664.0    337.1   0.036115895   0.40082  -0.39911   0.10938  -0.47913
  25   29773.8    335.9   0.010797024   0.11938   0.24794  -0.03671  -0.23783
  26   30133.4    331.9   0.277152896   3.02794  -1.28760   0.40086  -1.09969
  27   31601.4    316.4   0.097601807   1.01678   0.84333  -0.09898  -0.54386
  28   31724.4    315.2   0.000345128   0.00358   0.00073  -0.05948  -0.00653
  29   32198.4    310.6   0.098190647   1.00395   0.48534  -0.87325   0.07636
  30   32262.0    310.0   0.031453845   0.32097   0.12441  -0.55227   0.02197
  31   32497.6    307.7   0.019618021   0.19874   0.08665   0.43356  -0.05701
  32   32970.7    303.3   0.264256189   2.63860  -0.85074   1.23388   0.62640
  33   33385.4    299.5   0.014475516   0.14274  -0.06501  -0.29165  -0.23121
  34   33622.8    297.4   0.467139283   4.57391   1.09643  -1.64552  -0.81487
  35   33705.0    296.7   0.278539008   2.72062  -1.21475   1.00944   0.47542
  36   33805.0    295.8   0.106554031   1.03768  -0.68590   0.14927  -0.73820
  37   34513.7    289.7   0.007330689   0.06992  -0.12603  -0.23233  -0.00797
  38   34576.2    289.2   0.017311212   0.16483   0.01268  -0.05670  -0.40181
  39   34768.7    287.6   0.020838723   0.19731   0.33391  -0.15872   0.24623
  40   34985.3    285.8   0.100281944   0.94365   0.33030  -0.60967  -0.68034
  41   35000.9    285.7   0.006097269   0.05735   0.11698  -0.11492  -0.17453
  42   35186.9    284.2   0.004152991   0.03886   0.07947   0.06885   0.16673
  43   35204.5    284.1   0.374320028   3.50042   1.29827   0.19476   1.33304
  44   35464.4    282.0   0.104745275   0.97234  -0.28041  -0.65510  -0.68158
  45   35596.1    280.9   0.036237388   0.33514  -0.13012   0.53896  -0.16654
  46   35741.5    279.8   0.199568482   1.83821   0.29691   0.35147   1.27535
  47   36010.2    277.7   0.034792710   0.31808  -0.09242   0.51971   0.19859
  48   36401.9    274.7   0.022123550   0.20008   0.24631  -0.37230  -0.02838
  49   36605.8    273.2   0.015370627   0.13823   0.25754  -0.22796   0.14122
  50   36626.2    273.0   0.018280461   0.16431   0.22812  -0.24487   0.22872
  51   36680.7    272.6   0.000716893   0.00643  -0.05797   0.04616   0.03070
  52   37105.5    269.5   0.072828016   0.64615  -0.15187  -0.70069  -0.36349
  53   37560.8    266.2   0.009140094   0.08011  -0.15585  -0.05814   0.22900
  54   37599.4    266.0   0.073524002   0.64376   0.29808  -0.48554  -0.56494
  55   37772.6    264.7   0.012847441   0.11197  -0.16896   0.28274  -0.05900
  56   37902.1    263.8   0.080305067   0.69752   0.13154  -0.71683  -0.40789
  57   38082.4    262.6   0.044046617   0.38077  -0.25523   0.52869   0.19004
  58   38252.4    261.4   0.010944020   0.09419   0.28617   0.09124   0.06299
  59   38390.0    260.5   0.002175112   0.01865   0.02310  -0.13244  -0.02407
  60   38685.3    258.5   0.149524754   1.27246   0.35433  -1.03679  -0.26828
  61   38908.2    257.0   0.041539770   0.35148   0.03508  -0.45643  -0.37672
  62   39217.6    255.0   0.103372079   0.86776   0.44463  -0.67109   0.46872
  63   39359.7    254.1   0.087318624   0.73035   0.38766  -0.27792   0.70910
  64   39732.4    251.7   0.112829396   0.93487   0.30709  -0.74844  -0.52954
  65   40165.7    249.0   0.104890699   0.85972   0.01013  -0.90564  -0.19859
  66   40211.4    248.7   0.020840361   0.17062  -0.24352   0.03482  -0.33182
  67   40320.8    248.0   0.099612254   0.81332  -0.38162   0.11900  -0.80841

FINAL SINGLE POINT ENERGY     -3876.675980806383

DIPOLE MOMENT
-------------
                                X             Y             Z
Electronic contribution:      1.13388     -15.18029      26.57046
Nuclear contribution   :      0.21139      11.46270     -28.17050
                        -----------------------------------------
Total Dipole Moment    :      1.34527      -3.71759      -1.60003
                        -----------------------------------------
Magnitude (a.u.)       :      4.26501
Magnitude (Debye)      :     10.84080

Rotational constants in cm-1:     0.001763     0.000160     0.000150
Rotational constants in MHz :    52.867840     4.782428     4.490099

                             ****ORCA TERMINATED NORMALLY****
TOTAL RUN TIME: 0 days 0 hours 21 minutes 35 seconds 817 msec
