                         Program Version 4.2.0 -  RELEASE  -
|  1> # ORCA input file
|  2> # SCF done       -193.827260932602          0.000228646267
|  3> ! CAM-B3LYP def2-SVP def2/J RIJCOSX Grid4 TightSCF
|  4> %maxcore 5000
|  5> %tddft
|  6>     Mode sTDDFT
|  7>     Ethresh 5.0
|  8>     maxcore 5000
|  9> end
| 10>
| 11> %pal
| 12>   nprocs 6
| 13>   end
| 14> * xyz 0 1
| 15>    C        3.27976         7.87985        -5.52825
| 16>    C        4.07880         7.40011        -4.52365
| 17>    C        5.47927         7.26453        -4.63077
| 18>    N        6.61951         7.13351        -4.65250
| 19>    C        3.62989         6.92303        -3.27368
| 20>    N        3.34358         6.49371        -2.24762
| 21>    C        3.73501         8.25025        -6.86170
| 22>    C        2.59181         8.48489        -7.67589
| 23>    C        2.70003         8.83983        -8.98962
| 24>    C        3.98467         8.98696        -9.55846
| 25>    C        5.13507         8.76354        -8.74778
| 26>    C        4.99041         8.39181        -7.39137
| 27>    C        6.41205         8.91936        -9.32438
| 28>    C        6.54814         9.27731       -10.63805
| 29>    C        5.41478         9.49629       -11.43533
| 30>    C        4.16032         9.35369       -10.90718
| 31>    C        1.36769         8.29123        -6.88092
| 32>    O        0.23107         8.36922        -7.29824
| 33>    C        1.83015         8.01568        -5.49596
| 34>    C        1.10290         8.03504        -4.33965
| 35>    C       -0.29023         8.11945        -4.12114
| 36>    S       -0.81342         8.35995        -2.46053
| 37>    C       -2.47667         8.32256        -2.91844
| 38>    C       -2.60157         8.11506        -4.30113
| 39>    C       -1.37818         8.00406        -4.96664
| 40>    C       -3.85569         8.03071        -4.93028
| 41>    N       -4.88951         7.96203        -5.42264
| 42>    C       -3.55170         8.48962        -2.01629
| 43>    C       -3.41549         8.74269        -0.68995
| 44>    C       -4.50543         8.92948         0.18912
| 45>    S       -6.14884         8.75668        -0.40384
| 46>    C       -6.79745         9.09488         1.16046
| 47>    N       -8.13034         9.18031         1.32717
| 48>    C       -9.03239         9.08929         0.20755
| 49>    C       -5.79934         9.31178         2.12521
| 50>    C       -4.49691         9.23415         1.54035
| 51>    C       -3.20958         9.44062         2.25086
| 52>    O       -2.19338         9.78899         1.69754
| 53>    O       -3.29710         9.19653         3.55763
| 54>    C       -2.12526         9.38464         4.35007
| 55>    C       -6.04329         9.62003         3.49366
| 56>    C       -7.15385         9.34803         4.23041
| 57>    C       -7.26887         9.71144         5.59638
| 58>    C       -6.33262        10.30777         6.41714
| 59>    C       -6.88841        10.50554         7.70220
| 60>    C       -8.27432         9.98709         7.63840
| 61>    C       -8.47594         9.50044         6.38892
| 62>    C       -9.20684         9.93477         8.68069
| 63>    N      -10.00304         9.85073         9.50437
| 64>    C       -6.27524        11.06612         8.80209
| 65>    C       -6.88549        11.43878        10.03271
| 66>    C       -5.93509        12.01859        10.84912
| 67>    C       -4.66019        11.96656        10.15195
| 68>    C       -4.85503        11.42970         8.91629
| 69>    C       -3.86553        11.20867         7.95567
| 70>    N       -3.04144        11.02354         7.17485
| 71>    C       -6.06227        12.54009        12.16201
| 72>    C       -7.18277        13.03789        12.76094
| 73>    C       -7.27804        13.45117        14.15002
| 74>    C       -6.40128        13.13154        15.15487
| 75>    C       -6.55522        13.53977        16.49617
| 76>    N       -6.61675        13.84656        17.60085
| 77>    C       -5.24559        12.33649        15.00634
| 78>    N       -4.29858        11.68743        14.97260
| 79>    C       -8.51857        14.19800        14.31390
| 80>    C       -9.20832        14.20539        13.06899
| 81>    C       -8.42562        13.46976        12.06049
| 82>    O       -8.71595        13.32957        10.89304
| 83>    C      -10.41329        14.82743        12.91365
| 84>    C      -10.99687        15.48294        14.02058
| 85>    C      -10.31008        15.48682        15.26901
| 86>    C       -9.06209        14.83519        15.39823
| 87>    C      -10.89932        16.14890        16.36540
| 88>    C      -12.10900        16.77541        16.23732
| 89>    C      -12.78484        16.76969        15.00793
| 90>    C      -12.24083        16.13678        13.92338
| 91>    H        1.81583         9.00825        -9.58637
| 92>    H        5.88051         8.23614        -6.80285
| 93>    H        7.28168         8.74809        -8.70707
| 94>    H        7.53061         9.39367       -11.07042
| 95>    H        5.54063         9.77880       -12.46984
| 96>    H        3.28383         9.52103       -11.51597
| 97>    H        1.67208         8.00740        -3.41713
| 98>    H       -1.28655         7.85168        -6.02656
| 99>    H       -4.54202         8.41817        -2.45325
|100>    H       -2.43004         8.84447        -0.25586
|101>    H       -8.44663         9.70212         2.13257
|102>    H       -8.90032         9.92110        -0.49231
|103>    H      -10.05545         9.08845         0.57437
|104>    H       -8.84659         8.15917        -0.33109
|105>    H       -1.40438         9.99983         3.81009
|106>    H       -1.68659         8.41011         4.56732
|107>    H       -2.43045         9.87158         5.27618
|108>    H       -5.22098        10.09420         4.00559
|109>    H       -7.98034         8.78373         3.81976
|110>    H       -5.33781        10.59383         6.14343
|111>    H       -9.37410         9.03658         6.02250
|112>    H       -7.91913        11.28627        10.26648
|113>    H       -3.72876        12.31832        10.55690
|114>    H       -5.13595        12.56459        12.72541
|115>    H      -10.91607        14.81513        11.95802
|116>    H       -8.56448        14.86210        16.35462
|117>    H      -10.37610        16.14926        17.31039
|118>    H      -12.55240        17.27888        17.08333
|119>    H      -13.73843        17.26939        14.92466
|120>    H      -12.75628        16.12852        12.97409
|121> *
|122>
|123>                          ****END OF INPUT****

CARTESIAN COORDINATES (ANGSTROEM)
---------------------------------
  C      3.279760    7.879850   -5.528250
  C      4.078800    7.400110   -4.523650
  C      5.479270    7.264530   -4.630770
  N      6.619510    7.133510   -4.652500
  C      3.629890    6.923030   -3.273680
  N      3.343580    6.493710   -2.247620
  C      3.735010    8.250250   -6.861700
  C      2.591810    8.484890   -7.675890
  C      2.700030    8.839830   -8.989620
  C      3.984670    8.986960   -9.558460
  C      5.135070    8.763540   -8.747780
  C      4.990410    8.391810   -7.391370
  C      6.412050    8.919360   -9.324380
  C      6.548140    9.277310  -10.638050
  C      5.414780    9.496290  -11.435330
  C      4.160320    9.353690  -10.907180
  C      1.367690    8.291230   -6.880920
  O      0.231070    8.369220   -7.298240
  C      1.830150    8.015680   -5.495960
  C      1.102900    8.035040   -4.339650
  C     -0.290230    8.119450   -4.121140
  S     -0.813420    8.359950   -2.460530
  C     -2.476670    8.322560   -2.918440
  C     -2.601570    8.115060   -4.301130
  C     -1.378180    8.004060   -4.966640
  C     -3.855690    8.030710   -4.930280
  N     -4.889510    7.962030   -5.422640
  C     -3.551700    8.489620   -2.016290
  C     -3.415490    8.742690   -0.689950
  C     -4.505430    8.929480    0.189120
  S     -6.148840    8.756680   -0.403840
  C     -6.797450    9.094880    1.160460
  N     -8.130340    9.180310    1.327170
  C     -9.032390    9.089290    0.207550
  C     -5.799340    9.311780    2.125210
  C     -4.496910    9.234150    1.540350
  C     -3.209580    9.440620    2.250860
  O     -2.193380    9.788990    1.697540
  O     -3.297100    9.196530    3.557630
  C     -2.125260    9.384640    4.350070
  C     -6.043290    9.620030    3.493660
  C     -7.153850    9.348030    4.230410
  C     -7.268870    9.711440    5.596380
  C     -6.332620   10.307770    6.417140
  C     -6.888410   10.505540    7.702200
  C     -8.274320    9.987090    7.638400
  C     -8.475940    9.500440    6.388920
  C     -9.206840    9.934770    8.680690
  N    -10.003040    9.850730    9.504370
  C     -6.275240   11.066120    8.802090
  C     -6.885490   11.438780   10.032710
  C     -5.935090   12.018590   10.849120
  C     -4.660190   11.966560   10.151950
  C     -4.855030   11.429700    8.916290
  C     -3.865530   11.208670    7.955670
  N     -3.041440   11.023540    7.174850
  C     -6.062270   12.540090   12.162010
  C     -7.182770   13.037890   12.760940
  C     -7.278040   13.451170   14.150020
  C     -6.401280   13.131540   15.154870
  C     -6.555220   13.539770   16.496170
  N     -6.616750   13.846560   17.600850
  C     -5.245590   12.336490   15.006340
  N     -4.298580   11.687430   14.972600
  C     -8.518570   14.198000   14.313900
  C     -9.208320   14.205390   13.068990
  C     -8.425620   13.469760   12.060490
  O     -8.715950   13.329570   10.893040
  C    -10.413290   14.827430   12.913650
  C    -10.996870   15.482940   14.020580
  C    -10.310080   15.486820   15.269010
  C     -9.062090   14.835190   15.398230
  C    -10.899320   16.148900   16.365400
  C    -12.109000   16.775410   16.237320
  C    -12.784840   16.769690   15.007930
  C    -12.240830   16.136780   13.923380
  H      1.815830    9.008250   -9.586370
  H      5.880510    8.236140   -6.802850
  H      7.281680    8.748090   -8.707070
  H      7.530610    9.393670  -11.070420
  H      5.540630    9.778800  -12.469840
  H      3.283830    9.521030  -11.515970
  H      1.672080    8.007400   -3.417130
  H     -1.286550    7.851680   -6.026560
  H     -4.542020    8.418170   -2.453250
  H     -2.430040    8.844470   -0.255860
  H     -8.446630    9.702120    2.132570
  H     -8.900320    9.921100   -0.492310
  H    -10.055450    9.088450    0.574370
  H     -8.846590    8.159170   -0.331090
  H     -1.404380    9.999830    3.810090
  H     -1.686590    8.410110    4.567320
  H     -2.430450    9.871580    5.276180
  H     -5.220980   10.094200    4.005590
  H     -7.980340    8.783730    3.819760
  H     -5.337810   10.593830    6.143430
  H     -9.374100    9.036580    6.022500
  H     -7.919130   11.286270   10.266480
  H     -3.728760   12.318320   10.556900
  H     -5.135950   12.564590   12.725410
  H    -10.916070   14.815130   11.958020
  H     -8.564480   14.862100   16.354620
  H    -10.376100   16.149260   17.310390
  H    -12.552400   17.278880   17.083330
  H    -13.738430   17.269390   14.924660
  H    -12.756280   16.128520   12.974090

 Total Charge           Charge          ....    0
 Multiplicity           Mult            ....    1
 Number of Electrons    NEL             ....  522
 Basis Dimension        Dim             .... 1222

ORBITAL ENERGIES
----------------

  NO   OCC          E(Eh)            E(eV)
   0   2.0000     -88.987544     -2421.4742
   1   2.0000     -88.979213     -2421.2475
   2   2.0000     -19.270146      -524.3673
   3   2.0000     -19.219379      -522.9859
   4   2.0000     -19.215747      -522.8871
   5   2.0000     -19.213290      -522.8202
   6   2.0000     -14.478585      -393.9823
   7   2.0000     -14.414871      -392.2486
   8   2.0000     -14.414836      -392.2476
   9   2.0000     -14.414048      -392.2262
  10   2.0000     -14.413848      -392.2208
  11   2.0000     -14.413100      -392.2004
  12   2.0000     -14.413021      -392.1982
  13   2.0000     -14.408903      -392.0862
  14   2.0000     -10.415898      -283.4310
  15   2.0000     -10.379599      -282.4432
  16   2.0000     -10.370607      -282.1986
  17   2.0000     -10.367591      -282.1165
  18   2.0000     -10.341558      -281.4081
  19   2.0000     -10.340993      -281.3927
  20   2.0000     -10.340619      -281.3825
  21   2.0000     -10.339979      -281.3651
  22   2.0000     -10.339544      -281.3533
  23   2.0000     -10.337037      -281.2851
  24   2.0000     -10.330943      -281.1193
  25   2.0000     -10.327240      -281.0185
  26   2.0000     -10.326773      -281.0058
  27   2.0000     -10.325012      -280.9579
  28   2.0000     -10.323601      -280.9195
  29   2.0000     -10.319495      -280.8077
  30   2.0000     -10.318480      -280.7801
  31   2.0000     -10.318455      -280.7794
  32   2.0000     -10.317664      -280.7579
  33   2.0000     -10.317606      -280.7563
  34   2.0000     -10.317594      -280.7560
  35   2.0000     -10.316606      -280.7291
  36   2.0000     -10.316582      -280.7285
  37   2.0000     -10.316074      -280.7147
  38   2.0000     -10.314232      -280.6645
  39   2.0000     -10.313416      -280.6423
  40   2.0000     -10.313091      -280.6335
  41   2.0000     -10.311993      -280.6036
  42   2.0000     -10.311406      -280.5876
  43   2.0000     -10.310232      -280.5557
  44   2.0000     -10.309667      -280.5403
  45   2.0000     -10.307927      -280.4930
  46   2.0000     -10.306406      -280.4516
  47   2.0000     -10.304393      -280.3968
  48   2.0000     -10.302301      -280.3399
  49   2.0000     -10.302069      -280.3335
  50   2.0000     -10.301719      -280.3240
  51   2.0000     -10.301386      -280.3150
  52   2.0000     -10.301153      -280.3086
  53   2.0000     -10.300551      -280.2922
  54   2.0000     -10.297698      -280.2146
  55   2.0000     -10.297281      -280.2033
  56   2.0000     -10.297028      -280.1964
  57   2.0000     -10.296935      -280.1939
  58   2.0000     -10.296684      -280.1870
  59   2.0000     -10.296626      -280.1854
  60   2.0000     -10.296238      -280.1749
  61   2.0000     -10.296109      -280.1714
  62   2.0000     -10.295839      -280.1640
  63   2.0000     -10.295346      -280.1506
  64   2.0000     -10.294900      -280.1385
  65   2.0000     -10.288206      -279.9563
  66   2.0000     -10.287312      -279.9320
  67   2.0000     -10.286238      -279.9028
  68   2.0000     -10.285982      -279.8958
  69   2.0000     -10.285692      -279.8879
  70   2.0000     -10.285429      -279.8807
  71   2.0000     -10.285422      -279.8806
  72   2.0000     -10.285217      -279.8750
  73   2.0000     -10.284919      -279.8669
  74   2.0000     -10.284702      -279.8610
  75   2.0000     -10.278244      -279.6852
  76   2.0000      -8.083435      -219.9615
  77   2.0000      -8.074799      -219.7264
  78   2.0000      -6.052809      -164.7053
  79   2.0000      -6.048673      -164.5928
  80   2.0000      -6.045202      -164.4983
  81   2.0000      -6.043879      -164.4623
  82   2.0000      -6.039918      -164.3545
  83   2.0000      -6.037038      -164.2762
  84   2.0000      -1.201588       -32.6969
  85   2.0000      -1.134283       -30.8654
  86   2.0000      -1.131348       -30.7856
  87   2.0000      -1.107362       -30.1328
  88   2.0000      -1.085875       -29.5482
  89   2.0000      -1.019707       -27.7476
  90   2.0000      -1.019087       -27.7308
  91   2.0000      -1.017126       -27.6774
  92   2.0000      -1.015929       -27.6448
  93   2.0000      -1.004388       -27.3308
  94   2.0000      -0.999925       -27.2093
  95   2.0000      -0.998044       -27.1582
  96   2.0000      -0.997528       -27.1441
  97   2.0000      -0.992700       -27.0127
  98   2.0000      -0.992472       -27.0065
  99   2.0000      -0.989917       -26.9370
 100   2.0000      -0.988073       -26.8868
 101   2.0000      -0.985039       -26.8043
 102   2.0000      -0.971151       -26.4264
 103   2.0000      -0.970175       -26.3998
 104   2.0000      -0.934623       -25.4324
 105   2.0000      -0.926475       -25.2107
 106   2.0000      -0.924259       -25.1504
 107   2.0000      -0.916815       -24.9478
 108   2.0000      -0.905445       -24.6384
 109   2.0000      -0.901079       -24.5196
 110   2.0000      -0.885537       -24.0967
 111   2.0000      -0.883687       -24.0463
 112   2.0000      -0.880459       -23.9585
 113   2.0000      -0.880021       -23.9466
 114   2.0000      -0.877761       -23.8851
 115   2.0000      -0.869840       -23.6696
 116   2.0000      -0.860711       -23.4211
 117   2.0000      -0.856752       -23.3134
 118   2.0000      -0.842554       -22.9271
 119   2.0000      -0.834746       -22.7146
 120   2.0000      -0.828221       -22.5370
 121   2.0000      -0.827607       -22.5203
 122   2.0000      -0.827236       -22.5102
 123   2.0000      -0.814581       -22.1659
 124   2.0000      -0.807074       -21.9616
 125   2.0000      -0.798747       -21.7350
 126   2.0000      -0.784432       -21.3455
 127   2.0000      -0.772130       -21.0107
 128   2.0000      -0.761686       -20.7265
 129   2.0000      -0.760668       -20.6988
 130   2.0000      -0.741910       -20.1884
 131   2.0000      -0.732051       -19.9201
 132   2.0000      -0.724998       -19.7282
 133   2.0000      -0.723331       -19.6828
 134   2.0000      -0.720075       -19.5942
 135   2.0000      -0.712564       -19.3898
 136   2.0000      -0.703786       -19.1510
 137   2.0000      -0.702632       -19.1196
 138   2.0000      -0.698845       -19.0165
 139   2.0000      -0.695490       -18.9253
 140   2.0000      -0.686277       -18.6745
 141   2.0000      -0.681755       -18.5515
 142   2.0000      -0.679295       -18.4846
 143   2.0000      -0.676320       -18.4036
 144   2.0000      -0.663580       -18.0569
 145   2.0000      -0.661807       -18.0087
 146   2.0000      -0.656740       -17.8708
 147   2.0000      -0.654911       -17.8210
 148   2.0000      -0.641306       -17.4508
 149   2.0000      -0.638213       -17.3667
 150   2.0000      -0.631420       -17.1818
 151   2.0000      -0.630547       -17.1580
 152   2.0000      -0.625206       -17.0127
 153   2.0000      -0.619442       -16.8559
 154   2.0000      -0.615371       -16.7451
 155   2.0000      -0.610052       -16.6004
 156   2.0000      -0.605952       -16.4888
 157   2.0000      -0.605580       -16.4787
 158   2.0000      -0.602207       -16.3869
 159   2.0000      -0.585228       -15.9249
 160   2.0000      -0.582702       -15.8561
 161   2.0000      -0.577403       -15.7119
 162   2.0000      -0.572259       -15.5720
 163   2.0000      -0.568727       -15.4758
 164   2.0000      -0.568267       -15.4633
 165   2.0000      -0.564491       -15.3606
 166   2.0000      -0.561679       -15.2840
 167   2.0000      -0.555244       -15.1089
 168   2.0000      -0.553961       -15.0740
 169   2.0000      -0.547039       -14.8857
 170   2.0000      -0.545718       -14.8497
 171   2.0000      -0.545064       -14.8319
 172   2.0000      -0.543520       -14.7899
 173   2.0000      -0.540387       -14.7047
 174   2.0000      -0.537766       -14.6334
 175   2.0000      -0.537675       -14.6309
 176   2.0000      -0.534241       -14.5374
 177   2.0000      -0.531791       -14.4708
 178   2.0000      -0.530349       -14.4315
 179   2.0000      -0.524961       -14.2849
 180   2.0000      -0.523471       -14.2444
 181   2.0000      -0.521877       -14.2010
 182   2.0000      -0.518994       -14.1225
 183   2.0000      -0.518088       -14.0979
 184   2.0000      -0.515933       -14.0393
 185   2.0000      -0.515455       -14.0262
 186   2.0000      -0.513863       -13.9829
 187   2.0000      -0.512235       -13.9386
 188   2.0000      -0.510536       -13.8924
 189   2.0000      -0.509854       -13.8738
 190   2.0000      -0.508640       -13.8408
 191   2.0000      -0.502220       -13.6661
 192   2.0000      -0.499091       -13.5810
 193   2.0000      -0.497274       -13.5315
 194   2.0000      -0.496616       -13.5136
 195   2.0000      -0.495523       -13.4839
 196   2.0000      -0.493851       -13.4384
 197   2.0000      -0.492058       -13.3896
 198   2.0000      -0.491275       -13.3683
 199   2.0000      -0.486163       -13.2292
 200   2.0000      -0.484587       -13.1863
 201   2.0000      -0.483113       -13.1462
 202   2.0000      -0.482516       -13.1299
 203   2.0000      -0.474209       -12.9039
 204   2.0000      -0.472937       -12.8693
 205   2.0000      -0.470439       -12.8013
 206   2.0000      -0.464830       -12.6487
 207   2.0000      -0.464360       -12.6359
 208   2.0000      -0.460499       -12.5308
 209   2.0000      -0.448375       -12.2009
 210   2.0000      -0.448059       -12.1923
 211   2.0000      -0.447575       -12.1791
 212   2.0000      -0.447366       -12.1734
 213   2.0000      -0.446476       -12.1492
 214   2.0000      -0.443303       -12.0629
 215   2.0000      -0.443132       -12.0582
 216   2.0000      -0.442225       -12.0336
 217   2.0000      -0.442007       -12.0276
 218   2.0000      -0.441082       -12.0025
 219   2.0000      -0.440185       -11.9780
 220   2.0000      -0.439468       -11.9585
 221   2.0000      -0.439077       -11.9479
 222   2.0000      -0.436907       -11.8888
 223   2.0000      -0.433235       -11.7889
 224   2.0000      -0.432883       -11.7794
 225   2.0000      -0.432666       -11.7734
 226   2.0000      -0.431479       -11.7411
 227   2.0000      -0.431380       -11.7384
 228   2.0000      -0.426329       -11.6010
 229   2.0000      -0.425308       -11.5732
 230   2.0000      -0.425074       -11.5668
 231   2.0000      -0.420422       -11.4403
 232   2.0000      -0.418919       -11.3994
 233   2.0000      -0.418538       -11.3890
 234   2.0000      -0.413017       -11.2388
 235   2.0000      -0.411414       -11.1951
 236   2.0000      -0.409545       -11.1443
 237   2.0000      -0.405662       -11.0386
 238   2.0000      -0.405122       -11.0239
 239   2.0000      -0.401208       -10.9174
 240   2.0000      -0.395905       -10.7731
 241   2.0000      -0.388758       -10.5786
 242   2.0000      -0.380429       -10.3520
 243   2.0000      -0.376835       -10.2542
 244   2.0000      -0.375193       -10.2095
 245   2.0000      -0.366751        -9.9798
 246   2.0000      -0.361012        -9.8236
 247   2.0000      -0.350781        -9.5452
 248   2.0000      -0.344272        -9.3681
 249   2.0000      -0.342040        -9.3074
 250   2.0000      -0.339433        -9.2364
 251   2.0000      -0.337147        -9.1742
 252   2.0000      -0.328600        -8.9417
 253   2.0000      -0.318243        -8.6598
 254   2.0000      -0.316169        -8.6034
 255   2.0000      -0.311484        -8.4759
 256   2.0000      -0.297927        -8.1070
 257   2.0000      -0.294609        -8.0167
 258   2.0000      -0.289331        -7.8731
 259   2.0000      -0.278723        -7.5844
 260   2.0000      -0.248568        -6.7639
 261   0.0000      -0.133468        -3.6319
 262   0.0000      -0.100444        -2.7332
 263   0.0000      -0.080302        -2.1851
 264   0.0000      -0.064692        -1.7604
 265   0.0000      -0.054124        -1.4728

MULLIKEN ATOMIC CHARGES
-----------------------
   0 C :    0.303154
   1 C :   -0.348608
   2 C :   -0.181021
   3 N :    0.144271
   4 C :   -0.200945
   5 N :    0.161142
   6 C :    0.046017
   7 C :    0.000281
   8 C :   -0.081474
   9 C :    0.098814
  10 C :    0.096014
  11 C :   -0.080704
  12 C :   -0.018170
  13 C :    0.035184
  14 C :    0.037631
  15 C :   -0.017444
  16 C :    0.160924
  17 O :   -0.156663
  18 C :   -0.089951
  19 C :    0.049938
  20 C :   -0.107161
  21 S :    0.164971
  22 C :   -0.022799
  23 C :   -0.075741
  24 C :    0.047195
  25 C :   -0.181713
  26 N :    0.125676
  27 C :   -0.036469
  28 C :    0.029600
  29 C :   -0.114978
  30 S :    0.103480
  31 C :   -0.097337
  32 N :   -0.143137
  33 C :    0.091991
  34 C :    0.128935
  35 C :    0.073534
  36 C :    0.155288
  37 O :   -0.210469
  38 O :   -0.307948
  39 C :    0.159365
  40 C :    0.005393
  41 C :   -0.068643
  42 C :    0.131965
  43 C :   -0.145877
  44 C :    0.147808
  45 C :   -0.084388
  46 C :   -0.012228
  47 C :   -0.169120
  48 N :    0.141387
  49 C :    0.068374
  50 C :   -0.032413
  51 C :    0.077259
  52 C :   -0.000181
  53 C :   -0.101389
  54 C :   -0.158419
  55 N :    0.133594
  56 C :   -0.026416
  57 C :   -0.077838
  58 C :    0.308482
  59 C :   -0.346698
  60 C :   -0.180701
  61 N :    0.147900
  62 C :   -0.200352
  63 N :    0.160860
  64 C :    0.053885
  65 C :   -0.010282
  66 C :    0.152525
  67 O :   -0.142317
  68 C :   -0.079889
  69 C :    0.099642
  70 C :    0.097860
  71 C :   -0.085906
  72 C :   -0.020709
  73 C :    0.038250
  74 C :    0.037537
  75 C :   -0.016471
  76 H :   -0.012944
  77 H :   -0.007616
  78 H :   -0.008893
  79 H :   -0.005085
  80 H :   -0.004834
  81 H :   -0.017599
  82 H :    0.018809
  83 H :    0.025773
  84 H :    0.017391
  85 H :    0.031817
  86 H :    0.140415
  87 H :    0.045699
  88 H :    0.045140
  89 H :    0.052933
  90 H :    0.048328
  91 H :    0.035239
  92 H :    0.041568
  93 H :    0.021277
  94 H :   -0.024515
  95 H :   -0.005435
  96 H :   -0.004636
  97 H :    0.018666
  98 H :    0.002308
  99 H :    0.022277
 100 H :   -0.012895
 101 H :   -0.008327
 102 H :   -0.009277
 103 H :   -0.005228
 104 H :   -0.005708
 105 H :   -0.017805
Sum of atomic charges:   -0.0000000

LOEWDIN ATOMIC CHARGES
----------------------
   0 C :    0.076350
   1 C :   -0.140864
   2 C :   -0.016928
   3 N :   -0.054185
   4 C :   -0.026456
   5 N :   -0.050776
   6 C :   -0.026161
   7 C :   -0.055058
   8 C :    0.032149
   9 C :   -0.008301
  10 C :   -0.006090
  11 C :    0.019546
  12 C :   -0.005300
  13 C :   -0.013298
  14 C :   -0.012278
  15 C :   -0.009612
  16 C :    0.088027
  17 O :   -0.141925
  18 C :   -0.091052
  19 C :    0.046650
  20 C :   -0.179151
  21 S :    0.478662
  22 C :   -0.116327
  23 C :   -0.115283
  24 C :    0.022684
  25 C :   -0.030538
  26 N :   -0.057938
  27 C :   -0.065933
  28 C :   -0.002516
  29 C :   -0.157555
  30 S :    0.447221
  31 C :   -0.075602
  32 N :   -0.006556
  33 C :    0.016636
  34 C :   -0.110912
  35 C :   -0.061553
  36 C :    0.092005
  37 O :   -0.173109
  38 O :   -0.076545
  39 C :    0.079106
  40 C :    0.045526
  41 C :   -0.075387
  42 C :    0.011968
  43 C :   -0.061642
  44 C :    0.063200
  45 C :   -0.067485
  46 C :    0.050934
  47 C :   -0.032315
  48 N :   -0.052389
  49 C :    0.010016
  50 C :    0.048020
  51 C :   -0.051523
  52 C :    0.057842
  53 C :   -0.098395
  54 C :   -0.009241
  55 N :   -0.075668
  56 C :    0.070607
  57 C :   -0.082351
  58 C :    0.075004
  59 C :   -0.137303
  60 C :   -0.016872
  61 N :   -0.052860
  62 C :   -0.024202
  63 N :   -0.050766
  64 C :   -0.026113
  65 C :   -0.054795
  66 C :    0.085009
  67 O :   -0.132863
  68 C :    0.033493
  69 C :   -0.007879
  70 C :   -0.005923
  71 C :    0.019284
  72 C :   -0.005414
  73 C :   -0.013251
  74 C :   -0.012326
  75 C :   -0.009401
  76 H :    0.038907
  77 H :    0.039049
  78 H :    0.034841
  79 H :    0.033145
  80 H :    0.032857
  81 H :    0.031881
  82 H :    0.044416
  83 H :    0.042635
  84 H :    0.030988
  85 H :    0.038464
  86 H :    0.084635
  87 H :    0.024862
  88 H :    0.037792
  89 H :    0.031070
  90 H :    0.025376
  91 H :    0.025450
  92 H :    0.022105
  93 H :    0.037772
  94 H :    0.020362
  95 H :    0.029650
  96 H :    0.035602
  97 H :    0.036622
  98 H :    0.038474
  99 H :    0.046706
 100 H :    0.039289
 101 H :    0.038945
 102 H :    0.034743
 103 H :    0.033083
 104 H :    0.032669
 105 H :    0.031839

  Mayer bond orders larger than 0.100000
B(  0-C ,  1-C ) :   1.6351 B(  0-C ,  6-C ) :   0.9852 B(  0-C , 18-C ) :   1.0697
B(  1-C ,  2-C ) :   1.1455 B(  1-C ,  4-C ) :   1.1361 B(  2-C ,  3-N ) :   2.9687
B(  4-C ,  5-N ) :   2.9937 B(  6-C ,  7-C ) :   1.2171 B(  6-C , 11-C ) :   1.4504
B(  7-C ,  8-C ) :   1.4688 B(  7-C , 16-C ) :   0.9546 B(  8-C ,  9-C ) :   1.1786
B(  8-C , 76-H ) :   1.0167 B(  9-C , 10-C ) :   1.2579 B(  9-C , 15-C ) :   1.2429
B( 10-C , 11-C ) :   1.2046 B( 10-C , 12-C ) :   1.2398 B( 11-C , 77-H ) :   0.9913
B( 12-C , 13-C ) :   1.4882 B( 12-C , 78-H ) :   0.9978 B( 13-C , 14-C ) :   1.2603
B( 13-C , 79-H ) :   0.9890 B( 14-C , 15-C ) :   1.4887 B( 14-C , 80-H ) :   0.9884
B( 15-C , 81-H ) :   0.9980 B( 16-C , 17-O ) :   2.1712 B( 16-C , 18-C ) :   0.9379
B( 18-C , 19-C ) :   1.6069 B( 19-C , 20-C ) :   1.1955 B( 19-C , 82-H ) :   0.9202
B( 20-C , 21-S ) :   1.0888 B( 20-C , 24-C ) :   1.4428 B( 21-S , 22-C ) :   1.1667
B( 22-C , 23-C ) :   1.3901 B( 22-C , 27-C ) :   1.2165 B( 23-C , 24-C ) :   1.2948
B( 23-C , 25-C ) :   1.1047 B( 24-C , 83-H ) :   0.9805 B( 25-C , 26-N ) :   3.0137
B( 27-C , 28-C ) :   1.5756 B( 27-C , 84-H ) :   0.9529 B( 28-C , 29-C ) :   1.2140
B( 28-C , 85-H ) :   0.9593 B( 29-C , 30-S ) :   1.0415 B( 29-C , 35-C ) :   1.5134
B( 30-S , 31-C ) :   1.1502 B( 31-C , 32-N ) :   1.3051 B( 31-C , 34-C ) :   1.3089
B( 32-N , 33-C ) :   0.9957 B( 32-N , 86-H ) :   0.9094 B( 33-C , 87-H ) :   0.9662
B( 33-C , 88-H ) :   0.9749 B( 33-C , 89-H ) :   0.9663 B( 34-C , 35-C ) :   1.2001
B( 34-C , 40-C ) :   1.1444 B( 35-C , 36-C ) :   0.9197 B( 36-C , 37-O ) :   2.0529
B( 36-C , 38-O ) :   1.2251 B( 38-O , 39-C ) :   0.8829 B( 39-C , 90-H ) :   0.9606
B( 39-C , 91-H ) :   0.9779 B( 39-C , 92-H ) :   0.9610 B( 40-C , 41-C ) :   1.5886
B( 40-C , 93-H ) :   0.9451 B( 41-C , 42-C ) :   1.1410 B( 41-C , 94-H ) :   0.9681
B( 42-C , 43-C ) :   1.5130 B( 42-C , 46-C ) :   1.0074 B( 43-C , 44-C ) :   1.1767
B( 43-C , 95-H ) :   0.9953 B( 44-C , 45-C ) :   1.0819 B( 44-C , 49-C ) :   1.3707
B( 45-C , 46-C ) :   1.7021 B( 45-C , 47-C ) :   1.0845 B( 46-C , 96-H ) :   1.0230
B( 47-C , 48-N ) :   2.9739 B( 49-C , 50-C ) :   1.1406 B( 49-C , 53-C ) :   1.1227
B( 50-C , 51-C ) :   1.5083 B( 50-C , 97-H ) :   0.9871 B( 51-C , 52-C ) :   1.0571
B( 51-C , 56-C ) :   1.1251 B( 52-C , 53-C ) :   1.6253 B( 52-C , 98-H ) :   1.0245
B( 53-C , 54-C ) :   1.0899 B( 54-C , 55-N ) :   2.9500 B( 56-C , 57-C ) :   1.5984
B( 56-C , 99-H ) :   0.9455 B( 57-C , 58-C ) :   1.0565 B( 57-C , 66-C ) :   0.9331
B( 58-C , 59-C ) :   1.6389 B( 58-C , 64-C ) :   0.9914 B( 59-C , 60-C ) :   1.1440
B( 59-C , 62-C ) :   1.1421 B( 60-C , 61-N ) :   2.9654 B( 62-C , 63-N ) :   2.9882
B( 64-C , 65-C ) :   1.2132 B( 64-C , 71-C ) :   1.4453 B( 65-C , 66-C ) :   0.9440
B( 65-C , 68-C ) :   1.4725 B( 66-C , 67-O ) :   2.2171 B( 68-C , 69-C ) :   1.1774
B( 68-C ,100-H ) :   1.0163 B( 69-C , 70-C ) :   1.2566 B( 69-C , 75-C ) :   1.2448
B( 70-C , 71-C ) :   1.2067 B( 70-C , 72-C ) :   1.2390 B( 71-C ,101-H ) :   0.9901
B( 72-C , 73-C ) :   1.4895 B( 72-C ,102-H ) :   0.9973 B( 73-C , 74-C ) :   1.2598
B( 73-C ,103-H ) :   0.9886 B( 74-C , 75-C ) :   1.4881 B( 74-C ,104-H ) :   0.9885
B( 75-C ,105-H ) :   0.9975

-----------------------------------------------------------------------------
         ABSORPTION SPECTRUM VIA TRANSITION ELECTRIC DIPOLE MOMENTS
-----------------------------------------------------------------------------
State   Energy  Wavelength   fosc         T2         TX        TY        TZ
        (cm-1)    (nm)                  (au**2)     (au)      (au)      (au)
-----------------------------------------------------------------------------
   0   10661.5    938.0   0.941595818  29.07502  -0.89062   1.60209   5.07101
   1   16073.1    622.2   0.038482198   0.78820   0.81340   0.22703  -0.27393
   2   17932.5    557.6   0.901630578  16.55248   3.08850  -0.33866  -2.62659
   3   18712.0    534.4   0.398961388   7.01919   2.24047  -0.29956  -1.38194
   4   21689.2    461.1   0.021952384   0.33321   0.38332  -0.00294   0.43158
   5   23574.6    424.2   0.195487101   2.72992  -0.07712   0.50183   1.57230
   6   24116.8    414.6   0.395474108   5.39852  -0.59388  -0.84475  -2.08140
   7   25268.0    395.8   0.108543720   1.41420   0.64963  -0.48243  -0.87146
   8   25412.0    393.5   0.110162141   1.42715   0.65543  -0.65743  -0.75189
   9   26099.9    383.1   0.015978227   0.20154  -0.29952  -0.29243   0.16221
  10   26203.8    381.6   0.047943993   0.60235   0.26099  -0.00861   0.73086
  11   27308.9    366.2   0.218693087   2.63637   0.75261  -0.48447  -1.35471
  12   27540.5    363.1   0.060966456   0.72878  -0.45858  -0.34635   0.63128
  13   28253.5    353.9   0.155473037   1.81158  -0.18305   0.27640   1.30448
  14   28543.6    350.3   0.118245139   1.36380   0.83871   0.01041  -0.81256
  15   29040.9    344.3   0.017338402   0.19655  -0.32040   0.18576   0.24370
  16   29266.5    341.7   0.047063268   0.52940   0.45560  -0.31143   0.47418
  17   29484.0    339.2   0.101592869   1.13436  -0.52180   0.11891   0.92084
  18   29832.5    335.2   0.058862434   0.64957   0.29396  -0.60237   0.44756
  19   30246.4    330.6   0.168631045   1.83544  -1.00300   0.77297   0.48160
  20   30601.2    326.8   0.118375960   1.27350  -0.80341   0.71036   0.35131
  21   32101.6    311.5   0.038847052   0.39839  -0.58980   0.07770  -0.21091
  22   32183.8    310.7   0.019608821   0.20058   0.42040   0.04483   0.14778
  23   32501.4    307.7   0.032636684   0.33058   0.49349  -0.17277  -0.23917
  24   33157.2    301.6   0.084145606   0.83547   0.07101   0.18915   0.89143
  25   33185.6    301.3   0.593360319   5.88632   0.70267   0.63785  -2.23287
  26   33744.0    296.3   0.003966482   0.03870  -0.08813  -0.07077   0.16101
  27   34104.3    293.2   0.048160700   0.46490  -0.34213   0.05779  -0.58695
  28   34205.6    292.3   0.044894238   0.43208  -0.02767  -0.02145  -0.65640
  29   34459.3    290.2   0.246252098   2.35260  -0.39657  -0.49096   1.39796
  30   34656.1    288.5   0.027441732   0.26068  -0.07886   0.17652  -0.47255
  31   34755.1    287.7   0.051605945   0.48883  -0.66592  -0.19390   0.08819
  32   35044.9    285.3   0.239857350   2.25322   1.10205  -0.80401  -0.62632
  33   35247.9    283.7   0.041016905   0.38309   0.06210   0.34603   0.50941
  34   35460.6    282.0   0.690114129   6.40694  -2.18871   1.06029  -0.70163
  35   35698.4    280.1   0.021569483   0.19891   0.26211   0.35994   0.02552
  36   35971.2    278.0   0.054222499   0.49625   0.58497  -0.33610   0.20273
  37   36376.0    274.9   0.020116734   0.18206   0.22399  -0.07951  -0.35435
  38   36534.6    273.7   0.009185026   0.08277  -0.19958  -0.20560   0.02574
  39   37030.1    270.1   0.012064369   0.10726   0.24211  -0.01047   0.22029
  40   37183.0    268.9   0.001520518   0.01346   0.06125   0.00666   0.09832
  41   37430.7    267.2   0.005960327   0.05242   0.12312  -0.19188   0.02115
  42   37667.7    265.5   0.001521809   0.01330   0.02729   0.08569   0.07221
  43   38162.5    262.0   0.017493800   0.15091   0.10855   0.34911  -0.13134
  44   38242.4    261.5   0.046620010   0.40133  -0.48496   0.15780   0.37583
  45   38475.3    259.9   0.098043033   0.83890   0.72499  -0.17420   0.53192
  46   38632.6    258.8   0.020094155   0.17123   0.26188  -0.18878  -0.25887
  47   38920.0    256.9   0.034156627   0.28892   0.18488  -0.26094  -0.43203
  48   39099.4    255.8   0.167723386   1.41221  -0.03392  -0.23819  -1.16375
  49   39533.6    252.9   0.182445290   1.51929  -0.93274   0.20924  -0.77814
  50   39608.3    252.5   0.023170311   0.19258   0.34649   0.08104  -0.25683
  51   40005.7    250.0   0.196121036   1.61391  -1.18089   0.06924  -0.46326
  52   40286.9    248.2   0.100908764   0.82459   0.33283   0.15254   0.83099

FINAL SINGLE POINT ENERGY     -3911.590855137438

DIPOLE MOMENT
-------------
                                X             Y             Z
Electronic contribution:     15.08270     -10.36546       4.39841
Nuclear contribution   :    -18.43862      12.30289      -7.30627
                        -----------------------------------------
Total Dipole Moment    :     -3.35592       1.93743      -2.90786
                        -----------------------------------------
Magnitude (a.u.)       :      4.84473
Magnitude (Debye)      :     12.31434

Rotational constants in cm-1:     0.002027     0.000168     0.000160
Rotational constants in MHz :    60.763308     5.036530     4.799475

                             ****ORCA TERMINATED NORMALLY****
TOTAL RUN TIME: 0 days 0 hours 11 minutes 29 seconds 907 msec
