                         Program Version 4.2.0 -  RELEASE  -
|  1> # ORCA input file
|  2> # SCF done       -206.210405290757          0.000953917844
|  3> ! CAM-B3LYP def2-SVP def2/J RIJCOSX Grid4 TightSCF
|  4> %maxcore 5000
|  5> %tddft
|  6>     Mode sTDDFT
|  7>     Ethresh 5.0
|  8>     maxcore 5000
|  9> end
| 10>
| 11> %pal
| 12>   nprocs 6
| 13>   end
| 14> * xyz 0 1
| 15>    C        2.81789         2.33693        -1.29894
| 16>    C        1.83752         1.88674        -0.45297
| 17>    C        1.31513         0.57776        -0.48569
| 18>    N        0.85579        -0.47400        -0.47691
| 19>    C        1.30905         2.65648         0.60156
| 20>    N        0.87895         3.24364         1.48946
| 21>    C        3.57248         1.50698        -2.23188
| 22>    C        4.78917         2.17727        -2.55329
| 23>    C        5.71710         1.61911        -3.38433
| 24>    C        5.46150         0.34898        -3.94871
| 25>    C        4.24061        -0.31918        -3.64289
| 26>    C        3.29992         0.28015        -2.77391
| 27>    C        3.99585        -1.58305        -4.21686
| 28>    C        4.91271        -2.16235        -5.05123
| 29>    C        6.11440        -1.50411        -5.35169
| 30>    C        6.38309        -0.27554        -4.81195
| 31>    C        4.81864         3.48450        -1.87556
| 32>    O        5.70754         4.30420        -1.86325
| 33>    C        3.47409         3.62591        -1.24169
| 34>    C        3.07039         4.85562        -0.82577
| 35>    C        1.75679         5.32457        -0.57821
| 36>    S        1.51011         6.76133         0.37502
| 37>    C       -0.20405         6.71807         0.12583
| 38>    C       -0.55011         5.62841        -0.68096
| 39>    C        0.55279         4.85380        -1.06292
| 40>    C       -1.85675         5.25705        -1.04631
| 41>    N       -2.89404         4.88032        -1.35839
| 42>    C       -1.01585         7.71908         0.71659
| 43>    C       -2.30199         7.97045         0.36054
| 44>    C       -3.17848         8.96024         0.87349
| 45>    N       -3.13260         9.63790         2.06802
| 46>    C       -2.21565         9.46237         3.16852
| 47>    C       -1.07173        10.47339         3.11990
| 48>    C       -4.21057        10.54827         2.19888
| 49>    O       -4.38475        11.22803         3.18491
| 50>    C       -4.94458        10.40944         0.96008
| 51>    C       -4.30214         9.41968         0.18750
| 52>    C       -5.02879         9.28229        -1.05339
| 53>    O       -4.84371         8.59695        -2.03472
| 54>    N       -6.11156        10.18554        -0.92614
| 55>    C       -7.00486        10.35782        -2.04682
| 56>    C       -6.77491        11.68219        -2.76970
| 57>    C       -6.06392        10.87489         0.26614
| 58>    C       -6.93139        11.87355         0.77877
| 59>    C       -8.13867        12.26476         0.29918
| 60>    C       -8.93754        13.30185         0.87024
| 61>    C      -10.23045        13.53847         0.39307
| 62>    O      -10.65160        12.71627        -0.58866
| 63>    C      -11.63574        13.13475        -1.52144
| 64>    C      -11.08486        14.55988         0.95063
| 65>    O      -12.38784        14.37362         0.68682
| 66>    C      -13.39612        15.05711         1.38467
| 67>    C      -10.57536        15.53877         1.81125
| 68>    C       -9.28510        15.27135         2.35078
| 69>    C       -8.48589        14.15877         1.91384
| 70>    N       -7.35632        14.20983         2.58505
| 71>    O       -7.43952        15.27076         3.38688
| 72>    N       -8.59142        15.93135         3.25168
| 73>    C      -11.16781        16.79456         2.13210
| 74>    C      -11.82126        17.59231         1.23573
| 75>    C      -12.39397        18.89488         1.51322
| 76>    C      -12.86296        19.30535         2.73238
| 77>    C      -13.43972        20.56930         2.96782
| 78>    N      -13.91529        21.58747         3.20166
| 79>    C      -12.89113        18.46370         3.86436
| 80>    N      -12.98587        17.78830         4.78766
| 81>    C      -12.49355        19.61130         0.25034
| 82>    C      -12.11576        18.72455        -0.80020
| 83>    C      -11.74972        17.41570        -0.23388
| 84>    O      -11.40611        16.42382        -0.85018
| 85>    C      -12.11815        19.11751        -2.10749
| 86>    C      -12.50013        20.43977        -2.42838
| 87>    C      -12.87168        21.33345        -1.38247
| 88>    C      -12.86427        20.89721        -0.03723
| 89>    C      -13.24246        22.65163        -1.71586
| 90>    C      -13.24774        23.06918        -3.01923
| 91>    C      -12.88319        22.18838        -4.04810
| 92>    C      -12.51842        20.90120        -3.75907
| 93>    H        6.63578         2.13993        -3.60942
| 94>    H        2.37899        -0.24236        -2.56711
| 95>    H        3.07052        -2.08714        -3.98010
| 96>    H        4.71697        -3.13184        -5.48410
| 97>    H        6.82609        -1.97511        -6.01305
| 98>    H        7.30678         0.23593        -5.03961
| 99>    H        3.86172         5.59531        -0.74876
|100>    H        0.46583         3.99820        -1.70988
|101>    H       -0.51137         8.33753         1.44367
|102>    H       -2.73294         7.41693        -0.46406
|103>    H       -1.84878         8.43402         3.16926
|104>    H       -2.79292         9.63249         4.08286
|105>    H       -0.52938        10.41621         2.17826
|106>    H       -0.38045        10.28856         3.93754
|107>    H       -1.47276        11.47830         3.22299
|108>    H       -8.04262        10.25421        -1.72091
|109>    H       -6.77519         9.52982        -2.72551
|110>    H       -6.93903        12.52816        -2.10660
|111>    H       -7.45405        11.76112        -3.61411
|112>    H       -5.75396        11.72644        -3.14107
|113>    H       -6.56018        12.34177         1.68197
|114>    H       -8.59172        11.78536        -0.55250
|115>    H      -11.40277        12.60173        -2.44397
|116>    H      -11.59220        14.20983        -1.69387
|117>    H      -12.63604        12.85626        -1.18529
|118>    H      -13.62256        16.02264         0.91985
|119>    H      -13.12674        15.22483         2.43155
|120>    H      -14.27710        14.41706         1.32486
|121>    H      -10.91224        17.19105         3.10720
|122>    H      -11.83067        18.42987        -2.88920
|123>    H      -13.14205        21.59527         0.73697
|124>    H      -13.52363        23.32573        -0.92023
|125>    H      -13.53286        24.08122        -3.26418
|126>    H      -12.89178        22.53448        -5.07077
|127>    H      -12.23603        20.21877        -4.54745
|128> *
|129>
|130>                          ****END OF INPUT****

CARTESIAN COORDINATES (ANGSTROEM)
---------------------------------
  C      2.817890    2.336930   -1.298940
  C      1.837520    1.886740   -0.452970
  C      1.315130    0.577760   -0.485690
  N      0.855790   -0.474000   -0.476910
  C      1.309050    2.656480    0.601560
  N      0.878950    3.243640    1.489460
  C      3.572480    1.506980   -2.231880
  C      4.789170    2.177270   -2.553290
  C      5.717100    1.619110   -3.384330
  C      5.461500    0.348980   -3.948710
  C      4.240610   -0.319180   -3.642890
  C      3.299920    0.280150   -2.773910
  C      3.995850   -1.583050   -4.216860
  C      4.912710   -2.162350   -5.051230
  C      6.114400   -1.504110   -5.351690
  C      6.383090   -0.275540   -4.811950
  C      4.818640    3.484500   -1.875560
  O      5.707540    4.304200   -1.863250
  C      3.474090    3.625910   -1.241690
  C      3.070390    4.855620   -0.825770
  C      1.756790    5.324570   -0.578210
  S      1.510110    6.761330    0.375020
  C     -0.204050    6.718070    0.125830
  C     -0.550110    5.628410   -0.680960
  C      0.552790    4.853800   -1.062920
  C     -1.856750    5.257050   -1.046310
  N     -2.894040    4.880320   -1.358390
  C     -1.015850    7.719080    0.716590
  C     -2.301990    7.970450    0.360540
  C     -3.178480    8.960240    0.873490
  N     -3.132600    9.637900    2.068020
  C     -2.215650    9.462370    3.168520
  C     -1.071730   10.473390    3.119900
  C     -4.210570   10.548270    2.198880
  O     -4.384750   11.228030    3.184910
  C     -4.944580   10.409440    0.960080
  C     -4.302140    9.419680    0.187500
  C     -5.028790    9.282290   -1.053390
  O     -4.843710    8.596950   -2.034720
  N     -6.111560   10.185540   -0.926140
  C     -7.004860   10.357820   -2.046820
  C     -6.774910   11.682190   -2.769700
  C     -6.063920   10.874890    0.266140
  C     -6.931390   11.873550    0.778770
  C     -8.138670   12.264760    0.299180
  C     -8.937540   13.301850    0.870240
  C    -10.230450   13.538470    0.393070
  O    -10.651600   12.716270   -0.588660
  C    -11.635740   13.134750   -1.521440
  C    -11.084860   14.559880    0.950630
  O    -12.387840   14.373620    0.686820
  C    -13.396120   15.057110    1.384670
  C    -10.575360   15.538770    1.811250
  C     -9.285100   15.271350    2.350780
  C     -8.485890   14.158770    1.913840
  N     -7.356320   14.209830    2.585050
  O     -7.439520   15.270760    3.386880
  N     -8.591420   15.931350    3.251680
  C    -11.167810   16.794560    2.132100
  C    -11.821260   17.592310    1.235730
  C    -12.393970   18.894880    1.513220
  C    -12.862960   19.305350    2.732380
  C    -13.439720   20.569300    2.967820
  N    -13.915290   21.587470    3.201660
  C    -12.891130   18.463700    3.864360
  N    -12.985870   17.788300    4.787660
  C    -12.493550   19.611300    0.250340
  C    -12.115760   18.724550   -0.800200
  C    -11.749720   17.415700   -0.233880
  O    -11.406110   16.423820   -0.850180
  C    -12.118150   19.117510   -2.107490
  C    -12.500130   20.439770   -2.428380
  C    -12.871680   21.333450   -1.382470
  C    -12.864270   20.897210   -0.037230
  C    -13.242460   22.651630   -1.715860
  C    -13.247740   23.069180   -3.019230
  C    -12.883190   22.188380   -4.048100
  C    -12.518420   20.901200   -3.759070
  H      6.635780    2.139930   -3.609420
  H      2.378990   -0.242360   -2.567110
  H      3.070520   -2.087140   -3.980100
  H      4.716970   -3.131840   -5.484100
  H      6.826090   -1.975110   -6.013050
  H      7.306780    0.235930   -5.039610
  H      3.861720    5.595310   -0.748760
  H      0.465830    3.998200   -1.709880
  H     -0.511370    8.337530    1.443670
  H     -2.732940    7.416930   -0.464060
  H     -1.848780    8.434020    3.169260
  H     -2.792920    9.632490    4.082860
  H     -0.529380   10.416210    2.178260
  H     -0.380450   10.288560    3.937540
  H     -1.472760   11.478300    3.222990
  H     -8.042620   10.254210   -1.720910
  H     -6.775190    9.529820   -2.725510
  H     -6.939030   12.528160   -2.106600
  H     -7.454050   11.761120   -3.614110
  H     -5.753960   11.726440   -3.141070
  H     -6.560180   12.341770    1.681970
  H     -8.591720   11.785360   -0.552500
  H    -11.402770   12.601730   -2.443970
  H    -11.592200   14.209830   -1.693870
  H    -12.636040   12.856260   -1.185290
  H    -13.622560   16.022640    0.919850
  H    -13.126740   15.224830    2.431550
  H    -14.277100   14.417060    1.324860
  H    -10.912240   17.191050    3.107200
  H    -11.830670   18.429870   -2.889200
  H    -13.142050   21.595270    0.736970
  H    -13.523630   23.325730   -0.920230
  H    -13.532860   24.081220   -3.264180
  H    -12.891780   22.534480   -5.070770
  H    -12.236030   20.218770   -4.547450

 Total Charge           Charge          ....    0
 Multiplicity           Mult            ....    1
 Number of Electrons    NEL             ....  536
 Basis Dimension        Dim             .... 1271

ORBITAL ENERGIES
----------------

  NO   OCC          E(Eh)            E(eV)
   0   2.0000     -88.982991     -2421.3503
   1   2.0000     -19.345544      -526.4190
   2   2.0000     -19.291650      -524.9525
   3   2.0000     -19.267728      -524.3015
   4   2.0000     -19.231686      -523.3208
   5   2.0000     -19.216588      -522.9099
   6   2.0000     -19.188582      -522.1479
   7   2.0000     -19.184236      -522.0296
   8   2.0000     -14.475857      -393.9081
   9   2.0000     -14.475187      -393.8899
  10   2.0000     -14.449953      -393.2032
  11   2.0000     -14.449753      -393.1978
  12   2.0000     -14.421185      -392.4204
  13   2.0000     -14.420037      -392.3892
  14   2.0000     -14.417275      -392.3140
  15   2.0000     -14.416630      -392.2965
  16   2.0000     -14.407060      -392.0360
  17   2.0000     -10.390848      -282.7493
  18   2.0000     -10.380676      -282.4726
  19   2.0000     -10.371226      -282.2154
  20   2.0000     -10.371050      -282.2106
  21   2.0000     -10.368436      -282.1395
  22   2.0000     -10.367830      -282.1230
  23   2.0000     -10.349377      -281.6209
  24   2.0000     -10.346769      -281.5499
  25   2.0000     -10.345702      -281.5209
  26   2.0000     -10.345370      -281.5118
  27   2.0000     -10.343964      -281.4736
  28   2.0000     -10.340219      -281.3717
  29   2.0000     -10.338519      -281.3254
  30   2.0000     -10.337782      -281.3054
  31   2.0000     -10.329484      -281.0795
  32   2.0000     -10.328735      -281.0592
  33   2.0000     -10.326719      -281.0043
  34   2.0000     -10.326290      -280.9926
  35   2.0000     -10.326282      -280.9924
  36   2.0000     -10.325339      -280.9668
  37   2.0000     -10.323393      -280.9138
  38   2.0000     -10.322622      -280.8928
  39   2.0000     -10.322178      -280.8807
  40   2.0000     -10.318934      -280.7925
  41   2.0000     -10.318228      -280.7733
  42   2.0000     -10.313969      -280.6574
  43   2.0000     -10.310816      -280.5716
  44   2.0000     -10.310670      -280.5676
  45   2.0000     -10.310636      -280.5667
  46   2.0000     -10.308060      -280.4966
  47   2.0000     -10.307154      -280.4719
  48   2.0000     -10.306744      -280.4608
  49   2.0000     -10.305975      -280.4398
  50   2.0000     -10.305440      -280.4253
  51   2.0000     -10.305159      -280.4176
  52   2.0000     -10.305062      -280.4150
  53   2.0000     -10.304764      -280.4069
  54   2.0000     -10.304741      -280.4063
  55   2.0000     -10.302919      -280.3567
  56   2.0000     -10.302782      -280.3530
  57   2.0000     -10.301549      -280.3194
  58   2.0000     -10.299030      -280.2508
  59   2.0000     -10.298806      -280.2447
  60   2.0000     -10.298719      -280.2424
  61   2.0000     -10.298495      -280.2363
  62   2.0000     -10.298156      -280.2271
  63   2.0000     -10.293612      -280.1034
  64   2.0000     -10.293585      -280.1027
  65   2.0000     -10.293126      -280.0902
  66   2.0000     -10.292696      -280.0785
  67   2.0000     -10.292159      -280.0639
  68   2.0000     -10.290945      -280.0308
  69   2.0000     -10.287445      -279.9356
  70   2.0000     -10.286993      -279.9233
  71   2.0000     -10.286712      -279.9157
  72   2.0000     -10.286240      -279.9028
  73   2.0000     -10.286174      -279.9010
  74   2.0000     -10.261623      -279.2330
  75   2.0000     -10.260436      -279.2007
  76   2.0000     -10.260189      -279.1939
  77   2.0000     -10.259129      -279.1651
  78   2.0000      -8.078766      -219.8344
  79   2.0000      -6.047906      -164.5719
  80   2.0000      -6.043847      -164.4615
  81   2.0000      -6.041008      -164.3842
  82   2.0000      -1.300759       -35.3955
  83   2.0000      -1.201955       -32.7069
  84   2.0000      -1.167061       -31.7573
  85   2.0000      -1.144146       -31.1338
  86   2.0000      -1.131909       -30.8008
  87   2.0000      -1.129742       -30.7418
  88   2.0000      -1.122665       -30.5493
  89   2.0000      -1.059025       -28.8175
  90   2.0000      -1.049914       -28.5696
  91   2.0000      -1.025092       -27.8942
  92   2.0000      -1.023814       -27.8594
  93   2.0000      -1.015995       -27.6466
  94   2.0000      -1.009395       -27.4670
  95   2.0000      -1.005725       -27.3672
  96   2.0000      -1.003352       -27.3026
  97   2.0000      -0.999815       -27.2063
  98   2.0000      -0.999118       -27.1874
  99   2.0000      -0.994975       -27.0746
 100   2.0000      -0.987142       -26.8615
 101   2.0000      -0.979181       -26.6449
 102   2.0000      -0.972948       -26.4753
 103   2.0000      -0.935656       -25.4605
 104   2.0000      -0.931786       -25.3552
 105   2.0000      -0.926281       -25.2054
 106   2.0000      -0.924502       -25.1570
 107   2.0000      -0.923521       -25.1303
 108   2.0000      -0.920956       -25.0605
 109   2.0000      -0.905057       -24.6279
 110   2.0000      -0.903090       -24.5743
 111   2.0000      -0.889619       -24.2078
 112   2.0000      -0.886046       -24.1105
 113   2.0000      -0.883879       -24.0516
 114   2.0000      -0.881268       -23.9805
 115   2.0000      -0.874950       -23.8086
 116   2.0000      -0.868084       -23.6218
 117   2.0000      -0.859382       -23.3850
 118   2.0000      -0.841557       -22.8999
 119   2.0000      -0.836661       -22.7667
 120   2.0000      -0.835868       -22.7451
 121   2.0000      -0.829599       -22.5745
 122   2.0000      -0.817910       -22.2565
 123   2.0000      -0.815623       -22.1942
 124   2.0000      -0.806640       -21.9498
 125   2.0000      -0.800087       -21.7715
 126   2.0000      -0.783525       -21.3208
 127   2.0000      -0.772776       -21.0283
 128   2.0000      -0.769197       -20.9309
 129   2.0000      -0.761239       -20.7144
 130   2.0000      -0.757426       -20.6106
 131   2.0000      -0.743161       -20.2224
 132   2.0000      -0.735807       -20.0223
 133   2.0000      -0.732482       -19.9319
 134   2.0000      -0.720039       -19.5933
 135   2.0000      -0.715745       -19.4764
 136   2.0000      -0.711301       -19.3555
 137   2.0000      -0.708506       -19.2794
 138   2.0000      -0.706786       -19.2326
 139   2.0000      -0.704185       -19.1618
 140   2.0000      -0.701584       -19.0911
 141   2.0000      -0.697510       -18.9802
 142   2.0000      -0.688170       -18.7260
 143   2.0000      -0.683618       -18.6022
 144   2.0000      -0.678920       -18.4744
 145   2.0000      -0.677376       -18.4323
 146   2.0000      -0.663637       -18.0585
 147   2.0000      -0.661655       -18.0045
 148   2.0000      -0.656462       -17.8632
 149   2.0000      -0.652328       -17.7508
 150   2.0000      -0.646702       -17.5977
 151   2.0000      -0.642730       -17.4896
 152   2.0000      -0.634644       -17.2695
 153   2.0000      -0.629601       -17.1323
 154   2.0000      -0.622946       -16.9512
 155   2.0000      -0.619882       -16.8678
 156   2.0000      -0.614487       -16.7211
 157   2.0000      -0.609632       -16.5889
 158   2.0000      -0.608276       -16.5520
 159   2.0000      -0.603213       -16.4143
 160   2.0000      -0.599774       -16.3207
 161   2.0000      -0.597383       -16.2556
 162   2.0000      -0.593658       -16.1543
 163   2.0000      -0.587709       -15.9924
 164   2.0000      -0.583312       -15.8727
 165   2.0000      -0.580800       -15.8044
 166   2.0000      -0.575814       -15.6687
 167   2.0000      -0.566892       -15.4259
 168   2.0000      -0.563095       -15.3226
 169   2.0000      -0.560858       -15.2617
 170   2.0000      -0.558117       -15.1871
 171   2.0000      -0.556111       -15.1325
 172   2.0000      -0.554109       -15.0781
 173   2.0000      -0.553923       -15.0730
 174   2.0000      -0.548975       -14.9384
 175   2.0000      -0.547625       -14.9016
 176   2.0000      -0.547097       -14.8873
 177   2.0000      -0.546465       -14.8701
 178   2.0000      -0.539470       -14.6797
 179   2.0000      -0.538646       -14.6573
 180   2.0000      -0.537803       -14.6344
 181   2.0000      -0.535487       -14.5714
 182   2.0000      -0.532307       -14.4848
 183   2.0000      -0.530252       -14.4289
 184   2.0000      -0.529701       -14.4139
 185   2.0000      -0.525598       -14.3022
 186   2.0000      -0.523761       -14.2523
 187   2.0000      -0.522069       -14.2062
 188   2.0000      -0.519498       -14.1362
 189   2.0000      -0.518203       -14.1010
 190   2.0000      -0.515778       -14.0350
 191   2.0000      -0.513674       -13.9778
 192   2.0000      -0.512788       -13.9537
 193   2.0000      -0.511615       -13.9217
 194   2.0000      -0.508022       -13.8240
 195   2.0000      -0.503593       -13.7035
 196   2.0000      -0.501776       -13.6540
 197   2.0000      -0.501481       -13.6460
 198   2.0000      -0.497101       -13.5268
 199   2.0000      -0.496663       -13.5149
 200   2.0000      -0.494140       -13.4462
 201   2.0000      -0.492557       -13.4032
 202   2.0000      -0.490391       -13.3442
 203   2.0000      -0.486464       -13.2374
 204   2.0000      -0.485327       -13.2064
 205   2.0000      -0.481376       -13.0989
 206   2.0000      -0.474552       -12.9132
 207   2.0000      -0.473963       -12.8972
 208   2.0000      -0.471111       -12.8196
 209   2.0000      -0.466534       -12.6950
 210   2.0000      -0.465989       -12.6802
 211   2.0000      -0.460179       -12.5221
 212   2.0000      -0.456635       -12.4257
 213   2.0000      -0.454672       -12.3722
 214   2.0000      -0.453699       -12.3458
 215   2.0000      -0.453180       -12.3317
 216   2.0000      -0.452656       -12.3174
 217   2.0000      -0.450497       -12.2586
 218   2.0000      -0.450197       -12.2505
 219   2.0000      -0.449461       -12.2305
 220   2.0000      -0.448215       -12.1966
 221   2.0000      -0.446763       -12.1571
 222   2.0000      -0.446355       -12.1459
 223   2.0000      -0.442953       -12.0534
 224   2.0000      -0.441271       -12.0076
 225   2.0000      -0.440961       -11.9992
 226   2.0000      -0.439951       -11.9717
 227   2.0000      -0.435598       -11.8532
 228   2.0000      -0.434570       -11.8253
 229   2.0000      -0.433437       -11.7944
 230   2.0000      -0.433057       -11.7841
 231   2.0000      -0.431933       -11.7535
 232   2.0000      -0.431715       -11.7476
 233   2.0000      -0.427759       -11.6399
 234   2.0000      -0.427571       -11.6348
 235   2.0000      -0.426003       -11.5921
 236   2.0000      -0.423699       -11.5294
 237   2.0000      -0.419344       -11.4109
 238   2.0000      -0.418109       -11.3773
 239   2.0000      -0.416909       -11.3447
 240   2.0000      -0.413554       -11.2534
 241   2.0000      -0.411972       -11.2103
 242   2.0000      -0.408507       -11.1161
 243   2.0000      -0.405928       -11.0459
 244   2.0000      -0.404312       -11.0019
 245   2.0000      -0.401862       -10.9352
 246   2.0000      -0.396314       -10.7842
 247   2.0000      -0.386199       -10.5090
 248   2.0000      -0.385223       -10.4825
 249   2.0000      -0.383503       -10.4357
 250   2.0000      -0.374040       -10.1782
 251   2.0000      -0.361653        -9.8411
 252   2.0000      -0.354971        -9.6593
 253   2.0000      -0.350421        -9.5354
 254   2.0000      -0.348945        -9.4953
 255   2.0000      -0.343455        -9.3459
 256   2.0000      -0.339650        -9.2424
 257   2.0000      -0.336331        -9.1520
 258   2.0000      -0.326977        -8.8975
 259   2.0000      -0.324718        -8.8360
 260   2.0000      -0.317949        -8.6518
 261   2.0000      -0.313586        -8.5331
 262   2.0000      -0.311915        -8.4877
 263   2.0000      -0.301753        -8.2111
 264   2.0000      -0.298075        -8.1110
 265   2.0000      -0.291113        -7.9216
 266   2.0000      -0.285428        -7.7669
 267   2.0000      -0.233054        -6.3417
 268   0.0000      -0.111809        -3.0425
 269   0.0000      -0.097354        -2.6491
 270   0.0000      -0.078519        -2.1366
 271   0.0000      -0.066497        -1.8095
 272   0.0000      -0.057139        -1.5548

MULLIKEN ATOMIC CHARGES
-----------------------
   0 C :    0.261562
   1 C :   -0.331174
   2 C :   -0.172814
   3 N :    0.158435
   4 C :   -0.197895
   5 N :    0.170953
   6 C :    0.031715
   7 C :    0.017718
   8 C :   -0.080579
   9 C :    0.094432
  10 C :    0.092295
  11 C :   -0.078258
  12 C :   -0.014793
  13 C :    0.038251
  14 C :    0.034219
  15 C :   -0.014403
  16 C :    0.135372
  17 O :   -0.140715
  18 C :   -0.131307
  19 C :    0.095046
  20 C :   -0.117964
  21 S :    0.180447
  22 C :   -0.045864
  23 C :   -0.075986
  24 C :    0.056661
  25 C :   -0.187155
  26 N :    0.148990
  27 C :    0.041714
  28 C :   -0.036062
  29 C :    0.109313
  30 N :   -0.274648
  31 C :    0.108670
  32 C :    0.000280
  33 C :    0.149669
  34 O :   -0.183861
  35 C :   -0.037591
  36 C :   -0.029460
  37 C :    0.150202
  38 O :   -0.181954
  39 N :   -0.277216
  40 C :    0.096829
  41 C :   -0.000874
  42 C :    0.134602
  43 C :   -0.021164
  44 C :   -0.035747
  45 C :    0.031297
  46 C :    0.145828
  47 O :   -0.312710
  48 C :    0.193425
  49 C :    0.140442
  50 O :   -0.288482
  51 C :    0.173541
  52 C :   -0.028104
  53 C :   -0.041791
  54 C :   -0.026441
  55 N :    0.047136
  56 O :   -0.099223
  57 N :    0.045319
  58 C :   -0.046495
  59 C :   -0.146018
  60 C :    0.287297
  61 C :   -0.332476
  62 C :   -0.182296
  63 N :    0.156994
  64 C :   -0.202984
  65 N :    0.165451
  66 C :    0.054210
  67 C :   -0.001889
  68 C :    0.163732
  69 O :   -0.162170
  70 C :   -0.077408
  71 C :    0.094525
  72 C :    0.094204
  73 C :   -0.079124
  74 C :   -0.017429
  75 C :    0.038989
  76 C :    0.035627
  77 C :   -0.014717
  78 H :   -0.011929
  79 H :   -0.005198
  80 H :   -0.009948
  81 H :   -0.004315
  82 H :   -0.004007
  83 H :   -0.017620
  84 H :    0.027166
  85 H :    0.015233
  86 H :   -0.017205
  87 H :    0.035726
  88 H :    0.025764
  89 H :    0.038519
  90 H :    0.014610
  91 H :    0.023141
  92 H :    0.037604
  93 H :    0.030809
  94 H :    0.047098
  95 H :    0.024625
  96 H :    0.018558
  97 H :    0.024248
  98 H :    0.031937
  99 H :   -0.020103
 100 H :    0.028292
 101 H :    0.040025
 102 H :    0.027824
 103 H :    0.046008
 104 H :    0.057791
 105 H :    0.045754
 106 H :    0.053450
 107 H :   -0.015796
 108 H :   -0.005774
 109 H :   -0.007606
 110 H :   -0.002658
 111 H :   -0.002957
 112 H :   -0.017214
Sum of atomic charges:    0.0000000

LOEWDIN ATOMIC CHARGES
----------------------
   0 C :    0.064359
   1 C :   -0.136910
   2 C :   -0.019985
   3 N :   -0.046769
   4 C :   -0.018437
   5 N :   -0.041542
   6 C :   -0.023956
   7 C :   -0.057820
   8 C :    0.033886
   9 C :   -0.008987
  10 C :   -0.005162
  11 C :    0.017335
  12 C :   -0.005569
  13 C :   -0.011769
  14 C :   -0.012426
  15 C :   -0.008691
  16 C :    0.083605
  17 O :   -0.141512
  18 C :   -0.085461
  19 C :    0.046595
  20 C :   -0.183272
  21 S :    0.484835
  22 C :   -0.121024
  23 C :   -0.098677
  24 C :    0.013338
  25 C :   -0.033816
  26 N :   -0.039096
  27 C :   -0.042180
  28 C :    0.002228
  29 C :    0.066206
  30 N :   -0.006285
  31 C :    0.036382
  32 C :   -0.063148
  33 C :    0.080417
  34 O :   -0.186215
  35 C :   -0.112892
  36 C :   -0.105785
  37 C :    0.083044
  38 O :   -0.181279
  39 N :   -0.008701
  40 C :    0.034170
  41 C :   -0.063008
  42 C :    0.082122
  43 C :   -0.019285
  44 C :    0.001368
  45 C :   -0.048648
  46 C :    0.064455
  47 O :   -0.085937
  48 C :    0.080112
  49 C :    0.087986
  50 O :   -0.042147
  51 C :    0.086549
  52 C :   -0.097607
  53 C :   -0.046808
  54 C :   -0.050744
  55 N :   -0.015637
  56 O :    0.068779
  57 N :   -0.032215
  58 C :    0.077994
  59 C :   -0.102907
  60 C :    0.073421
  61 C :   -0.135809
  62 C :   -0.018733
  63 N :   -0.047921
  64 C :   -0.026561
  65 N :   -0.048694
  66 C :   -0.025882
  67 C :   -0.055968
  68 C :    0.084588
  69 O :   -0.151661
  70 C :    0.031976
  71 C :   -0.008704
  72 C :   -0.005778
  73 C :    0.021751
  74 C :   -0.004576
  75 C :   -0.010814
  76 C :   -0.010680
  77 C :   -0.009287
  78 H :    0.039595
  79 H :    0.039101
  80 H :    0.034763
  81 H :    0.033503
  82 H :    0.033120
  83 H :    0.031952
  84 H :    0.047333
  85 H :    0.043390
  86 H :    0.031585
  87 H :    0.054446
  88 H :    0.024764
  89 H :    0.037147
  90 H :    0.017813
  91 H :    0.030420
  92 H :    0.035725
  93 H :    0.021371
  94 H :    0.038322
  95 H :    0.022685
  96 H :    0.029370
  97 H :    0.031031
  98 H :    0.046575
  99 H :    0.029559
 100 H :    0.022384
 101 H :    0.020494
 102 H :    0.017882
 103 H :    0.023225
 104 H :    0.030650
 105 H :    0.031797
 106 H :    0.052362
 107 H :    0.038108
 108 H :    0.039973
 109 H :    0.035522
 110 H :    0.034204
 111 H :    0.033732
 112 H :    0.031975

  Mayer bond orders larger than 0.100000
B(  0-C ,  1-C ) :   1.6539 B(  0-C ,  6-C ) :   0.9999 B(  0-C , 18-C ) :   1.0321
B(  1-C ,  2-C ) :   1.1286 B(  1-C ,  4-C ) :   1.1671 B(  2-C ,  3-N ) :   2.9887
B(  4-C ,  5-N ) :   2.9958 B(  6-C ,  7-C ) :   1.2134 B(  6-C , 11-C ) :   1.4556
B(  7-C ,  8-C ) :   1.4722 B(  7-C , 16-C ) :   0.9221 B(  8-C ,  9-C ) :   1.1834
B(  8-C , 78-H ) :   1.0166 B(  9-C , 10-C ) :   1.2574 B(  9-C , 15-C ) :   1.2450
B( 10-C , 11-C ) :   1.2039 B( 10-C , 12-C ) :   1.2409 B( 11-C , 79-H ) :   0.9943
B( 12-C , 13-C ) :   1.4890 B( 12-C , 80-H ) :   0.9978 B( 13-C , 14-C ) :   1.2598
B( 13-C , 81-H ) :   0.9888 B( 14-C , 15-C ) :   1.4884 B( 14-C , 82-H ) :   0.9893
B( 15-C , 83-H ) :   0.9981 B( 16-C , 17-O ) :   2.2721 B( 16-C , 18-C ) :   0.9352
B( 18-C , 19-C ) :   1.6939 B( 19-C , 20-C ) :   1.0991 B( 19-C , 84-H ) :   0.9298
B( 20-C , 21-S ) :   1.1117 B( 20-C , 24-C ) :   1.4414 B( 21-S , 22-C ) :   1.1609
B( 22-C , 23-C ) :   1.4258 B( 22-C , 27-C ) :   1.1513 B( 23-C , 24-C ) :   1.3451
B( 23-C , 25-C ) :   1.1076 B( 24-C , 85-H ) :   0.9959 B( 25-C , 26-N ) :   2.9995
B( 27-C , 28-C ) :   1.5985 B( 27-C , 86-H ) :   0.9480 B( 28-C , 29-C ) :   1.1875
B( 28-C , 87-H ) :   0.9375 B( 29-C , 30-N ) :   1.1760 B( 29-C , 36-C ) :   1.3398
B( 30-N , 31-C ) :   0.9422 B( 30-N , 33-C ) :   1.0276 B( 31-C , 32-C ) :   1.1146
B( 31-C , 88-H ) :   0.9507 B( 31-C , 89-H ) :   0.9295 B( 32-C , 90-H ) :   0.9645
B( 32-C , 91-H ) :   0.9691 B( 32-C , 92-H ) :   0.9601 B( 33-C , 34-O ) :   2.1323
B( 33-C , 35-C ) :   0.9770 B( 35-C , 36-C ) :   1.2427 B( 35-C , 42-C ) :   1.3377
B( 36-C , 37-C ) :   0.9723 B( 37-C , 38-O ) :   2.1324 B( 37-C , 39-N ) :   1.0308
B( 39-N , 40-C ) :   0.9438 B( 39-N , 42-C ) :   1.1700 B( 40-C , 41-C ) :   1.1182
B( 40-C , 93-H ) :   0.9501 B( 40-C , 94-H ) :   0.9213 B( 41-C , 95-H ) :   0.9672
B( 41-C , 96-H ) :   0.9671 B( 41-C , 97-H ) :   0.9620 B( 42-C , 43-C ) :   1.1687
B( 43-C , 44-C ) :   1.5468 B( 43-C , 98-H ) :   0.9344 B( 44-C , 45-C ) :   1.1625
B( 44-C , 99-H ) :   0.9633 B( 45-C , 46-C ) :   1.4626 B( 45-C , 54-C ) :   1.0916
B( 46-C , 47-O ) :   1.2227 B( 46-C , 49-C ) :   1.0924 B( 47-O , 48-C ) :   0.9090
B( 48-C ,100-H ) :   0.9754 B( 48-C ,101-H ) :   0.9670 B( 48-C ,102-H ) :   0.9757
B( 49-C , 50-O ) :   1.2335 B( 49-C , 52-C ) :   1.3137 B( 50-O , 51-C ) :   0.9336
B( 51-C ,103-H ) :   0.9592 B( 51-C ,104-H ) :   0.9586 B( 51-C ,105-H ) :   0.9731
B( 52-C , 53-C ) :   1.1151 B( 52-C , 58-C ) :   1.1732 B( 53-C , 54-C ) :   1.1463
B( 53-C , 57-N ) :   1.6619 B( 54-C , 55-N ) :   1.6161 B( 55-N , 56-O ) :   1.0550
B( 55-N , 57-N ) :   0.1660 B( 56-O , 57-N ) :   1.0464 B( 58-C , 59-C ) :   1.5642
B( 58-C ,106-H ) :   0.9530 B( 59-C , 60-C ) :   1.0440 B( 59-C , 68-C ) :   0.9598
B( 60-C , 61-C ) :   1.6664 B( 60-C , 66-C ) :   1.0002 B( 61-C , 62-C ) :   1.1396
B( 61-C , 64-C ) :   1.1430 B( 62-C , 63-N ) :   2.9766 B( 64-C , 65-N ) :   2.9928
B( 66-C , 67-C ) :   1.2093 B( 66-C , 73-C ) :   1.4544 B( 67-C , 68-C ) :   0.9613
B( 67-C , 70-C ) :   1.4737 B( 68-C , 69-O ) :   2.1282 B( 70-C , 71-C ) :   1.1774
B( 70-C ,107-H ) :   1.0157 B( 71-C , 72-C ) :   1.2578 B( 71-C , 77-C ) :   1.2459
B( 72-C , 73-C ) :   1.2016 B( 72-C , 74-C ) :   1.2413 B( 73-C ,108-H ) :   0.9917
B( 74-C , 75-C ) :   1.4882 B( 74-C ,109-H ) :   0.9968 B( 75-C , 76-C ) :   1.2628
B( 75-C ,110-H ) :   0.9881 B( 76-C , 77-C ) :   1.4866 B( 76-C ,111-H ) :   0.9890
B( 77-C ,112-H ) :   0.9971

-----------------------------------------------------------------------------
         ABSORPTION SPECTRUM VIA TRANSITION ELECTRIC DIPOLE MOMENTS
-----------------------------------------------------------------------------
State   Energy  Wavelength   fosc         T2         TX        TY        TZ
        (cm-1)    (nm)                  (au**2)     (au)      (au)      (au)
-----------------------------------------------------------------------------
   0   12546.7    797.0   1.493196133  39.17999   4.68784  -4.14735   0.05995
   1   17269.9    579.0   0.005106289   0.09734  -0.11941   0.01081   0.28804
   2   21112.9    473.6   0.113128357   1.76401  -0.17287  -1.11931  -0.69373
   3   22425.0    445.9   0.296849678   4.35793  -1.14341   1.73882   0.16453
   4   24075.1    415.4   0.292791085   4.00374   0.99897  -1.72455  -0.17814
   5   24692.8    405.0   0.236664293   3.15528   1.05654  -1.37159  -0.39715
   6   25449.5    392.9   0.002553030   0.03303   0.02883  -0.05489   0.17083
   7   25876.9    386.4   0.028950838   0.36832  -0.20314  -0.23094  -0.52318
   8   26024.7    384.3   0.154449531   1.95379   1.07836  -0.83330  -0.31071
   9   26464.8    377.9   0.023505647   0.29240   0.24966   0.20156   0.43525
  10   27188.7    367.8   0.082252160   0.99594   0.14408   0.76694  -0.62208
  11   27248.8    367.0   0.003390908   0.04097   0.09869  -0.17635   0.01138
  12   27704.9    360.9   0.119287535   1.41747  -0.64082   0.66475   0.75162
  13   28292.1    353.5   0.123557997   1.43774   0.87060  -0.41535  -0.71223
  14   28611.8    349.5   0.003393329   0.03904  -0.18970   0.05504   0.00551
  15   28930.9    345.7   0.028022783   0.31888  -0.44188   0.07424   0.34367
  16   29580.2    338.1   0.040660234   0.45253   0.29793  -0.43918  -0.41338
  17   29734.2    336.3   0.028734799   0.31815   0.47331   0.15937  -0.26215
  18   30316.5    329.9   0.033727937   0.36626   0.01365   0.41656   0.43880
  19   30662.0    326.1   0.074127962   0.79590  -0.10959   0.59180   0.65853
  20   30850.4    324.1   0.093871149   1.00172  -0.18557   0.68040   0.71017
  21   31897.2    313.5   0.346042493   3.57151   0.09698   1.16878  -1.48191
  22   33075.5    302.3   0.020612322   0.20516   0.08870  -0.43440  -0.09268
  23   33107.0    302.1   0.075461632   0.75038   0.44343  -0.21375   0.71279
  24   33386.2    299.5   0.684643405   6.75108   1.57640  -1.01359  -1.79964
  25   33518.6    298.3   0.368675520   3.62105   0.22407   0.45146  -1.83495
  26   34093.7    293.3   0.064339462   0.62127  -0.37665   0.26990   0.63762
  27   34182.8    292.5   0.020581284   0.19822  -0.32398  -0.23967  -0.18924
  28   34308.9    291.5   0.077029451   0.73914  -0.66555   0.50366   0.20619
  29   34453.6    290.2   0.052582600   0.50244   0.41021  -0.44068  -0.37413
  30   34777.3    287.5   0.009925806   0.09396   0.23946  -0.17599  -0.07513
  31   35135.8    284.6   0.006289107   0.05893  -0.15091   0.14833   0.11896
  32   35736.3    279.8   0.005190914   0.04782  -0.05425  -0.21144   0.01307
  33   35878.3    278.7   0.106387396   0.97619   0.33495  -0.65379   0.66072
  34   36190.6    276.3   0.072000793   0.65496   0.46020  -0.10831  -0.65685
  35   36606.2    273.2   0.053468130   0.48086   0.04230  -0.30317  -0.62222
  36   36738.1    272.2   0.143422973   1.28522  -0.11204   0.14004   1.11940
  37   36844.4    271.4   0.117301588   1.04811  -0.28775   0.85348  -0.48671
  38   36932.8    270.8   0.009866457   0.08795  -0.04501  -0.10333   0.27431
  39   37085.0    269.7   0.065208582   0.57887  -0.38614   0.16986   0.63318
  40   37615.9    265.8   0.108942535   0.95346  -0.41169  -0.27236   0.84249
  41   37790.7    264.6   0.018819097   0.16394  -0.06458   0.12335  -0.38021
  42   38136.1    262.2   0.015285893   0.13196  -0.23236   0.10686  -0.25797
  43   38461.4    260.0   0.107375031   0.91908   0.93360  -0.21267   0.04742
  44   38644.5    258.8   0.087511146   0.74551  -0.46249   0.62873  -0.36921
  45   38999.3    256.4   0.301628612   2.54619   0.04579  -0.69881  -1.43379
  46   39115.2    255.7   0.158186669   1.33137  -1.02597   0.09213   0.51988
  47   39511.0    253.1   0.095837954   0.79854  -0.82672  -0.09832   0.32467
  48   39988.9    250.1   0.029210833   0.24048  -0.30531  -0.35054   0.15617
  49   40310.0    248.1   0.027059002   0.22099   0.37786   0.26800   0.07990

FINAL SINGLE POINT ENERGY     -3758.562704823486

DIPOLE MOMENT
-------------
                                X             Y             Z
Electronic contribution:     15.77869     -10.84336      23.11692
Nuclear contribution   :    -16.02672      12.14159     -27.63597
                        -----------------------------------------
Total Dipole Moment    :     -0.24803       1.29823      -4.51905
                        -----------------------------------------
Magnitude (a.u.)       :      4.70837
Magnitude (Debye)      :     11.96773

Rotational constants in cm-1:     0.002457     0.000176     0.000172
Rotational constants in MHz :    73.668000     5.263473     5.152991

                             ****ORCA TERMINATED NORMALLY****
TOTAL RUN TIME: 0 days 0 hours 11 minutes 12 seconds 293 msec
