                         Program Version 4.2.0 -  RELEASE  -
|  1> # ORCA input file
|  2> # SCF done       -212.206277076781          0.000998143176
|  3> ! CAM-B3LYP def2-SVP def2/J RIJCOSX Grid4 TightSCF
|  4> %maxcore 5000
|  5> %tddft
|  6>     Mode sTDDFT
|  7>     Ethresh 5.0
|  8>     maxcore 5000
|  9> end
| 10>
| 11> %pal
| 12>   nprocs 6
| 13>   end
| 14> * xyz 0 1
| 15>    C        7.03494        13.35757        -5.95054
| 16>    C        5.70717        13.67007        -5.81833
| 17>    C        5.08973        14.76465        -6.45800
| 18>    N        4.53790        15.63937        -6.95524
| 19>    C        4.79756        12.88499        -5.08932
| 20>    N        4.01016        12.24718        -4.54732
| 21>    C        7.96939        13.98747        -6.87083
| 22>    C        9.06209        13.09721        -7.09162
| 23>    C       10.08312        13.41480        -7.94024
| 24>    C       10.06132        14.65993        -8.60835
| 25>    C        8.98298        15.56219        -8.37371
| 26>    C        7.93543        15.20527        -7.49441
| 27>    C        8.98244        16.80602        -9.03738
| 28>    C        9.99353        17.14274        -9.89555
| 29>    C       11.05233        16.25238       -10.12893
| 30>    C       11.08535        15.03789        -9.49905
| 31>    C        8.88421        11.89299        -6.26377
| 32>    O        9.56250        10.89272        -6.22830
| 33>    C        7.69588        12.18698        -5.40770
| 34>    C        7.50711        11.47012        -4.27398
| 35>    C        6.70213        11.75521        -3.13255
| 36>    C        6.37205        12.98386        -2.55350
| 37>    N        6.87109        14.26226        -2.84378
| 38>    O        7.71917        14.39247        -3.71826
| 39>    O        6.43070        15.19686        -2.19433
| 40>    C        5.48788        12.76880        -1.44396
| 41>    C        5.20833        11.44590        -1.37076
| 42>    C        5.96215        10.74988        -2.38880
| 43>    C        5.94909         9.37086        -2.55883
| 44>    C        6.99037         8.49723        -2.94318
| 45>    C        6.62688         7.20702        -2.63654
| 46>    C        5.30193         7.19594        -2.12613
| 47>    N        4.61544         6.02376        -1.78961
| 48>    O        5.21877         4.96772        -1.89551
| 49>    O        3.45735         6.10973        -1.40423
| 50>    C        4.81525         8.51181        -2.11975
| 51>    C        3.49962         8.93183        -1.94309
| 52>    C        2.99256        10.11632        -2.44272
| 53>    C        1.70707        10.59539        -2.18702
| 54>    S        1.10585        12.00004        -3.03397
| 55>    C       -0.42007        11.92434        -2.22674
| 56>    C       -0.47313        10.83752        -1.35965
| 57>    C        0.72305        10.10024        -1.31458
| 58>    O        0.89708         9.04554        -0.51460
| 59>    O       -1.54816        10.44521        -0.60327
| 60>    C       -2.63063         9.89990        -1.35708
| 61>    C       -1.43097        12.89783        -2.49509
| 62>    C       -2.44349        13.19044        -1.66148
| 63>    C       -3.50279        14.12012        -2.02915
| 64>    C       -4.19713        13.92811        -3.22308
| 65>    C       -4.13473        12.81479        -4.19790
| 66>    O       -3.46301        11.81906        -4.17647
| 67>    O       -5.03973        13.06264        -5.16951
| 68>    C       -5.75204        14.26543        -4.92827
| 69>    C       -5.21231        14.78495        -3.63600
| 70>    C       -5.57409        15.87505        -2.86632
| 71>    C       -4.91639        16.06541        -1.66586
| 72>    C       -3.89342        15.21237        -1.22183
| 73>    C       -3.19995        15.44803         0.02266
| 74>    C       -3.56480        16.32563         0.98464
| 75>    C       -2.82003        16.45931         2.18630
| 76>    C       -3.13538        17.31162         3.20115
| 77>    C       -2.42307        17.47089         4.45964
| 78>    C       -1.37709        16.71051         4.91276
| 79>    C       -0.74119        16.90366         6.15811
| 80>    N       -0.18373        17.00639         7.15600
| 81>    C       -0.79858        15.61894         4.23160
| 82>    N       -0.28302        14.71562         3.74431
| 83>    C       -3.04997        18.56698         5.18862
| 84>    C       -4.15623        19.04711         4.43043
| 85>    C       -4.26621        18.28064         3.18002
| 86>    O       -5.10497        18.42395         2.31423
| 87>    C       -4.94348        20.07252         4.87005
| 88>    C       -4.65462        20.67967         6.11201
| 89>    C       -3.54640        20.20969         6.87488
| 90>    C       -2.74970        19.14570         6.39417
| 91>    C       -3.26494        20.82413         8.11228
| 92>    C       -4.04025        21.85199         8.57562
| 93>    C       -5.13138        22.31335         7.82384
| 94>    C       -5.43205        21.73981         6.61819
| 95>    H       10.90032        12.72685        -8.09914
| 96>    H        7.13825        15.91074        -7.31926
| 97>    H        8.16400        17.48702        -8.85601
| 98>    H        9.98337        18.09748       -10.39979
| 99>    H       11.84222        16.53419       -10.80910
|100>    H       11.89895        14.34911        -9.67394
|101>    H        8.10198        10.56580        -4.22296
|102>    H        5.14416        13.55502        -0.80055
|103>    H        4.62145        10.95971        -0.61691
|104>    H        7.96243         8.78556        -3.29098
|105>    H        7.22839         6.32446        -2.75371
|106>    H        2.82592         8.23432        -1.45975
|107>    H        3.57647        10.70334        -3.14058
|108>    H        0.07928         8.89969        -0.01106
|109>    H       -2.35949         8.91843        -1.75751
|110>    H       -2.91933        10.55355        -2.18219
|111>    H       -3.45620         9.79371        -0.65659
|112>    H       -1.32367        13.44036        -3.42432
|113>    H       -2.50088        12.72376        -0.68772
|114>    H       -6.82189        14.03502        -4.88061
|115>    H       -5.58129        14.95331        -5.76420
|116>    H       -6.35096        16.55169        -3.18539
|117>    H       -5.19136        16.91021        -1.05510
|118>    H       -2.31308        14.84864         0.18755
|119>    H       -4.44485        16.94131         0.88584
|120>    H       -1.94441        15.82998         2.28033
|121>    H       -5.77728        20.41597         4.27572
|122>    H       -1.91686        18.81690         6.99495
|123>    H       -2.42438        20.46520         8.68779
|124>    H       -3.81706        22.31561         9.52473
|125>    H       -5.73227        23.12546         8.20483
|126>    H       -6.27070        22.09087         6.03486
|127> *
|128>
|129>                          ****END OF INPUT****

CARTESIAN COORDINATES (ANGSTROEM)
---------------------------------
  C      7.034940   13.357570   -5.950540
  C      5.707170   13.670070   -5.818330
  C      5.089730   14.764650   -6.458000
  N      4.537900   15.639370   -6.955240
  C      4.797560   12.884990   -5.089320
  N      4.010160   12.247180   -4.547320
  C      7.969390   13.987470   -6.870830
  C      9.062090   13.097210   -7.091620
  C     10.083120   13.414800   -7.940240
  C     10.061320   14.659930   -8.608350
  C      8.982980   15.562190   -8.373710
  C      7.935430   15.205270   -7.494410
  C      8.982440   16.806020   -9.037380
  C      9.993530   17.142740   -9.895550
  C     11.052330   16.252380  -10.128930
  C     11.085350   15.037890   -9.499050
  C      8.884210   11.892990   -6.263770
  O      9.562500   10.892720   -6.228300
  C      7.695880   12.186980   -5.407700
  C      7.507110   11.470120   -4.273980
  C      6.702130   11.755210   -3.132550
  C      6.372050   12.983860   -2.553500
  N      6.871090   14.262260   -2.843780
  O      7.719170   14.392470   -3.718260
  O      6.430700   15.196860   -2.194330
  C      5.487880   12.768800   -1.443960
  C      5.208330   11.445900   -1.370760
  C      5.962150   10.749880   -2.388800
  C      5.949090    9.370860   -2.558830
  C      6.990370    8.497230   -2.943180
  C      6.626880    7.207020   -2.636540
  C      5.301930    7.195940   -2.126130
  N      4.615440    6.023760   -1.789610
  O      5.218770    4.967720   -1.895510
  O      3.457350    6.109730   -1.404230
  C      4.815250    8.511810   -2.119750
  C      3.499620    8.931830   -1.943090
  C      2.992560   10.116320   -2.442720
  C      1.707070   10.595390   -2.187020
  S      1.105850   12.000040   -3.033970
  C     -0.420070   11.924340   -2.226740
  C     -0.473130   10.837520   -1.359650
  C      0.723050   10.100240   -1.314580
  O      0.897080    9.045540   -0.514600
  O     -1.548160   10.445210   -0.603270
  C     -2.630630    9.899900   -1.357080
  C     -1.430970   12.897830   -2.495090
  C     -2.443490   13.190440   -1.661480
  C     -3.502790   14.120120   -2.029150
  C     -4.197130   13.928110   -3.223080
  C     -4.134730   12.814790   -4.197900
  O     -3.463010   11.819060   -4.176470
  O     -5.039730   13.062640   -5.169510
  C     -5.752040   14.265430   -4.928270
  C     -5.212310   14.784950   -3.636000
  C     -5.574090   15.875050   -2.866320
  C     -4.916390   16.065410   -1.665860
  C     -3.893420   15.212370   -1.221830
  C     -3.199950   15.448030    0.022660
  C     -3.564800   16.325630    0.984640
  C     -2.820030   16.459310    2.186300
  C     -3.135380   17.311620    3.201150
  C     -2.423070   17.470890    4.459640
  C     -1.377090   16.710510    4.912760
  C     -0.741190   16.903660    6.158110
  N     -0.183730   17.006390    7.156000
  C     -0.798580   15.618940    4.231600
  N     -0.283020   14.715620    3.744310
  C     -3.049970   18.566980    5.188620
  C     -4.156230   19.047110    4.430430
  C     -4.266210   18.280640    3.180020
  O     -5.104970   18.423950    2.314230
  C     -4.943480   20.072520    4.870050
  C     -4.654620   20.679670    6.112010
  C     -3.546400   20.209690    6.874880
  C     -2.749700   19.145700    6.394170
  C     -3.264940   20.824130    8.112280
  C     -4.040250   21.851990    8.575620
  C     -5.131380   22.313350    7.823840
  C     -5.432050   21.739810    6.618190
  H     10.900320   12.726850   -8.099140
  H      7.138250   15.910740   -7.319260
  H      8.164000   17.487020   -8.856010
  H      9.983370   18.097480  -10.399790
  H     11.842220   16.534190  -10.809100
  H     11.898950   14.349110   -9.673940
  H      8.101980   10.565800   -4.222960
  H      5.144160   13.555020   -0.800550
  H      4.621450   10.959710   -0.616910
  H      7.962430    8.785560   -3.290980
  H      7.228390    6.324460   -2.753710
  H      2.825920    8.234320   -1.459750
  H      3.576470   10.703340   -3.140580
  H      0.079280    8.899690   -0.011060
  H     -2.359490    8.918430   -1.757510
  H     -2.919330   10.553550   -2.182190
  H     -3.456200    9.793710   -0.656590
  H     -1.323670   13.440360   -3.424320
  H     -2.500880   12.723760   -0.687720
  H     -6.821890   14.035020   -4.880610
  H     -5.581290   14.953310   -5.764200
  H     -6.350960   16.551690   -3.185390
  H     -5.191360   16.910210   -1.055100
  H     -2.313080   14.848640    0.187550
  H     -4.444850   16.941310    0.885840
  H     -1.944410   15.829980    2.280330
  H     -5.777280   20.415970    4.275720
  H     -1.916860   18.816900    6.994950
  H     -2.424380   20.465200    8.687790
  H     -3.817060   22.315610    9.524730
  H     -5.732270   23.125460    8.204830
  H     -6.270700   22.090870    6.034860

 Total Charge           Charge          ....    0
 Multiplicity           Mult            ....    1
 Number of Electrons    NEL             ....  548
 Basis Dimension        Dim             .... 1284

ORBITAL ENERGIES
----------------

  NO   OCC          E(Eh)            E(eV)
   0   2.0000     -88.969431     -2420.9813
   1   2.0000     -19.277762      -524.5746
   2   2.0000     -19.274385      -524.4827
   3   2.0000     -19.260961      -524.1174
   4   2.0000     -19.231186      -523.3072
   5   2.0000     -19.230465      -523.2876
   6   2.0000     -19.222737      -523.0773
   7   2.0000     -19.212954      -522.8111
   8   2.0000     -19.209922      -522.7286
   9   2.0000     -19.209137      -522.7072
  10   2.0000     -19.208499      -522.6898
  11   2.0000     -14.638187      -398.3253
  12   2.0000     -14.620575      -397.8461
  13   2.0000     -14.420815      -392.4103
  14   2.0000     -14.419752      -392.3814
  15   2.0000     -14.417817      -392.3288
  16   2.0000     -14.409976      -392.1154
  17   2.0000     -10.414786      -283.4007
  18   2.0000     -10.373226      -282.2698
  19   2.0000     -10.364450      -282.0310
  20   2.0000     -10.359141      -281.8866
  21   2.0000     -10.358279      -281.8631
  22   2.0000     -10.346342      -281.5383
  23   2.0000     -10.345397      -281.5126
  24   2.0000     -10.344685      -281.4932
  25   2.0000     -10.338330      -281.3203
  26   2.0000     -10.336116      -281.2600
  27   2.0000     -10.327167      -281.0165
  28   2.0000     -10.325351      -280.9671
  29   2.0000     -10.324704      -280.9495
  30   2.0000     -10.323509      -280.9170
  31   2.0000     -10.320803      -280.8433
  32   2.0000     -10.320793      -280.8431
  33   2.0000     -10.320569      -280.8370
  34   2.0000     -10.320244      -280.8281
  35   2.0000     -10.316813      -280.7348
  36   2.0000     -10.316637      -280.7300
  37   2.0000     -10.313708      -280.6503
  38   2.0000     -10.313092      -280.6335
  39   2.0000     -10.311971      -280.6030
  40   2.0000     -10.311626      -280.5936
  41   2.0000     -10.310687      -280.5681
  42   2.0000     -10.309374      -280.5323
  43   2.0000     -10.308501      -280.5086
  44   2.0000     -10.307732      -280.4877
  45   2.0000     -10.306907      -280.4652
  46   2.0000     -10.306373      -280.4507
  47   2.0000     -10.305840      -280.4362
  48   2.0000     -10.305332      -280.4223
  49   2.0000     -10.304351      -280.3956
  50   2.0000     -10.303851      -280.3820
  51   2.0000     -10.301807      -280.3264
  52   2.0000     -10.301503      -280.3181
  53   2.0000     -10.301067      -280.3063
  54   2.0000     -10.300538      -280.2919
  55   2.0000     -10.300394      -280.2880
  56   2.0000     -10.298131      -280.2264
  57   2.0000     -10.297211      -280.2014
  58   2.0000     -10.296662      -280.1864
  59   2.0000     -10.295166      -280.1457
  60   2.0000     -10.293447      -280.0989
  61   2.0000     -10.292727      -280.0794
  62   2.0000     -10.292384      -280.0700
  63   2.0000     -10.292121      -280.0628
  64   2.0000     -10.291196      -280.0377
  65   2.0000     -10.291104      -280.0352
  66   2.0000     -10.290910      -280.0299
  67   2.0000     -10.290490      -280.0185
  68   2.0000     -10.289978      -280.0045
  69   2.0000     -10.289565      -279.9933
  70   2.0000     -10.289019      -279.9784
  71   2.0000     -10.285416      -279.8804
  72   2.0000     -10.283682      -279.8332
  73   2.0000     -10.281550      -279.7752
  74   2.0000     -10.280970      -279.7594
  75   2.0000     -10.280746      -279.7533
  76   2.0000     -10.280205      -279.7386
  77   2.0000     -10.273780      -279.5638
  78   2.0000     -10.269306      -279.4420
  79   2.0000     -10.268801      -279.4283
  80   2.0000      -8.064766      -219.4534
  81   2.0000      -6.034088      -164.1959
  82   2.0000      -6.030179      -164.0895
  83   2.0000      -6.026396      -163.9866
  84   2.0000      -1.308074       -35.5945
  85   2.0000      -1.288566       -35.0637
  86   2.0000      -1.209469       -32.9113
  87   2.0000      -1.182268       -32.1711
  88   2.0000      -1.151448       -31.3325
  89   2.0000      -1.136951       -30.9380
  90   2.0000      -1.124618       -30.6024
  91   2.0000      -1.123301       -30.5666
  92   2.0000      -1.119476       -30.4625
  93   2.0000      -1.105468       -30.0813
  94   2.0000      -1.022051       -27.8114
  95   2.0000      -1.017301       -27.6822
  96   2.0000      -1.002670       -27.2840
  97   2.0000      -1.002578       -27.2815
  98   2.0000      -0.999531       -27.1986
  99   2.0000      -0.997531       -27.1442
 100   2.0000      -0.996475       -27.1155
 101   2.0000      -0.995545       -27.0902
 102   2.0000      -0.990580       -26.9551
 103   2.0000      -0.980965       -26.6934
 104   2.0000      -0.975478       -26.5441
 105   2.0000      -0.965520       -26.2731
 106   2.0000      -0.939112       -25.5545
 107   2.0000      -0.928559       -25.2674
 108   2.0000      -0.924603       -25.1597
 109   2.0000      -0.919163       -25.0117
 110   2.0000      -0.909695       -24.7540
 111   2.0000      -0.902926       -24.5699
 112   2.0000      -0.897350       -24.4181
 113   2.0000      -0.894285       -24.3347
 114   2.0000      -0.886461       -24.1218
 115   2.0000      -0.883266       -24.0349
 116   2.0000      -0.876137       -23.8409
 117   2.0000      -0.873627       -23.7726
 118   2.0000      -0.868391       -23.6301
 119   2.0000      -0.863845       -23.5064
 120   2.0000      -0.850450       -23.1419
 121   2.0000      -0.849934       -23.1279
 122   2.0000      -0.836353       -22.7583
 123   2.0000      -0.832226       -22.6460
 124   2.0000      -0.823983       -22.4217
 125   2.0000      -0.823122       -22.3983
 126   2.0000      -0.818306       -22.2672
 127   2.0000      -0.801626       -21.8134
 128   2.0000      -0.792363       -21.5613
 129   2.0000      -0.788179       -21.4474
 130   2.0000      -0.772240       -21.0137
 131   2.0000      -0.766007       -20.8441
 132   2.0000      -0.765179       -20.8216
 133   2.0000      -0.752801       -20.4847
 134   2.0000      -0.749272       -20.3887
 135   2.0000      -0.740435       -20.1483
 136   2.0000      -0.722041       -19.6477
 137   2.0000      -0.715646       -19.4737
 138   2.0000      -0.712296       -19.3826
 139   2.0000      -0.708909       -19.2904
 140   2.0000      -0.708065       -19.2674
 141   2.0000      -0.705582       -19.1999
 142   2.0000      -0.697226       -18.9725
 143   2.0000      -0.693724       -18.8772
 144   2.0000      -0.686663       -18.6850
 145   2.0000      -0.681895       -18.5553
 146   2.0000      -0.677043       -18.4233
 147   2.0000      -0.673646       -18.3308
 148   2.0000      -0.668660       -18.1952
 149   2.0000      -0.661272       -17.9941
 150   2.0000      -0.656743       -17.8709
 151   2.0000      -0.651920       -17.7397
 152   2.0000      -0.644674       -17.5425
 153   2.0000      -0.641065       -17.4443
 154   2.0000      -0.635943       -17.3049
 155   2.0000      -0.628754       -17.1093
 156   2.0000      -0.628078       -17.0909
 157   2.0000      -0.625043       -17.0083
 158   2.0000      -0.620822       -16.8934
 159   2.0000      -0.618453       -16.8290
 160   2.0000      -0.615688       -16.7537
 161   2.0000      -0.610694       -16.6178
 162   2.0000      -0.608097       -16.5472
 163   2.0000      -0.605165       -16.4674
 164   2.0000      -0.603361       -16.4183
 165   2.0000      -0.601903       -16.3786
 166   2.0000      -0.601626       -16.3711
 167   2.0000      -0.599676       -16.3180
 168   2.0000      -0.593842       -16.1593
 169   2.0000      -0.588160       -16.0046
 170   2.0000      -0.586445       -15.9580
 171   2.0000      -0.578934       -15.7536
 172   2.0000      -0.575778       -15.6677
 173   2.0000      -0.567498       -15.4424
 174   2.0000      -0.565228       -15.3806
 175   2.0000      -0.564564       -15.3626
 176   2.0000      -0.561192       -15.2708
 177   2.0000      -0.558048       -15.1853
 178   2.0000      -0.554966       -15.1014
 179   2.0000      -0.550627       -14.9833
 180   2.0000      -0.546672       -14.8757
 181   2.0000      -0.544158       -14.8073
 182   2.0000      -0.542041       -14.7497
 183   2.0000      -0.541359       -14.7311
 184   2.0000      -0.541168       -14.7259
 185   2.0000      -0.538319       -14.6484
 186   2.0000      -0.536226       -14.5914
 187   2.0000      -0.531532       -14.4637
 188   2.0000      -0.530223       -14.4281
 189   2.0000      -0.527106       -14.3433
 190   2.0000      -0.524070       -14.2607
 191   2.0000      -0.522747       -14.2247
 192   2.0000      -0.520571       -14.1654
 193   2.0000      -0.519398       -14.1335
 194   2.0000      -0.518073       -14.0975
 195   2.0000      -0.516469       -14.0538
 196   2.0000      -0.515850       -14.0370
 197   2.0000      -0.510225       -13.8839
 198   2.0000      -0.508938       -13.8489
 199   2.0000      -0.508138       -13.8271
 200   2.0000      -0.506706       -13.7882
 201   2.0000      -0.504722       -13.7342
 202   2.0000      -0.500981       -13.6324
 203   2.0000      -0.499674       -13.5968
 204   2.0000      -0.497954       -13.5500
 205   2.0000      -0.494433       -13.4542
 206   2.0000      -0.493943       -13.4409
 207   2.0000      -0.491194       -13.3661
 208   2.0000      -0.489931       -13.3317
 209   2.0000      -0.487085       -13.2542
 210   2.0000      -0.483567       -13.1585
 211   2.0000      -0.480944       -13.0872
 212   2.0000      -0.477867       -13.0034
 213   2.0000      -0.475964       -12.9516
 214   2.0000      -0.472138       -12.8475
 215   2.0000      -0.469435       -12.7740
 216   2.0000      -0.468854       -12.7582
 217   2.0000      -0.466472       -12.6934
 218   2.0000      -0.465384       -12.6637
 219   2.0000      -0.460216       -12.5231
 220   2.0000      -0.459059       -12.4916
 221   2.0000      -0.457775       -12.4567
 222   2.0000      -0.456451       -12.4207
 223   2.0000      -0.453206       -12.3324
 224   2.0000      -0.452662       -12.3176
 225   2.0000      -0.448261       -12.1978
 226   2.0000      -0.447117       -12.1667
 227   2.0000      -0.443740       -12.0748
 228   2.0000      -0.442671       -12.0457
 229   2.0000      -0.439915       -11.9707
 230   2.0000      -0.438929       -11.9439
 231   2.0000      -0.437204       -11.8969
 232   2.0000      -0.436314       -11.8727
 233   2.0000      -0.434756       -11.8303
 234   2.0000      -0.431585       -11.7440
 235   2.0000      -0.430303       -11.7091
 236   2.0000      -0.429320       -11.6824
 237   2.0000      -0.425173       -11.5695
 238   2.0000      -0.423566       -11.5258
 239   2.0000      -0.421974       -11.4825
 240   2.0000      -0.418907       -11.3990
 241   2.0000      -0.418137       -11.3781
 242   2.0000      -0.412488       -11.2244
 243   2.0000      -0.410048       -11.1580
 244   2.0000      -0.406731       -11.0677
 245   2.0000      -0.401417       -10.9231
 246   2.0000      -0.396749       -10.7961
 247   2.0000      -0.387784       -10.5521
 248   2.0000      -0.380322       -10.3491
 249   2.0000      -0.379511       -10.3270
 250   2.0000      -0.378142       -10.2898
 251   2.0000      -0.374853       -10.2003
 252   2.0000      -0.372242       -10.1292
 253   2.0000      -0.369098       -10.0437
 254   2.0000      -0.360387        -9.8066
 255   2.0000      -0.359171        -9.7735
 256   2.0000      -0.356148        -9.6913
 257   2.0000      -0.352953        -9.6043
 258   2.0000      -0.352123        -9.5818
 259   2.0000      -0.344861        -9.3841
 260   2.0000      -0.344013        -9.3611
 261   2.0000      -0.341127        -9.2825
 262   2.0000      -0.338352        -9.2070
 263   2.0000      -0.327454        -8.9105
 264   2.0000      -0.323193        -8.7945
 265   2.0000      -0.321582        -8.7507
 266   2.0000      -0.309937        -8.4338
 267   2.0000      -0.308774        -8.4022
 268   2.0000      -0.307679        -8.3724
 269   2.0000      -0.300538        -8.1780
 270   2.0000      -0.290732        -7.9112
 271   2.0000      -0.288873        -7.8606
 272   2.0000      -0.281257        -7.6534
 273   2.0000      -0.245999        -6.6940
 274   0.0000      -0.125162        -3.4058
 275   0.0000      -0.103007        -2.8030
 276   0.0000      -0.083135        -2.2622
 277   0.0000      -0.063813        -1.7364
 278   0.0000      -0.057253        -1.5579

MULLIKEN ATOMIC CHARGES
-----------------------
   0 C :    0.316443
   1 C :   -0.354527
   2 C :   -0.180553
   3 N :    0.155822
   4 C :   -0.162231
   5 N :    0.159530
   6 C :    0.031771
   7 C :    0.027000
   8 C :   -0.088494
   9 C :    0.098162
  10 C :    0.093779
  11 C :   -0.074619
  12 C :   -0.017208
  13 C :    0.037718
  14 C :    0.035281
  15 C :   -0.016658
  16 C :    0.129652
  17 O :   -0.144306
  18 C :   -0.095893
  19 C :    0.002343
  20 C :    0.047442
  21 C :    0.048500
  22 N :    0.266548
  23 O :   -0.258672
  24 O :   -0.238783
  25 C :    0.001390
  26 C :    0.023458
  27 C :   -0.003811
  28 C :    0.064295
  29 C :   -0.037218
  30 C :    0.031963
  31 C :    0.070542
  32 N :    0.277828
  33 O :   -0.272258
  34 O :   -0.273184
  35 C :    0.044518
  36 C :   -0.064712
  37 C :    0.102384
  38 C :   -0.205557
  39 S :    0.214149
  40 C :   -0.134672
  41 C :    0.114943
  42 C :    0.159481
  43 O :   -0.132101
  44 O :   -0.363167
  45 C :    0.177318
  46 C :    0.082791
  47 C :   -0.067778
  48 C :    0.025224
  49 C :   -0.083290
  50 C :    0.216707
  51 O :   -0.163163
  52 O :   -0.280708
  53 C :    0.327679
  54 C :   -0.092157
  55 C :   -0.019228
  56 C :   -0.018175
  57 C :    0.103790
  58 C :   -0.001198
  59 C :    0.007075
  60 C :   -0.044738
  61 C :   -0.066074
  62 C :    0.335670
  63 C :   -0.349047
  64 C :   -0.184343
  65 N :    0.150983
  66 C :   -0.190768
  67 N :    0.148531
  68 C :    0.044608
  69 C :   -0.000066
  70 C :    0.150212
  71 O :   -0.155701
  72 C :   -0.078999
  73 C :    0.097901
  74 C :    0.096119
  75 C :   -0.081192
  76 C :   -0.018246
  77 C :    0.038189
  78 C :    0.035773
  79 C :   -0.015784
  80 H :   -0.012421
  81 H :   -0.002608
  82 H :   -0.010693
  83 H :   -0.006763
  84 H :   -0.006340
  85 H :   -0.017859
  86 H :    0.007473
  87 H :   -0.008330
  88 H :    0.000968
  89 H :   -0.006869
  90 H :    0.007696
  91 H :    0.039289
  92 H :    0.012734
  93 H :    0.198420
  94 H :    0.020409
  95 H :    0.054791
  96 H :    0.035349
  97 H :    0.004325
  98 H :    0.044635
  99 H :    0.048672
 100 H :    0.052799
 101 H :   -0.013835
 102 H :    0.001004
 103 H :    0.011961
 104 H :    0.027264
 105 H :    0.010105
 106 H :   -0.014732
 107 H :   -0.008490
 108 H :   -0.007570
 109 H :   -0.003855
 110 H :   -0.003907
 111 H :   -0.017854
Sum of atomic charges:   -0.0000000

LOEWDIN ATOMIC CHARGES
----------------------
   0 C :    0.088993
   1 C :   -0.147579
   2 C :   -0.018332
   3 N :   -0.054514
   4 C :    0.013065
   5 N :   -0.067266
   6 C :   -0.016791
   7 C :   -0.052070
   8 C :    0.031562
   9 C :   -0.007171
  10 C :   -0.004891
  11 C :    0.024694
  12 C :   -0.005200
  13 C :   -0.014053
  14 C :   -0.013307
  15 C :   -0.009659
  16 C :    0.086499
  17 O :   -0.142775
  18 C :   -0.070533
  19 C :    0.060754
  20 C :   -0.037090
  21 C :   -0.028233
  22 N :    0.285462
  23 O :   -0.214361
  24 O :   -0.204078
  25 C :   -0.030894
  26 C :   -0.016108
  27 C :    0.006389
  28 C :    0.058641
  29 C :   -0.078023
  30 C :    0.063776
  31 C :   -0.102548
  32 N :    0.287126
  33 O :   -0.236095
  34 O :   -0.237364
  35 C :    0.037973
  36 C :   -0.016987
  37 C :    0.048153
  38 C :   -0.210867
  39 S :    0.493376
  40 C :   -0.161660
  41 C :   -0.029398
  42 C :    0.042510
  43 O :   -0.005497
  44 O :   -0.138217
  45 C :    0.080549
  46 C :   -0.006330
  47 C :   -0.016284
  48 C :    0.016126
  49 C :   -0.078008
  50 C :    0.088938
  51 O :   -0.157426
  52 O :   -0.079336
  53 C :    0.103662
  54 C :   -0.012309
  55 C :   -0.022991
  56 C :    0.027608
  57 C :   -0.029187
  58 C :    0.031892
  59 C :   -0.024645
  60 C :    0.070347
  61 C :   -0.089102
  62 C :    0.075579
  63 C :   -0.136369
  64 C :   -0.017288
  65 N :   -0.050930
  66 C :   -0.019763
  67 N :   -0.051957
  68 C :   -0.025824
  69 C :   -0.056625
  70 C :    0.086621
  71 O :   -0.149315
  72 C :    0.032823
  73 C :   -0.008168
  74 C :   -0.005668
  75 C :    0.020772
  76 C :   -0.004532
  77 C :   -0.011996
  78 C :   -0.011260
  79 C :   -0.009497
  80 H :    0.039146
  81 H :    0.040206
  82 H :    0.034332
  83 H :    0.032500
  84 H :    0.032268
  85 H :    0.031643
  86 H :    0.043435
  87 H :    0.034038
  88 H :    0.031506
  89 H :    0.027912
  90 H :    0.040523
  91 H :    0.039990
  92 H :    0.033947
  93 H :    0.106640
  94 H :    0.017200
  95 H :    0.020931
  96 H :    0.025729
  97 H :    0.035229
  98 H :    0.037417
  99 H :    0.039741
 100 H :    0.040887
 101 H :    0.034973
 102 H :    0.039518
 103 H :    0.037770
 104 H :    0.030644
 105 H :    0.042491
 106 H :    0.038437
 107 H :    0.039313
 108 H :    0.035376
 109 H :    0.033726
 110 H :    0.033252
 111 H :    0.031763

  Mayer bond orders larger than 0.100000
B(  0-C ,  1-C ) :   1.6547 B(  0-C ,  6-C ) :   1.0105 B(  0-C , 18-C ) :   0.9945
B(  1-C ,  2-C ) :   1.1273 B(  1-C ,  4-C ) :   1.1794 B(  2-C ,  3-N ) :   2.9974
B(  4-C ,  5-N ) :   2.9390 B(  5-N , 92-H ) :   0.1235 B(  6-C ,  7-C ) :   1.2120
B(  6-C , 11-C ) :   1.4558 B(  7-C ,  8-C ) :   1.4708 B(  7-C , 16-C ) :   0.9240
B(  8-C ,  9-C ) :   1.1851 B(  8-C , 80-H ) :   1.0153 B(  9-C , 10-C ) :   1.2545
B(  9-C , 15-C ) :   1.2452 B( 10-C , 11-C ) :   1.2065 B( 10-C , 12-C ) :   1.2399
B( 11-C , 81-H ) :   0.9944 B( 12-C , 13-C ) :   1.4908 B( 12-C , 82-H ) :   0.9972
B( 13-C , 14-C ) :   1.2587 B( 13-C , 83-H ) :   0.9882 B( 14-C , 15-C ) :   1.4900
B( 14-C , 84-H ) :   0.9888 B( 15-C , 85-H ) :   0.9972 B( 16-C , 17-O ) :   2.2525
B( 16-C , 18-C ) :   0.9412 B( 18-C , 19-C ) :   1.7578 B( 19-C , 20-C ) :   1.0496
B( 19-C , 86-H ) :   0.9266 B( 20-C , 21-C ) :   1.4258 B( 20-C , 27-C ) :   1.1482
B( 21-C , 22-N ) :   0.9489 B( 21-C , 25-C ) :   1.1937 B( 22-N , 23-O ) :   1.4804
B( 22-N , 24-O ) :   1.5388 B( 23-O , 24-O ) :   0.2566 B( 25-C , 26-C ) :   1.5379
B( 25-C , 87-H ) :   1.0128 B( 26-C , 27-C ) :   1.1432 B( 26-C , 88-H ) :   0.9845
B( 27-C , 28-C ) :   1.3572 B( 28-C , 29-C ) :   1.2522 B( 28-C , 35-C ) :   0.9886
B( 29-C , 30-C ) :   1.4229 B( 29-C , 89-H ) :   1.0112 B( 30-C , 31-C ) :   1.2169
B( 30-C , 90-H ) :   1.0079 B( 31-C , 32-N ) :   0.9791 B( 31-C , 35-C ) :   1.3478
B( 32-N , 33-O ) :   1.5188 B( 32-N , 34-O ) :   1.4834 B( 33-O , 34-O ) :   0.2406
B( 35-C , 36-C ) :   1.3523 B( 36-C , 37-C ) :   1.3635 B( 36-C , 91-H ) :   0.9460
B( 37-C , 38-C ) :   1.3065 B( 37-C , 92-H ) :   0.9020 B( 38-C , 39-S ) :   1.0918
B( 38-C , 42-C ) :   1.3248 B( 39-S , 40-C ) :   1.1331 B( 40-C , 41-C ) :   1.4401
B( 40-C , 46-C ) :   1.1177 B( 41-C , 42-C ) :   1.2704 B( 41-C , 44-O ) :   1.1268
B( 42-C , 43-O ) :   1.3230 B( 43-O , 93-H ) :   0.9276 B( 44-O , 45-C ) :   0.9016
B( 45-C , 94-H ) :   0.9699 B( 45-C , 95-H ) :   0.9604 B( 45-C , 96-H ) :   0.9812
B( 46-C , 47-C ) :   1.7778 B( 46-C , 97-H ) :   0.9514 B( 47-C , 48-C ) :   1.0287
B( 47-C , 98-H ) :   0.9370 B( 48-C , 49-C ) :   1.3629 B( 48-C , 57-C ) :   1.3463
B( 49-C , 50-C ) :   0.9080 B( 49-C , 54-C ) :   1.4142 B( 50-C , 51-O ) :   2.1285
B( 50-C , 52-O ) :   1.1421 B( 52-O , 53-C ) :   0.9692 B( 53-C , 54-C ) :   1.0093
B( 53-C , 99-H ) :   0.9272 B( 53-C ,100-H ) :   0.9247 B( 54-C , 55-C ) :   1.3401
B( 55-C , 56-C ) :   1.3962 B( 55-C ,101-H ) :   1.0090 B( 56-C , 57-C ) :   1.3193
B( 56-C ,102-H ) :   0.9921 B( 57-C , 58-C ) :   1.0519 B( 58-C , 59-C ) :   1.6174
B( 58-C ,103-H ) :   0.9811 B( 59-C , 60-C ) :   1.1340 B( 59-C ,104-H ) :   0.9725
B( 60-C , 61-C ) :   1.5628 B( 60-C ,105-H ) :   0.9665 B( 61-C , 62-C ) :   1.0492
B( 61-C , 70-C ) :   0.9389 B( 62-C , 63-C ) :   1.6358 B( 62-C , 68-C ) :   0.9924
B( 63-C , 64-C ) :   1.1436 B( 63-C , 66-C ) :   1.1466 B( 64-C , 65-N ) :   2.9645
B( 66-C , 67-N ) :   2.9636 B( 68-C , 69-C ) :   1.2166 B( 68-C , 75-C ) :   1.4450
B( 69-C , 70-C ) :   0.9494 B( 69-C , 72-C ) :   1.4688 B( 70-C , 71-O ) :   2.1904
B( 72-C , 73-C ) :   1.1788 B( 72-C ,106-H ) :   1.0163 B( 73-C , 74-C ) :   1.2568
B( 73-C , 79-C ) :   1.2437 B( 74-C , 75-C ) :   1.2089 B( 74-C , 76-C ) :   1.2369
B( 75-C ,107-H ) :   0.9894 B( 76-C , 77-C ) :   1.4900 B( 76-C ,108-H ) :   0.9978
B( 77-C , 78-C ) :   1.2598 B( 77-C ,109-H ) :   0.9884 B( 78-C , 79-C ) :   1.4880
B( 78-C ,110-H ) :   0.9894 B( 79-C ,111-H ) :   0.9980

-----------------------------------------------------------------------------
         ABSORPTION SPECTRUM VIA TRANSITION ELECTRIC DIPOLE MOMENTS
-----------------------------------------------------------------------------
State   Energy  Wavelength   fosc         T2         TX        TY        TZ
        (cm-1)    (nm)                  (au**2)     (au)      (au)      (au)
-----------------------------------------------------------------------------
   0    8056.4   1241.2   0.190750999   7.79474   2.56845   0.44105  -1.00162
   1   15064.1    663.8   0.060033625   1.31198  -0.99261   0.22577  -0.52511
   2   19245.5    519.6   0.250695241   4.28838   0.79988  -1.88919   0.28204
   3   20276.5    493.2   0.259931846   4.22030   0.80264  -0.84848  -1.69001
   4   21010.4    476.0   0.001046429   0.01640   0.11822   0.04919  -0.00039
   5   22116.9    452.1   0.327616581   4.87661   1.87651  -0.97609  -0.63448
   6   22770.9    439.2   0.218561097   3.15987   1.11077  -1.23100  -0.64086
   7   23340.3    428.4   0.095013527   1.34016   0.66444   0.15634  -0.93500
   8   24130.1    414.4   0.049362637   0.67346   0.43080   0.57612   0.39493
   9   24287.5    411.7   0.068254014   0.92517  -0.71640   0.63766  -0.07295
  10   25057.4    399.1   0.605386586   7.95374   1.45109   0.35512   2.39206
  11   25244.4    396.1   0.003195505   0.04167   0.05035   0.16433  -0.11014
  12   26358.2    379.4   0.015131249   0.18899  -0.13771  -0.04983   0.40932
  13   26635.9    375.4   0.465112545   5.74866  -0.02531  -1.49019  -1.87812
  14   26740.0    374.0   0.050959631   0.62739   0.25644   0.50351   0.55507
  15   26906.1    371.7   0.162460038   1.98780  -0.50606   1.25309  -0.40184
  16   27410.9    364.8   0.539490263   6.47941  -0.35324   2.46885  -0.50932
  17   27593.6    362.4   0.002032829   0.02425   0.00629  -0.14137  -0.06502
  18   28823.5    346.9   0.005423822   0.06195   0.11243  -0.22026  -0.02815
  19   28905.2    346.0   0.227492568   2.59100  -0.21200  -1.40068   0.76430
  20   29108.4    343.5   0.063278736   0.71567   0.69373   0.06400   0.47991
  21   29415.4    340.0   0.193806794   2.16905   1.13755  -0.14887  -0.92352
  22   29542.5    338.5   0.095191552   1.06078  -0.98003  -0.21740   0.23035
  23   30116.9    332.0   0.023325337   0.25497  -0.29029  -0.36929   0.18529
  24   30438.2    328.5   0.023043563   0.24923  -0.08697   0.42617   0.24504
  25   30749.7    325.2   0.022053686   0.23611   0.41048   0.03929  -0.25704
  26   30884.9    323.8   0.009413388   0.10034   0.00000   0.04763   0.31316
  27   31072.0    321.8   0.038839717   0.41151   0.52981  -0.15794  -0.32537
  28   31362.9    318.8   0.039112483   0.41056   0.35384   0.37860  -0.37685
  29   31421.0    318.3   0.105640804   1.10684  -0.97303   0.09901  -0.38762
  30   31783.4    314.6   0.203168171   2.10441  -0.55266   1.24840   0.49039
  31   32175.7    310.8   0.062932667   0.64391   0.03890  -0.36307  -0.71454
  32   32337.3    309.2   0.156567868   1.59395   0.35065  -1.20810  -0.10713
  33   32559.0    307.1   0.307972417   3.11398  -0.84649   1.32414   0.80256
  34   32624.9    306.5   0.335670444   3.38719   0.52300  -1.24298  -1.25246
  35   32796.7    304.9   0.016065760   0.16127   0.38263   0.10818  -0.05622
  36   33065.8    302.4   0.046459445   0.46256   0.29446   0.52848  -0.31075
  37   33342.7    299.9   0.045508955   0.44934   0.08359   0.08601  -0.65951
  38   33512.3    298.4   0.001797318   0.01766   0.02320  -0.05776  -0.11739
  39   33573.0    297.9   0.009076913   0.08901  -0.14053  -0.03083   0.26136
  40   33696.9    296.8   0.193834056   1.89372   1.22017   0.36737  -0.51957
  41   33846.4    295.5   0.267788698   2.60468  -0.75373   1.21676   0.74570
  42   34126.1    293.0   0.029053442   0.28028  -0.50639   0.11786   0.09975
  43   34298.7    291.6   0.179796912   1.72576   0.69770   0.54042  -0.97310
  44   34831.4    287.1   0.124019283   1.17218   0.03094   1.05781   0.22858
  45   35090.9    285.0   0.263030842   2.46768   1.36866   0.26301  -0.72475
  46   35176.3    284.3   0.056518855   0.52895  -0.04527  -0.72390  -0.05360
  47   35191.9    284.2   0.026256716   0.24563   0.36879   0.21103  -0.25512
  48   35325.9    283.1   0.095117306   0.88642  -0.80096   0.10043   0.48456
  49   35712.6    280.0   0.004148259   0.03824  -0.12183   0.10371   0.11243
  50   35876.9    278.7   0.033821507   0.31035   0.18806  -0.29115  -0.43614
  51   36857.8    271.3   0.002010121   0.01795  -0.11802   0.06343   0.00165
  52   37153.2    269.2   0.016413327   0.14544  -0.04618  -0.36831   0.08748
  53   37288.9    268.2   0.016471015   0.14542  -0.25304   0.28242  -0.04032
  54   37599.7    266.0   0.080975301   0.70900  -0.58971  -0.45661   0.39082
  55   37865.8    264.1   0.016724128   0.14540  -0.01101  -0.37125  -0.08632
  56   37911.0    263.8   0.156522966   1.35922  -0.78966  -0.60055   0.61237
  57   38024.7    263.0   0.023282526   0.20158  -0.10371   0.19174   0.39250
  58   38248.9    261.4   0.032291812   0.27794  -0.49749   0.12295  -0.12379
  59   38293.9    261.1   0.070241824   0.60387  -0.40735   0.52897  -0.39765
  60   38405.5    260.4   0.110066858   0.94349  -0.66593  -0.67281   0.21762
  61   38637.8    258.8   0.004327069   0.03687  -0.08957   0.14790   0.08349
  62   38828.7    257.5   0.079931299   0.67770   0.24242  -0.77963   0.10539
  63   39030.8    256.2   0.048533963   0.40937  -0.62047  -0.02355   0.15439
  64   39230.9    254.9   0.018859293   0.15826  -0.31660   0.06092   0.23306
  65   39298.5    254.5   0.028549831   0.23917   0.31483  -0.13309  -0.34977
  66   39480.2    253.3   0.062576328   0.52180   0.18912   0.40069  -0.57051
  67   39824.1    251.1   0.002984499   0.02467   0.04798  -0.00777  -0.14936
  68   40001.3    250.0   0.327343783   2.69405  -0.96468  -0.16758  -1.31733
  69   40229.6    248.6   0.003165348   0.02590   0.00687   0.10600   0.12091
  70   40301.7    248.1   0.164188892   1.34121  -0.63822  -0.01761  -0.96622

FINAL SINGLE POINT ENERGY     -3894.076650932641

DIPOLE MOMENT
-------------
                                X             Y             Z
Electronic contribution:     21.46126     -16.63631      -3.80501
Nuclear contribution   :    -25.72215      20.62271       3.55182
                        -----------------------------------------
Total Dipole Moment    :     -4.26089       3.98641      -0.25319
                        -----------------------------------------
Magnitude (a.u.)       :      5.84044
Magnitude (Debye)      :     14.84521

Rotational constants in cm-1:     0.000899     0.000299     0.000282
Rotational constants in MHz :    26.951606     8.972992     8.456327

                             ****ORCA TERMINATED NORMALLY****
TOTAL RUN TIME: 0 days 0 hours 13 minutes 56 seconds 263 msec
