                         Program Version 4.2.0 -  RELEASE  -
|  1> # ORCA input file
|  2> # SCF done       -190.252592683222          0.000960018955
|  3> ! CAM-B3LYP def2-SVP def2/J RIJCOSX Grid4 TightSCF
|  4> %maxcore 5000
|  5> %tddft
|  6>     Mode sTDDFT
|  7>     Ethresh 5.0
|  8>     maxcore 5000
|  9> end
| 10>
| 11> %pal
| 12>   nprocs 6
| 13>   end
| 14> * xyz 0 1
| 15>    C        4.39928         4.64043        -2.66778
| 16>    C        4.55274         4.10601        -1.41405
| 17>    C        5.70152         3.40146        -0.99277
| 18>    N        6.59965         2.81981        -0.57719
| 19>    C        3.61929         4.14676        -0.35697
| 20>    N        2.92230         4.11495         0.55628
| 21>    C        5.38272         4.53423        -3.73973
| 22>    C        4.84143         5.13679        -4.90864
| 23>    C        5.52953         5.18925        -6.08643
| 24>    C        6.82600         4.63340        -6.14950
| 25>    C        7.38064         4.03166        -4.98301
| 26>    C        6.63984         3.98945        -3.77935
| 27>    C        8.67725         3.48266        -5.05529
| 28>    C        9.39164         3.52527        -6.22164
| 29>    C        8.84376         4.11782        -7.36928
| 30>    C        7.58774         4.66004        -7.33407
| 31>    C        3.49733         5.65791        -4.62084
| 32>    O        2.76273         6.19071        -5.42702
| 33>    C        3.25365         5.38250        -3.18097
| 34>    C        2.19720         5.76967        -2.40366
| 35>    C        1.04513         6.53144        -2.69772
| 36>    S       -0.03095         6.87465        -1.35160
| 37>    C       -1.07969         7.82381        -2.35053
| 38>    C       -0.60717         7.83961        -3.67236
| 39>    C        0.57051         7.11468        -3.85917
| 40>    C       -1.27472         8.49798        -4.72326
| 41>    N       -1.80498         9.00498        -5.60367
| 42>    C       -2.21957         8.51138        -1.88575
| 43>    C       -2.74981         8.39644        -0.63682
| 44>    C       -3.86435         9.16586        -0.22906
| 45>    N       -4.52751         9.01584         0.96753
| 46>    C       -4.20307         8.08224         2.01918
| 47>    C       -3.03991         8.57444         2.87718
| 48>    C       -5.58970         9.92791         1.10113
| 49>    O       -6.32923         9.96504         2.06394
| 50>    C       -5.55170        10.70178        -0.12077
| 51>    C       -4.49343        10.20368        -0.91789
| 52>    C       -4.42590        11.00216        -2.12177
| 53>    O       -3.69417        10.95862        -3.09026
| 54>    N       -5.44845        11.95098        -1.96576
| 55>    C       -5.74463        12.89676        -3.01400
| 56>    C       -6.97175        12.48305        -3.82248
| 57>    C       -6.13226        11.78435        -0.78225
| 58>    C       -7.19450        12.62885        -0.38513
| 59>    C       -7.96545        12.41339         0.71336
| 60>    C       -9.03519        13.27243         1.07836
| 61>    S      -10.24295        12.75735         2.21406
| 62>    C      -11.15081        14.22267         1.99296
| 63>    C      -10.48915        15.09746         1.13088
| 64>    C       -9.31493        14.54857         0.61530
| 65>    C      -10.91683        16.50772         0.91961
| 66>    O      -11.50261        17.12848         1.77445
| 67>    C      -10.48348        17.11932        -0.38574
| 68>    C      -12.40266        14.36959         2.64496
| 69>    C      -13.48866        15.02436         2.14704
| 70>    C      -14.74235        15.25766         2.84119
| 71>    C      -14.95018        15.15989         4.19118
| 72>    C      -16.18390        15.43072         4.81958
| 73>    N      -17.16369        15.62582         5.38490
| 74>    C      -13.96717        14.79877         5.13712
| 75>    N      -13.22331        14.51841         5.96546
| 76>    C      -15.72192        15.70096         1.85668
| 77>    C      -15.07869        15.79191         0.58934
| 78>    C      -13.66475        15.41955         0.72541
| 79>    O      -12.83934        15.38975        -0.16590
| 80>    C      -15.74401        16.19450        -0.53323
| 81>    C      -17.11147        16.53390        -0.43778
| 82>    C      -17.76515        16.44065         0.82504
| 83>    C      -17.04958        16.01838         1.96966
| 84>    C      -19.13085        16.77999         0.90742
| 85>    C      -19.81815        17.19371        -0.20138
| 86>    C      -19.17299        17.28610        -1.44367
| 87>    C      -17.84816        16.96343        -1.55923
| 88>    H        5.08902         5.65208        -6.95706
| 89>    H        7.09271         3.52765        -2.91692
| 90>    H        9.09527         3.02685        -4.16977
| 91>    H       10.38396         3.10222        -6.26651
| 92>    H        9.42172         4.14265        -8.28096
| 93>    H        7.15979         5.11786        -8.21389
| 94>    H        2.24371         5.47595        -1.36175
| 95>    H        1.06847         7.01912        -4.80726
| 96>    H       -2.67735         9.18384        -2.60161
| 97>    H       -2.31659         7.69627         0.06483
| 98>    H       -3.97937         7.10500         1.58256
| 99>    H       -5.10150         7.99646         2.63679
|100>    H       -2.14181         8.71213         2.27913
|101>    H       -2.83023         7.85197         3.66090
|102>    H       -3.29659         9.52432         3.33959
|103>    H       -4.86481        12.90695        -3.66354
|104>    H       -5.87556        13.89447        -2.58498
|105>    H       -6.80008        11.51374        -4.28365
|106>    H       -7.15817        13.21137        -4.60671
|107>    H       -7.85384        12.41392        -3.18928
|108>    H       -7.40345        13.47876        -1.01794
|109>    H       -7.79270        11.53889         1.32620
|110>    H       -8.65914        15.07707        -0.05137
|111>    H      -10.70186        16.44366        -1.20730
|112>    H       -9.41204        17.31077        -0.35192
|113>    H      -11.00256        18.06291        -0.53000
|114>    H      -12.49417        13.85452         3.59376
|115>    H      -15.23099        16.25774        -1.48150
|116>    H      -17.57444        15.95430         2.90959
|117>    H      -19.62361        16.70928         1.86591
|118>    H      -20.86359        17.45297        -0.12712
|119>    H      -19.73064        17.61409        -2.30815
|120>    H      -17.34534        17.03258        -2.51285
|121> *
|122>
|123>                          ****END OF INPUT****

CARTESIAN COORDINATES (ANGSTROEM)
---------------------------------
  C      4.399280    4.640430   -2.667780
  C      4.552740    4.106010   -1.414050
  C      5.701520    3.401460   -0.992770
  N      6.599650    2.819810   -0.577190
  C      3.619290    4.146760   -0.356970
  N      2.922300    4.114950    0.556280
  C      5.382720    4.534230   -3.739730
  C      4.841430    5.136790   -4.908640
  C      5.529530    5.189250   -6.086430
  C      6.826000    4.633400   -6.149500
  C      7.380640    4.031660   -4.983010
  C      6.639840    3.989450   -3.779350
  C      8.677250    3.482660   -5.055290
  C      9.391640    3.525270   -6.221640
  C      8.843760    4.117820   -7.369280
  C      7.587740    4.660040   -7.334070
  C      3.497330    5.657910   -4.620840
  O      2.762730    6.190710   -5.427020
  C      3.253650    5.382500   -3.180970
  C      2.197200    5.769670   -2.403660
  C      1.045130    6.531440   -2.697720
  S     -0.030950    6.874650   -1.351600
  C     -1.079690    7.823810   -2.350530
  C     -0.607170    7.839610   -3.672360
  C      0.570510    7.114680   -3.859170
  C     -1.274720    8.497980   -4.723260
  N     -1.804980    9.004980   -5.603670
  C     -2.219570    8.511380   -1.885750
  C     -2.749810    8.396440   -0.636820
  C     -3.864350    9.165860   -0.229060
  N     -4.527510    9.015840    0.967530
  C     -4.203070    8.082240    2.019180
  C     -3.039910    8.574440    2.877180
  C     -5.589700    9.927910    1.101130
  O     -6.329230    9.965040    2.063940
  C     -5.551700   10.701780   -0.120770
  C     -4.493430   10.203680   -0.917890
  C     -4.425900   11.002160   -2.121770
  O     -3.694170   10.958620   -3.090260
  N     -5.448450   11.950980   -1.965760
  C     -5.744630   12.896760   -3.014000
  C     -6.971750   12.483050   -3.822480
  C     -6.132260   11.784350   -0.782250
  C     -7.194500   12.628850   -0.385130
  C     -7.965450   12.413390    0.713360
  C     -9.035190   13.272430    1.078360
  S    -10.242950   12.757350    2.214060
  C    -11.150810   14.222670    1.992960
  C    -10.489150   15.097460    1.130880
  C     -9.314930   14.548570    0.615300
  C    -10.916830   16.507720    0.919610
  O    -11.502610   17.128480    1.774450
  C    -10.483480   17.119320   -0.385740
  C    -12.402660   14.369590    2.644960
  C    -13.488660   15.024360    2.147040
  C    -14.742350   15.257660    2.841190
  C    -14.950180   15.159890    4.191180
  C    -16.183900   15.430720    4.819580
  N    -17.163690   15.625820    5.384900
  C    -13.967170   14.798770    5.137120
  N    -13.223310   14.518410    5.965460
  C    -15.721920   15.700960    1.856680
  C    -15.078690   15.791910    0.589340
  C    -13.664750   15.419550    0.725410
  O    -12.839340   15.389750   -0.165900
  C    -15.744010   16.194500   -0.533230
  C    -17.111470   16.533900   -0.437780
  C    -17.765150   16.440650    0.825040
  C    -17.049580   16.018380    1.969660
  C    -19.130850   16.779990    0.907420
  C    -19.818150   17.193710   -0.201380
  C    -19.172990   17.286100   -1.443670
  C    -17.848160   16.963430   -1.559230
  H      5.089020    5.652080   -6.957060
  H      7.092710    3.527650   -2.916920
  H      9.095270    3.026850   -4.169770
  H     10.383960    3.102220   -6.266510
  H      9.421720    4.142650   -8.280960
  H      7.159790    5.117860   -8.213890
  H      2.243710    5.475950   -1.361750
  H      1.068470    7.019120   -4.807260
  H     -2.677350    9.183840   -2.601610
  H     -2.316590    7.696270    0.064830
  H     -3.979370    7.105000    1.582560
  H     -5.101500    7.996460    2.636790
  H     -2.141810    8.712130    2.279130
  H     -2.830230    7.851970    3.660900
  H     -3.296590    9.524320    3.339590
  H     -4.864810   12.906950   -3.663540
  H     -5.875560   13.894470   -2.584980
  H     -6.800080   11.513740   -4.283650
  H     -7.158170   13.211370   -4.606710
  H     -7.853840   12.413920   -3.189280
  H     -7.403450   13.478760   -1.017940
  H     -7.792700   11.538890    1.326200
  H     -8.659140   15.077070   -0.051370
  H    -10.701860   16.443660   -1.207300
  H     -9.412040   17.310770   -0.351920
  H    -11.002560   18.062910   -0.530000
  H    -12.494170   13.854520    3.593760
  H    -15.230990   16.257740   -1.481500
  H    -17.574440   15.954300    2.909590
  H    -19.623610   16.709280    1.865910
  H    -20.863590   17.452970   -0.127120
  H    -19.730640   17.614090   -2.308150
  H    -17.345340   17.032580   -2.512850

 Total Charge           Charge          ....    0
 Multiplicity           Mult            ....    1
 Number of Electrons    NEL             ....  508
 Basis Dimension        Dim             .... 1195

ORBITAL ENERGIES
----------------

  NO   OCC          E(Eh)            E(eV)
   0   2.0000     -88.985416     -2421.4163
   1   2.0000     -88.980264     -2421.2761
   2   2.0000     -19.224215      -523.1175
   3   2.0000     -19.221512      -523.0439
   4   2.0000     -19.203692      -522.5590
   5   2.0000     -19.200191      -522.4638
   6   2.0000     -19.197016      -522.3774
   7   2.0000     -14.461395      -393.5146
   8   2.0000     -14.460374      -393.4868
   9   2.0000     -14.422218      -392.4485
  10   2.0000     -14.417425      -392.3181
  11   2.0000     -14.413684      -392.2163
  12   2.0000     -14.413414      -392.2089
  13   2.0000     -14.406114      -392.0103
  14   2.0000     -10.381843      -282.5043
  15   2.0000     -10.380519      -282.4683
  16   2.0000     -10.374933      -282.3163
  17   2.0000     -10.371237      -282.2157
  18   2.0000     -10.364328      -282.0277
  19   2.0000     -10.348899      -281.6078
  20   2.0000     -10.346466      -281.5417
  21   2.0000     -10.346347      -281.5384
  22   2.0000     -10.345888      -281.5259
  23   2.0000     -10.342592      -281.4362
  24   2.0000     -10.341460      -281.4054
  25   2.0000     -10.338944      -281.3370
  26   2.0000     -10.331829      -281.1434
  27   2.0000     -10.331450      -281.1331
  28   2.0000     -10.327643      -281.0294
  29   2.0000     -10.324981      -280.9570
  30   2.0000     -10.324464      -280.9430
  31   2.0000     -10.324090      -280.9328
  32   2.0000     -10.323733      -280.9231
  33   2.0000     -10.320494      -280.8349
  34   2.0000     -10.316262      -280.7198
  35   2.0000     -10.315862      -280.7089
  36   2.0000     -10.314869      -280.6818
  37   2.0000     -10.314250      -280.6650
  38   2.0000     -10.309554      -280.5372
  39   2.0000     -10.309513      -280.5361
  40   2.0000     -10.309263      -280.5293
  41   2.0000     -10.306049      -280.4418
  42   2.0000     -10.305311      -280.4218
  43   2.0000     -10.305115      -280.4164
  44   2.0000     -10.303597      -280.3751
  45   2.0000     -10.303171      -280.3635
  46   2.0000     -10.303081      -280.3611
  47   2.0000     -10.301559      -280.3197
  48   2.0000     -10.300526      -280.2915
  49   2.0000     -10.300304      -280.2855
  50   2.0000     -10.299994      -280.2771
  51   2.0000     -10.299828      -280.2726
  52   2.0000     -10.299479      -280.2631
  53   2.0000     -10.298703      -280.2420
  54   2.0000     -10.298635      -280.2401
  55   2.0000     -10.298515      -280.2368
  56   2.0000     -10.298287      -280.2306
  57   2.0000     -10.296890      -280.1926
  58   2.0000     -10.291263      -280.0395
  59   2.0000     -10.289864      -280.0014
  60   2.0000     -10.289212      -279.9837
  61   2.0000     -10.288629      -279.9678
  62   2.0000     -10.288360      -279.9605
  63   2.0000     -10.287877      -279.9474
  64   2.0000     -10.287655      -279.9413
  65   2.0000     -10.287171      -279.9281
  66   2.0000     -10.286745      -279.9166
  67   2.0000     -10.286103      -279.8991
  68   2.0000     -10.271984      -279.5149
  69   2.0000     -10.270061      -279.4626
  70   2.0000     -10.269327      -279.4426
  71   2.0000     -10.268701      -279.4256
  72   2.0000     -10.267283      -279.3870
  73   2.0000      -8.080770      -219.8889
  74   2.0000      -8.075859      -219.7553
  75   2.0000      -6.049809      -164.6237
  76   2.0000      -6.045918      -164.5178
  77   2.0000      -6.044899      -164.4901
  78   2.0000      -6.043128      -164.4419
  79   2.0000      -6.040860      -164.3801
  80   2.0000      -6.038311      -164.3108
  81   2.0000      -1.141886       -31.0723
  82   2.0000      -1.139272       -31.0012
  83   2.0000      -1.139095       -30.9963
  84   2.0000      -1.134438       -30.8696
  85   2.0000      -1.121922       -30.5290
  86   2.0000      -1.071936       -29.1689
  87   2.0000      -1.063359       -28.9355
  88   2.0000      -1.023894       -27.8616
  89   2.0000      -1.019534       -27.7429
  90   2.0000      -1.017341       -27.6832
  91   2.0000      -1.008107       -27.4320
  92   2.0000      -1.003078       -27.2951
  93   2.0000      -0.998155       -27.1612
  94   2.0000      -0.997579       -27.1455
  95   2.0000      -0.991942       -26.9921
  96   2.0000      -0.985731       -26.8231
  97   2.0000      -0.974871       -26.5276
  98   2.0000      -0.971786       -26.4436
  99   2.0000      -0.938904       -25.5489
 100   2.0000      -0.933993       -25.4152
 101   2.0000      -0.930028       -25.3074
 102   2.0000      -0.924500       -25.1569
 103   2.0000      -0.921008       -25.0619
 104   2.0000      -0.907704       -24.6999
 105   2.0000      -0.902036       -24.5456
 106   2.0000      -0.888542       -24.1785
 107   2.0000      -0.883706       -24.0468
 108   2.0000      -0.882964       -24.0267
 109   2.0000      -0.880550       -23.9610
 110   2.0000      -0.877307       -23.8727
 111   2.0000      -0.873326       -23.7644
 112   2.0000      -0.867110       -23.5953
 113   2.0000      -0.848604       -23.0917
 114   2.0000      -0.839690       -22.8491
 115   2.0000      -0.831262       -22.6198
 116   2.0000      -0.829046       -22.5595
 117   2.0000      -0.827082       -22.5061
 118   2.0000      -0.821191       -22.3457
 119   2.0000      -0.809627       -22.0311
 120   2.0000      -0.803128       -21.8542
 121   2.0000      -0.781730       -21.2720
 122   2.0000      -0.769170       -20.9302
 123   2.0000      -0.767200       -20.8766
 124   2.0000      -0.766826       -20.8664
 125   2.0000      -0.762061       -20.7367
 126   2.0000      -0.736960       -20.0537
 127   2.0000      -0.733203       -19.9515
 128   2.0000      -0.723250       -19.6806
 129   2.0000      -0.718484       -19.5510
 130   2.0000      -0.712895       -19.3989
 131   2.0000      -0.707479       -19.2515
 132   2.0000      -0.704917       -19.1818
 133   2.0000      -0.702159       -19.1067
 134   2.0000      -0.698819       -19.0158
 135   2.0000      -0.693897       -18.8819
 136   2.0000      -0.684178       -18.6174
 137   2.0000      -0.681011       -18.5312
 138   2.0000      -0.669398       -18.2152
 139   2.0000      -0.667551       -18.1650
 140   2.0000      -0.663691       -18.0599
 141   2.0000      -0.656898       -17.8751
 142   2.0000      -0.650058       -17.6890
 143   2.0000      -0.640616       -17.4321
 144   2.0000      -0.637674       -17.3520
 145   2.0000      -0.633284       -17.2325
 146   2.0000      -0.621645       -16.9158
 147   2.0000      -0.618484       -16.8298
 148   2.0000      -0.611243       -16.6328
 149   2.0000      -0.609252       -16.5786
 150   2.0000      -0.607242       -16.5239
 151   2.0000      -0.604512       -16.4496
 152   2.0000      -0.597476       -16.2581
 153   2.0000      -0.590438       -16.0666
 154   2.0000      -0.585804       -15.9405
 155   2.0000      -0.581724       -15.8295
 156   2.0000      -0.575479       -15.6596
 157   2.0000      -0.574487       -15.6326
 158   2.0000      -0.571625       -15.5547
 159   2.0000      -0.563413       -15.3313
 160   2.0000      -0.557614       -15.1734
 161   2.0000      -0.552758       -15.0413
 162   2.0000      -0.549895       -14.9634
 163   2.0000      -0.549386       -14.9496
 164   2.0000      -0.545850       -14.8533
 165   2.0000      -0.545236       -14.8366
 166   2.0000      -0.543606       -14.7923
 167   2.0000      -0.543135       -14.7795
 168   2.0000      -0.538677       -14.6582
 169   2.0000      -0.537962       -14.6387
 170   2.0000      -0.536056       -14.5868
 171   2.0000      -0.535159       -14.5624
 172   2.0000      -0.534744       -14.5511
 173   2.0000      -0.529106       -14.3977
 174   2.0000      -0.527074       -14.3424
 175   2.0000      -0.525398       -14.2968
 176   2.0000      -0.520880       -14.1739
 177   2.0000      -0.519447       -14.1349
 178   2.0000      -0.518672       -14.1138
 179   2.0000      -0.517512       -14.0822
 180   2.0000      -0.516099       -14.0438
 181   2.0000      -0.512937       -13.9577
 182   2.0000      -0.512247       -13.9390
 183   2.0000      -0.509142       -13.8545
 184   2.0000      -0.506148       -13.7730
 185   2.0000      -0.505242       -13.7483
 186   2.0000      -0.502183       -13.6651
 187   2.0000      -0.501418       -13.6443
 188   2.0000      -0.496653       -13.5146
 189   2.0000      -0.495734       -13.4896
 190   2.0000      -0.494971       -13.4688
 191   2.0000      -0.489827       -13.3289
 192   2.0000      -0.488632       -13.2964
 193   2.0000      -0.485490       -13.2109
 194   2.0000      -0.483523       -13.1573
 195   2.0000      -0.478203       -13.0126
 196   2.0000      -0.476845       -12.9756
 197   2.0000      -0.473182       -12.8759
 198   2.0000      -0.468500       -12.7485
 199   2.0000      -0.467520       -12.7219
 200   2.0000      -0.466006       -12.6807
 201   2.0000      -0.464610       -12.6427
 202   2.0000      -0.462769       -12.5926
 203   2.0000      -0.460189       -12.5224
 204   2.0000      -0.453735       -12.3467
 205   2.0000      -0.453384       -12.3372
 206   2.0000      -0.449600       -12.2342
 207   2.0000      -0.448096       -12.1933
 208   2.0000      -0.447199       -12.1689
 209   2.0000      -0.446103       -12.1391
 210   2.0000      -0.443939       -12.0802
 211   2.0000      -0.443741       -12.0748
 212   2.0000      -0.443064       -12.0564
 213   2.0000      -0.442722       -12.0471
 214   2.0000      -0.440869       -11.9967
 215   2.0000      -0.438092       -11.9211
 216   2.0000      -0.437545       -11.9062
 217   2.0000      -0.437165       -11.8959
 218   2.0000      -0.436466       -11.8768
 219   2.0000      -0.433615       -11.7993
 220   2.0000      -0.432882       -11.7793
 221   2.0000      -0.432182       -11.7603
 222   2.0000      -0.430535       -11.7154
 223   2.0000      -0.429902       -11.6982
 224   2.0000      -0.425226       -11.5710
 225   2.0000      -0.424844       -11.5606
 226   2.0000      -0.422804       -11.5051
 227   2.0000      -0.418799       -11.3961
 228   2.0000      -0.414347       -11.2750
 229   2.0000      -0.410386       -11.1672
 230   2.0000      -0.410245       -11.1633
 231   2.0000      -0.407670       -11.0933
 232   2.0000      -0.405826       -11.0431
 233   2.0000      -0.392700       -10.6859
 234   2.0000      -0.385737       -10.4964
 235   2.0000      -0.378528       -10.3003
 236   2.0000      -0.375499       -10.2178
 237   2.0000      -0.355783        -9.6813
 238   2.0000      -0.352365        -9.5883
 239   2.0000      -0.350841        -9.5469
 240   2.0000      -0.346146        -9.4191
 241   2.0000      -0.344690        -9.3795
 242   2.0000      -0.342614        -9.3230
 243   2.0000      -0.339470        -9.2375
 244   2.0000      -0.335772        -9.1368
 245   2.0000      -0.324127        -8.8200
 246   2.0000      -0.323749        -8.8097
 247   2.0000      -0.320862        -8.7311
 248   2.0000      -0.317751        -8.6464
 249   2.0000      -0.303047        -8.2463
 250   2.0000      -0.298510        -8.1229
 251   2.0000      -0.292494        -7.9592
 252   2.0000      -0.284948        -7.7538
 253   2.0000      -0.240773        -6.5518
 254   0.0000      -0.118405        -3.2220
 255   0.0000      -0.099404        -2.7049
 256   0.0000      -0.077162        -2.0997
 257   0.0000      -0.063422        -1.7258
 258   0.0000      -0.060035        -1.6336

MULLIKEN ATOMIC CHARGES
-----------------------
   0 C :    0.326973
   1 C :   -0.368475
   2 C :   -0.182329
   3 N :    0.150051
   4 C :   -0.179066
   5 N :    0.150192
   6 C :    0.047560
   7 C :    0.000181
   8 C :   -0.082118
   9 C :    0.100582
  10 C :    0.096659
  11 C :   -0.084343
  12 C :   -0.018775
  13 C :    0.038682
  14 C :    0.036108
  15 C :   -0.015850
  16 C :    0.160194
  17 O :   -0.154591
  18 C :   -0.081965
  19 C :    0.056185
  20 C :   -0.102911
  21 S :    0.155338
  22 C :   -0.023707
  23 C :   -0.065659
  24 C :    0.026736
  25 C :   -0.174559
  26 N :    0.153499
  27 C :   -0.015873
  28 C :   -0.023433
  29 C :    0.131550
  30 N :   -0.258191
  31 C :    0.101651
  32 C :    0.000976
  33 C :    0.153418
  34 O :   -0.203943
  35 C :   -0.059822
  36 C :   -0.062796
  37 C :    0.163505
  38 O :   -0.194001
  39 N :   -0.256207
  40 C :    0.096558
  41 C :   -0.000799
  42 C :    0.139767
  43 C :   -0.031233
  44 C :    0.079435
  45 C :   -0.071332
  46 S :    0.199208
  47 C :   -0.160155
  48 C :    0.142649
  49 C :   -0.047099
  50 C :   -0.005515
  51 O :   -0.178434
  52 C :    0.051194
  53 C :    0.021643
  54 C :   -0.050065
  55 C :    0.295575
  56 C :   -0.335133
  57 C :   -0.180989
  58 N :    0.148012
  59 C :   -0.200300
  60 N :    0.161723
  61 C :    0.056228
  62 C :   -0.005697
  63 C :    0.170749
  64 O :   -0.170223
  65 C :   -0.081662
  66 C :    0.099768
  67 C :    0.098840
  68 C :   -0.087539
  69 C :   -0.020942
  70 C :    0.038858
  71 C :    0.037642
  72 C :   -0.016521
  73 H :   -0.011565
  74 H :   -0.007359
  75 H :   -0.008826
  76 H :   -0.004065
  77 H :   -0.003469
  78 H :   -0.016398
  79 H :    0.001041
  80 H :    0.031031
  81 H :    0.047727
  82 H :   -0.013656
  83 H :    0.023908
  84 H :    0.045117
  85 H :    0.014442
  86 H :    0.029288
  87 H :    0.031241
  88 H :    0.051951
  89 H :    0.021706
  90 H :    0.034149
  91 H :    0.026899
  92 H :    0.017227
  93 H :   -0.024992
  94 H :    0.018229
  95 H :   -0.013562
  96 H :    0.043468
  97 H :    0.034542
  98 H :    0.030150
  99 H :    0.027603
 100 H :   -0.016798
 101 H :   -0.007534
 102 H :   -0.008917
 103 H :   -0.003888
 104 H :   -0.005483
 105 H :   -0.018844
Sum of atomic charges:   -0.0000000

LOEWDIN ATOMIC CHARGES
----------------------
   0 C :    0.077520
   1 C :   -0.140252
   2 C :   -0.016432
   3 N :   -0.052458
   4 C :   -0.023262
   5 N :   -0.052041
   6 C :   -0.027136
   7 C :   -0.056035
   8 C :    0.033937
   9 C :   -0.007747
  10 C :   -0.005837
  11 C :    0.020748
  12 C :   -0.004739
  13 C :   -0.012263
  14 C :   -0.011020
  15 C :   -0.008883
  16 C :    0.089241
  17 O :   -0.139241
  18 C :   -0.086680
  19 C :    0.044627
  20 C :   -0.172285
  21 S :    0.468579
  22 C :   -0.127309
  23 C :   -0.096444
  24 C :    0.019189
  25 C :   -0.032330
  26 N :   -0.035350
  27 C :   -0.000798
  28 C :   -0.028622
  29 C :    0.066645
  30 N :   -0.000373
  31 C :    0.037115
  32 C :   -0.060495
  33 C :    0.078498
  34 O :   -0.200454
  35 C :   -0.119448
  36 C :   -0.109842
  37 C :    0.080041
  38 O :   -0.182516
  39 N :    0.001349
  40 C :    0.036107
  41 C :   -0.060857
  42 C :    0.078935
  43 C :   -0.040922
  44 C :    0.014962
  45 C :   -0.159866
  46 S :    0.491977
  47 C :   -0.160642
  48 C :   -0.054033
  49 C :   -0.038184
  50 C :    0.085733
  51 O :   -0.145604
  52 C :   -0.073875
  53 C :    0.054046
  54 C :   -0.073214
  55 C :    0.076258
  56 C :   -0.132873
  57 C :   -0.016269
  58 N :   -0.052317
  59 C :   -0.022734
  60 N :   -0.047161
  61 C :   -0.022502
  62 C :   -0.052951
  63 C :    0.097272
  64 O :   -0.141270
  65 C :    0.033337
  66 C :   -0.008836
  67 C :   -0.004833
  68 C :    0.019664
  69 C :   -0.005106
  70 C :   -0.012281
  71 C :   -0.012497
  72 C :   -0.009421
  73 H :    0.039540
  74 H :    0.039200
  75 H :    0.034955
  76 H :    0.033695
  77 H :    0.033385
  78 H :    0.032376
  79 H :    0.042797
  80 H :    0.042805
  81 H :    0.048281
  82 H :    0.027134
  83 H :    0.023921
  84 H :    0.038747
  85 H :    0.021201
  86 H :    0.032987
  87 H :    0.033043
  88 H :    0.040959
  89 H :    0.021453
  90 H :    0.034399
  91 H :    0.032102
  92 H :    0.022068
  93 H :    0.029030
  94 H :    0.040069
  95 H :    0.030304
  96 H :    0.040680
  97 H :    0.040770
  98 H :    0.040729
  99 H :    0.046343
 100 H :    0.037679
 101 H :    0.039332
 102 H :    0.035026
 103 H :    0.033539
 104 H :    0.032788
 105 H :    0.031419

  Mayer bond orders larger than 0.100000
B(  0-C ,  1-C ) :   1.6191 B(  0-C ,  6-C ) :   0.9829 B(  0-C , 18-C ) :   1.0773
B(  1-C ,  2-C ) :   1.1544 B(  1-C ,  4-C ) :   1.1389 B(  2-C ,  3-N ) :   2.9608
B(  4-C ,  5-N ) :   2.9573 B(  6-C ,  7-C ) :   1.2157 B(  6-C , 11-C ) :   1.4459
B(  7-C ,  8-C ) :   1.4679 B(  7-C , 16-C ) :   0.9586 B(  8-C ,  9-C ) :   1.1771
B(  8-C , 73-H ) :   1.0170 B(  9-C , 10-C ) :   1.2554 B(  9-C , 15-C ) :   1.2436
B( 10-C , 11-C ) :   1.2085 B( 10-C , 12-C ) :   1.2405 B( 11-C , 74-H ) :   0.9888
B( 12-C , 13-C ) :   1.4898 B( 12-C , 75-H ) :   0.9970 B( 13-C , 14-C ) :   1.2595
B( 13-C , 76-H ) :   0.9880 B( 14-C , 15-C ) :   1.4892 B( 14-C , 77-H ) :   0.9886
B( 15-C , 78-H ) :   0.9979 B( 16-C , 17-O ) :   2.1616 B( 16-C , 18-C ) :   0.9304
B( 18-C , 19-C ) :   1.6108 B( 19-C , 20-C ) :   1.2005 B( 19-C , 79-H ) :   0.9041
B( 20-C , 21-S ) :   1.1028 B( 20-C , 24-C ) :   1.4333 B( 21-S , 22-C ) :   1.1463
B( 22-C , 23-C ) :   1.3877 B( 22-C , 27-C ) :   1.1979 B( 23-C , 24-C ) :   1.2988
B( 23-C , 25-C ) :   1.1072 B( 24-C , 80-H ) :   0.9798 B( 25-C , 26-N ) :   3.0253
B( 27-C , 28-C ) :   1.5631 B( 27-C , 81-H ) :   0.9377 B( 28-C , 29-C ) :   1.1678
B( 28-C , 82-H ) :   0.9694 B( 29-C , 30-N ) :   1.1554 B( 29-C , 36-C ) :   1.3415
B( 30-N , 31-C ) :   0.9436 B( 30-N , 33-C ) :   1.0584 B( 31-C , 32-C ) :   1.1193
B( 31-C , 83-H ) :   0.9505 B( 31-C , 84-H ) :   0.9287 B( 32-C , 85-H ) :   0.9692
B( 32-C , 86-H ) :   0.9682 B( 32-C , 87-H ) :   0.9641 B( 33-C , 34-O ) :   2.0559
B( 33-C , 35-C ) :   0.9824 B( 35-C , 36-C ) :   1.2634 B( 35-C , 42-C ) :   1.3266
B( 36-C , 37-C ) :   0.9794 B( 37-C , 38-O ) :   2.0383 B( 37-C , 39-N ) :   1.0603
B( 38-O , 81-H ) :   0.1065 B( 39-N , 40-C ) :   0.9441 B( 39-N , 42-C ) :   1.1613
B( 40-C , 41-C ) :   1.1191 B( 40-C , 88-H ) :   0.9268 B( 40-C , 89-H ) :   0.9492
B( 41-C , 90-H ) :   0.9639 B( 41-C , 91-H ) :   0.9679 B( 41-C , 92-H ) :   0.9687
B( 42-C , 43-C ) :   1.1717 B( 43-C , 44-C ) :   1.6201 B( 43-C , 93-H ) :   0.9546
B( 44-C , 45-C ) :   1.1159 B( 44-C , 94-H ) :   0.9499 B( 45-C , 46-S ) :   1.1508
B( 45-C , 49-C ) :   1.4280 B( 46-S , 47-C ) :   1.1398 B( 47-C , 48-C ) :   1.4530
B( 47-C , 53-C ) :   1.1450 B( 48-C , 49-C ) :   1.3251 B( 48-C , 50-C ) :   0.8747
B( 49-C , 95-H ) :   0.9903 B( 50-C , 51-O ) :   2.2019 B( 50-C , 52-C ) :   1.0566
B( 52-C , 96-H ) :   0.9547 B( 52-C , 97-H ) :   0.9323 B( 52-C , 98-H ) :   0.9464
B( 53-C , 54-C ) :   1.6284 B( 53-C , 99-H ) :   0.9327 B( 54-C , 55-C ) :   1.0675
B( 54-C , 63-C ) :   0.9504 B( 55-C , 56-C ) :   1.6509 B( 55-C , 61-C ) :   0.9909
B( 56-C , 57-C ) :   1.1421 B( 56-C , 59-C ) :   1.1393 B( 57-C , 58-N ) :   2.9655
B( 59-C , 60-N ) :   2.9900 B( 61-C , 62-C ) :   1.2132 B( 61-C , 68-C ) :   1.4475
B( 62-C , 63-C ) :   0.9571 B( 62-C , 65-C ) :   1.4657 B( 63-C , 64-O ) :   2.1464
B( 65-C , 66-C ) :   1.1766 B( 65-C ,100-H ) :   1.0170 B( 66-C , 67-C ) :   1.2586
B( 66-C , 72-C ) :   1.2440 B( 67-C , 68-C ) :   1.2035 B( 67-C , 69-C ) :   1.2394
B( 68-C ,101-H ) :   0.9910 B( 69-C , 70-C ) :   1.4895 B( 69-C ,102-H ) :   0.9977
B( 70-C , 71-C ) :   1.2603 B( 70-C ,103-H ) :   0.9881 B( 71-C , 72-C ) :   1.4881
B( 71-C ,104-H ) :   0.9885 B( 72-C ,105-H ) :   0.9978

-----------------------------------------------------------------------------
         ABSORPTION SPECTRUM VIA TRANSITION ELECTRIC DIPOLE MOMENTS
-----------------------------------------------------------------------------
State   Energy  Wavelength   fosc         T2         TX        TY        TZ
        (cm-1)    (nm)                  (au**2)     (au)      (au)      (au)
-----------------------------------------------------------------------------
   0   12312.1    812.2   1.537246121  41.10438  -5.29795   3.40712   1.19486
   1   17968.5    556.5   0.032395854   0.59355  -0.70314   0.01623   0.31444
   2   21949.6    455.6   0.297091417   4.45594  -1.90572   0.19020   0.88768
   3   22848.1    437.7   0.043843416   0.63173  -0.78047   0.15006  -0.00911
   4   23741.4    421.2   0.350426632   4.85923   1.84815  -1.12409  -0.42424
   5   25179.9    397.1   0.003350005   0.04380  -0.13276  -0.03223   0.15854
   6   25344.0    394.6   0.310982788   4.03959   1.67411  -0.75241  -0.81904
   7   25529.4    391.7   0.196724235   2.53684   1.44602  -0.51389  -0.42636
   8   25935.8    385.6   0.016903250   0.21456  -0.35725   0.13221   0.26354
   9   26203.8    381.6   0.063222695   0.79430  -0.39594   0.17941   0.77804
  10   27100.0    369.0   0.061583975   0.74812   0.12662   0.32263  -0.79247
  11   27700.0    361.0   0.004030235   0.04790   0.15010  -0.15345  -0.04269
  12   27757.7    360.3   0.158242328   1.87678   1.22888  -0.49422  -0.34984
  13   28118.4    355.6   0.009020627   0.10561   0.25562  -0.02822  -0.19869
  14   28564.5    350.1   0.036149720   0.41663   0.60250  -0.18185   0.14338
  15   28670.7    348.8   0.133327323   1.53093  -0.82008   0.13172   0.91709
  16   28941.6    345.5   0.020858581   0.23727   0.20974  -0.12733   0.42079
  17   29649.4    337.3   0.091110858   1.01165   0.89867  -0.38453   0.23701
  18   30636.1    326.4   0.093398612   1.00365   0.22085   0.18801  -0.95892
  19   31051.2    322.0   0.006097365   0.06465  -0.22467   0.11866   0.00935
  20   32190.7    310.6   0.431452786   4.41243  -1.58835   0.61093  -1.23139
  21   32472.4    308.0   0.209711511   2.12610  -0.16314   0.36450  -1.40236
  22   32703.5    305.8   0.589753097   5.93678  -1.90754   0.23053   1.49831
  23   32885.9    304.1   0.186373927   1.86574   0.59910  -0.16271   1.21669
  24   33213.3    301.1   0.004640643   0.04600   0.10574   0.14635  -0.11575
  25   33761.6    296.2   0.030509083   0.29750   0.31197   0.22187  -0.38852
  26   34281.0    291.7   0.042093672   0.40424  -0.47558   0.37963  -0.18422
  27   34557.1    289.4   0.026593911   0.25335   0.10965  -0.46352  -0.16271
  28   34950.2    286.1   0.079561215   0.74942   0.59018   0.27463  -0.57070
  29   35161.2    284.4   0.040349079   0.37779   0.07354  -0.07894  -0.60510
  30   35189.7    284.2   0.005553038   0.05195   0.00333   0.00234   0.22789
  31   35432.6    282.2   0.037986456   0.35294  -0.16658   0.14052   0.55267
  32   35670.6    280.3   0.019241649   0.17759   0.11437   0.06147  -0.40091
  33   35870.7    278.8   0.095053249   0.87237   0.59767   0.10214  -0.71044
  34   36261.2    275.8   0.050850694   0.46167  -0.52656   0.19593  -0.38213
  35   36396.8    274.7   0.001342877   0.01215   0.08383  -0.00868   0.07101
  36   36498.9    274.0   0.028352110   0.25573  -0.39180   0.16306   0.27502
  37   36773.6    271.9   0.110689174   0.99093  -0.59605   0.54257  -0.58419
  38   36898.6    271.0   0.474483149   4.23338  -0.21473  -0.16552   2.03958
  39   37724.3    265.1   0.012467537   0.10880  -0.08275   0.09775   0.30397
  40   37988.5    263.2   0.004345403   0.03766  -0.08283   0.08042  -0.15598
  41   38125.4    262.3   0.093111861   0.80402  -0.74446   0.43225  -0.25089
  42   38324.4    260.9   0.021393032   0.18377  -0.37735   0.05821   0.19490
  43   38731.8    258.2   0.453174364   3.85189  -0.40143  -0.44774   1.86823
  44   39000.6    256.4   0.109791702   0.92677  -0.44713   0.09265   0.84750
  45   39469.9    253.4   0.027120950   0.22621  -0.18858  -0.20157   0.38732
  46   39578.8    252.7   0.002481887   0.02064  -0.14242   0.01228  -0.01444
  47   39761.8    251.5   0.038276958   0.31692   0.08928   0.12950  -0.54053
  48   40154.3    249.0   0.032863803   0.26944  -0.28255   0.08240   0.42757

FINAL SINGLE POINT ENERGY     -3819.794055054852

DIPOLE MOMENT
-------------
                                X             Y             Z
Electronic contribution:      7.58428     -16.89262      17.54228
Nuclear contribution   :     -7.09880      17.30177     -21.15594
                        -----------------------------------------
Total Dipole Moment    :      0.48548       0.40915      -3.61366
                        -----------------------------------------
Magnitude (a.u.)       :      3.66901
Magnitude (Debye)      :      9.32589

Rotational constants in cm-1:     0.003115     0.000181     0.000174
Rotational constants in MHz :    93.390192     5.435098     5.216889

                             ****ORCA TERMINATED NORMALLY****
TOTAL RUN TIME: 0 days 0 hours 10 minutes 3 seconds 172 msec
