                         Program Version 4.2.0 -  RELEASE  -
|  1> # ORCA input file
|  2> # SCF done       -206.913088231174          0.000662005440
|  3> ! CAM-B3LYP def2-SVP def2/J RIJCOSX Grid4 TightSCF
|  4> %maxcore 5000
|  5> %tddft
|  6>     Mode sTDDFT
|  7>     Ethresh 5.0
|  8>     maxcore 5000
|  9> end
| 10>
| 11> %pal
| 12>   nprocs 6
| 13>   end
| 14> * xyz 0 1
| 15>    C       -0.09365         9.02947        -2.63170
| 16>    C       -0.60735         8.21401        -3.59871
| 17>    C       -0.03459         8.04300        -4.87682
| 18>    N        0.38672         7.85905        -5.92829
| 19>    C       -1.81492         7.50363        -3.46656
| 20>    N       -2.82308         6.95790        -3.40580
| 21>    C        0.99895         9.97338        -2.83334
| 22>    C        0.97173        10.94022        -1.78809
| 23>    C        1.83696        11.99702        -1.76139
| 24>    C        2.79907        12.12701        -2.78626
| 25>    C        2.85059        11.14906        -3.82099
| 26>    C        1.93903        10.06882        -3.82574
| 27>    C        3.80630        11.29955        -4.84752
| 28>    C        4.66143        12.36722        -4.85676
| 29>    C        4.61592        13.32522        -3.83148
| 30>    C        3.70772        13.20434        -2.81594
| 31>    C       -0.07079        10.57972        -0.81784
| 32>    O       -0.37023        11.15889         0.20059
| 33>    C       -0.63349         9.27714        -1.30126
| 34>    C       -1.28820         8.52836        -0.40122
| 35>    C       -1.62895         7.06703        -0.42351
| 36>    C       -2.22758         6.65945         0.88172
| 37>    N       -3.46477         6.95283         1.21773
| 38>    S       -3.78038         6.36855         2.69293
| 39>    N       -2.31716         5.71084         2.94564
| 40>    C       -1.55444         5.93362         1.89639
| 41>    C       -0.13635         5.45458         1.80059
| 42>    C        0.31382         5.57510         0.37835
| 43>    C       -0.37399         6.27695        -0.64251
| 44>    N        0.23786         6.19424        -1.80303
| 45>    S        1.59623         5.33054        -1.63149
| 46>    N        1.41739         5.00562        -0.05507
| 47>    C        0.75444         6.26177         2.69553
| 48>    N        0.97178         5.96873         4.00929
| 49>    C        0.41196         4.90425         4.81014
| 50>    C       -0.70981         5.41132         5.71111
| 51>    C        1.87580         6.88689         4.59957
| 52>    O        2.23118         6.82389         5.75864
| 53>    C        2.20952         7.79096         3.53047
| 54>    C        1.49405         7.37738         2.36471
| 55>    C        1.88648         8.25265         1.27976
| 56>    O        1.57909         8.28349         0.10136
| 57>    N        2.80090         9.14028         1.85968
| 58>    C        3.37359        10.24372         1.12523
| 59>    C        2.77143        11.58102         1.54842
| 60>    C        3.00979         8.86977         3.19456
| 61>    C        3.93497         9.59404         3.98787
| 62>    C        4.13341         9.39934         5.31546
| 63>    C        5.09053        10.19312         6.00958
| 64>    O        5.77579        11.12121         5.29792
| 65>    C        6.62082        11.77471         6.10980
| 66>    C        6.47500        11.24700         7.40120
| 67>    C        5.49629        10.23674         7.33033
| 68>    N        7.17726        11.63608         8.56791
| 69>    O        8.01141        12.51315         8.45765
| 70>    O        6.89885        11.06380         9.59976
| 71>    C        7.44499        12.78735         5.55461
| 72>    C        7.39297        13.03044         4.21612
| 73>    C        8.17799        13.98834         3.53782
| 74>    C        8.14992        14.14119         2.17947
| 75>    C        8.95143        15.06076         1.38941
| 76>    C        9.67464        16.12517         1.85829
| 77>    C       10.42364        16.99288         1.03498
| 78>    N       11.05205        17.72910         0.41838
| 79>    C        9.74674        16.53110         3.20824
| 80>    N        9.84119        16.93268         4.27931
| 81>    C        8.81586        14.67824        -0.01189
| 82>    C        7.87156        13.61587        -0.10298
| 83>    C        7.37000        13.28690         1.23962
| 84>    O        6.50187        12.47777         1.50215
| 85>    C        7.55920        13.02530        -1.29409
| 86>    C        8.19884        13.47257        -2.47094
| 87>    C        9.12706        14.55090        -2.39309
| 88>    C        9.42581        15.14618        -1.14570
| 89>    C        9.74703        14.99862        -3.57747
| 90>    C        9.47385        14.40282        -4.77882
| 91>    C        8.57517        13.32770        -4.85022
| 92>    C        7.95126        12.87169        -3.72078
| 93>    H        1.78173        12.73380        -0.97479
| 94>    H        2.00639         9.33988        -4.61776
| 95>    H        3.83907        10.56019        -5.63426
| 96>    H        5.37782        12.48379        -5.65628
| 97>    H        5.30411        14.15742        -3.85257
| 98>    H        3.66743        13.93804        -2.02396
| 99>    H       -1.50753         9.03442         0.53402
|100>    H       -2.34408         6.86056        -1.22945
|101>    H       -0.08645         4.40337         2.10945
|102>    H        1.22656         4.51465         5.42864
|103>    H        0.04387         4.11106         4.15877
|104>    H       -0.33567         6.19940         6.35900
|105>    H       -1.07610         4.59611         6.32815
|106>    H       -1.52979         5.79301         5.10919
|107>    H        3.15630        10.05195         0.07063
|108>    H        4.45915        10.25537         1.26142
|109>    H        1.70895        11.60987         1.31885
|110>    H        3.27912        12.38371         1.02120
|111>    H        2.89529        11.74213         2.61656
|112>    H        4.52455        10.34737         3.48577
|113>    H        3.58315         8.65701         5.87368
|114>    H        5.14833         9.63193         8.14180
|115>    H        8.09780        13.32654         6.22476
|116>    H        6.71515        12.44136         3.61537
|117>    H        8.84850        14.59456         4.13302
|118>    H        6.84026        12.22028        -1.33864
|119>    H       10.14396        15.95007        -1.11896
|120>    H       10.44540        15.82010        -3.51649
|121>    H        9.95416        14.75280        -5.68009
|122>    H        8.38332        12.86072        -5.80475
|123>    H        7.26118        12.04200        -3.76575
|124> *
|125>
|126>                          ****END OF INPUT****

CARTESIAN COORDINATES (ANGSTROEM)
---------------------------------
  C     -0.093650    9.029470   -2.631700
  C     -0.607350    8.214010   -3.598710
  C     -0.034590    8.043000   -4.876820
  N      0.386720    7.859050   -5.928290
  C     -1.814920    7.503630   -3.466560
  N     -2.823080    6.957900   -3.405800
  C      0.998950    9.973380   -2.833340
  C      0.971730   10.940220   -1.788090
  C      1.836960   11.997020   -1.761390
  C      2.799070   12.127010   -2.786260
  C      2.850590   11.149060   -3.820990
  C      1.939030   10.068820   -3.825740
  C      3.806300   11.299550   -4.847520
  C      4.661430   12.367220   -4.856760
  C      4.615920   13.325220   -3.831480
  C      3.707720   13.204340   -2.815940
  C     -0.070790   10.579720   -0.817840
  O     -0.370230   11.158890    0.200590
  C     -0.633490    9.277140   -1.301260
  C     -1.288200    8.528360   -0.401220
  C     -1.628950    7.067030   -0.423510
  C     -2.227580    6.659450    0.881720
  N     -3.464770    6.952830    1.217730
  S     -3.780380    6.368550    2.692930
  N     -2.317160    5.710840    2.945640
  C     -1.554440    5.933620    1.896390
  C     -0.136350    5.454580    1.800590
  C      0.313820    5.575100    0.378350
  C     -0.373990    6.276950   -0.642510
  N      0.237860    6.194240   -1.803030
  S      1.596230    5.330540   -1.631490
  N      1.417390    5.005620   -0.055070
  C      0.754440    6.261770    2.695530
  N      0.971780    5.968730    4.009290
  C      0.411960    4.904250    4.810140
  C     -0.709810    5.411320    5.711110
  C      1.875800    6.886890    4.599570
  O      2.231180    6.823890    5.758640
  C      2.209520    7.790960    3.530470
  C      1.494050    7.377380    2.364710
  C      1.886480    8.252650    1.279760
  O      1.579090    8.283490    0.101360
  N      2.800900    9.140280    1.859680
  C      3.373590   10.243720    1.125230
  C      2.771430   11.581020    1.548420
  C      3.009790    8.869770    3.194560
  C      3.934970    9.594040    3.987870
  C      4.133410    9.399340    5.315460
  C      5.090530   10.193120    6.009580
  O      5.775790   11.121210    5.297920
  C      6.620820   11.774710    6.109800
  C      6.475000   11.247000    7.401200
  C      5.496290   10.236740    7.330330
  N      7.177260   11.636080    8.567910
  O      8.011410   12.513150    8.457650
  O      6.898850   11.063800    9.599760
  C      7.444990   12.787350    5.554610
  C      7.392970   13.030440    4.216120
  C      8.177990   13.988340    3.537820
  C      8.149920   14.141190    2.179470
  C      8.951430   15.060760    1.389410
  C      9.674640   16.125170    1.858290
  C     10.423640   16.992880    1.034980
  N     11.052050   17.729100    0.418380
  C      9.746740   16.531100    3.208240
  N      9.841190   16.932680    4.279310
  C      8.815860   14.678240   -0.011890
  C      7.871560   13.615870   -0.102980
  C      7.370000   13.286900    1.239620
  O      6.501870   12.477770    1.502150
  C      7.559200   13.025300   -1.294090
  C      8.198840   13.472570   -2.470940
  C      9.127060   14.550900   -2.393090
  C      9.425810   15.146180   -1.145700
  C      9.747030   14.998620   -3.577470
  C      9.473850   14.402820   -4.778820
  C      8.575170   13.327700   -4.850220
  C      7.951260   12.871690   -3.720780
  H      1.781730   12.733800   -0.974790
  H      2.006390    9.339880   -4.617760
  H      3.839070   10.560190   -5.634260
  H      5.377820   12.483790   -5.656280
  H      5.304110   14.157420   -3.852570
  H      3.667430   13.938040   -2.023960
  H     -1.507530    9.034420    0.534020
  H     -2.344080    6.860560   -1.229450
  H     -0.086450    4.403370    2.109450
  H      1.226560    4.514650    5.428640
  H      0.043870    4.111060    4.158770
  H     -0.335670    6.199400    6.359000
  H     -1.076100    4.596110    6.328150
  H     -1.529790    5.793010    5.109190
  H      3.156300   10.051950    0.070630
  H      4.459150   10.255370    1.261420
  H      1.708950   11.609870    1.318850
  H      3.279120   12.383710    1.021200
  H      2.895290   11.742130    2.616560
  H      4.524550   10.347370    3.485770
  H      3.583150    8.657010    5.873680
  H      5.148330    9.631930    8.141800
  H      8.097800   13.326540    6.224760
  H      6.715150   12.441360    3.615370
  H      8.848500   14.594560    4.133020
  H      6.840260   12.220280   -1.338640
  H     10.143960   15.950070   -1.118960
  H     10.445400   15.820100   -3.516490
  H      9.954160   14.752800   -5.680090
  H      8.383320   12.860720   -5.804750
  H      7.261180   12.042000   -3.765750

 Total Charge           Charge          ....    0
 Multiplicity           Mult            ....    1
 Number of Electrons    NEL             ....  544
 Basis Dimension        Dim             .... 1255

ORBITAL ENERGIES
----------------

  NO   OCC          E(Eh)            E(eV)
   0   2.0000     -89.024506     -2422.4800
   1   2.0000     -89.014915     -2422.2190
   2   2.0000     -19.327950      -525.9403
   3   2.0000     -19.252949      -523.8994
   4   2.0000     -19.252116      -523.8767
   5   2.0000     -19.233444      -523.3686
   6   2.0000     -19.219142      -522.9794
   7   2.0000     -19.204503      -522.5811
   8   2.0000     -19.201526      -522.5001
   9   2.0000     -14.663505      -399.0142
  10   2.0000     -14.467511      -393.6810
  11   2.0000     -14.461422      -393.5153
  12   2.0000     -14.453441      -393.2981
  13   2.0000     -14.450132      -393.2081
  14   2.0000     -14.442825      -393.0092
  15   2.0000     -14.439289      -392.9130
  16   2.0000     -14.424704      -392.5161
  17   2.0000     -14.423974      -392.4963
  18   2.0000     -14.417467      -392.3192
  19   2.0000     -14.417228      -392.3127
  20   2.0000     -10.386553      -282.6325
  21   2.0000     -10.384221      -282.5690
  22   2.0000     -10.383355      -282.5455
  23   2.0000     -10.381417      -282.4927
  24   2.0000     -10.368512      -282.1415
  25   2.0000     -10.367547      -282.1153
  26   2.0000     -10.358106      -281.8584
  27   2.0000     -10.353528      -281.7338
  28   2.0000     -10.350685      -281.6564
  29   2.0000     -10.348390      -281.5940
  30   2.0000     -10.347507      -281.5700
  31   2.0000     -10.345677      -281.5202
  32   2.0000     -10.343118      -281.4506
  33   2.0000     -10.339835      -281.3612
  34   2.0000     -10.338054      -281.3128
  35   2.0000     -10.335423      -281.2411
  36   2.0000     -10.334489      -281.2158
  37   2.0000     -10.331956      -281.1468
  38   2.0000     -10.327015      -281.0124
  39   2.0000     -10.326614      -281.0014
  40   2.0000     -10.326267      -280.9920
  41   2.0000     -10.319482      -280.8074
  42   2.0000     -10.319476      -280.8072
  43   2.0000     -10.319288      -280.8021
  44   2.0000     -10.316614      -280.7293
  45   2.0000     -10.314696      -280.6771
  46   2.0000     -10.314536      -280.6728
  47   2.0000     -10.314130      -280.6618
  48   2.0000     -10.313882      -280.6550
  49   2.0000     -10.312285      -280.6115
  50   2.0000     -10.309811      -280.5442
  51   2.0000     -10.309498      -280.5357
  52   2.0000     -10.308763      -280.5157
  53   2.0000     -10.308602      -280.5113
  54   2.0000     -10.308277      -280.5025
  55   2.0000     -10.307289      -280.4756
  56   2.0000     -10.304814      -280.4083
  57   2.0000     -10.304118      -280.3893
  58   2.0000     -10.302293      -280.3397
  59   2.0000     -10.302231      -280.3380
  60   2.0000     -10.301925      -280.3296
  61   2.0000     -10.300383      -280.2877
  62   2.0000     -10.299983      -280.2768
  63   2.0000     -10.298141      -280.2267
  64   2.0000     -10.297449      -280.2078
  65   2.0000     -10.297160      -280.2000
  66   2.0000     -10.296454      -280.1807
  67   2.0000     -10.296335      -280.1775
  68   2.0000     -10.295728      -280.1610
  69   2.0000     -10.292379      -280.0699
  70   2.0000     -10.292123      -280.0629
  71   2.0000     -10.291640      -280.0498
  72   2.0000     -10.291519      -280.0465
  73   2.0000     -10.291366      -280.0423
  74   2.0000     -10.270890      -279.4851
  75   2.0000     -10.270041      -279.4620
  76   2.0000     -10.260490      -279.2021
  77   2.0000     -10.253142      -279.0022
  78   2.0000      -8.117093      -220.8773
  79   2.0000      -8.107308      -220.6111
  80   2.0000      -6.088628      -165.6800
  81   2.0000      -6.081075      -165.4745
  82   2.0000      -6.078902      -165.4153
  83   2.0000      -6.078404      -165.4018
  84   2.0000      -6.071299      -165.2085
  85   2.0000      -6.068608      -165.1352
  86   2.0000      -1.334708       -36.3192
  87   2.0000      -1.251953       -34.0674
  88   2.0000      -1.153098       -31.3774
  89   2.0000      -1.146404       -31.1952
  90   2.0000      -1.145391       -31.1677
  91   2.0000      -1.138543       -30.9813
  92   2.0000      -1.136773       -30.9332
  93   2.0000      -1.133874       -30.8543
  94   2.0000      -1.125714       -30.6322
  95   2.0000      -1.076030       -29.2803
  96   2.0000      -1.066363       -29.0172
  97   2.0000      -1.027885       -27.9702
  98   2.0000      -1.019403       -27.7394
  99   2.0000      -1.008951       -27.4550
 100   2.0000      -1.002641       -27.2833
 101   2.0000      -1.000517       -27.2254
 102   2.0000      -0.997766       -27.1506
 103   2.0000      -0.994958       -27.0742
 104   2.0000      -0.982828       -26.7441
 105   2.0000      -0.981887       -26.7185
 106   2.0000      -0.974793       -26.5255
 107   2.0000      -0.966367       -26.2962
 108   2.0000      -0.965262       -26.2661
 109   2.0000      -0.954572       -25.9752
 110   2.0000      -0.937820       -25.5194
 111   2.0000      -0.934408       -25.4265
 112   2.0000      -0.926076       -25.1998
 113   2.0000      -0.925355       -25.1802
 114   2.0000      -0.907851       -24.7039
 115   2.0000      -0.904812       -24.6212
 116   2.0000      -0.892259       -24.2796
 117   2.0000      -0.890014       -24.2185
 118   2.0000      -0.885339       -24.0913
 119   2.0000      -0.883896       -24.0520
 120   2.0000      -0.875411       -23.8211
 121   2.0000      -0.872697       -23.7473
 122   2.0000      -0.857703       -23.3393
 123   2.0000      -0.854482       -23.2516
 124   2.0000      -0.839218       -22.8363
 125   2.0000      -0.834705       -22.7135
 126   2.0000      -0.832404       -22.6509
 127   2.0000      -0.822518       -22.3819
 128   2.0000      -0.820210       -22.3191
 129   2.0000      -0.813917       -22.1478
 130   2.0000      -0.785560       -21.3762
 131   2.0000      -0.778968       -21.1968
 132   2.0000      -0.772903       -21.0317
 133   2.0000      -0.771104       -20.9828
 134   2.0000      -0.762924       -20.7602
 135   2.0000      -0.760862       -20.7041
 136   2.0000      -0.740114       -20.1395
 137   2.0000      -0.729217       -19.8430
 138   2.0000      -0.722843       -19.6696
 139   2.0000      -0.715992       -19.4831
 140   2.0000      -0.715296       -19.4642
 141   2.0000      -0.712207       -19.3801
 142   2.0000      -0.711643       -19.3648
 143   2.0000      -0.706625       -19.2282
 144   2.0000      -0.706146       -19.2152
 145   2.0000      -0.702152       -19.1065
 146   2.0000      -0.692301       -18.8385
 147   2.0000      -0.686894       -18.6913
 148   2.0000      -0.681780       -18.5522
 149   2.0000      -0.678343       -18.4586
 150   2.0000      -0.673729       -18.3331
 151   2.0000      -0.671559       -18.2740
 152   2.0000      -0.658324       -17.9139
 153   2.0000      -0.654568       -17.8117
 154   2.0000      -0.652748       -17.7622
 155   2.0000      -0.645495       -17.5648
 156   2.0000      -0.642835       -17.4924
 157   2.0000      -0.637189       -17.3388
 158   2.0000      -0.635758       -17.2999
 159   2.0000      -0.628082       -17.0910
 160   2.0000      -0.626860       -17.0577
 161   2.0000      -0.618207       -16.8223
 162   2.0000      -0.617195       -16.7947
 163   2.0000      -0.612674       -16.6717
 164   2.0000      -0.610870       -16.6226
 165   2.0000      -0.603252       -16.4153
 166   2.0000      -0.600319       -16.3355
 167   2.0000      -0.598038       -16.2734
 168   2.0000      -0.594396       -16.1743
 169   2.0000      -0.592083       -16.1114
 170   2.0000      -0.591583       -16.0978
 171   2.0000      -0.585820       -15.9410
 172   2.0000      -0.583384       -15.8747
 173   2.0000      -0.569498       -15.4968
 174   2.0000      -0.567789       -15.4503
 175   2.0000      -0.562417       -15.3041
 176   2.0000      -0.560078       -15.2405
 177   2.0000      -0.559368       -15.2212
 178   2.0000      -0.557661       -15.1747
 179   2.0000      -0.556362       -15.1394
 180   2.0000      -0.553550       -15.0629
 181   2.0000      -0.551415       -15.0048
 182   2.0000      -0.550517       -14.9803
 183   2.0000      -0.546870       -14.8811
 184   2.0000      -0.545089       -14.8326
 185   2.0000      -0.540792       -14.7157
 186   2.0000      -0.538365       -14.6496
 187   2.0000      -0.537905       -14.6371
 188   2.0000      -0.535686       -14.5768
 189   2.0000      -0.534184       -14.5359
 190   2.0000      -0.531984       -14.4760
 191   2.0000      -0.527752       -14.3609
 192   2.0000      -0.525849       -14.3091
 193   2.0000      -0.523965       -14.2578
 194   2.0000      -0.523316       -14.2402
 195   2.0000      -0.522156       -14.2086
 196   2.0000      -0.517215       -14.0741
 197   2.0000      -0.516420       -14.0525
 198   2.0000      -0.514675       -14.0050
 199   2.0000      -0.513190       -13.9646
 200   2.0000      -0.509440       -13.8626
 201   2.0000      -0.507011       -13.7965
 202   2.0000      -0.505986       -13.7686
 203   2.0000      -0.503438       -13.6992
 204   2.0000      -0.500408       -13.6168
 205   2.0000      -0.498407       -13.5623
 206   2.0000      -0.498320       -13.5600
 207   2.0000      -0.494019       -13.4429
 208   2.0000      -0.489285       -13.3141
 209   2.0000      -0.485265       -13.2047
 210   2.0000      -0.483975       -13.1696
 211   2.0000      -0.479518       -13.0484
 212   2.0000      -0.476159       -12.9570
 213   2.0000      -0.474852       -12.9214
 214   2.0000      -0.472603       -12.8602
 215   2.0000      -0.469461       -12.7747
 216   2.0000      -0.467249       -12.7145
 217   2.0000      -0.461127       -12.5479
 218   2.0000      -0.458597       -12.4791
 219   2.0000      -0.456941       -12.4340
 220   2.0000      -0.455427       -12.3928
 221   2.0000      -0.453627       -12.3438
 222   2.0000      -0.453300       -12.3349
 223   2.0000      -0.451791       -12.2939
 224   2.0000      -0.450208       -12.2508
 225   2.0000      -0.449786       -12.2393
 226   2.0000      -0.448338       -12.1999
 227   2.0000      -0.444367       -12.0919
 228   2.0000      -0.444045       -12.0831
 229   2.0000      -0.442416       -12.0387
 230   2.0000      -0.441827       -12.0227
 231   2.0000      -0.438168       -11.9232
 232   2.0000      -0.434848       -11.8328
 233   2.0000      -0.434417       -11.8211
 234   2.0000      -0.432521       -11.7695
 235   2.0000      -0.429487       -11.6869
 236   2.0000      -0.429291       -11.6816
 237   2.0000      -0.425275       -11.5723
 238   2.0000      -0.423482       -11.5235
 239   2.0000      -0.420096       -11.4314
 240   2.0000      -0.416228       -11.3261
 241   2.0000      -0.413014       -11.2387
 242   2.0000      -0.410635       -11.1739
 243   2.0000      -0.409012       -11.1298
 244   2.0000      -0.405031       -11.0215
 245   2.0000      -0.402422       -10.9505
 246   2.0000      -0.399375       -10.8675
 247   2.0000      -0.398181       -10.8351
 248   2.0000      -0.393684       -10.7127
 249   2.0000      -0.390622       -10.6294
 250   2.0000      -0.389897       -10.6096
 251   2.0000      -0.384181       -10.4541
 252   2.0000      -0.380133       -10.3439
 253   2.0000      -0.379440       -10.3251
 254   2.0000      -0.377461       -10.2712
 255   2.0000      -0.376734       -10.2514
 256   2.0000      -0.370229       -10.0744
 257   2.0000      -0.363746        -9.8980
 258   2.0000      -0.352959        -9.6045
 259   2.0000      -0.350395        -9.5347
 260   2.0000      -0.348760        -9.4903
 261   2.0000      -0.344162        -9.3651
 262   2.0000      -0.341523        -9.2933
 263   2.0000      -0.333055        -9.0629
 264   2.0000      -0.328979        -8.9520
 265   2.0000      -0.327494        -8.9116
 266   2.0000      -0.322497        -8.7756
 267   2.0000      -0.314787        -8.5658
 268   2.0000      -0.306544        -8.3415
 269   2.0000      -0.295208        -8.0330
 270   2.0000      -0.292281        -7.9534
 271   2.0000      -0.254902        -6.9362
 272   0.0000      -0.120073        -3.2674
 273   0.0000      -0.083306        -2.2669
 274   0.0000      -0.080492        -2.1903
 275   0.0000      -0.071641        -1.9494
 276   0.0000      -0.055535        -1.5112

MULLIKEN ATOMIC CHARGES
-----------------------
   0 C :    0.291784
   1 C :   -0.288725
   2 C :   -0.194952
   3 N :    0.154796
   4 C :   -0.145006
   5 N :    0.131077
   6 C :    0.044219
   7 C :    0.016873
   8 C :   -0.099365
   9 C :    0.096596
  10 C :    0.097778
  11 C :   -0.086170
  12 C :   -0.022752
  13 C :    0.028407
  14 C :    0.025235
  15 C :   -0.017506
  16 C :    0.148382
  17 O :   -0.149678
  18 C :   -0.005956
  19 C :   -0.063211
  20 C :    0.275499
  21 C :   -0.137292
  22 N :   -0.259162
  23 S :    0.481283
  24 N :   -0.274236
  25 C :   -0.076714
  26 C :    0.317411
  27 C :   -0.173061
  28 C :   -0.021793
  29 N :   -0.292272
  30 S :    0.481204
  31 N :   -0.265897
  32 C :    0.016997
  33 N :   -0.262499
  34 C :    0.128330
  35 C :    0.005493
  36 C :    0.159415
  37 O :   -0.199690
  38 C :   -0.051621
  39 C :   -0.050160
  40 C :    0.174980
  41 O :   -0.230651
  42 N :   -0.251945
  43 C :    0.085556
  44 C :   -0.008799
  45 C :    0.144752
  46 C :   -0.029224
  47 C :   -0.003852
  48 C :    0.193640
  49 O :   -0.194581
  50 C :    0.120398
  51 C :    0.150123
  52 C :   -0.060826
  53 N :    0.261587
  54 O :   -0.240677
  55 O :   -0.230153
  56 C :   -0.029847
  57 C :    0.011994
  58 C :   -0.013221
  59 C :   -0.072151
  60 C :    0.313979
  61 C :   -0.339779
  62 C :   -0.181683
  63 N :    0.155482
  64 C :   -0.198056
  65 N :    0.162277
  66 C :    0.054692
  67 C :    0.004265
  68 C :    0.154305
  69 O :   -0.163671
  70 C :   -0.085472
  71 C :    0.091762
  72 C :    0.098785
  73 C :   -0.087157
  74 C :   -0.023402
  75 C :    0.040084
  76 C :    0.032274
  77 C :   -0.023165
  78 H :   -0.013766
  79 H :   -0.006731
  80 H :   -0.009253
  81 H :   -0.009624
  82 H :    0.003837
  83 H :   -0.015856
  84 H :    0.034345
  85 H :    0.059885
  86 H :    0.032443
  87 H :    0.032637
  88 H :    0.017778
  89 H :    0.028765
  90 H :    0.013689
  91 H :    0.014651
  92 H :    0.042020
  93 H :    0.034670
  94 H :    0.041098
  95 H :    0.019356
  96 H :    0.010559
  97 H :    0.012415
  98 H :    0.028589
  99 H :    0.013366
 100 H :    0.040070
 101 H :    0.043725
 102 H :    0.021934
 103 H :   -0.010959
 104 H :   -0.005332
 105 H :   -0.004913
 106 H :   -0.001776
 107 H :   -0.002685
 108 H :   -0.010619
Sum of atomic charges:   -0.0000000

LOEWDIN ATOMIC CHARGES
----------------------
   0 C :    0.077162
   1 C :   -0.116115
   2 C :   -0.014284
   3 N :   -0.051073
   4 C :   -0.002546
   5 N :   -0.051688
   6 C :   -0.011366
   7 C :   -0.051901
   8 C :    0.028852
   9 C :   -0.011570
  10 C :   -0.005288
  11 C :    0.014280
  12 C :   -0.007299
  13 C :   -0.020087
  14 C :   -0.017217
  15 C :   -0.011634
  16 C :    0.096673
  17 O :   -0.141346
  18 C :   -0.066754
  19 C :    0.090393
  20 C :   -0.036043
  21 C :   -0.047341
  22 N :   -0.257651
  23 S :    0.605766
  24 N :   -0.260620
  25 C :   -0.048027
  26 C :   -0.024719
  27 C :   -0.053774
  28 C :   -0.035343
  29 N :   -0.259219
  30 S :    0.607672
  31 N :   -0.261999
  32 C :    0.096568
  33 N :    0.009937
  34 C :    0.042493
  35 C :   -0.064850
  36 C :    0.084656
  37 O :   -0.191411
  38 C :   -0.117487
  39 C :   -0.137953
  40 C :    0.087554
  41 O :   -0.212540
  42 N :    0.005701
  43 C :    0.035761
  44 C :   -0.065621
  45 C :    0.077905
  46 C :   -0.028042
  47 C :    0.007927
  48 C :    0.047544
  49 O :    0.038665
  50 C :    0.060032
  51 C :   -0.060666
  52 C :   -0.025187
  53 N :    0.285387
  54 O :   -0.206363
  55 O :   -0.194985
  56 C :    0.004972
  57 C :   -0.009299
  58 C :    0.065863
  59 C :   -0.077658
  60 C :    0.071159
  61 C :   -0.130137
  62 C :   -0.017184
  63 N :   -0.047135
  64 C :   -0.023306
  65 N :   -0.042048
  66 C :   -0.024283
  67 C :   -0.057438
  68 C :    0.090653
  69 O :   -0.152644
  70 C :    0.032914
  71 C :   -0.010336
  72 C :   -0.005044
  73 C :    0.020004
  74 C :   -0.004744
  75 C :   -0.010532
  76 C :   -0.015226
  77 C :   -0.008208
  78 H :    0.038157
  79 H :    0.038326
  80 H :    0.034795
  81 H :    0.030250
  82 H :    0.033234
  83 H :    0.032057
  84 H :    0.041308
  85 H :    0.069477
  86 H :    0.061086
  87 H :    0.034526
  88 H :    0.024497
  89 H :    0.027493
  90 H :    0.028079
  91 H :    0.015071
  92 H :    0.033504
  93 H :    0.026248
  94 H :    0.027651
  95 H :    0.027137
  96 H :    0.022204
  97 H :    0.037090
  98 H :    0.046464
  99 H :    0.049802
 100 H :    0.048115
 101 H :    0.032917
 102 H :    0.044998
 103 H :    0.038946
 104 H :    0.039895
 105 H :    0.036139
 106 H :    0.034700
 107 H :    0.032266
 108 H :    0.032311

  Mayer bond orders larger than 0.100000
B(  0-C ,  1-C ) :   1.6860 B(  0-C ,  6-C ) :   1.0122 B(  0-C , 18-C ) :   0.9835
B(  1-C ,  2-C ) :   1.1359 B(  1-C ,  4-C ) :   1.1630 B(  2-C ,  3-N ) :   2.9832
B(  4-C ,  5-N ) :   2.9084 B(  6-C ,  7-C ) :   1.2172 B(  6-C , 11-C ) :   1.4524
B(  7-C ,  8-C ) :   1.4673 B(  7-C , 16-C ) :   0.9323 B(  8-C ,  9-C ) :   1.1871
B(  8-C , 78-H ) :   1.0131 B(  9-C , 10-C ) :   1.2587 B(  9-C , 15-C ) :   1.2359
B( 10-C , 11-C ) :   1.2068 B( 10-C , 12-C ) :   1.2354 B( 11-C , 79-H ) :   0.9906
B( 12-C , 13-C ) :   1.4921 B( 12-C , 80-H ) :   0.9984 B( 13-C , 14-C ) :   1.2530
B( 13-C , 81-H ) :   0.9851 B( 14-C , 15-C ) :   1.4886 B( 14-C , 82-H ) :   0.9856
B( 15-C , 83-H ) :   0.9998 B( 16-C , 17-O ) :   2.1909 B( 16-C , 18-C ) :   0.9379
B( 18-C , 19-C ) :   1.8199 B( 19-C , 20-C ) :   1.0153 B( 19-C , 84-H ) :   0.9284
B( 20-C , 21-C ) :   0.9811 B( 20-C , 28-C ) :   1.0048 B( 20-C , 85-H ) :   0.7746
B( 21-C , 22-N ) :   1.6855 B( 21-C , 25-C ) :   1.2395 B( 22-N , 23-S ) :   1.2204
B( 22-N , 24-N ) :   0.1247 B( 23-S , 24-N ) :   1.2041 B( 24-N , 25-C ) :   1.6609
B( 25-C , 26-C ) :   0.9953 B( 26-C , 27-C ) :   0.9651 B( 26-C , 32-C ) :   1.0246
B( 26-C , 86-H ) :   0.8172 B( 27-C , 28-C ) :   1.2356 B( 27-C , 30-S ) :   0.1005
B( 27-C , 31-N ) :   1.6848 B( 28-C , 29-N ) :   1.6353 B( 29-N , 30-S ) :   1.2169
B( 29-N , 31-N ) :   0.1216 B( 30-S , 31-N ) :   1.2237 B( 32-C , 33-N ) :   1.2333
B( 32-C , 39-C ) :   1.4323 B( 33-N , 34-C ) :   0.9386 B( 33-N , 36-C ) :   1.0311
B( 34-C , 35-C ) :   1.1175 B( 34-C , 87-H ) :   0.9350 B( 34-C , 88-H ) :   0.9446
B( 35-C , 89-H ) :   0.9639 B( 35-C , 90-H ) :   0.9642 B( 35-C , 91-H ) :   0.9520
B( 36-C , 37-O ) :   2.0483 B( 36-C , 38-C ) :   0.9928 B( 38-C , 39-C ) :   1.2157
B( 38-C , 45-C ) :   1.3773 B( 39-C , 40-C ) :   0.9707 B( 40-C , 41-O ) :   2.0094
B( 40-C , 42-N ) :   1.0763 B( 42-N , 43-C ) :   0.9355 B( 42-N , 45-C ) :   1.1547
B( 43-C , 44-C ) :   1.1210 B( 43-C , 92-H ) :   0.9287 B( 43-C , 93-H ) :   0.9438
B( 44-C , 94-H ) :   0.9483 B( 44-C , 95-H ) :   0.9614 B( 44-C , 96-H ) :   0.9598
B( 45-C , 46-C ) :   1.1372 B( 46-C , 47-C ) :   1.6184 B( 46-C , 97-H ) :   0.9596
B( 47-C , 48-C ) :   1.1301 B( 47-C , 98-H ) :   0.9508 B( 48-C , 49-O ) :   1.1179
B( 48-C , 52-C ) :   1.3809 B( 49-O , 50-C ) :   1.1757 B( 50-C , 51-C ) :   1.3398
B( 50-C , 56-C ) :   1.1593 B( 51-C , 52-C ) :   1.2445 B( 51-C , 53-N ) :   0.9287
B( 52-C , 99-H ) :   1.0301 B( 53-N , 54-O ) :   1.5221 B( 53-N , 55-O ) :   1.5535
B( 54-O , 55-O ) :   0.2730 B( 56-C , 57-C ) :   1.5339 B( 56-C ,100-H ) :   0.9786
B( 57-C , 58-C ) :   1.1410 B( 57-C ,101-H ) :   0.9776 B( 58-C , 59-C ) :   1.5684
B( 58-C ,102-H ) :   0.9675 B( 59-C , 60-C ) :   1.0476 B( 59-C , 68-C ) :   0.9428
B( 60-C , 61-C ) :   1.6472 B( 60-C , 66-C ) :   0.9920 B( 61-C , 62-C ) :   1.1441
B( 61-C , 64-C ) :   1.1420 B( 62-C , 63-N ) :   2.9664 B( 64-C , 65-N ) :   2.9816
B( 66-C , 67-C ) :   1.2135 B( 66-C , 73-C ) :   1.4495 B( 67-C , 68-C ) :   0.9533
B( 67-C , 70-C ) :   1.4590 B( 68-C , 69-O ) :   2.1567 B( 70-C , 71-C ) :   1.1835
B( 70-C ,103-H ) :   1.0183 B( 71-C , 72-C ) :   1.2556 B( 71-C , 77-C ) :   1.2459
B( 72-C , 73-C ) :   1.2055 B( 72-C , 74-C ) :   1.2375 B( 73-C ,104-H ) :   0.9912
B( 74-C , 75-C ) :   1.4888 B( 74-C ,105-H ) :   0.9981 B( 75-C , 76-C ) :   1.2580
B( 75-C ,106-H ) :   0.9894 B( 76-C , 77-C ) :   1.4813 B( 76-C ,107-H ) :   0.9891
B( 77-C ,108-H ) :   0.9916

-----------------------------------------------------------------------------
         ABSORPTION SPECTRUM VIA TRANSITION ELECTRIC DIPOLE MOMENTS
-----------------------------------------------------------------------------
State   Energy  Wavelength   fosc         T2         TX        TY        TZ
        (cm-1)    (nm)                  (au**2)     (au)      (au)      (au)
-----------------------------------------------------------------------------
   0   15329.5    652.3   0.559086218  12.00680  -2.12626  -2.45099   1.21592
   1   22109.6    452.3   0.169512620   2.52405  -0.09158  -0.43882   1.52417
   2   22271.2    449.0   0.127772429   1.88873  -0.69867  -0.76997   0.89874
   3   22634.8    441.8   0.303419954   4.41310   1.37351   1.58943   0.01635
   4   24810.6    403.1   0.074521972   0.98883  -0.40450  -0.29294   0.85988
   5   26376.1    379.1   0.000228738   0.00285   0.02621   0.04276   0.01843
   6   26874.7    372.1   0.028951213   0.35465   0.28329   0.34820   0.39135
   7   26968.3    370.8   0.005142796   0.06278   0.10395   0.21834   0.06560
   8   27460.7    364.2   0.004119078   0.04938  -0.15264  -0.15859   0.03051
   9   28056.5    356.4   0.049573012   0.58168  -0.23422  -0.32009  -0.65143
  10   28128.9    355.5   0.009035703   0.10575   0.04834  -0.26855   0.17690
  11   28976.8    345.1   0.002004845   0.02278  -0.08270   0.07545   0.10122
  12   29156.5    343.0   0.158645697   1.79130   1.09049   0.71755   0.29540
  13   29854.6    335.0   0.154022828   1.69844  -0.44973   0.07137  -1.22110
  14   29928.0    334.1   0.010645202   0.11710   0.08268   0.08702   0.32045
  15   30007.9    333.2   0.001731712   0.01900  -0.00786   0.03013   0.13427
  16   30450.0    328.4   0.105873942   1.14466  -0.27381   0.06360  -1.03230
  17   31257.1    319.9   0.007718106   0.08129  -0.13515  -0.25025  -0.01996
  18   31819.7    314.3   0.163603595   1.69267   0.55913   0.69749   0.94528
  19   31850.5    314.0   0.160763350   1.66168  -0.11084  -0.55762  -1.15691
  20   32972.6    303.3   0.457604002   4.56891  -0.41877  -0.65316  -1.99171
  21   33029.3    302.8   0.037651742   0.37528   0.12792   0.20330   0.56355
  22   33224.1    301.0   0.061354223   0.60795  -0.28370  -0.05091  -0.72448
  23   33330.7    300.0   0.056562375   0.55867   0.21156   0.22213   0.68160
  24   33615.4    297.5   0.115990720   1.13595  -0.35284  -0.51966  -0.86105
  25   33803.9    295.8   0.052361118   0.50994  -0.49614  -0.46127  -0.22586
  26   33930.3    294.7   0.242327197   2.35120  -0.04522   0.03451   1.53231
  27   34001.2    294.1   0.249757573   2.41825  -0.06744  -0.10126  -1.55031
  28   34077.0    293.5   0.131748712   1.27280  -0.66820  -0.62860  -0.65664
  29   34271.2    291.8   0.009355232   0.08987   0.25383   0.15940   0.00504
  30   34470.5    290.1   0.183773960   1.75514   0.80406   0.95421   0.44510
  31   35021.5    285.5   0.017690063   0.16629  -0.19225  -0.34913  -0.08624
  32   35513.4    281.6   0.250320606   2.32049   0.19774  -0.24291   1.49077
  33   35801.1    279.3   0.083151517   0.76463  -0.59872  -0.60198   0.20922
  34   35909.8    278.5   0.016606482   0.15224   0.15660   0.25054  -0.25486
  35   36106.9    277.0   0.565992842   5.16056  -1.48538  -1.64807   0.48792
  36   36273.2    275.7   0.007330891   0.06653   0.14684   0.18280  -0.10751
  37   36482.3    274.1   0.053170787   0.47981   0.06537  -0.09713   0.68272
  38   36603.1    273.2   0.063145189   0.56793   0.44644   0.47509  -0.37804
  39   37107.5    269.5   0.019176728   0.17013   0.33962   0.23368   0.01367
  40   37407.2    267.3   0.033916191   0.29849   0.29565   0.41635   0.19425
  41   37620.5    265.8   0.005353999   0.04685   0.02081   0.10694  -0.18704
  42   37822.2    264.4   0.186365096   1.62216   0.52100   0.60313   0.99345
  43   38199.2    261.8   0.100611571   0.86710   0.38538   0.84542   0.06208
  44   38303.6    261.1   0.014262257   0.12258  -0.19735  -0.25101  -0.14363
  45   38661.5    258.7   0.030796161   0.26224  -0.16797  -0.38410   0.29409
  46   38840.2    257.5   0.035924337   0.30450  -0.17920  -0.41653   0.31446
  47   38877.2    257.2   0.084618868   0.71655   0.36857   0.62915  -0.42997
  48   39434.3    253.6   0.172368683   1.43900  -0.49728  -0.76042   0.78324
  49   39689.6    252.0   0.021186238   0.17573  -0.24396  -0.30873  -0.14458
  50   40059.9    249.6   0.017819283   0.14644  -0.17246   0.28685   0.18552
  51   40130.5    249.2   0.082660760   0.67811   0.46864   0.54528   0.40145

FINAL SINGLE POINT ENERGY     -4149.465452307026

DIPOLE MOMENT
-------------
                                X             Y             Z
Electronic contribution:    -13.20088     -11.35614       3.68962
Nuclear contribution   :     13.66995      10.28372      -5.01487
                        -----------------------------------------
Total Dipole Moment    :      0.46907      -1.07242      -1.32525
                        -----------------------------------------
Magnitude (a.u.)       :      1.76816
Magnitude (Debye)      :      4.49431

Rotational constants in cm-1:     0.001038     0.000573     0.000396
Rotational constants in MHz :    31.122139    17.192525    11.868036

                             ****ORCA TERMINATED NORMALLY****
TOTAL RUN TIME: 0 days 0 hours 13 minutes 22 seconds 684 msec
