                         Program Version 4.2.0 -  RELEASE  -
|  1> # ORCA input file
|  2> # SCF done       -186.854644371322          0.000593107158
|  3> ! CAM-B3LYP def2-SVP def2/J RIJCOSX Grid4 TightSCF
|  4> %maxcore 5000
|  5> %tddft
|  6>     Mode sTDDFT
|  7>     Ethresh 5.0
|  8>     maxcore 5000
|  9> end
| 10>
| 11> %pal
| 12>   nprocs 6
| 13>   end
| 14> * xyz 0 1
| 15>    C       -1.75145         3.26132        -3.44999
| 16>    C       -0.55316         3.54523        -4.03449
| 17>    C       -0.40069         4.43536        -5.11769
| 18>    N       -0.21091         5.11440        -6.02331
| 19>    C        0.66548         2.92585        -3.68186
| 20>    N        1.67946         2.43089        -3.47243
| 21>    C       -3.04014         3.75463        -3.90749
| 22>    C       -4.05497         2.84367        -3.49027
| 23>    C       -5.36735         3.04753        -3.81146
| 24>    C       -5.72291         4.19505        -4.55583
| 25>    C       -4.71316         5.12539        -4.94194
| 26>    C       -3.36190         4.88650        -4.60607
| 27>    C       -5.09173         6.27728        -5.66159
| 28>    C       -6.40077         6.50125        -5.98901
| 29>    C       -7.39324         5.58342        -5.61242
| 30>    C       -7.06139         4.45560        -4.91270
| 31>    C       -3.44825         1.77665        -2.67346
| 32>    O       -3.97043         0.79124        -2.21410
| 33>    C       -2.03173         2.22811        -2.45637
| 34>    C       -1.34861         1.83828        -1.36457
| 35>    C       -0.16753         2.51833        -0.85761
| 36>    N        0.63229         1.88290        -0.00373
| 37>    C        1.70468         2.54383         0.39978
| 38>    C        2.01892         3.82113        -0.03940
| 39>    C        1.10203         4.42204        -0.91132
| 40>    N        0.00352         3.76283        -1.27279
| 41>    C        1.21974         5.70168        -1.57040
| 42>    C        2.33807         6.43784        -1.71651
| 43>    C        2.35609         7.58400        -2.56576
| 44>    N        3.45050         8.39834        -2.72537
| 45>    C        4.69587         8.32391        -2.00296
| 46>    C        4.55923         8.85634        -0.57851
| 47>    C        3.22172         9.41104        -3.68014
| 48>    O        4.05366        10.24077        -3.97950
| 49>    C        1.87050         9.17028        -4.13253
| 50>    C        1.36238         8.04747        -3.42168
| 51>    C        0.02114         7.79578        -3.90248
| 52>    O       -0.82326         6.97530        -3.58913
| 53>    N       -0.19011         8.77838        -4.87880
| 54>    C       -1.42242         8.83219        -5.62767
| 55>    C       -1.28511         8.15914        -6.99102
| 56>    C        0.90375         9.59905        -5.03314
| 57>    C        0.94850        10.67191        -5.96726
| 58>    C        1.98578        11.52684        -6.07618
| 59>    C        1.98397        12.60072        -7.04731
| 60>    N        0.97673        12.66110        -7.93020
| 61>    C        1.01533        13.63211        -8.82041
| 62>    C        2.03565        14.57085        -8.85811
| 63>    C        3.03208        14.45018        -7.87922
| 64>    N        2.99361        13.45912        -6.99084
| 65>    C        4.12454        15.39659        -7.79770
| 66>    C        5.02945        15.38804        -6.79634
| 67>    C        6.08011        16.34593        -6.73933
| 68>    C        6.98156        16.46236        -5.72753
| 69>    C        8.07615        17.41807        -5.63991
| 70>    C        8.36315        18.42367        -6.52512
| 71>    C        9.43728        19.32746        -6.37629
| 72>    N       10.28842        20.09558        -6.31920
| 73>    C        7.64047        18.72478        -7.69898
| 74>    N        7.11070        19.04297        -8.66716
| 75>    C        8.81900        17.13279        -4.41802
| 76>    C        8.18909        16.05034        -3.74075
| 77>    C        7.01362        15.60268        -4.50791
| 78>    O        6.23666        14.72963        -4.19556
| 79>    C        8.66353        15.56293        -2.55725
| 80>    C        9.81396        16.14747        -1.98314
| 81>    C       10.45230        17.23054        -2.65412
| 82>    C        9.93850        17.71259        -3.87917
| 83>    C       11.59913        17.80854        -2.07161
| 84>    C       12.09192        17.34133        -0.88394
| 85>    C       11.46258        16.27461        -0.22448
| 86>    C       10.34831        15.69022        -0.76249
| 87>    H       -6.12749         2.34880        -3.49480
| 88>    H       -2.60895         5.61286        -4.86822
| 89>    H       -4.32244         6.97728        -5.95221
| 90>    H       -6.68074         7.38671        -6.53991
| 91>    H       -8.42187         5.77571        -5.87847
| 92>    H       -7.82181         3.74648        -4.61984
| 93>    H       -1.73248         1.01640        -0.77517
| 94>    H        2.34132         2.01560         1.09831
| 95>    H        2.91573         4.32220         0.28439
| 96>    H        0.31270         6.00283        -2.07778
| 97>    H        3.26238         6.15120        -1.23520
| 98>    H        5.40256         8.94484        -2.56095
| 99>    H        5.06031         7.29229        -2.00053
|100>    H        4.24381         9.89648        -0.60129
|101>    H        5.51653         8.79448        -0.06822
|102>    H        3.82362         8.28444        -0.01668
|103>    H       -1.73867         9.87395        -5.73246
|104>    H       -2.16331         8.30097        -5.02214
|105>    H       -0.54589         8.67206        -7.60157
|106>    H       -2.23928         8.17729        -7.51177
|107>    H       -0.97066         7.12581        -6.86375
|108>    H        0.10279        10.81324        -6.62507
|109>    H        2.86138        11.45686        -5.44723
|110>    H        0.19545        13.65700        -9.52815
|111>    H        2.05747        15.35862        -9.59330
|112>    H        4.17400        16.14349        -8.58073
|113>    H        4.94733        14.64516        -6.01616
|114>    H        6.14789        17.02472        -7.58082
|115>    H        8.16463        14.74056        -2.06639
|116>    H       10.44740        18.53191        -4.36126
|117>    H       12.07995        18.62961        -2.58283
|118>    H       12.96993        17.79126        -0.44533
|119>    H       11.86542        15.91872         0.71200
|120>    H        9.85926        14.86872        -0.25972
|121> *
|122>
|123>                          ****END OF INPUT****

CARTESIAN COORDINATES (ANGSTROEM)
---------------------------------
  C     -1.751450    3.261320   -3.449990
  C     -0.553160    3.545230   -4.034490
  C     -0.400690    4.435360   -5.117690
  N     -0.210910    5.114400   -6.023310
  C      0.665480    2.925850   -3.681860
  N      1.679460    2.430890   -3.472430
  C     -3.040140    3.754630   -3.907490
  C     -4.054970    2.843670   -3.490270
  C     -5.367350    3.047530   -3.811460
  C     -5.722910    4.195050   -4.555830
  C     -4.713160    5.125390   -4.941940
  C     -3.361900    4.886500   -4.606070
  C     -5.091730    6.277280   -5.661590
  C     -6.400770    6.501250   -5.989010
  C     -7.393240    5.583420   -5.612420
  C     -7.061390    4.455600   -4.912700
  C     -3.448250    1.776650   -2.673460
  O     -3.970430    0.791240   -2.214100
  C     -2.031730    2.228110   -2.456370
  C     -1.348610    1.838280   -1.364570
  C     -0.167530    2.518330   -0.857610
  N      0.632290    1.882900   -0.003730
  C      1.704680    2.543830    0.399780
  C      2.018920    3.821130   -0.039400
  C      1.102030    4.422040   -0.911320
  N      0.003520    3.762830   -1.272790
  C      1.219740    5.701680   -1.570400
  C      2.338070    6.437840   -1.716510
  C      2.356090    7.584000   -2.565760
  N      3.450500    8.398340   -2.725370
  C      4.695870    8.323910   -2.002960
  C      4.559230    8.856340   -0.578510
  C      3.221720    9.411040   -3.680140
  O      4.053660   10.240770   -3.979500
  C      1.870500    9.170280   -4.132530
  C      1.362380    8.047470   -3.421680
  C      0.021140    7.795780   -3.902480
  O     -0.823260    6.975300   -3.589130
  N     -0.190110    8.778380   -4.878800
  C     -1.422420    8.832190   -5.627670
  C     -1.285110    8.159140   -6.991020
  C      0.903750    9.599050   -5.033140
  C      0.948500   10.671910   -5.967260
  C      1.985780   11.526840   -6.076180
  C      1.983970   12.600720   -7.047310
  N      0.976730   12.661100   -7.930200
  C      1.015330   13.632110   -8.820410
  C      2.035650   14.570850   -8.858110
  C      3.032080   14.450180   -7.879220
  N      2.993610   13.459120   -6.990840
  C      4.124540   15.396590   -7.797700
  C      5.029450   15.388040   -6.796340
  C      6.080110   16.345930   -6.739330
  C      6.981560   16.462360   -5.727530
  C      8.076150   17.418070   -5.639910
  C      8.363150   18.423670   -6.525120
  C      9.437280   19.327460   -6.376290
  N     10.288420   20.095580   -6.319200
  C      7.640470   18.724780   -7.698980
  N      7.110700   19.042970   -8.667160
  C      8.819000   17.132790   -4.418020
  C      8.189090   16.050340   -3.740750
  C      7.013620   15.602680   -4.507910
  O      6.236660   14.729630   -4.195560
  C      8.663530   15.562930   -2.557250
  C      9.813960   16.147470   -1.983140
  C     10.452300   17.230540   -2.654120
  C      9.938500   17.712590   -3.879170
  C     11.599130   17.808540   -2.071610
  C     12.091920   17.341330   -0.883940
  C     11.462580   16.274610   -0.224480
  C     10.348310   15.690220   -0.762490
  H     -6.127490    2.348800   -3.494800
  H     -2.608950    5.612860   -4.868220
  H     -4.322440    6.977280   -5.952210
  H     -6.680740    7.386710   -6.539910
  H     -8.421870    5.775710   -5.878470
  H     -7.821810    3.746480   -4.619840
  H     -1.732480    1.016400   -0.775170
  H      2.341320    2.015600    1.098310
  H      2.915730    4.322200    0.284390
  H      0.312700    6.002830   -2.077780
  H      3.262380    6.151200   -1.235200
  H      5.402560    8.944840   -2.560950
  H      5.060310    7.292290   -2.000530
  H      4.243810    9.896480   -0.601290
  H      5.516530    8.794480   -0.068220
  H      3.823620    8.284440   -0.016680
  H     -1.738670    9.873950   -5.732460
  H     -2.163310    8.300970   -5.022140
  H     -0.545890    8.672060   -7.601570
  H     -2.239280    8.177290   -7.511770
  H     -0.970660    7.125810   -6.863750
  H      0.102790   10.813240   -6.625070
  H      2.861380   11.456860   -5.447230
  H      0.195450   13.657000   -9.528150
  H      2.057470   15.358620   -9.593300
  H      4.174000   16.143490   -8.580730
  H      4.947330   14.645160   -6.016160
  H      6.147890   17.024720   -7.580820
  H      8.164630   14.740560   -2.066390
  H     10.447400   18.531910   -4.361260
  H     12.079950   18.629610   -2.582830
  H     12.969930   17.791260   -0.445330
  H     11.865420   15.918720    0.712000
  H      9.859260   14.868720   -0.259720

 Total Charge           Charge          ....    0
 Multiplicity           Mult            ....    1
 Number of Electrons    NEL             ....  484
 Basis Dimension        Dim             .... 1178

ORBITAL ENERGIES
----------------

  NO   OCC          E(Eh)            E(eV)
   0   2.0000     -19.215713      -522.8861
   1   2.0000     -19.212886      -522.8092
   2   2.0000     -19.192652      -522.2586
   3   2.0000     -19.188637      -522.1494
   4   2.0000     -14.452642      -393.2764
   5   2.0000     -14.451371      -393.2418
   6   2.0000     -14.418910      -392.3585
   7   2.0000     -14.416331      -392.2883
   8   2.0000     -14.416130      -392.2829
   9   2.0000     -14.415244      -392.2587
  10   2.0000     -14.413985      -392.2245
  11   2.0000     -14.412444      -392.1825
  12   2.0000     -14.407641      -392.0519
  13   2.0000     -14.407105      -392.0373
  14   2.0000     -10.373958      -282.2897
  15   2.0000     -10.371451      -282.2215
  16   2.0000     -10.366502      -282.0869
  17   2.0000     -10.364349      -282.0283
  18   2.0000     -10.349083      -281.6129
  19   2.0000     -10.346670      -281.5472
  20   2.0000     -10.344575      -281.4902
  21   2.0000     -10.342395      -281.4309
  22   2.0000     -10.340278      -281.3733
  23   2.0000     -10.335311      -281.2381
  24   2.0000     -10.335212      -281.2354
  25   2.0000     -10.334093      -281.2050
  26   2.0000     -10.333839      -281.1980
  27   2.0000     -10.331765      -281.1416
  28   2.0000     -10.328193      -281.0444
  29   2.0000     -10.325997      -280.9847
  30   2.0000     -10.321593      -280.8648
  31   2.0000     -10.319064      -280.7960
  32   2.0000     -10.314902      -280.6828
  33   2.0000     -10.311879      -280.6005
  34   2.0000     -10.309911      -280.5469
  35   2.0000     -10.309005      -280.5223
  36   2.0000     -10.304251      -280.3929
  37   2.0000     -10.303667      -280.3770
  38   2.0000     -10.302869      -280.3553
  39   2.0000     -10.301879      -280.3284
  40   2.0000     -10.299425      -280.2616
  41   2.0000     -10.299307      -280.2584
  42   2.0000     -10.299145      -280.2540
  43   2.0000     -10.298518      -280.2369
  44   2.0000     -10.298263      -280.2300
  45   2.0000     -10.297573      -280.2112
  46   2.0000     -10.296498      -280.1819
  47   2.0000     -10.295641      -280.1586
  48   2.0000     -10.294590      -280.1300
  49   2.0000     -10.294048      -280.1153
  50   2.0000     -10.293227      -280.0930
  51   2.0000     -10.292843      -280.0825
  52   2.0000     -10.292424      -280.0711
  53   2.0000     -10.288371      -279.9608
  54   2.0000     -10.287703      -279.9426
  55   2.0000     -10.287594      -279.9397
  56   2.0000     -10.287146      -279.9275
  57   2.0000     -10.287133      -279.9271
  58   2.0000     -10.286862      -279.9198
  59   2.0000     -10.286636      -279.9136
  60   2.0000     -10.286153      -279.9005
  61   2.0000     -10.285471      -279.8819
  62   2.0000     -10.285249      -279.8759
  63   2.0000     -10.282876      -279.8113
  64   2.0000     -10.282650      -279.8051
  65   2.0000     -10.282229      -279.7937
  66   2.0000     -10.281834      -279.7829
  67   2.0000     -10.277988      -279.6783
  68   2.0000     -10.266342      -279.3614
  69   2.0000     -10.261407      -279.2271
  70   2.0000     -10.259057      -279.1631
  71   2.0000     -10.249397      -278.9003
  72   2.0000      -1.132946       -30.8290
  73   2.0000      -1.131310       -30.7845
  74   2.0000      -1.128423       -30.7060
  75   2.0000      -1.126332       -30.6490
  76   2.0000      -1.091178       -29.6925
  77   2.0000      -1.088564       -29.6213
  78   2.0000      -1.062806       -28.9204
  79   2.0000      -1.054355       -28.6905
  80   2.0000      -1.019825       -27.7509
  81   2.0000      -1.010816       -27.5057
  82   2.0000      -0.999664       -27.2022
  83   2.0000      -0.995608       -27.0919
  84   2.0000      -0.992618       -27.0105
  85   2.0000      -0.989101       -26.9148
  86   2.0000      -0.988276       -26.8923
  87   2.0000      -0.984208       -26.7817
  88   2.0000      -0.972256       -26.4564
  89   2.0000      -0.966500       -26.2998
  90   2.0000      -0.931398       -25.3446
  91   2.0000      -0.929539       -25.2940
  92   2.0000      -0.925492       -25.1839
  93   2.0000      -0.922267       -25.0962
  94   2.0000      -0.913440       -24.8560
  95   2.0000      -0.911054       -24.7910
  96   2.0000      -0.897661       -24.4266
  97   2.0000      -0.890103       -24.2209
  98   2.0000      -0.883546       -24.0425
  99   2.0000      -0.881649       -23.9909
 100   2.0000      -0.876725       -23.8569
 101   2.0000      -0.875504       -23.8237
 102   2.0000      -0.866595       -23.5812
 103   2.0000      -0.849947       -23.1282
 104   2.0000      -0.845340       -23.0029
 105   2.0000      -0.828917       -22.5560
 106   2.0000      -0.823451       -22.4072
 107   2.0000      -0.817291       -22.2396
 108   2.0000      -0.810935       -22.0667
 109   2.0000      -0.798439       -21.7266
 110   2.0000      -0.796335       -21.6694
 111   2.0000      -0.794966       -21.6321
 112   2.0000      -0.762694       -20.7540
 113   2.0000      -0.757755       -20.6196
 114   2.0000      -0.757007       -20.5992
 115   2.0000      -0.753084       -20.4925
 116   2.0000      -0.746230       -20.3060
 117   2.0000      -0.744543       -20.2600
 118   2.0000      -0.731873       -19.9153
 119   2.0000      -0.713580       -19.4175
 120   2.0000      -0.706441       -19.2232
 121   2.0000      -0.705299       -19.1922
 122   2.0000      -0.704176       -19.1616
 123   2.0000      -0.701462       -19.0878
 124   2.0000      -0.697224       -18.9724
 125   2.0000      -0.693969       -18.8839
 126   2.0000      -0.684950       -18.6384
 127   2.0000      -0.680939       -18.5293
 128   2.0000      -0.668437       -18.1891
 129   2.0000      -0.666819       -18.1451
 130   2.0000      -0.655745       -17.8437
 131   2.0000      -0.653318       -17.7777
 132   2.0000      -0.646316       -17.5871
 133   2.0000      -0.637408       -17.3448
 134   2.0000      -0.632499       -17.2112
 135   2.0000      -0.628711       -17.1081
 136   2.0000      -0.623708       -16.9720
 137   2.0000      -0.619893       -16.8681
 138   2.0000      -0.613951       -16.7065
 139   2.0000      -0.607435       -16.5292
 140   2.0000      -0.602990       -16.4082
 141   2.0000      -0.600360       -16.3366
 142   2.0000      -0.592335       -16.1182
 143   2.0000      -0.588463       -16.0129
 144   2.0000      -0.585963       -15.9449
 145   2.0000      -0.583838       -15.8871
 146   2.0000      -0.579843       -15.7783
 147   2.0000      -0.570612       -15.5271
 148   2.0000      -0.569150       -15.4874
 149   2.0000      -0.561902       -15.2901
 150   2.0000      -0.554552       -15.0901
 151   2.0000      -0.551865       -15.0170
 152   2.0000      -0.549463       -14.9517
 153   2.0000      -0.548767       -14.9327
 154   2.0000      -0.547019       -14.8851
 155   2.0000      -0.542680       -14.7671
 156   2.0000      -0.541766       -14.7422
 157   2.0000      -0.538360       -14.6495
 158   2.0000      -0.537723       -14.6322
 159   2.0000      -0.534488       -14.5441
 160   2.0000      -0.531511       -14.4632
 161   2.0000      -0.531206       -14.4548
 162   2.0000      -0.528512       -14.3815
 163   2.0000      -0.526818       -14.3354
 164   2.0000      -0.524117       -14.2620
 165   2.0000      -0.522462       -14.2169
 166   2.0000      -0.519089       -14.1251
 167   2.0000      -0.517922       -14.0934
 168   2.0000      -0.516695       -14.0600
 169   2.0000      -0.514282       -13.9943
 170   2.0000      -0.513994       -13.9865
 171   2.0000      -0.511907       -13.9297
 172   2.0000      -0.509632       -13.8678
 173   2.0000      -0.507869       -13.8198
 174   2.0000      -0.506162       -13.7734
 175   2.0000      -0.503024       -13.6880
 176   2.0000      -0.500875       -13.6295
 177   2.0000      -0.498238       -13.5578
 178   2.0000      -0.494877       -13.4663
 179   2.0000      -0.493002       -13.4153
 180   2.0000      -0.487783       -13.2732
 181   2.0000      -0.486846       -13.2478
 182   2.0000      -0.483664       -13.1612
 183   2.0000      -0.479152       -13.0384
 184   2.0000      -0.475466       -12.9381
 185   2.0000      -0.473187       -12.8761
 186   2.0000      -0.468771       -12.7559
 187   2.0000      -0.464368       -12.6361
 188   2.0000      -0.463350       -12.6084
 189   2.0000      -0.461860       -12.5679
 190   2.0000      -0.460040       -12.5183
 191   2.0000      -0.459119       -12.4933
 192   2.0000      -0.457709       -12.4549
 193   2.0000      -0.450861       -12.2685
 194   2.0000      -0.448892       -12.2150
 195   2.0000      -0.446106       -12.1392
 196   2.0000      -0.444263       -12.0890
 197   2.0000      -0.443923       -12.0798
 198   2.0000      -0.443038       -12.0557
 199   2.0000      -0.440903       -11.9976
 200   2.0000      -0.440347       -11.9825
 201   2.0000      -0.437579       -11.9071
 202   2.0000      -0.434801       -11.8315
 203   2.0000      -0.433689       -11.8013
 204   2.0000      -0.433346       -11.7919
 205   2.0000      -0.431153       -11.7323
 206   2.0000      -0.428856       -11.6698
 207   2.0000      -0.428223       -11.6525
 208   2.0000      -0.427593       -11.6354
 209   2.0000      -0.424202       -11.5431
 210   2.0000      -0.420738       -11.4489
 211   2.0000      -0.416878       -11.3438
 212   2.0000      -0.414316       -11.2741
 213   2.0000      -0.411931       -11.2092
 214   2.0000      -0.407804       -11.0969
 215   2.0000      -0.406428       -11.0595
 216   2.0000      -0.406359       -11.0576
 217   2.0000      -0.403178       -10.9710
 218   2.0000      -0.398533       -10.8446
 219   2.0000      -0.389157       -10.5895
 220   2.0000      -0.384199       -10.4546
 221   2.0000      -0.382360       -10.4045
 222   2.0000      -0.380401       -10.3512
 223   2.0000      -0.376853       -10.2547
 224   2.0000      -0.366661        -9.9773
 225   2.0000      -0.364897        -9.9293
 226   2.0000      -0.348027        -9.4703
 227   2.0000      -0.340587        -9.2678
 228   2.0000      -0.334650        -9.1063
 229   2.0000      -0.332428        -9.0458
 230   2.0000      -0.332234        -9.0405
 231   2.0000      -0.328955        -8.9513
 232   2.0000      -0.328837        -8.9481
 233   2.0000      -0.326795        -8.8925
 234   2.0000      -0.318455        -8.6656
 235   2.0000      -0.317295        -8.6340
 236   2.0000      -0.312905        -8.5146
 237   2.0000      -0.306120        -8.3299
 238   2.0000      -0.302576        -8.2335
 239   2.0000      -0.291010        -7.9188
 240   2.0000      -0.286411        -7.7936
 241   2.0000      -0.241908        -6.5827
 242   0.0000      -0.100818        -2.7434
 243   0.0000      -0.087364        -2.3773
 244   0.0000      -0.082375        -2.2415
 245   0.0000      -0.058314        -1.5868
 246   0.0000      -0.047695        -1.2978

MULLIKEN ATOMIC CHARGES
-----------------------
   0 C :    0.304308
   1 C :   -0.308874
   2 C :   -0.162455
   3 N :    0.166740
   4 C :   -0.195477
   5 N :    0.160101
   6 C :    0.019354
   7 C :    0.012028
   8 C :   -0.079080
   9 C :    0.085198
  10 C :    0.107204
  11 C :   -0.055401
  12 C :   -0.014419
  13 C :    0.038783
  14 C :    0.033416
  15 C :   -0.013643
  16 C :    0.135936
  17 O :   -0.130514
  18 C :   -0.099556
  19 C :    0.095589
  20 C :   -0.076816
  21 N :   -0.051698
  22 C :    0.083012
  23 C :   -0.025507
  24 C :    0.050245
  25 N :   -0.085932
  26 C :    0.032186
  27 C :    0.021687
  28 C :    0.118033
  29 N :   -0.263321
  30 C :    0.099679
  31 C :    0.000875
  32 C :    0.159889
  33 O :   -0.192298
  34 C :   -0.065635
  35 C :   -0.060736
  36 C :    0.185618
  37 O :   -0.222689
  38 N :   -0.254092
  39 C :    0.098061
  40 C :   -0.002170
  41 C :    0.152972
  42 C :    0.002177
  43 C :    0.043895
  44 C :   -0.081891
  45 N :   -0.070170
  46 C :    0.079637
  47 C :   -0.039998
  48 C :    0.040795
  49 N :   -0.017298
  50 C :    0.017170
  51 C :    0.037480
  52 C :   -0.044776
  53 C :   -0.055246
  54 C :    0.333503
  55 C :   -0.349516
  56 C :   -0.183507
  57 N :    0.151101
  58 C :   -0.191457
  59 N :    0.147533
  60 C :    0.047148
  61 C :   -0.006025
  62 C :    0.147275
  63 O :   -0.131306
  64 C :   -0.075694
  65 C :    0.096881
  66 C :    0.094246
  67 C :   -0.081934
  68 C :   -0.017970
  69 C :    0.036545
  70 C :    0.037618
  71 C :   -0.016501
  72 H :   -0.012807
  73 H :   -0.008393
  74 H :   -0.028043
  75 H :   -0.009733
  76 H :   -0.007267
  77 H :   -0.018653
  78 H :    0.021827
  79 H :    0.012097
  80 H :   -0.004513
  81 H :    0.027970
  82 H :   -0.023498
  83 H :    0.047743
  84 H :    0.024037
  85 H :    0.031951
  86 H :    0.022084
  87 H :    0.012740
  88 H :    0.021220
  89 H :    0.031535
  90 H :    0.013920
  91 H :    0.013549
  92 H :    0.039557
  93 H :   -0.004337
  94 H :    0.022037
  95 H :    0.010762
  96 H :    0.002168
  97 H :    0.001967
  98 H :    0.052742
  99 H :    0.013215
 100 H :   -0.011830
 101 H :   -0.008673
 102 H :   -0.008527
 103 H :   -0.004445
 104 H :   -0.005212
 105 H :   -0.017510
Sum of atomic charges:   -0.0000000

LOEWDIN ATOMIC CHARGES
----------------------
   0 C :    0.083226
   1 C :   -0.118591
   2 C :   -0.000589
   3 N :   -0.054985
   4 C :   -0.017619
   5 N :   -0.057482
   6 C :   -0.017862
   7 C :   -0.057524
   8 C :    0.030527
   9 C :   -0.009032
  10 C :   -0.003384
  11 C :    0.025774
  12 C :   -0.008653
  13 C :   -0.014465
  14 C :   -0.015321
  15 C :   -0.009062
  16 C :    0.086656
  17 O :   -0.131021
  18 C :   -0.045619
  19 C :    0.053515
  20 C :    0.017693
  21 N :   -0.075174
  22 C :    0.057165
  23 C :   -0.043135
  24 C :    0.035950
  25 N :   -0.063815
  26 C :    0.016576
  27 C :   -0.025470
  28 C :    0.076949
  29 N :   -0.001283
  30 C :    0.035966
  31 C :   -0.061654
  32 C :    0.081758
  33 O :   -0.186878
  34 C :   -0.116644
  35 C :   -0.116011
  36 C :    0.089090
  37 O :   -0.203091
  38 N :    0.008458
  39 C :    0.035429
  40 C :   -0.068429
  41 C :    0.079376
  42 C :   -0.018312
  43 C :    0.016405
  44 C :    0.027819
  45 N :   -0.084036
  46 C :    0.051170
  47 C :   -0.056328
  48 C :    0.027799
  49 N :   -0.067459
  50 C :    0.006744
  51 C :    0.010709
  52 C :    0.066057
  53 C :   -0.078899
  54 C :    0.075837
  55 C :   -0.134928
  56 C :   -0.016661
  57 N :   -0.051547
  58 C :   -0.019823
  59 N :   -0.051672
  60 C :   -0.026691
  61 C :   -0.055248
  62 C :    0.083204
  63 O :   -0.126744
  64 C :    0.033102
  65 C :   -0.007381
  66 C :   -0.006249
  67 C :    0.020072
  68 C :   -0.004893
  69 C :   -0.013418
  70 C :   -0.011620
  71 C :   -0.009700
  72 H :    0.038689
  73 H :    0.038771
  74 H :    0.031074
  75 H :    0.031606
  76 H :    0.031867
  77 H :    0.031444
  78 H :    0.049934
  79 H :    0.029112
  80 H :    0.033390
  81 H :    0.041794
  82 H :    0.028791
  83 H :    0.039226
  84 H :    0.022553
  85 H :    0.033282
  86 H :    0.029980
  87 H :    0.020666
  88 H :    0.023470
  89 H :    0.029221
  90 H :    0.024443
  91 H :    0.024120
  92 H :    0.029482
  93 H :    0.032612
  94 H :    0.042002
  95 H :    0.027970
  96 H :    0.035983
  97 H :    0.034221
  98 H :    0.042588
  99 H :    0.041727
 100 H :    0.039612
 101 H :    0.038911
 102 H :    0.034893
 103 H :    0.033305
 104 H :    0.032761
 105 H :    0.031872

  Mayer bond orders larger than 0.100000
B(  0-C ,  1-C ) :   1.7102 B(  0-C ,  6-C ) :   1.0050 B(  0-C , 18-C ) :   0.9856
B(  1-C ,  2-C ) :   1.1495 B(  1-C ,  4-C ) :   1.1495 B(  2-C ,  3-N ) :   2.9542
B(  4-C ,  5-N ) :   2.9971 B(  6-C ,  7-C ) :   1.2052 B(  6-C , 11-C ) :   1.4731
B(  7-C ,  8-C ) :   1.4680 B(  7-C , 16-C ) :   0.9161 B(  8-C ,  9-C ) :   1.1958
B(  8-C , 72-H ) :   1.0150 B(  9-C , 10-C ) :   1.2494 B(  9-C , 15-C ) :   1.2427
B( 10-C , 11-C ) :   1.2019 B( 10-C , 12-C ) :   1.2404 B( 11-C , 73-H ) :   0.9874
B( 12-C , 13-C ) :   1.4908 B( 12-C , 74-H ) :   0.9958 B( 13-C , 14-C ) :   1.2572
B( 13-C , 75-H ) :   0.9889 B( 14-C , 15-C ) :   1.4938 B( 14-C , 76-H ) :   0.9885
B( 15-C , 77-H ) :   0.9971 B( 16-C , 17-O ) :   2.2919 B( 16-C , 18-C ) :   0.9159
B( 18-C , 19-C ) :   1.7491 B( 19-C , 20-C ) :   0.9894 B( 19-C , 78-H ) :   0.9610
B( 20-C , 21-N ) :   1.5281 B( 20-C , 25-N ) :   1.5068 B( 21-N , 22-C ) :   1.5281
B( 22-C , 23-C ) :   1.3884 B( 22-C , 79-H ) :   0.9781 B( 23-C , 24-C ) :   1.3420
B( 23-C , 80-H ) :   0.9697 B( 24-C , 25-N ) :   1.4861 B( 24-C , 26-C ) :   1.0484
B( 26-C , 27-C ) :   1.6404 B( 26-C , 81-H ) :   0.9523 B( 27-C , 28-C ) :   1.1367
B( 27-C , 82-H ) :   0.9585 B( 28-C , 29-N ) :   1.1655 B( 28-C , 35-C ) :   1.3641
B( 29-N , 30-C ) :   0.9471 B( 29-N , 32-C ) :   1.0420 B( 30-C , 31-C ) :   1.1196
B( 30-C , 83-H ) :   0.9270 B( 30-C , 84-H ) :   0.9502 B( 31-C , 85-H ) :   0.9643
B( 31-C , 86-H ) :   0.9680 B( 31-C , 87-H ) :   0.9684 B( 32-C , 33-O ) :   2.0671
B( 32-C , 34-C ) :   0.9820 B( 34-C , 35-C ) :   1.2458 B( 34-C , 41-C ) :   1.3692
B( 35-C , 36-C ) :   0.9873 B( 36-C , 37-O ) :   1.9684 B( 36-C , 38-N ) :   1.0782
B( 37-O , 81-H ) :   0.1020 B( 38-N , 39-C ) :   0.9434 B( 38-N , 41-C ) :   1.1594
B( 39-C , 40-C ) :   1.1223 B( 39-C , 88-H ) :   0.9469 B( 39-C , 89-H ) :   0.9286
B( 40-C , 90-H ) :   0.9600 B( 40-C , 91-H ) :   0.9619 B( 40-C , 92-H ) :   0.9450
B( 41-C , 42-C ) :   1.1067 B( 42-C , 43-C ) :   1.6473 B( 42-C , 93-H ) :   0.9594
B( 43-C , 44-C ) :   1.0240 B( 43-C , 94-H ) :   0.9590 B( 44-C , 45-N ) :   1.5033
B( 44-C , 49-N ) :   1.5585 B( 45-N , 46-C ) :   1.5664 B( 46-C , 47-C ) :   1.3519
B( 46-C , 95-H ) :   0.9807 B( 47-C , 48-C ) :   1.3382 B( 47-C , 96-H ) :   0.9768
B( 48-C , 49-N ) :   1.5206 B( 48-C , 50-C ) :   1.0424 B( 50-C , 51-C ) :   1.6458
B( 50-C , 97-H ) :   0.9841 B( 51-C , 52-C ) :   1.0970 B( 51-C , 98-H ) :   0.9780
B( 52-C , 53-C ) :   1.5952 B( 52-C , 99-H ) :   0.9589 B( 53-C , 54-C ) :   1.0522
B( 53-C , 62-C ) :   0.9259 B( 54-C , 55-C ) :   1.6329 B( 54-C , 60-C ) :   0.9916
B( 55-C , 56-C ) :   1.1452 B( 55-C , 58-C ) :   1.1462 B( 56-C , 57-N ) :   2.9639
B( 58-C , 59-N ) :   2.9620 B( 60-C , 61-C ) :   1.2181 B( 60-C , 67-C ) :   1.4436
B( 61-C , 62-C ) :   0.9388 B( 61-C , 64-C ) :   1.4723 B( 62-C , 63-O ) :   2.2314
B( 64-C , 65-C ) :   1.1813 B( 64-C ,100-H ) :   1.0155 B( 65-C , 66-C ) :   1.2576
B( 65-C , 71-C ) :   1.2416 B( 66-C , 67-C ) :   1.2106 B( 66-C , 68-C ) :   1.2381
B( 67-C ,101-H ) :   0.9883 B( 68-C , 69-C ) :   1.4912 B( 68-C ,102-H ) :   0.9971
B( 69-C , 70-C ) :   1.2590 B( 69-C ,103-H ) :   0.9885 B( 70-C , 71-C ) :   1.4908
B( 70-C ,104-H ) :   0.9883 B( 71-C ,105-H ) :   0.9977

-----------------------------------------------------------------------------
         ABSORPTION SPECTRUM VIA TRANSITION ELECTRIC DIPOLE MOMENTS
-----------------------------------------------------------------------------
State   Energy  Wavelength   fosc         T2         TX        TY        TZ
        (cm-1)    (nm)                  (au**2)     (au)      (au)      (au)
-----------------------------------------------------------------------------
   0   17431.5    573.7   0.400913368   7.57167  -0.27550   2.16456  -1.67645
   1   18558.2    538.8   0.037675388   0.66834   0.16879  -0.56839   0.56283
   2   19007.4    526.1   0.039116121   0.67750   0.20576   0.74152  -0.29209
   3   25322.0    394.9   0.153872010   2.00050  -0.96229  -1.01734   0.19876
   4   25645.3    389.9   0.052120144   0.66907   0.69730  -0.31842  -0.28540
   5   26320.0    379.9   0.078212591   0.97829   0.73711   0.63136   0.19062
   6   26418.8    378.5   0.000299838   0.00374  -0.01817   0.05808   0.00569
   7   27146.7    368.4   0.721008118   8.74378  -2.38329  -1.45568  -0.97197
   8   27643.5    361.7   0.028871379   0.34383   0.51356  -0.14390   0.24370
   9   28050.8    356.5   0.082777251   0.97150  -0.79241  -0.42698  -0.40159
  10   28086.6    356.0   0.016575535   0.19429  -0.27286  -0.34070  -0.06130
  11   28509.3    350.8   0.008083674   0.09335  -0.13815  -0.04909   0.26805
  12   28560.6    350.1   0.014953910   0.17237   0.21353  -0.06541   0.35000
  13   28792.9    347.3   0.009351790   0.10693   0.16386  -0.06160   0.27619
  14   28953.6    345.4   0.188957091   2.14850  -1.17244  -0.42370  -0.77094
  15   29081.1    343.9   0.013451063   0.15227   0.25003   0.01747   0.29909
  16   29161.2    342.9   0.000515997   0.00583   0.01751   0.05787  -0.04658
  17   30282.9    330.2   0.004456958   0.04845   0.07571  -0.16580   0.12342
  18   31888.3    313.6   0.020851601   0.21527   0.14432   0.43745  -0.05545
  19   31940.8    313.1   0.146048132   1.50531   0.46367   0.11107   1.13048
  20   32148.3    311.1   0.020281409   0.20769  -0.23571  -0.39000  -0.00548
  21   32486.2    307.8   0.045074976   0.45679  -0.55682  -0.36110  -0.12783
  22   32743.7    305.4   0.009848923   0.09902  -0.00758   0.23344  -0.21088
  23   32762.7    305.2   0.003775006   0.03793   0.03350  -0.09239   0.16815
  24   33139.2    301.8   1.213715354  12.05730  -1.72963   0.63663  -2.94285
  25   33215.1    301.1   0.118268032   1.17221   0.88958   0.57713  -0.21857
  26   33593.3    297.7   0.034731964   0.34037  -0.47487  -0.27682   0.19555
  27   33677.0    296.9   0.038168817   0.37312  -0.03685  -0.41078   0.45058
  28   34340.3    291.2   1.024302192   9.81973  -3.03816   0.30513  -0.70443
  29   34388.0    290.8   0.223535304   2.14001  -0.95937   0.89371  -0.64876
  30   34483.8    290.0   0.026155492   0.24970  -0.47489  -0.08267  -0.13172
  31   34539.2    289.5   0.132480011   1.26274  -0.04031   0.93272  -0.62541
  32   34992.8    285.8   0.035043675   0.32969   0.46709  -0.20878   0.26063
  33   35230.3    283.8   0.002917506   0.02726   0.00744  -0.07477   0.14703
  34   35544.4    281.3   0.011610180   0.10753   0.03054   0.23631  -0.22530
  35   35765.8    279.6   0.087592299   0.80626   0.31892  -0.62605   0.55911
  36   35854.1    278.9   0.058555753   0.53766   0.21035   0.30062  -0.63485
  37   36290.6    275.6   0.048364863   0.43874  -0.65694  -0.05252  -0.06650
  38   36912.7    270.9   0.012354946   0.11019   0.16742  -0.05737   0.28083
  39   37327.8    267.9   0.016314841   0.14389  -0.30243  -0.22835  -0.01682
  40   37445.6    267.1   0.196995447   1.73193   1.01086   0.83767  -0.09169
  41   38002.5    263.1   0.050858813   0.44059  -0.58652  -0.27147   0.15127
  42   38067.1    262.7   0.142190620   1.22969   0.68126   0.70588  -0.51703
  43   38095.4    262.5   0.077921486   0.67338   0.54585   0.54533  -0.27936
  44   38249.2    261.4   0.659451696   5.67592   0.61873   1.97810  -1.17482
  45   38693.0    258.4   0.048931791   0.41633   0.21394   0.48206  -0.37172
  46   38780.4    257.9   0.041206598   0.34981  -0.39834  -0.42934  -0.08246
  47   39831.9    251.1   0.211801626   1.75055   0.63047  -0.79233   0.85162
  48   39926.2    250.5   0.006669819   0.05500  -0.22567   0.01275  -0.06249
  49   39966.9    250.2   0.003295657   0.02715  -0.14273   0.04389  -0.06964

FINAL SINGLE POINT ENERGY     -3075.125360265315

DIPOLE MOMENT
-------------
                                X             Y             Z
Electronic contribution:      5.59770      -3.50702      -5.29292
Nuclear contribution   :     -6.27113       4.49187       6.96933
                        -----------------------------------------
Total Dipole Moment    :     -0.67343       0.98485       1.67640
                        -----------------------------------------
Magnitude (a.u.)       :      2.05761
Magnitude (Debye)      :      5.23003

Rotational constants in cm-1:     0.001806     0.000336     0.000290
Rotational constants in MHz :    54.137764    10.085867     8.707500

                             ****ORCA TERMINATED NORMALLY****
TOTAL RUN TIME: 0 days 0 hours 9 minutes 47 seconds 998 msec
