                         Program Version 4.2.0 -  RELEASE  -
|  1> # ORCA input file
|  2> # SCF done       -206.095187468691          0.000856806402
|  3> ! CAM-B3LYP def2-SVP def2/J RIJCOSX Grid4 TightSCF
|  4> %maxcore 5000
|  5> %tddft
|  6>     Mode sTDDFT
|  7>     Ethresh 5.0
|  8>     maxcore 5000
|  9> end
| 10>
| 11> %pal
| 12>   nprocs 6
| 13>   end
| 14> * xyz 0 1
| 15>    C        1.31504         5.32065         4.77858
| 16>    C        0.27922         6.16675         5.06712
| 17>    C        0.43680         7.41916         5.69631
| 18>    N        0.50161         8.46100         6.17340
| 19>    C       -1.08138         5.87832         4.83284
| 20>    N       -2.20889         5.70417         4.70426
| 21>    C        2.68490         5.47981         5.24942
| 22>    C        3.34321         4.21636         5.17766
| 23>    C        4.62844         4.05246         5.60910
| 24>    C        5.32721         5.16308         6.13310
| 25>    C        4.68143         6.43271         6.18864
| 26>    C        3.34968         6.57332         5.73754
| 27>    C        5.39110         7.53398         6.70962
| 28>    C        6.67495         7.38933         7.15987
| 29>    C        7.30933         6.13893         7.10660
| 30>    C        6.65028         5.04990         6.60392
| 31>    C        2.43161         3.22210         4.58738
| 32>    O        2.61904         2.04214         4.41124
| 33>    C        1.21735         3.99780         4.18396
| 34>    C        0.33351         3.45251         3.31743
| 35>    C       -0.67839         4.12820         2.56932
| 36>    S       -0.37085         5.69832         1.91597
| 37>    C       -1.95300         5.79064         1.18584
| 38>    C       -2.68050         4.63859         1.44566
| 39>    C       -1.93620         3.68502         2.21336
| 40>    C       -2.52935         2.40808         2.65075
| 41>    O       -3.52256         1.90945         2.19758
| 42>    O       -1.82610         1.83073         3.64275
| 43>    O       -3.95149         4.36574         1.18943
| 44>    C       -4.81565         5.33336         0.64296
| 45>    C       -2.25105         6.95374         0.39389
| 46>    N       -2.07357         8.23518         0.85185
| 47>    C       -1.76817         8.64656         2.20324
| 48>    C       -0.31844         9.09823         2.35058
| 49>    C       -2.37270         9.19522        -0.14534
| 50>    O       -2.32565        10.38957         0.04406
| 51>    C       -2.72320         8.39953        -1.29899
| 52>    C       -2.65095         7.02778        -0.93054
| 53>    C       -2.96603         6.24261        -2.10186
| 54>    O       -2.98770         5.04680        -2.30231
| 55>    N       -3.28104         7.20043        -3.09265
| 56>    C       -3.55395         6.75352        -4.43893
| 57>    C       -2.46627         7.16861        -5.42486
| 58>    C       -3.12132         8.48836        -2.62504
| 59>    C       -3.32385         9.71694        -3.31479
| 60>    C       -4.12369         9.93425        -4.38567
| 61>    C       -4.27344        11.20045        -5.01701
| 62>    S       -3.23109        12.53887        -4.66350
| 63>    C       -4.08738        13.56950        -5.79172
| 64>    C       -5.20789        12.88988        -6.32795
| 65>    C       -5.26530        11.54128        -5.93032
| 66>    C       -6.36266        10.63169        -6.37264
| 67>    O       -7.52408        10.87296        -6.23921
| 68>    O       -5.94574         9.47356        -6.92992
| 69>    O       -6.13195        13.32267        -7.18881
| 70>    C       -6.61304        14.65678        -7.18656
| 71>    C       -3.64385        14.82347        -6.23531
| 72>    C       -2.53655        15.55544        -5.88116
| 73>    C       -2.12190        16.80167        -6.49512
| 74>    C       -2.71175        17.45315        -7.55089
| 75>    C       -2.25679        18.67941        -8.07960
| 76>    N       -1.94733        19.67515        -8.56013
| 77>    C       -3.83471        17.00703        -8.27173
| 78>    N       -4.73917        16.70407        -8.91479
| 79>    C       -0.91992        17.25595        -5.80205
| 80>    C       -0.59913        16.31261        -4.78460
| 81>    C       -1.59189        15.22904        -4.80422
| 82>    O       -1.62251        14.26162        -4.06385
| 83>    C        0.48875        16.46119        -3.97432
| 84>    C        1.32945        17.58314        -4.15215
| 85>    C        1.01727        18.53247        -5.16732
| 86>    C       -0.12098        18.35261        -5.98741
| 87>    C        1.86443        19.64558        -5.33978
| 88>    C        2.96909        19.81369        -4.54947
| 89>    C        3.27559        18.87830        -3.55034
| 90>    C        2.47281        17.78681        -3.35540
| 91>    H        5.10594         3.08551         5.55445
| 92>    H        2.88811         7.54738         5.78139
| 93>    H        4.89699         8.49346         6.75160
| 94>    H        7.20890         8.23768         7.56084
| 95>    H        8.32264         6.04297         7.46656
| 96>    H        7.13377         4.08503         6.56113
| 97>    H        0.44390         2.38819         3.13791
| 98>    H       -2.25764         1.00093         3.90236
| 99>    H       -4.65829         5.44206        -0.43122
|100>    H       -4.69196         6.30330         1.13376
|101>    H       -5.82035         4.95385         0.82385
|102>    H       -1.99733         7.82412         2.88486
|103>    H       -2.42443         9.49147         2.43409
|104>    H        0.36872         8.29912         2.07996
|105>    H       -0.13178         9.39088         3.38024
|106>    H       -0.13603         9.95256         1.70418
|107>    H       -4.53777         7.10207        -4.76481
|108>    H       -3.58896         5.66119        -4.37305
|109>    H       -2.37840         8.25097        -5.48631
|110>    H       -2.70102         6.77674        -6.41073
|111>    H       -1.50746         6.76313        -5.11128
|112>    H       -2.81775        10.56083        -2.86177
|113>    H       -4.74211         9.13584        -4.76903
|114>    H       -4.98914         9.45080        -7.06579
|115>    H       -7.68537        14.57776        -7.37038
|116>    H       -6.16203        15.24364        -7.99300
|117>    H       -6.44564        15.14516        -6.22474
|118>    H       -4.24652        15.24673        -7.02464
|119>    H        0.70842        15.72901        -3.21161
|120>    H       -0.32736        19.09101        -6.74541
|121>    H        1.62429        20.36303        -6.11069
|122>    H        3.61302        20.66872        -4.69085
|123>    H        4.15119        19.02621        -2.93607
|124>    H        2.70379        17.06301        -2.58758
|125> *
|126>
|127>                          ****END OF INPUT****

CARTESIAN COORDINATES (ANGSTROEM)
---------------------------------
  C      1.315040    5.320650    4.778580
  C      0.279220    6.166750    5.067120
  C      0.436800    7.419160    5.696310
  N      0.501610    8.461000    6.173400
  C     -1.081380    5.878320    4.832840
  N     -2.208890    5.704170    4.704260
  C      2.684900    5.479810    5.249420
  C      3.343210    4.216360    5.177660
  C      4.628440    4.052460    5.609100
  C      5.327210    5.163080    6.133100
  C      4.681430    6.432710    6.188640
  C      3.349680    6.573320    5.737540
  C      5.391100    7.533980    6.709620
  C      6.674950    7.389330    7.159870
  C      7.309330    6.138930    7.106600
  C      6.650280    5.049900    6.603920
  C      2.431610    3.222100    4.587380
  O      2.619040    2.042140    4.411240
  C      1.217350    3.997800    4.183960
  C      0.333510    3.452510    3.317430
  C     -0.678390    4.128200    2.569320
  S     -0.370850    5.698320    1.915970
  C     -1.953000    5.790640    1.185840
  C     -2.680500    4.638590    1.445660
  C     -1.936200    3.685020    2.213360
  C     -2.529350    2.408080    2.650750
  O     -3.522560    1.909450    2.197580
  O     -1.826100    1.830730    3.642750
  O     -3.951490    4.365740    1.189430
  C     -4.815650    5.333360    0.642960
  C     -2.251050    6.953740    0.393890
  N     -2.073570    8.235180    0.851850
  C     -1.768170    8.646560    2.203240
  C     -0.318440    9.098230    2.350580
  C     -2.372700    9.195220   -0.145340
  O     -2.325650   10.389570    0.044060
  C     -2.723200    8.399530   -1.298990
  C     -2.650950    7.027780   -0.930540
  C     -2.966030    6.242610   -2.101860
  O     -2.987700    5.046800   -2.302310
  N     -3.281040    7.200430   -3.092650
  C     -3.553950    6.753520   -4.438930
  C     -2.466270    7.168610   -5.424860
  C     -3.121320    8.488360   -2.625040
  C     -3.323850    9.716940   -3.314790
  C     -4.123690    9.934250   -4.385670
  C     -4.273440   11.200450   -5.017010
  S     -3.231090   12.538870   -4.663500
  C     -4.087380   13.569500   -5.791720
  C     -5.207890   12.889880   -6.327950
  C     -5.265300   11.541280   -5.930320
  C     -6.362660   10.631690   -6.372640
  O     -7.524080   10.872960   -6.239210
  O     -5.945740    9.473560   -6.929920
  O     -6.131950   13.322670   -7.188810
  C     -6.613040   14.656780   -7.186560
  C     -3.643850   14.823470   -6.235310
  C     -2.536550   15.555440   -5.881160
  C     -2.121900   16.801670   -6.495120
  C     -2.711750   17.453150   -7.550890
  C     -2.256790   18.679410   -8.079600
  N     -1.947330   19.675150   -8.560130
  C     -3.834710   17.007030   -8.271730
  N     -4.739170   16.704070   -8.914790
  C     -0.919920   17.255950   -5.802050
  C     -0.599130   16.312610   -4.784600
  C     -1.591890   15.229040   -4.804220
  O     -1.622510   14.261620   -4.063850
  C      0.488750   16.461190   -3.974320
  C      1.329450   17.583140   -4.152150
  C      1.017270   18.532470   -5.167320
  C     -0.120980   18.352610   -5.987410
  C      1.864430   19.645580   -5.339780
  C      2.969090   19.813690   -4.549470
  C      3.275590   18.878300   -3.550340
  C      2.472810   17.786810   -3.355400
  H      5.105940    3.085510    5.554450
  H      2.888110    7.547380    5.781390
  H      4.896990    8.493460    6.751600
  H      7.208900    8.237680    7.560840
  H      8.322640    6.042970    7.466560
  H      7.133770    4.085030    6.561130
  H      0.443900    2.388190    3.137910
  H     -2.257640    1.000930    3.902360
  H     -4.658290    5.442060   -0.431220
  H     -4.691960    6.303300    1.133760
  H     -5.820350    4.953850    0.823850
  H     -1.997330    7.824120    2.884860
  H     -2.424430    9.491470    2.434090
  H      0.368720    8.299120    2.079960
  H     -0.131780    9.390880    3.380240
  H     -0.136030    9.952560    1.704180
  H     -4.537770    7.102070   -4.764810
  H     -3.588960    5.661190   -4.373050
  H     -2.378400    8.250970   -5.486310
  H     -2.701020    6.776740   -6.410730
  H     -1.507460    6.763130   -5.111280
  H     -2.817750   10.560830   -2.861770
  H     -4.742110    9.135840   -4.769030
  H     -4.989140    9.450800   -7.065790
  H     -7.685370   14.577760   -7.370380
  H     -6.162030   15.243640   -7.993000
  H     -6.445640   15.145160   -6.224740
  H     -4.246520   15.246730   -7.024640
  H      0.708420   15.729010   -3.211610
  H     -0.327360   19.091010   -6.745410
  H      1.624290   20.363030   -6.110690
  H      3.613020   20.668720   -4.690850
  H      4.151190   19.026210   -2.936070
  H      2.703790   17.063010   -2.587580

 Total Charge           Charge          ....    0
 Multiplicity           Mult            ....    1
 Number of Electrons    NEL             ....  536
 Basis Dimension        Dim             .... 1242

ORBITAL ENERGIES
----------------

  NO   OCC          E(Eh)            E(eV)
   0   2.0000     -88.981928     -2421.3214
   1   2.0000     -88.969421     -2420.9810
   2   2.0000     -19.267946      -524.3075
   3   2.0000     -19.266788      -524.2760
   4   2.0000     -19.265600      -524.2436
   5   2.0000     -19.259608      -524.0806
   6   2.0000     -19.224015      -523.1120
   7   2.0000     -19.219499      -522.9891
   8   2.0000     -19.204014      -522.5678
   9   2.0000     -19.203077      -522.5423
  10   2.0000     -19.198814      -522.4263
  11   2.0000     -19.192167      -522.2454
  12   2.0000     -14.461338      -393.5130
  13   2.0000     -14.458533      -393.4367
  14   2.0000     -14.427175      -392.5834
  15   2.0000     -14.425081      -392.5264
  16   2.0000     -14.422005      -392.4427
  17   2.0000     -14.412273      -392.1779
  18   2.0000     -10.409277      -283.2508
  19   2.0000     -10.408388      -283.2266
  20   2.0000     -10.381248      -282.4881
  21   2.0000     -10.377865      -282.3961
  22   2.0000     -10.374873      -282.3147
  23   2.0000     -10.372625      -282.2535
  24   2.0000     -10.368252      -282.1345
  25   2.0000     -10.365817      -282.0682
  26   2.0000     -10.357787      -281.8497
  27   2.0000     -10.354379      -281.7570
  28   2.0000     -10.352572      -281.7078
  29   2.0000     -10.346037      -281.5300
  30   2.0000     -10.341594      -281.4091
  31   2.0000     -10.339077      -281.3406
  32   2.0000     -10.337953      -281.3100
  33   2.0000     -10.330664      -281.1117
  34   2.0000     -10.330478      -281.1066
  35   2.0000     -10.329258      -281.0734
  36   2.0000     -10.327538      -281.0266
  37   2.0000     -10.327487      -281.0252
  38   2.0000     -10.326220      -280.9907
  39   2.0000     -10.325268      -280.9648
  40   2.0000     -10.322175      -280.8806
  41   2.0000     -10.320761      -280.8422
  42   2.0000     -10.320722      -280.8411
  43   2.0000     -10.316075      -280.7147
  44   2.0000     -10.312753      -280.6243
  45   2.0000     -10.311481      -280.5897
  46   2.0000     -10.311102      -280.5794
  47   2.0000     -10.309854      -280.5454
  48   2.0000     -10.308617      -280.5117
  49   2.0000     -10.307604      -280.4842
  50   2.0000     -10.306088      -280.4429
  51   2.0000     -10.305800      -280.4351
  52   2.0000     -10.305772      -280.4343
  53   2.0000     -10.305618      -280.4301
  54   2.0000     -10.305337      -280.4225
  55   2.0000     -10.301958      -280.3305
  56   2.0000     -10.299290      -280.2579
  57   2.0000     -10.298150      -280.2269
  58   2.0000     -10.297314      -280.2042
  59   2.0000     -10.296978      -280.1950
  60   2.0000     -10.296846      -280.1914
  61   2.0000     -10.296411      -280.1796
  62   2.0000     -10.296124      -280.1718
  63   2.0000     -10.293744      -280.1070
  64   2.0000     -10.293350      -280.0963
  65   2.0000     -10.293121      -280.0901
  66   2.0000     -10.292721      -280.0792
  67   2.0000     -10.288046      -279.9520
  68   2.0000     -10.286626      -279.9133
  69   2.0000     -10.286050      -279.8976
  70   2.0000     -10.285694      -279.8880
  71   2.0000     -10.285177      -279.8739
  72   2.0000     -10.271500      -279.5017
  73   2.0000     -10.269744      -279.4539
  74   2.0000     -10.268270      -279.4138
  75   2.0000     -10.258501      -279.1480
  76   2.0000      -8.076396      -219.7699
  77   2.0000      -8.062775      -219.3993
  78   2.0000      -6.045921      -164.5179
  79   2.0000      -6.041630      -164.4011
  80   2.0000      -6.038227      -164.3085
  81   2.0000      -6.032362      -164.1489
  82   2.0000      -6.027948      -164.0288
  83   2.0000      -6.024436      -163.9332
  84   2.0000      -1.192733       -32.4559
  85   2.0000      -1.187987       -32.3268
  86   2.0000      -1.172986       -31.9186
  87   2.0000      -1.171399       -31.8754
  88   2.0000      -1.139754       -31.0143
  89   2.0000      -1.139479       -31.0068
  90   2.0000      -1.135350       -30.8944
  91   2.0000      -1.131618       -30.7929
  92   2.0000      -1.102943       -30.0126
  93   2.0000      -1.094651       -29.7870
  94   2.0000      -1.071171       -29.1481
  95   2.0000      -1.060143       -28.8480
  96   2.0000      -1.030415       -28.0390
  97   2.0000      -1.020334       -27.7647
  98   2.0000      -1.009491       -27.4696
  99   2.0000      -1.007794       -27.4235
 100   2.0000      -1.003202       -27.2985
 101   2.0000      -1.000945       -27.2371
 102   2.0000      -1.000746       -27.2317
 103   2.0000      -0.993990       -27.0478
 104   2.0000      -0.979638       -26.6573
 105   2.0000      -0.971534       -26.4368
 106   2.0000      -0.934479       -25.4285
 107   2.0000      -0.933785       -25.4096
 108   2.0000      -0.930986       -25.3334
 109   2.0000      -0.921125       -25.0651
 110   2.0000      -0.917030       -24.9537
 111   2.0000      -0.904805       -24.6210
 112   2.0000      -0.894390       -24.3376
 113   2.0000      -0.889337       -24.2001
 114   2.0000      -0.884905       -24.0795
 115   2.0000      -0.880741       -23.9662
 116   2.0000      -0.879874       -23.9426
 117   2.0000      -0.876660       -23.8551
 118   2.0000      -0.862112       -23.4593
 119   2.0000      -0.849437       -23.1143
 120   2.0000      -0.844607       -22.9829
 121   2.0000      -0.836569       -22.7642
 122   2.0000      -0.828211       -22.5368
 123   2.0000      -0.824676       -22.4406
 124   2.0000      -0.821097       -22.3432
 125   2.0000      -0.806452       -21.9447
 126   2.0000      -0.804404       -21.8889
 127   2.0000      -0.801832       -21.8190
 128   2.0000      -0.774076       -21.0637
 129   2.0000      -0.768858       -20.9217
 130   2.0000      -0.765773       -20.8378
 131   2.0000      -0.763218       -20.7682
 132   2.0000      -0.762744       -20.7553
 133   2.0000      -0.742383       -20.2013
 134   2.0000      -0.730863       -19.8878
 135   2.0000      -0.724195       -19.7064
 136   2.0000      -0.720735       -19.6122
 137   2.0000      -0.714634       -19.4462
 138   2.0000      -0.710791       -19.3416
 139   2.0000      -0.705965       -19.2103
 140   2.0000      -0.705142       -19.1879
 141   2.0000      -0.701117       -19.0784
 142   2.0000      -0.692333       -18.8393
 143   2.0000      -0.690350       -18.7854
 144   2.0000      -0.685558       -18.6550
 145   2.0000      -0.681030       -18.5318
 146   2.0000      -0.672523       -18.3003
 147   2.0000      -0.671144       -18.2628
 148   2.0000      -0.660159       -17.9638
 149   2.0000      -0.652992       -17.7688
 150   2.0000      -0.650385       -17.6979
 151   2.0000      -0.645038       -17.5524
 152   2.0000      -0.644700       -17.5432
 153   2.0000      -0.638347       -17.3703
 154   2.0000      -0.632831       -17.2202
 155   2.0000      -0.616089       -16.7646
 156   2.0000      -0.615626       -16.7520
 157   2.0000      -0.610751       -16.6194
 158   2.0000      -0.607053       -16.5187
 159   2.0000      -0.605780       -16.4841
 160   2.0000      -0.601227       -16.3602
 161   2.0000      -0.595670       -16.2090
 162   2.0000      -0.592389       -16.1197
 163   2.0000      -0.584511       -15.9054
 164   2.0000      -0.576806       -15.6957
 165   2.0000      -0.574945       -15.6451
 166   2.0000      -0.573232       -15.5984
 167   2.0000      -0.569760       -15.5040
 168   2.0000      -0.569324       -15.4921
 169   2.0000      -0.562961       -15.3189
 170   2.0000      -0.558609       -15.2005
 171   2.0000      -0.556050       -15.1309
 172   2.0000      -0.554545       -15.0899
 173   2.0000      -0.552158       -15.0250
 174   2.0000      -0.549924       -14.9642
 175   2.0000      -0.548410       -14.9230
 176   2.0000      -0.547517       -14.8987
 177   2.0000      -0.546429       -14.8691
 178   2.0000      -0.545150       -14.8343
 179   2.0000      -0.541923       -14.7465
 180   2.0000      -0.539494       -14.6804
 181   2.0000      -0.539389       -14.6775
 182   2.0000      -0.537713       -14.6319
 183   2.0000      -0.536489       -14.5986
 184   2.0000      -0.533657       -14.5215
 185   2.0000      -0.530333       -14.4311
 186   2.0000      -0.526994       -14.3402
 187   2.0000      -0.526643       -14.3307
 188   2.0000      -0.521696       -14.1961
 189   2.0000      -0.520374       -14.1601
 190   2.0000      -0.519079       -14.1249
 191   2.0000      -0.516668       -14.0593
 192   2.0000      -0.514418       -13.9980
 193   2.0000      -0.512913       -13.9571
 194   2.0000      -0.511175       -13.9098
 195   2.0000      -0.509272       -13.8580
 196   2.0000      -0.508825       -13.8458
 197   2.0000      -0.505495       -13.7552
 198   2.0000      -0.500864       -13.6292
 199   2.0000      -0.499635       -13.5958
 200   2.0000      -0.499009       -13.5787
 201   2.0000      -0.495533       -13.4842
 202   2.0000      -0.493251       -13.4220
 203   2.0000      -0.492815       -13.4102
 204   2.0000      -0.492320       -13.3967
 205   2.0000      -0.486917       -13.2497
 206   2.0000      -0.485220       -13.2035
 207   2.0000      -0.479233       -13.0406
 208   2.0000      -0.477955       -13.0058
 209   2.0000      -0.475968       -12.9517
 210   2.0000      -0.474076       -12.9003
 211   2.0000      -0.469918       -12.7871
 212   2.0000      -0.468203       -12.7405
 213   2.0000      -0.465127       -12.6568
 214   2.0000      -0.464183       -12.6311
 215   2.0000      -0.461659       -12.5624
 216   2.0000      -0.459393       -12.5007
 217   2.0000      -0.456513       -12.4224
 218   2.0000      -0.456218       -12.4143
 219   2.0000      -0.454379       -12.3643
 220   2.0000      -0.452644       -12.3171
 221   2.0000      -0.447915       -12.1884
 222   2.0000      -0.447438       -12.1754
 223   2.0000      -0.447017       -12.1640
 224   2.0000      -0.443421       -12.0661
 225   2.0000      -0.442616       -12.0442
 226   2.0000      -0.440042       -11.9742
 227   2.0000      -0.438100       -11.9213
 228   2.0000      -0.437738       -11.9114
 229   2.0000      -0.436144       -11.8681
 230   2.0000      -0.434858       -11.8331
 231   2.0000      -0.432921       -11.7804
 232   2.0000      -0.429805       -11.6956
 233   2.0000      -0.429007       -11.6739
 234   2.0000      -0.428631       -11.6636
 235   2.0000      -0.426137       -11.5958
 236   2.0000      -0.423501       -11.5241
 237   2.0000      -0.422841       -11.5061
 238   2.0000      -0.416266       -11.3272
 239   2.0000      -0.412592       -11.2272
 240   2.0000      -0.411942       -11.2095
 241   2.0000      -0.406061       -11.0495
 242   2.0000      -0.403115       -10.9693
 243   2.0000      -0.399316       -10.8660
 244   2.0000      -0.399100       -10.8601
 245   2.0000      -0.395772       -10.7695
 246   2.0000      -0.394123       -10.7246
 247   2.0000      -0.383975       -10.4485
 248   2.0000      -0.383052       -10.4234
 249   2.0000      -0.374519       -10.1912
 250   2.0000      -0.362451        -9.8628
 251   2.0000      -0.358364        -9.7516
 252   2.0000      -0.352375        -9.5886
 253   2.0000      -0.350898        -9.5484
 254   2.0000      -0.346214        -9.4210
 255   2.0000      -0.344019        -9.3612
 256   2.0000      -0.336480        -9.1561
 257   2.0000      -0.332617        -9.0510
 258   2.0000      -0.325896        -8.8681
 259   2.0000      -0.324458        -8.8290
 260   2.0000      -0.321541        -8.7496
 261   2.0000      -0.318981        -8.6799
 262   2.0000      -0.317352        -8.6356
 263   2.0000      -0.305377        -8.3097
 264   2.0000      -0.296032        -8.0554
 265   2.0000      -0.294572        -8.0157
 266   2.0000      -0.282162        -7.6780
 267   2.0000      -0.248174        -6.7531
 268   0.0000      -0.110192        -2.9985
 269   0.0000      -0.099766        -2.7148
 270   0.0000      -0.072229        -1.9655
 271   0.0000      -0.062895        -1.7114
 272   0.0000      -0.056361        -1.5337

MULLIKEN ATOMIC CHARGES
-----------------------
   0 C :    0.278499
   1 C :   -0.338127
   2 C :   -0.167097
   3 N :    0.148944
   4 C :   -0.163904
   5 N :    0.156660
   6 C :    0.040205
   7 C :    0.009421
   8 C :   -0.081725
   9 C :    0.096396
  10 C :    0.096813
  11 C :   -0.083688
  12 C :   -0.018709
  13 C :    0.039435
  14 C :    0.039752
  15 C :   -0.016603
  16 C :    0.139501
  17 O :   -0.131912
  18 C :   -0.143369
  19 C :    0.095584
  20 C :   -0.162002
  21 S :    0.169517
  22 C :   -0.303590
  23 C :    0.276219
  24 C :    0.040172
  25 C :    0.115521
  26 O :   -0.153287
  27 O :   -0.185239
  28 O :   -0.242674
  29 C :    0.180461
  30 C :    0.101340
  31 N :   -0.266923
  32 C :    0.102145
  33 C :   -0.011036
  34 C :    0.154225
  35 O :   -0.178627
  36 C :   -0.029641
  37 C :   -0.031183
  38 C :    0.128827
  39 O :   -0.191957
  40 N :   -0.275608
  41 C :    0.094027
  42 C :   -0.008511
  43 C :    0.098556
  44 C :   -0.026190
  45 C :   -0.021067
  46 C :   -0.048857
  47 S :    0.191728
  48 C :   -0.148732
  49 C :    0.217327
  50 C :   -0.082473
  51 C :    0.174218
  52 O :   -0.149108
  53 O :   -0.172059
  54 O :   -0.282451
  55 C :    0.168896
  56 C :   -0.003745
  57 C :   -0.111412
  58 C :    0.336564
  59 C :   -0.372044
  60 C :   -0.181135
  61 N :    0.149219
  62 C :   -0.156614
  63 N :    0.127010
  64 C :    0.043841
  65 C :   -0.000565
  66 C :    0.165254
  67 O :   -0.177694
  68 C :   -0.082373
  69 C :    0.097736
  70 C :    0.097076
  71 C :   -0.085533
  72 C :   -0.020277
  73 C :    0.036916
  74 C :    0.035836
  75 C :   -0.017631
  76 H :   -0.009467
  77 H :   -0.005034
  78 H :   -0.009242
  79 H :   -0.002706
  80 H :   -0.002810
  81 H :   -0.015306
  82 H :    0.040075
  83 H :    0.195580
  84 H :    0.043903
  85 H :    0.033028
  86 H :    0.043345
  87 H :    0.038064
  88 H :    0.036242
  89 H :    0.008747
  90 H :    0.033789
  91 H :    0.035034
  92 H :    0.031008
  93 H :    0.051858
  94 H :    0.021721
  95 H :    0.023948
  96 H :    0.028112
  97 H :    0.036132
  98 H :   -0.012004
  99 H :    0.186298
 100 H :    0.048413
 101 H :    0.063139
 102 H :    0.028956
 103 H :   -0.032530
 104 H :   -0.011682
 105 H :   -0.008845
 106 H :   -0.008021
 107 H :   -0.004929
 108 H :   -0.005610
 109 H :   -0.017674
Sum of atomic charges:   -0.0000000

LOEWDIN ATOMIC CHARGES
----------------------
   0 C :    0.065706
   1 C :   -0.136619
   2 C :   -0.015983
   3 N :   -0.049196
   4 C :   -0.028115
   5 N :   -0.048124
   6 C :   -0.024386
   7 C :   -0.058106
   8 C :    0.035489
   9 C :   -0.007674
  10 C :   -0.004738
  11 C :    0.018153
  12 C :   -0.005399
  13 C :   -0.010583
  14 C :   -0.010101
  15 C :   -0.008097
  16 C :    0.084650
  17 O :   -0.133188
  18 C :   -0.081530
  19 C :    0.059611
  20 C :   -0.148146
  21 S :    0.500229
  22 C :   -0.236251
  23 C :    0.068677
  24 C :   -0.090125
  25 C :    0.082537
  26 O :   -0.150976
  27 O :   -0.037167
  28 O :   -0.046058
  29 C :    0.085916
  30 C :    0.060476
  31 N :   -0.001310
  32 C :    0.031994
  33 C :   -0.067858
  34 C :    0.080715
  35 O :   -0.179687
  36 C :   -0.105821
  37 C :   -0.132966
  38 C :    0.074346
  39 O :   -0.192868
  40 N :   -0.009697
  41 C :    0.034138
  42 C :   -0.064705
  43 C :    0.065708
  44 C :   -0.004533
  45 C :   -0.041798
  46 C :   -0.145228
  47 S :    0.510741
  48 C :   -0.223611
  49 C :    0.074470
  50 C :   -0.140017
  51 C :    0.080666
  52 O :   -0.128598
  53 O :   -0.034977
  54 O :   -0.070919
  55 C :    0.081913
  56 C :    0.053748
  57 C :   -0.115451
  58 C :    0.081307
  59 C :   -0.153758
  60 C :   -0.018311
  61 N :   -0.058207
  62 C :   -0.008259
  63 N :   -0.062262
  64 C :   -0.025816
  65 C :   -0.054391
  66 C :    0.083001
  67 O :   -0.167319
  68 C :    0.031933
  69 C :   -0.008642
  70 C :   -0.006800
  71 C :    0.019964
  72 C :   -0.005270
  73 C :   -0.013804
  74 C :   -0.012489
  75 C :   -0.009816
  76 H :    0.040605
  77 H :    0.039077
  78 H :    0.034944
  79 H :    0.034159
  80 H :    0.033905
  81 H :    0.032839
  82 H :    0.053001
  83 H :    0.104416
  84 H :    0.024821
  85 H :    0.019143
  86 H :    0.032845
  87 H :    0.025301
  88 H :    0.036704
  89 H :    0.007547
  90 H :    0.032874
  91 H :    0.031908
  92 H :    0.019984
  93 H :    0.040167
  94 H :    0.019363
  95 H :    0.031077
  96 H :    0.032718
  97 H :    0.045440
  98 H :    0.029263
  99 H :    0.092442
 100 H :    0.035050
 101 H :    0.021925
 102 H :    0.020431
 103 H :    0.046900
 104 H :    0.039391
 105 H :    0.039042
 106 H :    0.034966
 107 H :    0.033082
 108 H :    0.032581
 109 H :    0.031753

  Mayer bond orders larger than 0.100000
B(  0-C ,  1-C ) :   1.6638 B(  0-C ,  6-C ) :   1.0083 B(  0-C , 18-C ) :   1.0035
B(  1-C ,  2-C ) :   1.1454 B(  1-C ,  4-C ) :   1.1671 B(  2-C ,  3-N ) :   2.9284
B(  4-C ,  5-N ) :   2.9306 B(  6-C ,  7-C ) :   1.2131 B(  6-C , 11-C ) :   1.4467
B(  7-C ,  8-C ) :   1.4679 B(  7-C , 16-C ) :   0.9224 B(  8-C ,  9-C ) :   1.1872
B(  8-C , 76-H ) :   1.0170 B(  9-C , 10-C ) :   1.2563 B(  9-C , 15-C ) :   1.2425
B( 10-C , 11-C ) :   1.2077 B( 10-C , 12-C ) :   1.2388 B( 11-C , 77-H ) :   0.9935
B( 12-C , 13-C ) :   1.4907 B( 12-C , 78-H ) :   0.9979 B( 13-C , 14-C ) :   1.2595
B( 13-C , 79-H ) :   0.9885 B( 14-C , 15-C ) :   1.4908 B( 14-C , 80-H ) :   0.9883
B( 15-C , 81-H ) :   0.9982 B( 16-C , 17-O ) :   2.2841 B( 16-C , 18-C ) :   0.9222
B( 18-C , 19-C ) :   1.7464 B( 19-C , 20-C ) :   1.0467 B( 19-C , 82-H ) :   0.9257
B( 20-C , 21-S ) :   1.1553 B( 20-C , 22-C ) :   0.1237 B( 20-C , 24-C ) :   1.5067
B( 21-S , 22-C ) :   1.0817 B( 22-C , 23-C ) :   1.4701 B( 22-C , 30-C ) :   1.0027
B( 23-C , 24-C ) :   1.1932 B( 23-C , 28-O ) :   1.3202 B( 24-C , 25-C ) :   0.9069
B( 25-C , 26-O ) :   2.2060 B( 25-C , 27-O ) :   1.2421 B( 27-O , 83-H ) :   0.9372
B( 28-O , 29-C ) :   0.9270 B( 29-C , 84-H ) :   0.9701 B( 29-C , 85-H ) :   0.9588
B( 29-C , 86-H ) :   0.9741 B( 30-C , 31-N ) :   1.2257 B( 30-C , 37-C ) :   1.4149
B( 31-N , 32-C ) :   0.9332 B( 31-N , 34-C ) :   1.0113 B( 32-C , 33-C ) :   1.1143
B( 32-C , 87-H ) :   0.9461 B( 32-C , 88-H ) :   0.9329 B( 33-C , 89-H ) :   0.9619
B( 33-C , 90-H ) :   0.9625 B( 33-C , 91-H ) :   0.9618 B( 34-C , 35-O ) :   2.1464
B( 34-C , 36-C ) :   0.9716 B( 36-C , 37-C ) :   1.2049 B( 36-C , 43-C ) :   1.3877
B( 37-C , 38-C ) :   0.9709 B( 38-C , 39-O ) :   2.1329 B( 38-C , 40-N ) :   1.0279
B( 40-N , 41-C ) :   0.9438 B( 40-N , 43-C ) :   1.1646 B( 41-C , 42-C ) :   1.1140
B( 41-C , 92-H ) :   0.9503 B( 41-C , 93-H ) :   0.9204 B( 42-C , 94-H ) :   0.9658
B( 42-C , 95-H ) :   0.9674 B( 42-C , 96-H ) :   0.9624 B( 43-C , 44-C ) :   1.1655
B( 44-C , 45-C ) :   1.6028 B( 44-C , 97-H ) :   0.9516 B( 45-C , 46-C ) :   1.1685
B( 45-C , 98-H ) :   0.9674 B( 46-C , 47-S ) :   1.1263 B( 46-C , 50-C ) :   1.4396
B( 47-S , 48-C ) :   1.0535 B( 48-C , 49-C ) :   1.3084 B( 48-C , 56-C ) :   1.2829
B( 49-C , 50-C ) :   1.3234 B( 49-C , 54-O ) :   1.2948 B( 50-C , 51-C ) :   0.8617
B( 51-C , 52-O ) :   2.2366 B( 51-C , 53-O ) :   1.1769 B( 53-O , 99-H ) :   0.9512
B( 54-O , 55-C ) :   0.8952 B( 55-C ,100-H ) :   0.9699 B( 55-C ,101-H ) :   0.9483
B( 55-C ,102-H ) :   0.9650 B( 56-C , 57-C ) :   1.5005 B( 56-C ,103-H ) :   0.9186
B( 57-C , 58-C ) :   1.0957 B( 57-C , 66-C ) :   0.9697 B( 58-C , 59-C ) :   1.5986
B( 58-C , 64-C ) :   0.9853 B( 59-C , 60-C ) :   1.1465 B( 59-C , 62-C ) :   1.1652
B( 60-C , 61-N ) :   2.9614 B( 62-C , 63-N ) :   2.9069 B( 64-C , 65-C ) :   1.2151
B( 64-C , 71-C ) :   1.4537 B( 65-C , 66-C ) :   0.9584 B( 65-C , 68-C ) :   1.4736
B( 66-C , 67-O ) :   2.1360 B( 68-C , 69-C ) :   1.1736 B( 68-C ,104-H ) :   1.0171
B( 69-C , 70-C ) :   1.2584 B( 69-C , 75-C ) :   1.2466 B( 70-C , 71-C ) :   1.2021
B( 70-C , 72-C ) :   1.2415 B( 71-C ,105-H ) :   0.9894 B( 72-C , 73-C ) :   1.4858
B( 72-C ,106-H ) :   0.9977 B( 73-C , 74-C ) :   1.2626 B( 73-C ,107-H ) :   0.9887
B( 74-C , 75-C ) :   1.4864 B( 74-C ,108-H ) :   0.9889 B( 75-C ,109-H ) :   0.9977

-----------------------------------------------------------------------------
         ABSORPTION SPECTRUM VIA TRANSITION ELECTRIC DIPOLE MOMENTS
-----------------------------------------------------------------------------
State   Energy  Wavelength   fosc         T2         TX        TY        TZ
        (cm-1)    (nm)                  (au**2)     (au)      (au)      (au)
-----------------------------------------------------------------------------
   0   15078.1    663.2   0.886521593  19.35610   0.73702  -2.78316   3.32670
   1   18237.1    548.3   0.233870508   4.22177   0.82911   1.81362  -0.49510
   2   22566.7    443.1   0.144339676   2.10568  -0.82099  -0.91850  -0.76681
   3   22851.9    437.6   0.363455192   5.23605   1.08130   2.00268  -0.23690
   4   24588.1    406.7   0.104091576   1.39369   0.65947   0.12801   0.97078
   5   25973.6    385.0   0.022812556   0.28915   0.37420   0.38032  -0.06690
   6   26191.0    381.8   0.072362675   0.90957   0.89909   0.10129   0.30157
   7   26796.1    373.2   0.026216239   0.32209   0.40496  -0.22500   0.32783
   8   27064.3    369.5   0.063018473   0.76656  -0.67176  -0.26705  -0.49395
   9   27298.0    366.3   0.092422794   1.11461  -0.77724  -0.16372  -0.69549
  10   27639.0    361.8   0.021504682   0.25615  -0.02840   0.50531  -0.00219
  11   27938.2    357.9   0.042637090   0.50242  -0.54081  -0.35323  -0.29184
  12   28265.8    353.8   0.082611698   0.96218  -0.04450   0.93762   0.28473
  13   28937.8    345.6   0.077255513   0.87890  -0.29823   0.60407  -0.65196
  14   29073.4    344.0   0.066547466   0.75355  -0.31147  -0.80668   0.07622
  15   29205.8    342.4   0.188472156   2.12448  -0.95436  -0.75195  -0.80515
  16   29366.0    340.5   0.093636437   1.04973   0.78278  -0.10787   0.65219
  17   29471.4    339.3   0.012630774   0.14109  -0.24537   0.21358  -0.18780
  18   29697.5    336.7   0.049314247   0.54667  -0.71691  -0.17327   0.05182
  19   31700.6    315.5   0.046247571   0.48028  -0.29931  -0.50967  -0.36184
  20   32445.3    308.2   0.001646543   0.01671   0.06519  -0.05619   0.09644
  21   32750.5    305.3   0.071919735   0.72294   0.44282   0.63505   0.35152
  22   32817.2    304.7   0.513051606   5.14678   1.86910   0.37258   1.23062
  23   32939.4    303.6   0.129541858   1.29470  -0.96247   0.07086  -0.60277
  24   33357.9    299.8   0.332111594   3.27764   1.74528  -0.16212   0.45314
  25   33374.3    299.6   0.313521045   3.09265   1.64959  -0.49899   0.35002
  26   33567.8    297.9   0.102706922   1.00729  -0.89324  -0.27838  -0.36319
  27   33735.5    296.4   0.036836840   0.35948  -0.50786  -0.12033  -0.29508
  28   33840.2    295.5   0.237716915   2.31261   1.34393  -0.08261   0.70686
  29   34171.9    292.6   0.024985388   0.24071   0.48578  -0.03306  -0.06025
  30   34214.0    292.3   0.044140914   0.42473   0.60608   0.16055   0.17782
  31   34319.3    291.4   0.009239782   0.08863   0.09236   0.14356   0.24391
  32   34970.1    286.0   0.119583875   1.12577   0.06363  -1.04383   0.17931
  33   35289.0    283.4   0.043414719   0.40502  -0.49265   0.37670  -0.14287
  34   35612.1    280.8   0.092213762   0.85246   0.79157   0.02097   0.47480
  35   36438.4    274.4   0.011957252   0.10803  -0.17594   0.16527  -0.22307
  36   36780.0    271.9   0.045191502   0.40450   0.12263   0.62182  -0.05296
  37   36839.3    271.4   0.001942152   0.01736   0.07311  -0.06293   0.08973
  38   36894.2    271.0   0.230226562   2.05434   0.92188  -0.56816   0.93898
  39   37589.8    266.0   0.078049663   0.68356   0.16865  -0.57618   0.56845
  40   37769.3    264.8   0.174488031   1.52091   1.11184  -0.17607   0.50369
  41   38135.5    262.2   0.026240959   0.22653   0.33922  -0.03541   0.33197
  42   38418.5    260.3   0.113818425   0.97532  -0.19155   0.63851  -0.72866
  43   38649.3    258.7   0.091547116   0.77979  -0.69864  -0.35325  -0.40855
  44   38717.0    258.3   0.001409217   0.01198  -0.07150   0.03823  -0.07354
  45   39186.6    255.2   0.151614368   1.27373  -0.60353  -0.75147  -0.58717
  46   39411.0    253.7   0.030623184   0.25580   0.47394  -0.17642   0.00765
  47   39585.7    252.6   0.092455128   0.76890   0.81133   0.33206   0.01937
  48   39711.8    251.8   0.083169427   0.68948  -0.30026  -0.67684   0.37577
  49   39803.6    251.2   0.136912473   1.13239  -0.85097  -0.60677  -0.20020
  50   40084.1    249.5   0.086896276   0.71368  -0.76792  -0.33162  -0.11837
  51   40208.0    248.7   0.029988356   0.24554  -0.17816  -0.46225  -0.01104

FINAL SINGLE POINT ENERGY     -4103.381609938641

DIPOLE MOMENT
-------------
                                X             Y             Z
Electronic contribution:     -9.27623      -7.80976       3.12451
Nuclear contribution   :     13.76128       7.58288      -1.07737
                        -----------------------------------------
Total Dipole Moment    :      4.48505      -0.22688       2.04713
                        -----------------------------------------
Magnitude (a.u.)       :      4.93537
Magnitude (Debye)      :     12.54472

Rotational constants in cm-1:     0.001131     0.000334     0.000268
Rotational constants in MHz :    33.893575    10.017376     8.045980

                             ****ORCA TERMINATED NORMALLY****
TOTAL RUN TIME: 0 days 0 hours 10 minutes 51 seconds 593 msec
