                         Program Version 4.2.0 -  RELEASE  -
|  1> # ORCA input file
|  2> # SCF done       -185.662431494003          0.000569144571
|  3> ! CAM-B3LYP def2-SVP def2/J RIJCOSX Grid4 TightSCF
|  4> %maxcore 5000
|  5> %tddft
|  6>     Mode sTDDFT
|  7>     Ethresh 5.0
|  8>     maxcore 5000
|  9> end
| 10>
| 11> %pal
| 12>   nprocs 6
| 13>   end
| 14> * xyz 0 1
| 15>    C        3.11410         2.66285        -2.33551
| 16>    C        2.62190         1.67408        -1.52447
| 17>    C        3.28689         0.45271        -1.28217
| 18>    N        3.77531        -0.55716        -1.03909
| 19>    C        1.37949         1.69379        -0.85505
| 20>    N        0.37823         1.62068        -0.29709
| 21>    C        4.34535         2.57727        -3.10980
| 22>    C        4.41180         3.70624        -3.97338
| 23>    C        5.45053         3.89671        -4.83879
| 24>    C        6.49731         2.94939        -4.87470
| 25>    C        6.44522         1.82122        -4.00538
| 26>    C        5.35344         1.64934        -3.12377
| 27>    C        7.49867         0.88516        -4.04528
| 28>    C        8.55181         1.05269        -4.90281
| 29>    C        8.60106         2.16301        -5.75903
| 30>    C        7.59553         3.09127        -5.74545
| 31>    C        3.23518         4.56316        -3.76254
| 32>    O        2.97602         5.57533        -4.37899
| 33>    C        2.47499         3.93516        -2.64880
| 34>    C        1.44606         4.45801        -1.91878
| 35>    C        0.70193         5.64942        -2.07530
| 36>    S       -0.43175         6.03635        -0.79198
| 37>    C       -0.94504         7.47715        -1.59739
| 38>    C       -0.26179         7.62411        -2.81624
| 39>    C        0.65255         6.60227        -3.07729
| 40>    C       -0.49657         8.71056        -3.67797
| 41>    N       -0.70136         9.60219        -4.36928
| 42>    C       -1.90679         8.37431        -1.08542
| 43>    C       -2.55044         8.22162         0.10395
| 44>    C       -3.49706         9.13254         0.62558
| 45>    C       -4.14562         9.02022         1.84211
| 46>    C       -4.99012        10.14502         2.03002
| 47>    C       -4.84180        10.97353         0.81763
| 48>    C       -3.95569        10.36167        -0.00888
| 49>    C       -5.52484        12.15874         0.51862
| 50>    N       -6.08075        13.12115         0.22980
| 51>    C       -5.78569        10.43935         3.11902
| 52>    C       -6.54540        11.61355         3.34074
| 53>    C       -7.21805        11.50422         4.54706
| 54>    C       -6.88455        10.20863         5.12262
| 55>    C       -6.01832         9.57238         4.29302
| 56>    C       -5.46873         8.30654         4.52238
| 57>    N       -5.03216         7.26700         4.74284
| 58>    C       -8.07472        12.46498         5.12937
| 59>    C       -8.30646        13.75495         4.67583
| 60>    C       -9.27105        14.37232         5.50512
| 61>    C       -9.62271        13.38268         6.54313
| 62>    C       -8.88973        12.26159         6.31934
| 63>    C      -10.47164        13.58450         7.63850
| 64>    N      -11.12392        13.71993         8.57381
| 65>    C       -9.80771        15.63956         5.37679
| 66>    C      -10.94154        16.16626         6.03760
| 67>    C      -11.14610        17.47471         5.62597
| 68>    C      -10.09381        17.80580         4.67573
| 69>    C       -9.30699        16.71134         4.50012
| 70>    C       -8.17286        16.66295         3.68149
| 71>    N       -7.23753        16.66518         3.01511
| 72>    C      -12.23583        18.26528         6.06996
| 73>    N      -12.36227        19.63112         6.01554
| 74>    C      -11.41217        20.60091         5.52324
| 75>    C      -11.66581        20.94055         4.05618
| 76>    C      -13.57911        20.07293         6.57008
| 77>    O      -13.88718        21.24406         6.64849
| 78>    C      -14.25145        18.85917         6.97750
| 79>    C      -13.40028        17.77180         6.67083
| 80>    C      -14.09506        16.55138         7.02142
| 81>    O      -13.81135        15.37945         6.91380
| 82>    N      -15.33074        16.99939         7.54882
| 83>    C      -16.28128        16.05756         8.08879
| 84>    C      -16.19046        15.97703         9.61055
| 85>    C      -15.43197        18.36114         7.53012
| 86>    C      -16.58299        19.07949         7.99242
| 87>    C      -16.66043        20.41307         7.97609
| 88>    H        5.47251         4.76084        -5.48611
| 89>    H        5.34744         0.78760        -2.47565
| 90>    H        7.45584         0.03099        -3.38561
| 91>    H        9.35331         0.32973        -4.92632
| 92>    H        9.43966         2.27930        -6.42907
| 93>    H        7.62759         3.94843        -6.40195
| 94>    H        1.14397         3.88928        -1.04659
| 95>    H        1.26409         6.55810        -3.96035
| 96>    H       -2.11217         9.23362        -1.71021
| 97>    H       -2.32994         7.35245         0.71223
| 98>    H       -4.01765         8.22202         2.54702
| 99>    H       -3.64878        10.71932        -0.97363
|100>    H       -6.58726        12.45093         2.67335
|101>    H       -7.25411         9.83155         6.05789
|102>    H       -7.85521        14.21033         3.81649
|103>    H       -8.90782        11.36700         6.91324
|104>    H      -11.55873        15.62171         6.72378
|105>    H       -9.97124        18.73618         4.15695
|106>    H      -10.39968        20.22647         5.68521
|107>    H      -11.55314        21.50422         6.12480
|108>    H      -11.64912        20.04814         3.43395
|109>    H      -10.90805        21.63329         3.70042
|110>    H      -12.64109        21.40983         3.95406
|111>    H      -16.02253        15.08716         7.65586
|112>    H      -17.29078        16.32927         7.76893
|113>    H      -15.19367        15.65817         9.90476
|114>    H      -16.90994        15.25354         9.98333
|115>    H      -16.39534        16.94353        10.06620
|116>    H      -17.41009        18.48930         8.36186
|117>    H      -15.84998        21.02286         7.61246
|118>    H      -17.54216        20.92253         8.32455
|119> *
|120>
|121>                          ****END OF INPUT****

CARTESIAN COORDINATES (ANGSTROEM)
---------------------------------
  C      3.114100    2.662850   -2.335510
  C      2.621900    1.674080   -1.524470
  C      3.286890    0.452710   -1.282170
  N      3.775310   -0.557160   -1.039090
  C      1.379490    1.693790   -0.855050
  N      0.378230    1.620680   -0.297090
  C      4.345350    2.577270   -3.109800
  C      4.411800    3.706240   -3.973380
  C      5.450530    3.896710   -4.838790
  C      6.497310    2.949390   -4.874700
  C      6.445220    1.821220   -4.005380
  C      5.353440    1.649340   -3.123770
  C      7.498670    0.885160   -4.045280
  C      8.551810    1.052690   -4.902810
  C      8.601060    2.163010   -5.759030
  C      7.595530    3.091270   -5.745450
  C      3.235180    4.563160   -3.762540
  O      2.976020    5.575330   -4.378990
  C      2.474990    3.935160   -2.648800
  C      1.446060    4.458010   -1.918780
  C      0.701930    5.649420   -2.075300
  S     -0.431750    6.036350   -0.791980
  C     -0.945040    7.477150   -1.597390
  C     -0.261790    7.624110   -2.816240
  C      0.652550    6.602270   -3.077290
  C     -0.496570    8.710560   -3.677970
  N     -0.701360    9.602190   -4.369280
  C     -1.906790    8.374310   -1.085420
  C     -2.550440    8.221620    0.103950
  C     -3.497060    9.132540    0.625580
  C     -4.145620    9.020220    1.842110
  C     -4.990120   10.145020    2.030020
  C     -4.841800   10.973530    0.817630
  C     -3.955690   10.361670   -0.008880
  C     -5.524840   12.158740    0.518620
  N     -6.080750   13.121150    0.229800
  C     -5.785690   10.439350    3.119020
  C     -6.545400   11.613550    3.340740
  C     -7.218050   11.504220    4.547060
  C     -6.884550   10.208630    5.122620
  C     -6.018320    9.572380    4.293020
  C     -5.468730    8.306540    4.522380
  N     -5.032160    7.267000    4.742840
  C     -8.074720   12.464980    5.129370
  C     -8.306460   13.754950    4.675830
  C     -9.271050   14.372320    5.505120
  C     -9.622710   13.382680    6.543130
  C     -8.889730   12.261590    6.319340
  C    -10.471640   13.584500    7.638500
  N    -11.123920   13.719930    8.573810
  C     -9.807710   15.639560    5.376790
  C    -10.941540   16.166260    6.037600
  C    -11.146100   17.474710    5.625970
  C    -10.093810   17.805800    4.675730
  C     -9.306990   16.711340    4.500120
  C     -8.172860   16.662950    3.681490
  N     -7.237530   16.665180    3.015110
  C    -12.235830   18.265280    6.069960
  N    -12.362270   19.631120    6.015540
  C    -11.412170   20.600910    5.523240
  C    -11.665810   20.940550    4.056180
  C    -13.579110   20.072930    6.570080
  O    -13.887180   21.244060    6.648490
  C    -14.251450   18.859170    6.977500
  C    -13.400280   17.771800    6.670830
  C    -14.095060   16.551380    7.021420
  O    -13.811350   15.379450    6.913800
  N    -15.330740   16.999390    7.548820
  C    -16.281280   16.057560    8.088790
  C    -16.190460   15.977030    9.610550
  C    -15.431970   18.361140    7.530120
  C    -16.582990   19.079490    7.992420
  C    -16.660430   20.413070    7.976090
  H      5.472510    4.760840   -5.486110
  H      5.347440    0.787600   -2.475650
  H      7.455840    0.030990   -3.385610
  H      9.353310    0.329730   -4.926320
  H      9.439660    2.279300   -6.429070
  H      7.627590    3.948430   -6.401950
  H      1.143970    3.889280   -1.046590
  H      1.264090    6.558100   -3.960350
  H     -2.112170    9.233620   -1.710210
  H     -2.329940    7.352450    0.712230
  H     -4.017650    8.222020    2.547020
  H     -3.648780   10.719320   -0.973630
  H     -6.587260   12.450930    2.673350
  H     -7.254110    9.831550    6.057890
  H     -7.855210   14.210330    3.816490
  H     -8.907820   11.367000    6.913240
  H    -11.558730   15.621710    6.723780
  H     -9.971240   18.736180    4.156950
  H    -10.399680   20.226470    5.685210
  H    -11.553140   21.504220    6.124800
  H    -11.649120   20.048140    3.433950
  H    -10.908050   21.633290    3.700420
  H    -12.641090   21.409830    3.954060
  H    -16.022530   15.087160    7.655860
  H    -17.290780   16.329270    7.768930
  H    -15.193670   15.658170    9.904760
  H    -16.909940   15.253540    9.983330
  H    -16.395340   16.943530   10.066200
  H    -17.410090   18.489300    8.361860
  H    -15.849980   21.022860    7.612460
  H    -17.542160   20.922530    8.324550

 Total Charge           Charge          ....    0
 Multiplicity           Mult            ....    1
 Number of Electrons    NEL             ....  494
 Basis Dimension        Dim             .... 1181

ORBITAL ENERGIES
----------------

  NO   OCC          E(Eh)            E(eV)
   0   2.0000     -88.990411     -2421.5522
   1   2.0000     -19.227131      -523.1968
   2   2.0000     -19.204566      -522.5828
   3   2.0000     -19.195941      -522.3481
   4   2.0000     -14.464099      -393.5882
   5   2.0000     -14.462040      -393.5321
   6   2.0000     -14.422234      -392.4489
   7   2.0000     -14.419348      -392.3704
   8   2.0000     -14.416800      -392.3011
   9   2.0000     -14.414436      -392.2367
  10   2.0000     -14.412045      -392.1717
  11   2.0000     -14.409394      -392.0995
  12   2.0000     -14.405354      -391.9896
  13   2.0000     -10.384968      -282.5894
  14   2.0000     -10.379540      -282.4416
  15   2.0000     -10.378078      -282.4019
  16   2.0000     -10.352532      -281.7067
  17   2.0000     -10.349362      -281.6205
  18   2.0000     -10.348733      -281.6033
  19   2.0000     -10.348690      -281.6022
  20   2.0000     -10.347223      -281.5622
  21   2.0000     -10.335455      -281.2420
  22   2.0000     -10.334673      -281.2208
  23   2.0000     -10.331423      -281.1323
  24   2.0000     -10.330190      -281.0988
  25   2.0000     -10.330168      -281.0982
  26   2.0000     -10.325563      -280.9729
  27   2.0000     -10.325090      -280.9600
  28   2.0000     -10.324773      -280.9513
  29   2.0000     -10.323445      -280.9152
  30   2.0000     -10.322962      -280.9021
  31   2.0000     -10.322005      -280.8760
  32   2.0000     -10.319268      -280.8016
  33   2.0000     -10.317530      -280.7543
  34   2.0000     -10.316595      -280.7288
  35   2.0000     -10.316568      -280.7281
  36   2.0000     -10.316403      -280.7236
  37   2.0000     -10.316281      -280.7203
  38   2.0000     -10.315691      -280.7042
  39   2.0000     -10.315510      -280.6993
  40   2.0000     -10.315398      -280.6962
  41   2.0000     -10.314950      -280.6841
  42   2.0000     -10.314524      -280.6725
  43   2.0000     -10.313265      -280.6382
  44   2.0000     -10.313132      -280.6346
  45   2.0000     -10.312409      -280.6149
  46   2.0000     -10.312288      -280.6116
  47   2.0000     -10.311759      -280.5972
  48   2.0000     -10.310857      -280.5727
  49   2.0000     -10.310687      -280.5681
  50   2.0000     -10.309084      -280.5244
  51   2.0000     -10.308987      -280.5218
  52   2.0000     -10.307893      -280.4920
  53   2.0000     -10.306532      -280.4550
  54   2.0000     -10.302263      -280.3388
  55   2.0000     -10.302072      -280.3336
  56   2.0000     -10.301703      -280.3236
  57   2.0000     -10.301588      -280.3205
  58   2.0000     -10.297557      -280.2108
  59   2.0000     -10.295088      -280.1436
  60   2.0000     -10.293827      -280.1093
  61   2.0000     -10.291161      -280.0367
  62   2.0000     -10.291035      -280.0333
  63   2.0000     -10.290499      -280.0187
  64   2.0000     -10.290022      -280.0057
  65   2.0000     -10.289798      -279.9996
  66   2.0000     -10.289779      -279.9991
  67   2.0000     -10.289321      -279.9867
  68   2.0000     -10.284995      -279.8689
  69   2.0000     -10.275344      -279.6063
  70   2.0000     -10.268893      -279.4308
  71   2.0000     -10.268275      -279.4140
  72   2.0000     -10.267518      -279.3934
  73   2.0000      -8.085877      -220.0279
  74   2.0000      -6.054934      -164.7631
  75   2.0000      -6.050958      -164.6549
  76   2.0000      -6.048217      -164.5804
  77   2.0000      -1.144388       -31.1404
  78   2.0000      -1.142083       -31.0777
  79   2.0000      -1.135830       -30.9075
  80   2.0000      -1.074128       -29.2285
  81   2.0000      -1.064649       -28.9706
  82   2.0000      -1.027949       -27.9719
  83   2.0000      -1.024441       -27.8765
  84   2.0000      -1.023417       -27.8486
  85   2.0000      -1.017615       -27.6907
  86   2.0000      -1.006944       -27.4003
  87   2.0000      -1.004368       -27.3302
  88   2.0000      -1.000513       -27.2253
  89   2.0000      -0.998976       -27.1835
  90   2.0000      -0.996028       -27.1033
  91   2.0000      -0.990619       -26.9561
  92   2.0000      -0.988135       -26.8885
  93   2.0000      -0.985028       -26.8040
  94   2.0000      -0.977747       -26.6058
  95   2.0000      -0.976862       -26.5818
  96   2.0000      -0.939111       -25.5545
  97   2.0000      -0.936803       -25.4917
  98   2.0000      -0.927819       -25.2472
  99   2.0000      -0.911865       -24.8131
 100   2.0000      -0.904252       -24.6059
 101   2.0000      -0.895094       -24.3568
 102   2.0000      -0.891105       -24.2482
 103   2.0000      -0.885563       -24.0974
 104   2.0000      -0.882916       -24.0254
 105   2.0000      -0.876498       -23.8507
 106   2.0000      -0.872371       -23.7384
 107   2.0000      -0.864976       -23.5372
 108   2.0000      -0.859023       -23.3752
 109   2.0000      -0.856121       -23.2962
 110   2.0000      -0.839894       -22.8547
 111   2.0000      -0.833081       -22.6693
 112   2.0000      -0.830270       -22.5928
 113   2.0000      -0.827637       -22.5212
 114   2.0000      -0.814939       -22.1756
 115   2.0000      -0.802960       -21.8496
 116   2.0000      -0.794338       -21.6150
 117   2.0000      -0.781862       -21.2756
 118   2.0000      -0.768299       -20.9065
 119   2.0000      -0.767311       -20.8796
 120   2.0000      -0.765741       -20.8369
 121   2.0000      -0.752181       -20.4679
 122   2.0000      -0.739300       -20.1174
 123   2.0000      -0.733946       -19.9717
 124   2.0000      -0.724072       -19.7030
 125   2.0000      -0.717993       -19.5376
 126   2.0000      -0.714519       -19.4430
 127   2.0000      -0.709249       -19.2997
 128   2.0000      -0.706092       -19.2138
 129   2.0000      -0.703920       -19.1546
 130   2.0000      -0.691075       -18.8051
 131   2.0000      -0.686295       -18.6750
 132   2.0000      -0.684339       -18.6218
 133   2.0000      -0.679627       -18.4936
 134   2.0000      -0.673174       -18.3180
 135   2.0000      -0.671242       -18.2654
 136   2.0000      -0.665303       -18.1038
 137   2.0000      -0.656281       -17.8583
 138   2.0000      -0.651705       -17.7338
 139   2.0000      -0.646673       -17.5969
 140   2.0000      -0.643661       -17.5149
 141   2.0000      -0.637531       -17.3481
 142   2.0000      -0.634253       -17.2589
 143   2.0000      -0.620997       -16.8982
 144   2.0000      -0.612147       -16.6574
 145   2.0000      -0.610839       -16.6218
 146   2.0000      -0.610527       -16.6133
 147   2.0000      -0.595093       -16.1933
 148   2.0000      -0.590409       -16.0659
 149   2.0000      -0.587317       -15.9817
 150   2.0000      -0.580215       -15.7884
 151   2.0000      -0.574302       -15.6275
 152   2.0000      -0.569533       -15.4978
 153   2.0000      -0.564748       -15.3676
 154   2.0000      -0.563194       -15.3253
 155   2.0000      -0.560078       -15.2405
 156   2.0000      -0.556374       -15.1397
 157   2.0000      -0.551070       -14.9954
 158   2.0000      -0.549532       -14.9535
 159   2.0000      -0.545568       -14.8456
 160   2.0000      -0.543003       -14.7759
 161   2.0000      -0.540316       -14.7027
 162   2.0000      -0.537710       -14.6318
 163   2.0000      -0.534083       -14.5331
 164   2.0000      -0.532403       -14.4874
 165   2.0000      -0.530937       -14.4475
 166   2.0000      -0.528547       -14.3825
 167   2.0000      -0.527787       -14.3618
 168   2.0000      -0.526760       -14.3339
 169   2.0000      -0.526198       -14.3186
 170   2.0000      -0.524417       -14.2701
 171   2.0000      -0.524069       -14.2606
 172   2.0000      -0.521168       -14.1817
 173   2.0000      -0.519305       -14.1310
 174   2.0000      -0.518099       -14.0982
 175   2.0000      -0.514414       -13.9979
 176   2.0000      -0.512023       -13.9329
 177   2.0000      -0.510974       -13.9043
 178   2.0000      -0.506251       -13.7758
 179   2.0000      -0.503116       -13.6905
 180   2.0000      -0.501660       -13.6509
 181   2.0000      -0.501498       -13.6465
 182   2.0000      -0.498806       -13.5732
 183   2.0000      -0.495751       -13.4901
 184   2.0000      -0.495477       -13.4826
 185   2.0000      -0.492299       -13.3961
 186   2.0000      -0.490970       -13.3600
 187   2.0000      -0.485848       -13.2206
 188   2.0000      -0.484179       -13.1752
 189   2.0000      -0.477769       -13.0008
 190   2.0000      -0.476864       -12.9761
 191   2.0000      -0.472436       -12.8556
 192   2.0000      -0.470439       -12.8013
 193   2.0000      -0.469750       -12.7826
 194   2.0000      -0.467565       -12.7231
 195   2.0000      -0.462577       -12.5874
 196   2.0000      -0.461917       -12.5694
 197   2.0000      -0.459965       -12.5163
 198   2.0000      -0.454116       -12.3571
 199   2.0000      -0.453087       -12.3291
 200   2.0000      -0.450381       -12.2555
 201   2.0000      -0.450319       -12.2538
 202   2.0000      -0.450301       -12.2533
 203   2.0000      -0.448093       -12.1932
 204   2.0000      -0.444696       -12.1008
 205   2.0000      -0.444318       -12.0905
 206   2.0000      -0.443519       -12.0688
 207   2.0000      -0.443343       -12.0640
 208   2.0000      -0.442201       -12.0329
 209   2.0000      -0.441082       -12.0025
 210   2.0000      -0.439505       -11.9595
 211   2.0000      -0.438579       -11.9343
 212   2.0000      -0.438250       -11.9254
 213   2.0000      -0.437311       -11.8998
 214   2.0000      -0.434291       -11.8176
 215   2.0000      -0.433385       -11.7930
 216   2.0000      -0.431735       -11.7481
 217   2.0000      -0.429026       -11.6744
 218   2.0000      -0.428197       -11.6518
 219   2.0000      -0.424922       -11.5627
 220   2.0000      -0.421576       -11.4717
 221   2.0000      -0.420746       -11.4491
 222   2.0000      -0.420136       -11.4325
 223   2.0000      -0.415368       -11.3027
 224   2.0000      -0.411792       -11.2054
 225   2.0000      -0.408850       -11.1254
 226   2.0000      -0.402640       -10.9564
 227   2.0000      -0.400066       -10.8864
 228   2.0000      -0.397926       -10.8281
 229   2.0000      -0.382871       -10.4184
 230   2.0000      -0.370531       -10.0827
 231   2.0000      -0.359528        -9.7833
 232   2.0000      -0.356436        -9.6991
 233   2.0000      -0.352863        -9.6019
 234   2.0000      -0.349761        -9.5175
 235   2.0000      -0.346077        -9.4172
 236   2.0000      -0.340168        -9.2564
 237   2.0000      -0.334779        -9.1098
 238   2.0000      -0.326684        -8.8895
 239   2.0000      -0.324719        -8.8360
 240   2.0000      -0.324368        -8.8265
 241   2.0000      -0.319185        -8.6855
 242   2.0000      -0.314043        -8.5455
 243   2.0000      -0.299361        -8.1460
 244   2.0000      -0.290175        -7.8961
 245   2.0000      -0.270949        -7.3729
 246   2.0000      -0.244825        -6.6620
 247   0.0000      -0.149311        -4.0630
 248   0.0000      -0.117930        -3.2090
 249   0.0000      -0.098967        -2.6930
 250   0.0000      -0.066149        -1.8000
 251   0.0000      -0.063540        -1.7290

MULLIKEN ATOMIC CHARGES
-----------------------
   0 C :    0.305541
   1 C :   -0.348930
   2 C :   -0.179685
   3 N :    0.149924
   4 C :   -0.199512
   5 N :    0.162953
   6 C :    0.047112
   7 C :   -0.002349
   8 C :   -0.079120
   9 C :    0.097839
  10 C :    0.096080
  11 C :   -0.079285
  12 C :   -0.019385
  13 C :    0.036821
  14 C :    0.035507
  15 C :   -0.016046
  16 C :    0.161628
  17 O :   -0.152979
  18 C :   -0.082931
  19 C :    0.050349
  20 C :   -0.103349
  21 S :    0.167288
  22 C :   -0.023823
  23 C :   -0.065146
  24 C :    0.043334
  25 C :   -0.184292
  26 N :    0.140027
  27 C :   -0.012498
  28 C :    0.009755
  29 C :    0.107998
  30 C :   -0.100880
  31 C :    0.115217
  32 C :   -0.090710
  33 C :   -0.004309
  34 C :   -0.178843
  35 N :    0.149464
  36 C :    0.126890
  37 C :   -0.125388
  38 C :    0.109215
  39 C :   -0.013443
  40 C :   -0.089249
  41 C :   -0.180588
  42 N :    0.140782
  43 C :    0.100160
  44 C :   -0.121328
  45 C :    0.117221
  46 C :   -0.075541
  47 C :   -0.024862
  48 C :   -0.181960
  49 N :    0.145271
  50 C :    0.125994
  51 C :   -0.119809
  52 C :    0.046858
  53 C :   -0.031472
  54 C :   -0.084909
  55 C :   -0.193618
  56 N :    0.154926
  57 C :    0.151117
  58 N :   -0.259255
  59 C :    0.104721
  60 C :   -0.001178
  61 C :    0.162531
  62 O :   -0.209537
  63 C :   -0.067312
  64 C :   -0.051696
  65 C :    0.152484
  66 O :   -0.176246
  67 N :   -0.257977
  68 C :    0.096686
  69 C :    0.001675
  70 C :    0.120097
  71 C :   -0.036284
  72 C :    0.022097
  73 H :   -0.010036
  74 H :   -0.005494
  75 H :   -0.007255
  76 H :   -0.001764
  77 H :   -0.002476
  78 H :   -0.014693
  79 H :    0.015610
  80 H :    0.030775
  81 H :    0.018708
  82 H :    0.006716
  83 H :    0.006235
  84 H :    0.009779
  85 H :    0.011349
  86 H :   -0.000470
  87 H :    0.013133
  88 H :   -0.003850
  89 H :    0.027122
  90 H :   -0.010543
  91 H :    0.024972
  92 H :    0.041090
  93 H :    0.020899
  94 H :    0.027372
  95 H :    0.035311
  96 H :    0.048376
  97 H :    0.025024
  98 H :    0.039519
  99 H :    0.026000
 100 H :    0.015208
 101 H :   -0.014118
 102 H :    0.061698
 103 H :    0.035966
Sum of atomic charges:   -0.0000000

LOEWDIN ATOMIC CHARGES
----------------------
   0 C :    0.075678
   1 C :   -0.136622
   2 C :   -0.016899
   3 N :   -0.049586
   4 C :   -0.026086
   5 N :   -0.047227
   6 C :   -0.026817
   7 C :   -0.056499
   8 C :    0.034575
   9 C :   -0.007860
  10 C :   -0.005338
  11 C :    0.020824
  12 C :   -0.004903
  13 C :   -0.011562
  14 C :   -0.010746
  15 C :   -0.008744
  16 C :    0.089268
  17 O :   -0.138594
  18 C :   -0.082393
  19 C :    0.043469
  20 C :   -0.171171
  21 S :    0.481059
  22 C :   -0.124668
  23 C :   -0.102963
  24 C :    0.019300
  25 C :   -0.032381
  26 N :   -0.045234
  27 C :   -0.029368
  28 C :    0.008701
  29 C :   -0.015067
  30 C :   -0.015983
  31 C :    0.038979
  32 C :   -0.072558
  33 C :    0.052716
  34 C :   -0.033621
  35 N :   -0.048251
  36 C :    0.038257
  37 C :   -0.010936
  38 C :   -0.009047
  39 C :    0.051386
  40 C :   -0.077447
  41 C :   -0.031705
  42 N :   -0.059617
  43 C :   -0.013557
  44 C :   -0.007765
  45 C :    0.038744
  46 C :   -0.073115
  47 C :    0.042828
  48 C :   -0.033644
  49 N :   -0.052191
  50 C :    0.039539
  51 C :    0.002392
  52 C :   -0.028485
  53 C :    0.043223
  54 C :   -0.076157
  55 C :   -0.035804
  56 N :   -0.051981
  57 C :    0.067050
  58 N :    0.001574
  59 C :    0.037143
  60 C :   -0.062591
  61 C :    0.080233
  62 O :   -0.199689
  63 C :   -0.127825
  64 C :   -0.098058
  65 C :    0.086559
  66 O :   -0.166102
  67 N :    0.004683
  68 C :    0.036836
  69 C :   -0.059782
  70 C :    0.094779
  71 C :   -0.055394
  72 C :    0.039195
  73 H :    0.039910
  74 H :    0.039560
  75 H :    0.035393
  76 H :    0.034177
  77 H :    0.033780
  78 H :    0.032754
  79 H :    0.044280
  80 H :    0.043574
  81 H :    0.043228
  82 H :    0.035049
  83 H :    0.037049
  84 H :    0.039408
  85 H :    0.037857
  86 H :    0.036612
  87 H :    0.037881
  88 H :    0.034930
  89 H :    0.037968
  90 H :    0.036302
  91 H :    0.024169
  92 H :    0.038232
  93 H :    0.020951
  94 H :    0.032440
  95 H :    0.035421
  96 H :    0.039530
  97 H :    0.023614
  98 H :    0.036050
  99 H :    0.032033
 100 H :    0.022090
 101 H :    0.031789
 102 H :    0.034584
 103 H :    0.032430

  Mayer bond orders larger than 0.100000
B(  0-C ,  1-C ) :   1.6343 B(  0-C ,  6-C ) :   0.9879 B(  0-C , 18-C ) :   1.0631
B(  1-C ,  2-C ) :   1.1463 B(  1-C ,  4-C ) :   1.1395 B(  2-C ,  3-N ) :   2.9663
B(  4-C ,  5-N ) :   2.9847 B(  6-C ,  7-C ) :   1.2145 B(  6-C , 11-C ) :   1.4501
B(  7-C ,  8-C ) :   1.4681 B(  7-C , 16-C ) :   0.9582 B(  8-C ,  9-C ) :   1.1817
B(  8-C , 73-H ) :   1.0164 B(  9-C , 10-C ) :   1.2539 B(  9-C , 15-C ) :   1.2441
B( 10-C , 11-C ) :   1.2084 B( 10-C , 12-C ) :   1.2399 B( 11-C , 74-H ) :   0.9897
B( 12-C , 13-C ) :   1.4912 B( 12-C , 75-H ) :   0.9970 B( 13-C , 14-C ) :   1.2595
B( 13-C , 76-H ) :   0.9881 B( 14-C , 15-C ) :   1.4900 B( 14-C , 77-H ) :   0.9885
B( 15-C , 78-H ) :   0.9978 B( 16-C , 17-O ) :   2.1686 B( 16-C , 18-C ) :   0.9329
B( 18-C , 19-C ) :   1.6278 B( 19-C , 20-C ) :   1.1832 B( 19-C , 79-H ) :   0.9155
B( 20-C , 21-S ) :   1.1040 B( 20-C , 24-C ) :   1.4438 B( 21-S , 22-C ) :   1.1581
B( 22-C , 23-C ) :   1.3921 B( 22-C , 27-C ) :   1.1979 B( 23-C , 24-C ) :   1.2941
B( 23-C , 25-C ) :   1.1054 B( 24-C , 80-H ) :   0.9784 B( 25-C , 26-N ) :   3.0171
B( 27-C , 28-C ) :   1.5871 B( 27-C , 81-H ) :   0.9613 B( 28-C , 29-C ) :   1.1414
B( 28-C , 82-H ) :   0.9804 B( 29-C , 30-C ) :   1.4954 B( 29-C , 33-C ) :   1.0412
B( 30-C , 31-C ) :   1.1287 B( 30-C , 83-H ) :   1.0092 B( 31-C , 32-C ) :   1.1040
B( 31-C , 36-C ) :   1.3770 B( 32-C , 33-C ) :   1.6896 B( 32-C , 34-C ) :   1.0890
B( 33-C , 84-H ) :   1.0144 B( 34-C , 35-N ) :   2.9759 B( 36-C , 37-C ) :   1.1348
B( 36-C , 40-C ) :   1.1005 B( 37-C , 38-C ) :   1.5363 B( 37-C , 85-H ) :   1.0033
B( 38-C , 39-C ) :   1.0514 B( 38-C , 43-C ) :   1.0286 B( 39-C , 40-C ) :   1.6727
B( 39-C , 86-H ) :   1.0185 B( 40-C , 41-C ) :   1.0858 B( 41-C , 42-N ) :   2.9678
B( 43-C , 44-C ) :   1.5238 B( 43-C , 47-C ) :   1.0551 B( 44-C , 45-C ) :   1.1419
B( 44-C , 87-H ) :   1.0068 B( 45-C , 46-C ) :   1.1085 B( 45-C , 50-C ) :   1.3486
B( 46-C , 47-C ) :   1.6686 B( 46-C , 48-C ) :   1.0811 B( 47-C , 88-H ) :   1.0180
B( 48-C , 49-N ) :   2.9867 B( 50-C , 51-C ) :   1.1410 B( 50-C , 54-C ) :   1.1010
B( 51-C , 52-C ) :   1.5249 B( 51-C , 89-H ) :   0.9918 B( 52-C , 53-C ) :   1.0217
B( 52-C , 57-C ) :   1.0581 B( 53-C , 54-C ) :   1.6697 B( 53-C , 90-H ) :   1.0246
B( 54-C , 55-C ) :   1.0817 B( 55-C , 56-N ) :   2.9859 B( 57-C , 58-N ) :   1.1959
B( 57-C , 64-C ) :   1.3635 B( 58-N , 59-C ) :   0.9404 B( 58-N , 61-C ) :   1.0466
B( 59-C , 60-C ) :   1.1185 B( 59-C , 91-H ) :   0.9505 B( 59-C , 92-H ) :   0.9272
B( 60-C , 93-H ) :   0.9649 B( 60-C , 94-H ) :   0.9684 B( 60-C , 95-H ) :   0.9603
B( 61-C , 62-O ) :   2.0394 B( 61-C , 63-C ) :   0.9901 B( 63-C , 64-C ) :   1.2554
B( 63-C , 70-C ) :   1.3187 B( 64-C , 65-C ) :   0.9691 B( 65-C , 66-O ) :   2.0935
B( 65-C , 67-N ) :   1.0273 B( 67-N , 68-C ) :   0.9402 B( 67-N , 70-C ) :   1.2003
B( 68-C , 69-C ) :   1.1192 B( 68-C , 96-H ) :   0.9277 B( 68-C , 97-H ) :   0.9510
B( 69-C , 98-H ) :   0.9642 B( 69-C , 99-H ) :   0.9681 B( 69-C ,100-H ) :   0.9688
B( 70-C , 71-C ) :   1.1344 B( 71-C , 72-C ) :   1.8776 B( 71-C ,101-H ) :   0.9534
B( 72-C ,102-H ) :   0.9261 B( 72-C ,103-H ) :   0.9445

-----------------------------------------------------------------------------
         ABSORPTION SPECTRUM VIA TRANSITION ELECTRIC DIPOLE MOMENTS
-----------------------------------------------------------------------------
State   Energy  Wavelength   fosc         T2         TX        TY        TZ
        (cm-1)    (nm)                  (au**2)     (au)      (au)      (au)
-----------------------------------------------------------------------------
   0    7214.6   1386.1   0.589071546  26.87998  -3.74944   3.04279   1.88763
   1   12275.7    814.6   0.443646927  11.89777   2.07645  -1.89961  -1.99440
   2   14834.2    674.1   0.057325964   1.27222   0.51141  -0.10402  -0.99993
   3   15179.8    658.8   0.159863431   3.46704  -1.33552   0.69857   1.09335
   4   18243.3    548.1   0.060177165   1.08594   0.92077  -0.08434  -0.48063
   5   18568.2    538.6   0.024010911   0.42571  -0.22308   0.60705  -0.08626
   6   20886.0    478.8   1.166723280  18.39030  -2.92896   2.78297   1.43755
   7   21615.2    462.6   0.057556333   0.87661   0.62617  -0.65947  -0.22276
   8   22359.0    447.2   0.130720992   1.92472  -1.13406   0.79727   0.05468
   9   22527.6    443.9   0.076835137   1.12285   0.52710   0.75865  -0.51909
  10   23165.8    431.7   0.149290168   2.12158   1.14981   0.56035  -0.69679
  11   23776.9    420.6   0.137618168   1.90545  -0.89664   0.75160   0.73251
  12   24410.8    409.7   0.042780420   0.57695  -0.50864   0.12327   0.55049
  13   24427.1    409.4   0.014999612   0.20215   0.37941   0.17192  -0.16925
  14   25868.3    386.6   0.181813954   2.31385   0.65817  -1.32368  -0.35851
  15   26041.4    384.0   0.048491459   0.61302  -0.17345   0.49718   0.57944
  16   27338.9    365.8   0.020126218   0.24236  -0.03755  -0.47799   0.11167
  17   27672.7    361.4   0.039457659   0.46941  -0.45448   0.49371   0.13826
  18   28360.9    352.6   0.043246904   0.50201  -0.61839   0.24429   0.24480
  19   28563.2    350.1   0.072754306   0.83855   0.57115  -0.61374  -0.36833
  20   29026.0    344.5   0.019664462   0.22303  -0.06093   0.46115  -0.08163
  21   29117.7    343.4   0.013199650   0.14924  -0.05447  -0.28228   0.25804
  22   29543.7    338.5   0.372183454   4.14732   1.45864   0.33341  -1.38150
  23   30513.1    327.7   0.046807343   0.50501  -0.15187   0.66415  -0.20214
  24   30815.4    324.5   0.016314373   0.17429   0.28509   0.15112  -0.26492
  25   31079.2    321.8   0.188467303   1.99637  -0.93908   1.04715  -0.13405
  26   31268.6    319.8   0.009396997   0.09894  -0.26896   0.15843   0.03871
  27   31934.2    313.1   0.080905335   0.83406  -0.36383   0.75030  -0.37247
  28   32139.0    311.1   0.006653301   0.06815   0.23669  -0.07760  -0.07815
  29   32639.7    306.4   0.125746224   1.26831   0.54328   0.09854  -0.98155
  30   33033.5    302.7   0.161622653   1.61073   0.17252  -1.10950   0.59159
  31   33301.7    300.3   0.167637674   1.65722  -0.96738  -0.19855   0.82582
  32   33437.0    299.1   0.027832250   0.27403   0.43836  -0.20639   0.19818
  33   33726.7    296.5   0.055574499   0.54247  -0.41148   0.27564   0.54514
  34   34121.0    293.1   0.209091086   2.01739  -1.20277  -0.22959   0.71974
  35   34145.0    292.9   0.059303371   0.57178   0.65078  -0.02275  -0.38438
  36   34421.5    290.5   0.002946446   0.02818  -0.14807   0.06843   0.03966
  37   34519.1    289.7   0.081264706   0.77503  -0.70319   0.07667   0.52410
  38   34654.3    288.6   0.229035180   2.17581  -1.15150   0.16272   0.90740
  39   35144.6    284.5   0.020717017   0.19406  -0.16969  -0.27270   0.30150
  40   35256.0    283.6   0.010516501   0.09820  -0.10335  -0.08897   0.28214
  41   35347.4    282.9   0.000729136   0.00679  -0.01781   0.02817   0.07537
  42   35405.2    282.4   0.001386988   0.01290   0.05304  -0.09054  -0.04343
  43   35974.3    278.0   0.065417156   0.59865   0.56668  -0.50201  -0.15972
  44   36203.3    276.2   0.162579935   1.47841   0.61377  -1.04756   0.06568
  45   36710.1    272.4   0.001637715   0.01469  -0.05246   0.08371   0.07020
  46   36834.3    271.5   0.050069575   0.44750   0.10375   0.39488  -0.52991
  47   37003.0    270.2   0.081371728   0.72396  -0.49649   0.59608   0.34950
  48   37280.3    268.2   0.004705042   0.04155   0.10466  -0.16757   0.05014
  49   37799.2    264.6   0.002035589   0.01773  -0.05508  -0.10845   0.05417
  50   38087.3    262.6   0.111516719   0.96391   0.44623   0.61441  -0.62232
  51   38273.8    261.3   0.030300864   0.26063   0.02405   0.46198  -0.21593
  52   38964.3    256.6   0.003079124   0.02602   0.04141   0.07703  -0.13552
  53   39011.7    256.3   0.011624078   0.09809   0.09333  -0.20492   0.21769
  54   39411.0    253.7   0.005463967   0.04564   0.07684   0.04630  -0.19389
  55   39508.2    253.1   0.068995668   0.57492   0.38563  -0.63997  -0.12904
  56   39558.4    252.8   0.003542618   0.02948   0.03900   0.16717   0.00381
  57   39943.3    250.4   0.026317912   0.21691   0.25183  -0.38968   0.04047
  58   40128.9    249.2   0.058882535   0.48306   0.52064  -0.39484  -0.23684
  59   40277.1    248.3   0.057995207   0.47403  -0.49497   0.33319   0.34354

FINAL SINGLE POINT ENERGY     -3417.499025001295

DIPOLE MOMENT
-------------
                                X             Y             Z
Electronic contribution:     53.24815     -53.61123     -27.86497
Nuclear contribution   :    -53.20668      54.51846      27.96892
                        -----------------------------------------
Total Dipole Moment    :      0.04147       0.90723       0.10395
                        -----------------------------------------
Magnitude (a.u.)       :      0.91411
Magnitude (Debye)      :      2.32348

Rotational constants in cm-1:     0.003365     0.000165     0.000159
Rotational constants in MHz :   100.890157     4.932686     4.753957

                             ****ORCA TERMINATED NORMALLY****
TOTAL RUN TIME: 0 days 0 hours 10 minutes 57 seconds 81 msec
