                         Program Version 4.2.0 -  RELEASE  -
|  1> # ORCA input file
|  2> # SCF done       -212.208854289663          0.000851805630
|  3> ! CAM-B3LYP def2-SVP def2/J RIJCOSX Grid4 TightSCF
|  4> %maxcore 5000
|  5> %tddft
|  6>     Mode sTDDFT
|  7>     Ethresh 5.0
|  8>     maxcore 5000
|  9> end
| 10>
| 11> %pal
| 12>   nprocs 6
| 13>   end
| 14> * xyz 0 1
| 15>    C       -0.65521         4.65015        -4.02694
| 16>    C       -0.40378         5.82320        -3.36463
| 17>    C       -0.72314         7.09676        -3.87438
| 18>    N       -0.98173         8.15160        -4.24538
| 19>    C        0.30946         5.85606        -2.14920
| 20>    N        0.94780         5.88605        -1.19554
| 21>    C       -1.07470         4.52153        -5.41524
| 22>    C       -0.70159         3.22501        -5.87996
| 23>    C       -0.92442         2.83773        -7.17001
| 24>    C       -1.54688         3.73904        -8.06315
| 25>    C       -1.93409         5.03013        -7.59951
| 26>    C       -1.68628         5.40776        -6.25995
| 27>    C       -2.55601         5.91728        -8.50131
| 28>    C       -2.78211         5.55097        -9.80014
| 29>    C       -2.39981         4.28051       -10.25611
| 30>    C       -1.79558         3.39411        -9.40630
| 31>    C       -0.08565         2.46490        -4.77665
| 32>    O        0.40651         1.36144        -4.80726
| 33>    C       -0.25284         3.33274        -3.57403
| 34>    C       -0.12743         2.82335        -2.32433
| 35>    C       -0.65399         3.36440        -1.11611
| 36>    S       -2.15056         4.26691        -1.09369
| 37>    C       -2.07984         4.46031         0.63934
| 38>    C       -0.97114         3.83388         1.15158
| 39>    C       -0.17213         3.22123         0.16493
| 40>    C        1.16911         2.69941         0.58204
| 41>    C        1.04035         1.43297         1.26555
| 42>    N        0.93540         0.42485         1.79435
| 43>    C        1.78221         3.78251         1.49968
| 44>    C        0.91317         4.10496         2.72484
| 45>    C       -0.55428         3.63622         2.57410
| 46>    O       -1.45366         4.26763         3.45038
| 47>    C       -1.23353         3.99314         4.81149
| 48>    C       -3.02131         5.29618         1.32649
| 49>    N       -4.38169         5.22604         1.17703
| 50>    C       -5.11570         4.21636         0.45455
| 51>    C       -4.96530         2.83950         1.09398
| 52>    C       -5.04156         6.19824         1.96633
| 53>    O       -6.24854         6.30276         2.02111
| 54>    C       -3.96390         6.92423         2.59288
| 55>    C       -2.73463         6.34554         2.17985
| 56>    C       -1.66449         7.11417         2.77876
| 57>    O       -0.45767         7.02867         2.73204
| 58>    N       -2.33054         8.11499         3.52212
| 59>    C       -1.55495         9.05320         4.29685
| 60>    C       -1.15587        10.27588         3.47229
| 61>    C       -3.69844         8.01954         3.40803
| 62>    C       -4.72150         8.82782         3.97412
| 63>    C       -4.63151        10.07197         4.50088
| 64>    C       -5.73470        10.83380         5.00543
| 65>    C       -5.56436        12.20259         5.23737
| 66>    N       -6.50531        13.04292         5.61286
| 67>    C       -7.73818        12.60617         5.83544
| 68>    C       -8.05080        11.21519         5.70650
| 69>    C       -7.03536        10.31406         5.28523
| 70>    N       -7.30465         8.99772         5.18779
| 71>    C       -8.52268         8.60193         5.44070
| 72>    C       -9.53434         9.50371         5.82496
| 73>    N       -9.29610        10.77948         5.97221
| 74>    C       -8.75825        13.54444         6.19213
| 75>    C       -8.54398        14.88445         6.22454
| 76>    C       -9.57463        15.79687         6.55291
| 77>    C       -9.45229        17.15654         6.52427
| 78>    C      -10.48644        18.12884         6.83138
| 79>    C      -11.72981        17.87344         7.35019
| 80>    C      -12.68642        18.86971         7.63802
| 81>    N      -13.51185        19.62560         7.89440
| 82>    C      -12.23625        16.60246         7.69366
| 83>    N      -12.72726        15.61283         8.00804
| 84>    C       -9.95980        19.45368         6.52073
| 85>    C       -8.60983        19.31758         6.08966
| 86>    C       -8.23053        17.89360         6.09707
| 87>    O       -7.14710        17.43583         5.80501
| 88>    C       -7.85349        20.39518         5.72966
| 89>    C       -8.42499        21.68602         5.78020
| 90>    C       -9.77705        21.83154         6.20519
| 91>    C      -10.53437        20.69654         6.57513
| 92>    C      -10.33957        23.12371         6.24750
| 93>    C       -9.60356        24.21982         5.88850
| 94>    C       -8.27206        24.07514         5.47074
| 95>    C       -7.69536        22.83525         5.41788
| 96>    H       -0.62709         1.85599        -7.50752
| 97>    H       -1.99438         6.38745        -5.92845
| 98>    H       -2.84556         6.89541        -8.14632
| 99>    H       -3.25636         6.23884       -10.48395
|100>    H       -2.58628         4.00775       -11.28399
|101>    H       -1.49895         2.41473        -9.75212
|102>    H        0.35194         1.85172        -2.24895
|103>    H        1.81562         2.54583        -0.28877
|104>    H        1.89187         4.67674         0.88448
|105>    H        2.77443         3.46287         1.82134
|106>    H        0.88433         5.18472         2.87533
|107>    H        1.33264         3.63476         3.61546
|108>    H       -0.58929         2.54494         2.76864
|109>    H       -2.10308         4.38005         5.34023
|110>    H       -0.33386         4.49120         5.18657
|111>    H       -1.14855         2.91409         4.98958
|112>    H       -4.78579         4.19307        -0.58881
|113>    H       -6.16188         4.53398         0.48642
|114>    H       -3.92519         2.52040         1.08506
|115>    H       -5.55785         2.11236         0.54601
|116>    H       -5.30896         2.86694         2.12498
|117>    H       -0.64624         8.52467         4.60199
|118>    H       -2.11694         9.33196         5.19061
|119>    H       -0.51799         9.96511         2.64888
|120>    H       -0.60602        10.97853         4.09279
|121>    H       -2.02844        10.77645         3.05777
|122>    H       -5.70131         8.37284         3.90954
|123>    H       -3.69388        10.60920         4.49920
|124>    H       -4.59257        12.65536         5.07965
|125>    H       -8.71145         7.54075         5.35304
|126>    H      -10.54169         9.17002         6.03311
|127>    H       -9.72897        13.12412         6.41860
|128>    H       -7.56353        15.26439         5.97701
|129>    H      -10.52999        15.36359         6.82291
|130>    H       -6.83136        20.26271         5.40713
|131>    H      -11.55579        20.84189         6.88872
|132>    H      -11.36491        23.23014         6.57019
|133>    H      -10.04344        25.20524         5.92429
|134>    H       -7.70598        24.95101         5.19076
|135>    H       -6.67076        22.71720         5.09661
|136> *
|137>
|138>                          ****END OF INPUT****

CARTESIAN COORDINATES (ANGSTROEM)
---------------------------------
  C     -0.655210    4.650150   -4.026940
  C     -0.403780    5.823200   -3.364630
  C     -0.723140    7.096760   -3.874380
  N     -0.981730    8.151600   -4.245380
  C      0.309460    5.856060   -2.149200
  N      0.947800    5.886050   -1.195540
  C     -1.074700    4.521530   -5.415240
  C     -0.701590    3.225010   -5.879960
  C     -0.924420    2.837730   -7.170010
  C     -1.546880    3.739040   -8.063150
  C     -1.934090    5.030130   -7.599510
  C     -1.686280    5.407760   -6.259950
  C     -2.556010    5.917280   -8.501310
  C     -2.782110    5.550970   -9.800140
  C     -2.399810    4.280510  -10.256110
  C     -1.795580    3.394110   -9.406300
  C     -0.085650    2.464900   -4.776650
  O      0.406510    1.361440   -4.807260
  C     -0.252840    3.332740   -3.574030
  C     -0.127430    2.823350   -2.324330
  C     -0.653990    3.364400   -1.116110
  S     -2.150560    4.266910   -1.093690
  C     -2.079840    4.460310    0.639340
  C     -0.971140    3.833880    1.151580
  C     -0.172130    3.221230    0.164930
  C      1.169110    2.699410    0.582040
  C      1.040350    1.432970    1.265550
  N      0.935400    0.424850    1.794350
  C      1.782210    3.782510    1.499680
  C      0.913170    4.104960    2.724840
  C     -0.554280    3.636220    2.574100
  O     -1.453660    4.267630    3.450380
  C     -1.233530    3.993140    4.811490
  C     -3.021310    5.296180    1.326490
  N     -4.381690    5.226040    1.177030
  C     -5.115700    4.216360    0.454550
  C     -4.965300    2.839500    1.093980
  C     -5.041560    6.198240    1.966330
  O     -6.248540    6.302760    2.021110
  C     -3.963900    6.924230    2.592880
  C     -2.734630    6.345540    2.179850
  C     -1.664490    7.114170    2.778760
  O     -0.457670    7.028670    2.732040
  N     -2.330540    8.114990    3.522120
  C     -1.554950    9.053200    4.296850
  C     -1.155870   10.275880    3.472290
  C     -3.698440    8.019540    3.408030
  C     -4.721500    8.827820    3.974120
  C     -4.631510   10.071970    4.500880
  C     -5.734700   10.833800    5.005430
  C     -5.564360   12.202590    5.237370
  N     -6.505310   13.042920    5.612860
  C     -7.738180   12.606170    5.835440
  C     -8.050800   11.215190    5.706500
  C     -7.035360   10.314060    5.285230
  N     -7.304650    8.997720    5.187790
  C     -8.522680    8.601930    5.440700
  C     -9.534340    9.503710    5.824960
  N     -9.296100   10.779480    5.972210
  C     -8.758250   13.544440    6.192130
  C     -8.543980   14.884450    6.224540
  C     -9.574630   15.796870    6.552910
  C     -9.452290   17.156540    6.524270
  C    -10.486440   18.128840    6.831380
  C    -11.729810   17.873440    7.350190
  C    -12.686420   18.869710    7.638020
  N    -13.511850   19.625600    7.894400
  C    -12.236250   16.602460    7.693660
  N    -12.727260   15.612830    8.008040
  C     -9.959800   19.453680    6.520730
  C     -8.609830   19.317580    6.089660
  C     -8.230530   17.893600    6.097070
  O     -7.147100   17.435830    5.805010
  C     -7.853490   20.395180    5.729660
  C     -8.424990   21.686020    5.780200
  C     -9.777050   21.831540    6.205190
  C    -10.534370   20.696540    6.575130
  C    -10.339570   23.123710    6.247500
  C     -9.603560   24.219820    5.888500
  C     -8.272060   24.075140    5.470740
  C     -7.695360   22.835250    5.417880
  H     -0.627090    1.855990   -7.507520
  H     -1.994380    6.387450   -5.928450
  H     -2.845560    6.895410   -8.146320
  H     -3.256360    6.238840  -10.483950
  H     -2.586280    4.007750  -11.283990
  H     -1.498950    2.414730   -9.752120
  H      0.351940    1.851720   -2.248950
  H      1.815620    2.545830   -0.288770
  H      1.891870    4.676740    0.884480
  H      2.774430    3.462870    1.821340
  H      0.884330    5.184720    2.875330
  H      1.332640    3.634760    3.615460
  H     -0.589290    2.544940    2.768640
  H     -2.103080    4.380050    5.340230
  H     -0.333860    4.491200    5.186570
  H     -1.148550    2.914090    4.989580
  H     -4.785790    4.193070   -0.588810
  H     -6.161880    4.533980    0.486420
  H     -3.925190    2.520400    1.085060
  H     -5.557850    2.112360    0.546010
  H     -5.308960    2.866940    2.124980
  H     -0.646240    8.524670    4.601990
  H     -2.116940    9.331960    5.190610
  H     -0.517990    9.965110    2.648880
  H     -0.606020   10.978530    4.092790
  H     -2.028440   10.776450    3.057770
  H     -5.701310    8.372840    3.909540
  H     -3.693880   10.609200    4.499200
  H     -4.592570   12.655360    5.079650
  H     -8.711450    7.540750    5.353040
  H    -10.541690    9.170020    6.033110
  H     -9.728970   13.124120    6.418600
  H     -7.563530   15.264390    5.977010
  H    -10.529990   15.363590    6.822910
  H     -6.831360   20.262710    5.407130
  H    -11.555790   20.841890    6.888720
  H    -11.364910   23.230140    6.570190
  H    -10.043440   25.205240    5.924290
  H     -7.705980   24.951010    5.190760
  H     -6.670760   22.717200    5.096610

 Total Charge           Charge          ....    0
 Multiplicity           Mult            ....    1
 Number of Electrons    NEL             ....  556
 Basis Dimension        Dim             .... 1338

ORBITAL ENERGIES
----------------

  NO   OCC          E(Eh)            E(eV)
   0   2.0000     -88.974888     -2421.1298
   1   2.0000     -19.219984      -523.0023
   2   2.0000     -19.217027      -522.9219
   3   2.0000     -19.211008      -522.7581
   4   2.0000     -19.186793      -522.0992
   5   2.0000     -19.186183      -522.0826
   6   2.0000     -14.450511      -393.2184
   7   2.0000     -14.449033      -393.1782
   8   2.0000     -14.441406      -392.9706
   9   2.0000     -14.437428      -392.8624
  10   2.0000     -14.420919      -392.4132
  11   2.0000     -14.420277      -392.3957
  12   2.0000     -14.418853      -392.3569
  13   2.0000     -14.412419      -392.1818
  14   2.0000     -14.410994      -392.1431
  15   2.0000     -14.404940      -391.9783
  16   2.0000     -10.371630      -282.2264
  17   2.0000     -10.370143      -282.1859
  18   2.0000     -10.369302      -282.1631
  19   2.0000     -10.361946      -281.9629
  20   2.0000     -10.348797      -281.6051
  21   2.0000     -10.345781      -281.5230
  22   2.0000     -10.341254      -281.3998
  23   2.0000     -10.338101      -281.3140
  24   2.0000     -10.336462      -281.2694
  25   2.0000     -10.336381      -281.2672
  26   2.0000     -10.334689      -281.2212
  27   2.0000     -10.334325      -281.2113
  28   2.0000     -10.332322      -281.1568
  29   2.0000     -10.331186      -281.1259
  30   2.0000     -10.328551      -281.0542
  31   2.0000     -10.328542      -281.0539
  32   2.0000     -10.327950      -281.0378
  33   2.0000     -10.326439      -280.9967
  34   2.0000     -10.324806      -280.9523
  35   2.0000     -10.323790      -280.9246
  36   2.0000     -10.322859      -280.8993
  37   2.0000     -10.322204      -280.8815
  38   2.0000     -10.319306      -280.8026
  39   2.0000     -10.315122      -280.6887
  40   2.0000     -10.313974      -280.6575
  41   2.0000     -10.309201      -280.5276
  42   2.0000     -10.308811      -280.5170
  43   2.0000     -10.308056      -280.4965
  44   2.0000     -10.306934      -280.4659
  45   2.0000     -10.306136      -280.4442
  46   2.0000     -10.305607      -280.4298
  47   2.0000     -10.305416      -280.4246
  48   2.0000     -10.303846      -280.3819
  49   2.0000     -10.302840      -280.3545
  50   2.0000     -10.301942      -280.3301
  51   2.0000     -10.301656      -280.3223
  52   2.0000     -10.301333      -280.3135
  53   2.0000     -10.301144      -280.3084
  54   2.0000     -10.298944      -280.2485
  55   2.0000     -10.294932      -280.1393
  56   2.0000     -10.294768      -280.1349
  57   2.0000     -10.294442      -280.1260
  58   2.0000     -10.294188      -280.1191
  59   2.0000     -10.294179      -280.1189
  60   2.0000     -10.294150      -280.1181
  61   2.0000     -10.293002      -280.0868
  62   2.0000     -10.292487      -280.0728
  63   2.0000     -10.290739      -280.0253
  64   2.0000     -10.289933      -280.0033
  65   2.0000     -10.289545      -279.9927
  66   2.0000     -10.289291      -279.9858
  67   2.0000     -10.288859      -279.9741
  68   2.0000     -10.284348      -279.8513
  69   2.0000     -10.284045      -279.8431
  70   2.0000     -10.283837      -279.8374
  71   2.0000     -10.283203      -279.8202
  72   2.0000     -10.282985      -279.8143
  73   2.0000     -10.282487      -279.8007
  74   2.0000     -10.279262      -279.7129
  75   2.0000     -10.278628      -279.6957
  76   2.0000     -10.260247      -279.1955
  77   2.0000     -10.260154      -279.1930
  78   2.0000     -10.259748      -279.1819
  79   2.0000     -10.257429      -279.1188
  80   2.0000     -10.256803      -279.1018
  81   2.0000      -8.069385      -219.5791
  82   2.0000      -6.038855      -164.3256
  83   2.0000      -6.034665      -164.2116
  84   2.0000      -6.031281      -164.1195
  85   2.0000      -1.135146       -30.8889
  86   2.0000      -1.130017       -30.7493
  87   2.0000      -1.125824       -30.6352
  88   2.0000      -1.123435       -30.5702
  89   2.0000      -1.120941       -30.5024
  90   2.0000      -1.098209       -29.8838
  91   2.0000      -1.060959       -28.8702
  92   2.0000      -1.051114       -28.6023
  93   2.0000      -1.049741       -28.5649
  94   2.0000      -1.025656       -27.9095
  95   2.0000      -1.018874       -27.7250
  96   2.0000      -1.014076       -27.5944
  97   2.0000      -1.012250       -27.5447
  98   2.0000      -1.002840       -27.2887
  99   2.0000      -0.998567       -27.1724
 100   2.0000      -0.994583       -27.0640
 101   2.0000      -0.991145       -26.9704
 102   2.0000      -0.989915       -26.9369
 103   2.0000      -0.975923       -26.5562
 104   2.0000      -0.967743       -26.3336
 105   2.0000      -0.936021       -25.4704
 106   2.0000      -0.931425       -25.3454
 107   2.0000      -0.929084       -25.2817
 108   2.0000      -0.924857       -25.1666
 109   2.0000      -0.922927       -25.1141
 110   2.0000      -0.913718       -24.8635
 111   2.0000      -0.912378       -24.8271
 112   2.0000      -0.894430       -24.3387
 113   2.0000      -0.891106       -24.2482
 114   2.0000      -0.885867       -24.1057
 115   2.0000      -0.884933       -24.0802
 116   2.0000      -0.877733       -23.8843
 117   2.0000      -0.874150       -23.7868
 118   2.0000      -0.864446       -23.5228
 119   2.0000      -0.860614       -23.4185
 120   2.0000      -0.844952       -22.9923
 121   2.0000      -0.838046       -22.8044
 122   2.0000      -0.832643       -22.6574
 123   2.0000      -0.832349       -22.6494
 124   2.0000      -0.824701       -22.4412
 125   2.0000      -0.816831       -22.2271
 126   2.0000      -0.810206       -22.0468
 127   2.0000      -0.803132       -21.8543
 128   2.0000      -0.781255       -21.2590
 129   2.0000      -0.779127       -21.2011
 130   2.0000      -0.776343       -21.1254
 131   2.0000      -0.768463       -20.9109
 132   2.0000      -0.766005       -20.8440
 133   2.0000      -0.758945       -20.6520
 134   2.0000      -0.757449       -20.6112
 135   2.0000      -0.757056       -20.6005
 136   2.0000      -0.732544       -19.9335
 137   2.0000      -0.731217       -19.8974
 138   2.0000      -0.719237       -19.5714
 139   2.0000      -0.708564       -19.2810
 140   2.0000      -0.707300       -19.2466
 141   2.0000      -0.703532       -19.1441
 142   2.0000      -0.700868       -19.0716
 143   2.0000      -0.699620       -19.0376
 144   2.0000      -0.690489       -18.7892
 145   2.0000      -0.686793       -18.6886
 146   2.0000      -0.682632       -18.5754
 147   2.0000      -0.681002       -18.5310
 148   2.0000      -0.678480       -18.4624
 149   2.0000      -0.669976       -18.2310
 150   2.0000      -0.663468       -18.0539
 151   2.0000      -0.660504       -17.9732
 152   2.0000      -0.650504       -17.7011
 153   2.0000      -0.642333       -17.4788
 154   2.0000      -0.638611       -17.3775
 155   2.0000      -0.636979       -17.3331
 156   2.0000      -0.636883       -17.3305
 157   2.0000      -0.628556       -17.1039
 158   2.0000      -0.624138       -16.9837
 159   2.0000      -0.621408       -16.9094
 160   2.0000      -0.613257       -16.6876
 161   2.0000      -0.611237       -16.6326
 162   2.0000      -0.609604       -16.5882
 163   2.0000      -0.603144       -16.4124
 164   2.0000      -0.602868       -16.4049
 165   2.0000      -0.589382       -16.0379
 166   2.0000      -0.584872       -15.9152
 167   2.0000      -0.582544       -15.8518
 168   2.0000      -0.572966       -15.5912
 169   2.0000      -0.570786       -15.5319
 170   2.0000      -0.565368       -15.3845
 171   2.0000      -0.563896       -15.3444
 172   2.0000      -0.560980       -15.2650
 173   2.0000      -0.560666       -15.2565
 174   2.0000      -0.557720       -15.1763
 175   2.0000      -0.553818       -15.0702
 176   2.0000      -0.550224       -14.9724
 177   2.0000      -0.548463       -14.9244
 178   2.0000      -0.546339       -14.8666
 179   2.0000      -0.545361       -14.8400
 180   2.0000      -0.543002       -14.7758
 181   2.0000      -0.541106       -14.7242
 182   2.0000      -0.538938       -14.6652
 183   2.0000      -0.538455       -14.6521
 184   2.0000      -0.532824       -14.4989
 185   2.0000      -0.531655       -14.4671
 186   2.0000      -0.531363       -14.4591
 187   2.0000      -0.530099       -14.4247
 188   2.0000      -0.525716       -14.3054
 189   2.0000      -0.524331       -14.2678
 190   2.0000      -0.522150       -14.2084
 191   2.0000      -0.520688       -14.1686
 192   2.0000      -0.518876       -14.1193
 193   2.0000      -0.516781       -14.0623
 194   2.0000      -0.515418       -14.0252
 195   2.0000      -0.514259       -13.9937
 196   2.0000      -0.512708       -13.9515
 197   2.0000      -0.510600       -13.8941
 198   2.0000      -0.509700       -13.8696
 199   2.0000      -0.508798       -13.8451
 200   2.0000      -0.506478       -13.7820
 201   2.0000      -0.502144       -13.6640
 202   2.0000      -0.500402       -13.6166
 203   2.0000      -0.498465       -13.5639
 204   2.0000      -0.493960       -13.4413
 205   2.0000      -0.492955       -13.4140
 206   2.0000      -0.491362       -13.3706
 207   2.0000      -0.490403       -13.3445
 208   2.0000      -0.488868       -13.3028
 209   2.0000      -0.485975       -13.2241
 210   2.0000      -0.482147       -13.1199
 211   2.0000      -0.478345       -13.0164
 212   2.0000      -0.477099       -12.9825
 213   2.0000      -0.472016       -12.8442
 214   2.0000      -0.469077       -12.7642
 215   2.0000      -0.467653       -12.7255
 216   2.0000      -0.463773       -12.6199
 217   2.0000      -0.462635       -12.5890
 218   2.0000      -0.459389       -12.5006
 219   2.0000      -0.458085       -12.4651
 220   2.0000      -0.455823       -12.4036
 221   2.0000      -0.454800       -12.3757
 222   2.0000      -0.453449       -12.3390
 223   2.0000      -0.450911       -12.2699
 224   2.0000      -0.450319       -12.2538
 225   2.0000      -0.449101       -12.2207
 226   2.0000      -0.447040       -12.1646
 227   2.0000      -0.445026       -12.1098
 228   2.0000      -0.444036       -12.0828
 229   2.0000      -0.442962       -12.0536
 230   2.0000      -0.440908       -11.9977
 231   2.0000      -0.437986       -11.9182
 232   2.0000      -0.437841       -11.9143
 233   2.0000      -0.436719       -11.8837
 234   2.0000      -0.434315       -11.8183
 235   2.0000      -0.431958       -11.7542
 236   2.0000      -0.430187       -11.7060
 237   2.0000      -0.429848       -11.6968
 238   2.0000      -0.428526       -11.6608
 239   2.0000      -0.428244       -11.6531
 240   2.0000      -0.427829       -11.6418
 241   2.0000      -0.424279       -11.5452
 242   2.0000      -0.421706       -11.4752
 243   2.0000      -0.418948       -11.4002
 244   2.0000      -0.418259       -11.3814
 245   2.0000      -0.416247       -11.3267
 246   2.0000      -0.415491       -11.3061
 247   2.0000      -0.412013       -11.2114
 248   2.0000      -0.405963       -11.0468
 249   2.0000      -0.403849       -10.9893
 250   2.0000      -0.402515       -10.9530
 251   2.0000      -0.397736       -10.8229
 252   2.0000      -0.396771       -10.7967
 253   2.0000      -0.393833       -10.7168
 254   2.0000      -0.389495       -10.5987
 255   2.0000      -0.380976       -10.3669
 256   2.0000      -0.378218       -10.2918
 257   2.0000      -0.373508       -10.1637
 258   2.0000      -0.367472        -9.9994
 259   2.0000      -0.361162        -9.8277
 260   2.0000      -0.356422        -9.6987
 261   2.0000      -0.348551        -9.4846
 262   2.0000      -0.344174        -9.3655
 263   2.0000      -0.340178        -9.2567
 264   2.0000      -0.337738        -9.1903
 265   2.0000      -0.331942        -9.0326
 266   2.0000      -0.328883        -8.9493
 267   2.0000      -0.326949        -8.8967
 268   2.0000      -0.326104        -8.8738
 269   2.0000      -0.323066        -8.7911
 270   2.0000      -0.319261        -8.6875
 271   2.0000      -0.312736        -8.5100
 272   2.0000      -0.309208        -8.4140
 273   2.0000      -0.302951        -8.2437
 274   2.0000      -0.294701        -8.0192
 275   2.0000      -0.292593        -7.9619
 276   2.0000      -0.279226        -7.5981
 277   2.0000      -0.236044        -6.4231
 278   0.0000      -0.108718        -2.9584
 279   0.0000      -0.098305        -2.6750
 280   0.0000      -0.071094        -1.9346
 281   0.0000      -0.060231        -1.6390
 282   0.0000      -0.052755        -1.4355

MULLIKEN ATOMIC CHARGES
-----------------------
   0 C :    0.249352
   1 C :   -0.316632
   2 C :   -0.172195
   3 N :    0.157633
   4 C :   -0.175112
   5 N :    0.174824
   6 C :    0.039558
   7 C :    0.008340
   8 C :   -0.080322
   9 C :    0.093823
  10 C :    0.096736
  11 C :   -0.081859
  12 C :   -0.017702
  13 C :    0.036918
  14 C :    0.036136
  15 C :   -0.013545
  16 C :    0.144943
  17 O :   -0.135170
  18 C :   -0.137325
  19 C :    0.033416
  20 C :   -0.201847
  21 S :    0.167801
  22 C :   -0.274624
  23 C :    0.072074
  24 C :    0.051170
  25 C :   -0.027180
  26 C :   -0.250289
  27 N :    0.108447
  28 C :    0.108211
  29 C :    0.002762
  30 C :    0.221254
  31 O :   -0.373366
  32 C :    0.193287
  33 C :    0.096894
  34 N :   -0.261034
  35 C :    0.100978
  36 C :    0.001420
  37 C :    0.156602
  38 O :   -0.192608
  39 C :   -0.078557
  40 C :    0.057053
  41 C :    0.146352
  42 O :   -0.196167
  43 N :   -0.272167
  44 C :    0.112746
  45 C :    0.000347
  46 C :    0.125009
  47 C :   -0.010738
  48 C :   -0.026097
  49 C :    0.049612
  50 C :   -0.031214
  51 N :   -0.017939
  52 C :   -0.035341
  53 C :   -0.013534
  54 C :    0.014638
  55 N :   -0.025574
  56 C :    0.050593
  57 C :    0.031032
  58 N :   -0.006067
  59 C :   -0.000515
  60 C :    0.041073
  61 C :   -0.038831
  62 C :   -0.061371
  63 C :    0.335935
  64 C :   -0.353562
  65 C :   -0.182554
  66 N :    0.145921
  67 C :   -0.192831
  68 N :    0.148991
  69 C :    0.044555
  70 C :   -0.004188
  71 C :    0.146621
  72 O :   -0.140554
  73 C :   -0.079213
  74 C :    0.096295
  75 C :    0.094797
  76 C :   -0.081879
  77 C :   -0.016473
  78 C :    0.034896
  79 C :    0.036065
  80 C :   -0.015182
  81 H :   -0.010161
  82 H :   -0.004540
  83 H :   -0.010662
  84 H :   -0.002381
  85 H :   -0.003792
  86 H :   -0.016435
  87 H :    0.036561
  88 H :    0.042004
  89 H :    0.047599
  90 H :    0.013877
  91 H :    0.042224
  92 H :    0.005651
  93 H :    0.019296
  94 H :    0.027650
  95 H :    0.014987
  96 H :    0.007241
  97 H :    0.018581
  98 H :    0.043958
  99 H :    0.029323
 100 H :    0.021726
 101 H :    0.023840
 102 H :    0.030452
 103 H :    0.021337
 104 H :    0.037202
 105 H :    0.019939
 106 H :    0.019715
 107 H :    0.026925
 108 H :   -0.029154
 109 H :    0.004156
 110 H :    0.027796
 111 H :    0.022826
 112 H :    0.012285
 113 H :    0.037986
 114 H :    0.013772
 115 H :   -0.014535
 116 H :   -0.010264
 117 H :   -0.009650
 118 H :   -0.005991
 119 H :   -0.006312
 120 H :   -0.018778
Sum of atomic charges:   -0.0000000

LOEWDIN ATOMIC CHARGES
----------------------
   0 C :    0.060977
   1 C :   -0.134735
   2 C :   -0.019177
   3 N :   -0.046347
   4 C :   -0.016756
   5 N :   -0.044883
   6 C :   -0.023612
   7 C :   -0.058267
   8 C :    0.034796
   9 C :   -0.008751
  10 C :   -0.004761
  11 C :    0.017022
  12 C :   -0.005954
  13 C :   -0.011419
  14 C :   -0.011780
  15 C :   -0.008257
  16 C :    0.083778
  17 O :   -0.137034
  18 C :   -0.084184
  19 C :    0.047248
  20 C :   -0.180102
  21 S :    0.466619
  22 C :   -0.160849
  23 C :   -0.027869
  24 C :   -0.011410
  25 C :   -0.044345
  26 C :   -0.034673
  27 N :   -0.066387
  28 C :   -0.001289
  29 C :   -0.041537
  30 C :    0.066568
  31 O :   -0.144847
  32 C :    0.070943
  33 C :    0.060330
  34 N :   -0.003636
  35 C :    0.029898
  36 C :   -0.060920
  37 C :    0.080696
  38 O :   -0.195762
  39 C :   -0.115467
  40 C :   -0.104502
  41 C :    0.089060
  42 O :   -0.189379
  43 N :   -0.005314
  44 C :    0.035434
  45 C :   -0.063521
  46 C :    0.072573
  47 C :   -0.012856
  48 C :   -0.012056
  49 C :   -0.038405
  50 C :    0.026608
  51 N :   -0.046398
  52 C :    0.008132
  53 C :   -0.019721
  54 C :    0.009320
  55 N :   -0.024809
  56 C :    0.027609
  57 C :    0.012401
  58 N :   -0.027000
  59 C :    0.019212
  60 C :    0.003452
  61 C :    0.067672
  62 C :   -0.085104
  63 C :    0.075251
  64 C :   -0.138103
  65 C :   -0.016545
  66 N :   -0.055422
  67 C :   -0.021152
  68 N :   -0.052276
  69 C :   -0.025875
  70 C :   -0.054879
  71 C :    0.083470
  72 O :   -0.136938
  73 C :    0.031294
  74 C :   -0.008167
  75 C :   -0.006547
  76 C :    0.018822
  77 C :   -0.005397
  78 C :   -0.014465
  79 C :   -0.012950
  80 C :   -0.009958
  81 H :    0.040111
  82 H :    0.039147
  83 H :    0.034540
  84 H :    0.033955
  85 H :    0.033373
  86 H :    0.032323
  87 H :    0.051853
  88 H :    0.060654
  89 H :    0.039744
  90 H :    0.031645
  91 H :    0.040373
  92 H :    0.022654
  93 H :    0.026109
  94 H :    0.023819
  95 H :    0.009731
  96 H :    0.009902
  97 H :    0.010943
  98 H :    0.036549
  99 H :    0.024642
 100 H :    0.030462
 101 H :    0.029970
 102 H :    0.033757
 103 H :    0.022794
 104 H :    0.035720
 105 H :    0.029271
 106 H :    0.020246
 107 H :    0.043563
 108 H :    0.029779
 109 H :    0.025743
 110 H :    0.034000
 111 H :    0.031325
 112 H :    0.036803
 113 H :    0.037607
 114 H :    0.042287
 115 H :    0.038505
 116 H :    0.038514
 117 H :    0.034547
 118 H :    0.032734
 119 H :    0.032368
 120 H :    0.031506

  Mayer bond orders larger than 0.100000
B(  0-C ,  1-C ) :   1.6652 B(  0-C ,  6-C ) :   1.0066 B(  0-C , 18-C ) :   1.0257
B(  1-C ,  2-C ) :   1.1349 B(  1-C ,  4-C ) :   1.1555 B(  2-C ,  3-N ) :   2.9902
B(  4-C ,  5-N ) :   2.9927 B(  6-C ,  7-C ) :   1.2131 B(  6-C , 11-C ) :   1.4564
B(  7-C ,  8-C ) :   1.4738 B(  7-C , 16-C ) :   0.9186 B(  8-C ,  9-C ) :   1.1866
B(  8-C , 81-H ) :   1.0157 B(  9-C , 10-C ) :   1.2567 B(  9-C , 15-C ) :   1.2456
B( 10-C , 11-C ) :   1.2042 B( 10-C , 12-C ) :   1.2399 B( 11-C , 82-H ) :   0.9947
B( 12-C , 13-C ) :   1.4917 B( 12-C , 83-H ) :   0.9973 B( 13-C , 14-C ) :   1.2604
B( 13-C , 84-H ) :   0.9879 B( 14-C , 15-C ) :   1.4900 B( 14-C , 85-H ) :   0.9887
B( 15-C , 86-H ) :   0.9974 B( 16-C , 17-O ) :   2.2849 B( 16-C , 18-C ) :   0.9273
B( 18-C , 19-C ) :   1.6990 B( 19-C , 20-C ) :   1.0736 B( 19-C , 87-H ) :   0.9484
B( 20-C , 21-S ) :   1.1152 B( 20-C , 22-C ) :   0.1188 B( 20-C , 24-C ) :   1.5191
B( 21-S , 22-C ) :   1.1248 B( 22-C , 23-C ) :   1.5779 B( 22-C , 33-C ) :   1.0228
B( 23-C , 24-C ) :   1.2731 B( 23-C , 30-C ) :   1.0067 B( 24-C , 25-C ) :   1.0018
B( 25-C , 26-C ) :   1.0016 B( 25-C , 28-C ) :   1.1319 B( 25-C , 88-H ) :   0.8631
B( 26-C , 27-N ) :   3.0916 B( 28-C , 29-C ) :   1.0890 B( 28-C , 89-H ) :   0.9144
B( 28-C , 90-H ) :   0.9238 B( 29-C , 30-C ) :   1.0627 B( 29-C , 91-H ) :   0.8991
B( 29-C , 92-H ) :   0.9234 B( 30-C , 31-O ) :   1.0465 B( 30-C , 93-H ) :   0.8855
B( 31-O , 32-C ) :   0.9810 B( 32-C , 94-H ) :   0.9817 B( 32-C , 95-H ) :   0.9689
B( 32-C , 96-H ) :   0.9628 B( 33-C , 34-N ) :   1.2120 B( 33-C , 40-C ) :   1.4483
B( 34-N , 35-C ) :   0.9485 B( 34-N , 37-C ) :   1.0166 B( 35-C , 36-C ) :   1.1144
B( 35-C , 97-H ) :   0.9458 B( 35-C , 98-H ) :   0.9273 B( 36-C , 99-H ) :   0.9680
B( 36-C ,100-H ) :   0.9663 B( 36-C ,101-H ) :   0.9649 B( 37-C , 38-O ) :   2.1272
B( 37-C , 39-C ) :   0.9863 B( 39-C , 40-C ) :   1.2153 B( 39-C , 46-C ) :   1.3586
B( 40-C , 41-C ) :   0.9634 B( 41-C , 42-O ) :   2.0696 B( 41-C , 43-N ) :   1.0415
B( 43-N , 44-C ) :   0.9471 B( 43-N , 46-C ) :   1.1637 B( 44-C , 45-C ) :   1.1166
B( 44-C ,102-H ) :   0.9279 B( 44-C ,103-H ) :   0.9499 B( 45-C ,104-H ) :   0.9597
B( 45-C ,105-H ) :   0.9691 B( 45-C ,106-H ) :   0.9650 B( 46-C , 47-C ) :   1.1551
B( 47-C , 48-C ) :   1.6009 B( 47-C ,107-H ) :   0.9299 B( 48-C , 49-C ) :   1.1146
B( 48-C ,108-H ) :   0.9687 B( 49-C , 50-C ) :   1.3402 B( 49-C , 52-C ) :   0.1074
B( 49-C , 54-C ) :   1.2095 B( 50-C , 51-N ) :   1.5142 B( 50-C ,109-H ) :   0.9841
B( 51-N , 52-C ) :   1.5945 B( 52-C , 53-C ) :   1.1408 B( 52-C , 59-C ) :   1.1137
B( 53-C , 54-C ) :   1.2568 B( 53-C , 58-N ) :   1.4994 B( 54-C , 55-N ) :   1.4390
B( 55-N , 56-C ) :   1.6486 B( 56-C , 57-C ) :   1.2205 B( 56-C ,110-H ) :   0.9749
B( 57-C , 58-N ) :   1.6574 B( 57-C ,111-H ) :   0.9755 B( 59-C , 60-C ) :   1.5569
B( 59-C ,112-H ) :   0.9809 B( 60-C , 61-C ) :   1.1196 B( 60-C ,113-H ) :   0.9827
B( 61-C , 62-C ) :   1.5500 B( 61-C ,114-H ) :   0.9641 B( 62-C , 63-C ) :   1.0593
B( 62-C , 71-C ) :   0.9364 B( 63-C , 64-C ) :   1.6287 B( 63-C , 69-C ) :   0.9868
B( 64-C , 65-C ) :   1.1471 B( 64-C , 67-C ) :   1.1448 B( 65-C , 66-N ) :   2.9622
B( 67-C , 68-N ) :   2.9687 B( 69-C , 70-C ) :   1.2147 B( 69-C , 76-C ) :   1.4494
B( 70-C , 71-C ) :   0.9402 B( 70-C , 73-C ) :   1.4740 B( 71-C , 72-O ) :   2.2196
B( 73-C , 74-C ) :   1.1804 B( 73-C ,115-H ) :   1.0147 B( 74-C , 75-C ) :   1.2553
B( 74-C , 80-C ) :   1.2444 B( 75-C , 76-C ) :   1.2085 B( 75-C , 77-C ) :   1.2394
B( 76-C ,116-H ) :   0.9879 B( 77-C , 78-C ) :   1.4904 B( 77-C ,117-H ) :   0.9964
B( 78-C , 79-C ) :   1.2579 B( 78-C ,118-H ) :   0.9888 B( 79-C , 80-C ) :   1.4902
B( 79-C ,119-H ) :   0.9888 B( 80-C ,120-H ) :   0.9967

-----------------------------------------------------------------------------
         ABSORPTION SPECTRUM VIA TRANSITION ELECTRIC DIPOLE MOMENTS
-----------------------------------------------------------------------------
State   Energy  Wavelength   fosc         T2         TX        TY        TZ
        (cm-1)    (nm)                  (au**2)     (au)      (au)      (au)
-----------------------------------------------------------------------------
   0   13698.3    730.0   0.932203907  22.40366   1.78204  -3.42172  -2.74222
   1   16246.6    615.5   0.254937390   5.16590  -0.85942   2.10411   0.00560
   2   22445.4    445.5   0.581322453   8.52639   1.64370  -2.41124  -0.10264
   3   23340.8    428.4   0.346629056   4.88906   0.38594  -1.81577  -1.20128
   4   24551.7    407.3   0.147736790   1.98099   0.61036   0.56106  -1.13740
   5   25062.9    399.0   0.118737509   1.55967  -0.10446  -1.23624  -0.14309
   6   25536.2    391.6   0.104429766   1.34631   0.24731  -1.12302  -0.15484
   7   25858.2    386.7   0.047701281   0.60731  -0.16510  -0.57564  -0.49869
   8   25986.5    384.8   0.044089682   0.55855  -0.41750   0.01888  -0.61959
   9   26169.2    382.1   0.007769269   0.09774  -0.18956   0.20097  -0.14635
  10   26421.2    378.5   0.031523252   0.39278   0.21063  -0.23968   0.53942
  11   26668.0    375.0   0.108208293   1.33581  -0.09412  -0.27830   1.11781
  12   28034.4    356.7   0.036112318   0.42407   0.05360   0.25275   0.59776
  13   28350.8    352.7   0.008644462   0.10038   0.06801   0.30944   0.00124
  14   28954.1    345.4   0.008956449   0.10184   0.17734  -0.01364   0.26495
  15   29310.6    341.2   0.070448500   0.79127  -0.22846   0.04023  -0.85875
  16   29429.3    339.8   0.090150517   1.00847  -0.09199  -0.98779   0.15582
  17   29614.6    337.7   0.028659550   0.31859   0.00389  -0.51885   0.22220
  18   29874.5    334.7   0.104893177   1.15591   0.52458   0.68481  -0.64168
  19   30152.7    331.6   0.068346060   0.74621   0.04637   0.13467   0.85201
  20   30610.5    326.7   0.066731974   0.71769   0.45273  -0.67536   0.23793
  21   31137.0    321.2   0.009042216   0.09560   0.05129   0.30085  -0.04965
  22   31777.2    314.7   0.033157404   0.34351  -0.39763  -0.42573   0.06448
  23   31847.0    314.0   0.001544742   0.01597  -0.10106  -0.04640   0.06002
  24   32456.0    308.1   0.020685645   0.20982   0.14996  -0.06574   0.42780
  25   32521.3    307.5   0.008210613   0.08312   0.20882  -0.02810  -0.19677
  26   32865.5    304.3   0.193292108   1.93620  -0.51204  -1.28874  -0.11471
  27   33152.7    301.6   0.116495376   1.15682  -0.27389  -0.58506  -0.85995
  28   33286.4    300.4   0.042451403   0.41986  -0.32253  -0.34152   0.44632
  29   33407.0    299.3   0.614667860   6.05730   1.02029   1.60628  -1.56082
  30   33529.7    298.2   0.393604495   3.86461   0.63029   1.23977   1.38936
  31   33929.2    294.7   0.506965814   4.91904   0.45037   0.69507   2.05745
  32   34388.7    290.8   0.011989267   0.11478   0.02545  -0.31528   0.12136
  33   34724.8    288.0   0.191145336   1.81217   1.31554  -0.24540   0.14597
  34   34823.2    287.2   0.003935576   0.03721   0.10765  -0.12627  -0.09835
  35   35237.3    283.8   0.043811969   0.40932   0.29075   0.56764   0.05070
  36   35334.7    283.0   0.051097952   0.47608   0.29668   0.50445  -0.36550
  37   35670.2    280.3   0.029163752   0.26916   0.47676  -0.17676  -0.10307
  38   35950.5    278.2   0.001879730   0.01721   0.12082  -0.00189  -0.05111
  39   35989.9    277.9   0.004832512   0.04420   0.19103  -0.05661   0.06714
  40   36220.8    276.1   0.044105518   0.40088  -0.62924   0.02883  -0.06402
  41   36615.0    273.1   0.014223085   0.12788   0.22687   0.24095  -0.13549
  42   36736.8    272.2   0.015680947   0.14052  -0.20222   0.18686   0.25439
  43   37085.0    269.7   0.026084386   0.23156  -0.19796   0.41950   0.12803
  44   37377.0    267.5   0.065385679   0.57591   0.54562   0.44986  -0.27537
  45   37791.3    264.6   0.025716074   0.22402  -0.38912  -0.25992  -0.07106
  46   38198.5    261.8   0.057466072   0.49527  -0.01426   0.47412   0.51988
  47   38400.7    260.4   0.022451826   0.19248  -0.00015   0.12655  -0.42008
  48   38672.4    258.6   0.002003258   0.01705   0.09530  -0.08561  -0.02537
  49   38939.7    256.8   0.334240503   2.82580   1.56020   0.24828  -0.57441
  50   39043.8    256.1   0.016811666   0.14175   0.34670   0.05994  -0.13402
  51   39433.4    253.6   0.071002345   0.59277  -0.40454   0.37178  -0.53934
  52   39547.4    252.9   0.002432322   0.02025  -0.08442   0.03249  -0.10984
  53   39669.9    252.1   0.010912060   0.09056   0.21728   0.20817   0.00293
  54   39748.4    251.6   0.008595301   0.07119  -0.00515   0.22786  -0.13872
  55   40259.2    248.4   0.003556232   0.02908  -0.14818  -0.07406   0.04049

FINAL SINGLE POINT ENERGY     -3818.315291917267

DIPOLE MOMENT
-------------
                                X             Y             Z
Electronic contribution:    -21.98519      16.85212      -5.50849
Nuclear contribution   :     22.83154     -16.83297       3.41161
                        -----------------------------------------
Total Dipole Moment    :      0.84635       0.01915      -2.09687
                        -----------------------------------------
Magnitude (a.u.)       :      2.26132
Magnitude (Debye)      :      5.74781

Rotational constants in cm-1:     0.001217     0.000214     0.000198
Rotational constants in MHz :    36.497361     6.411659     5.943567

                             ****ORCA TERMINATED NORMALLY****
TOTAL RUN TIME: 0 days 0 hours 13 minutes 58 seconds 799 msec
