                         Program Version 4.2.0 -  RELEASE  -
|  1> # ORCA input file
|  2> # SCF done       -202.024980959018          0.000599186353
|  3> ! CAM-B3LYP def2-SVP def2/J RIJCOSX Grid4 TightSCF
|  4> %maxcore 5000
|  5> %tddft
|  6>     Mode sTDDFT
|  7>     Ethresh 5.0
|  8>     maxcore 5000
|  9> end
| 10>
| 11> %pal
| 12>   nprocs 6
| 13>   end
| 14> * xyz 0 1
| 15>    C        7.44415         4.74853        -1.00716
| 16>    C        6.55548         5.63138        -0.45173
| 17>    C        6.40249         5.82584         0.93689
| 18>    N        6.23385         6.02584         2.05407
| 19>    C        5.64844         6.39355        -1.20560
| 20>    N        4.85705         7.01080        -1.76687
| 21>    C        8.26297         3.78725        -0.28755
| 22>    C        8.66566         2.76097        -1.19379
| 23>    C        9.44065         1.71313        -0.78760
| 24>    C        9.86228         1.64989         0.55984
| 25>    C        9.47606         2.68169         1.46488
| 26>    C        8.66647         3.75118         1.02001
| 27>    C        9.91749         2.61197         2.80199
| 28>    C       10.70045         1.57380         3.22791
| 29>    C       11.07778         0.55756         2.33729
| 30>    C       10.66680         0.59436         1.03235
| 31>    C        8.15104         3.06743        -2.53818
| 32>    O        8.21831         2.40384        -3.54594
| 33>    C        7.56319         4.43618        -2.41797
| 34>    C        7.38927         5.18636        -3.52986
| 35>    C        7.21042         6.59780        -3.65502
| 36>    C        7.77395         7.63098        -2.90380
| 37>    N        8.75578         7.56736        -1.90184
| 38>    O        9.09074         8.61816        -1.38085
| 39>    O        9.22864         6.48140        -1.59088
| 40>    C        7.30043         8.89580        -3.39333
| 41>    C        6.39916         8.66307        -4.37494
| 42>    C        6.30464         7.23510        -4.59618
| 43>    C        5.50030         6.65339        -5.56337
| 44>    C        5.73870         5.49852        -6.35263
| 45>    C        4.92580         5.53859        -7.45560
| 46>    C        4.03828         6.64581        -7.34772
| 47>    N        3.14972         7.02158        -8.34497
| 48>    O        2.33466         7.91681        -8.13109
| 49>    O        3.26314         6.47880        -9.43928
| 50>    C        4.30955         7.31881        -6.14555
| 51>    C        3.55098         8.33770        -5.58293
| 52>    C        3.62880         8.82393        -4.29604
| 53>    C        3.05282        10.05075        -3.89925
| 54>    C        2.79896        10.37751        -2.56846
| 55>    C        3.05205         9.55165        -1.36795
| 56>    S        2.03956        11.90380        -2.43300
| 57>    C        2.06314        12.15637        -4.16084
| 58>    C        1.55261        13.43909        -4.70824
| 59>    C        2.63589        11.10073        -4.80872
| 60>    C        2.89392        11.03783        -6.23174
| 61>    C        2.02312        11.41947        -7.18442
| 62>    C        2.25429        11.28797        -8.58563
| 63>    S        1.08423        11.99577        -9.67074
| 64>    C        1.94520        11.48283       -11.09219
| 65>    C        3.05241        10.75314       -10.71856
| 66>    C        3.23536        10.63930        -9.31810
| 67>    C        4.39447         9.78580        -9.04557
| 68>    O        4.94770         9.57269        -7.98953
| 69>    C        4.81629         9.20109       -10.38323
| 70>    C        4.03098         9.94161       -11.44818
| 71>    O        4.18459         9.85114       -12.64221
| 72>    C        1.45006        11.73099       -12.40881
| 73>    C        2.26335        11.94908       -13.46805
| 74>    C        1.91831        11.93288       -14.88129
| 75>    C        0.65894        11.89388       -15.41613
| 76>    C        0.38693        11.87445       -16.80094
| 77>    N        0.09748        11.86367       -17.91138
| 78>    C       -0.53628        11.91012       -14.66675
| 79>    N       -1.54313        11.93163       -14.11559
| 80>    C        3.16723        11.95951       -15.63118
| 81>    C        4.25072        12.14609       -14.72423
| 82>    C        3.72708        12.26008       -13.35639
| 83>    O        4.30287        12.67317       -12.37566
| 84>    C        5.54527        12.21169       -15.15160
| 85>    C        5.82348        12.07808       -16.52980
| 86>    C        4.74621        11.88808       -17.44372
| 87>    C        3.41520        11.83235       -16.97361
| 88>    C        5.03610        11.75905       -18.81793
| 89>    C        6.32628        11.81402       -19.26938
| 90>    C        7.38623        11.99995       -18.36868
| 91>    C        7.14017        12.12871       -17.02878
| 92>    H        9.73524         0.94370        -1.48582
| 93>    H        8.40170         4.53064         1.71743
| 94>    H        9.62331         3.39598         3.48397
| 95>    H       11.03417         1.52992         4.25380
| 96>    H       11.69711        -0.25361         2.68981
| 97>    H       10.95574        -0.18473         0.34216
| 98>    H        7.45880         4.62916        -4.45652
| 99>    H        7.65022         9.83990        -3.02345
|100>    H        5.93062         9.39708        -4.99907
|101>    H        6.52243         4.78304        -6.20524
|102>    H        4.93552         4.85777        -8.28680
|103>    H        2.79269         8.75181        -6.23919
|104>    H        4.09538         8.22334        -3.52489
|105>    H        2.38440         8.68905        -1.34963
|106>    H        2.89185        10.13121        -0.46256
|107>    H        4.06952         9.16231        -1.37116
|108>    H        1.72945        14.24854        -4.00278
|109>    H        0.47794        13.38364        -4.88714
|110>    H        2.04598        13.67062        -5.65008
|111>    H        3.85526        10.63794        -6.52464
|112>    H        1.05223        11.81073        -6.91363
|113>    H        4.54607         8.13949       -10.42722
|114>    H        5.89440         9.25955       -10.53947
|115>    H        0.37539        11.69543       -12.53101
|116>    H        6.34843        12.35370       -14.44423
|117>    H        2.62221        11.68459       -17.68966
|118>    H        4.21688        11.61618       -19.50726
|119>    H        6.53818        11.71407       -20.32337
|120>    H        8.39843        12.04046       -18.74256
|121>    H        7.95217        12.27190       -16.33096
|122> *
|123>
|124>                          ****END OF INPUT****

CARTESIAN COORDINATES (ANGSTROEM)
---------------------------------
  C      7.444150    4.748530   -1.007160
  C      6.555480    5.631380   -0.451730
  C      6.402490    5.825840    0.936890
  N      6.233850    6.025840    2.054070
  C      5.648440    6.393550   -1.205600
  N      4.857050    7.010800   -1.766870
  C      8.262970    3.787250   -0.287550
  C      8.665660    2.760970   -1.193790
  C      9.440650    1.713130   -0.787600
  C      9.862280    1.649890    0.559840
  C      9.476060    2.681690    1.464880
  C      8.666470    3.751180    1.020010
  C      9.917490    2.611970    2.801990
  C     10.700450    1.573800    3.227910
  C     11.077780    0.557560    2.337290
  C     10.666800    0.594360    1.032350
  C      8.151040    3.067430   -2.538180
  O      8.218310    2.403840   -3.545940
  C      7.563190    4.436180   -2.417970
  C      7.389270    5.186360   -3.529860
  C      7.210420    6.597800   -3.655020
  C      7.773950    7.630980   -2.903800
  N      8.755780    7.567360   -1.901840
  O      9.090740    8.618160   -1.380850
  O      9.228640    6.481400   -1.590880
  C      7.300430    8.895800   -3.393330
  C      6.399160    8.663070   -4.374940
  C      6.304640    7.235100   -4.596180
  C      5.500300    6.653390   -5.563370
  C      5.738700    5.498520   -6.352630
  C      4.925800    5.538590   -7.455600
  C      4.038280    6.645810   -7.347720
  N      3.149720    7.021580   -8.344970
  O      2.334660    7.916810   -8.131090
  O      3.263140    6.478800   -9.439280
  C      4.309550    7.318810   -6.145550
  C      3.550980    8.337700   -5.582930
  C      3.628800    8.823930   -4.296040
  C      3.052820   10.050750   -3.899250
  C      2.798960   10.377510   -2.568460
  C      3.052050    9.551650   -1.367950
  S      2.039560   11.903800   -2.433000
  C      2.063140   12.156370   -4.160840
  C      1.552610   13.439090   -4.708240
  C      2.635890   11.100730   -4.808720
  C      2.893920   11.037830   -6.231740
  C      2.023120   11.419470   -7.184420
  C      2.254290   11.287970   -8.585630
  S      1.084230   11.995770   -9.670740
  C      1.945200   11.482830  -11.092190
  C      3.052410   10.753140  -10.718560
  C      3.235360   10.639300   -9.318100
  C      4.394470    9.785800   -9.045570
  O      4.947700    9.572690   -7.989530
  C      4.816290    9.201090  -10.383230
  C      4.030980    9.941610  -11.448180
  O      4.184590    9.851140  -12.642210
  C      1.450060   11.730990  -12.408810
  C      2.263350   11.949080  -13.468050
  C      1.918310   11.932880  -14.881290
  C      0.658940   11.893880  -15.416130
  C      0.386930   11.874450  -16.800940
  N      0.097480   11.863670  -17.911380
  C     -0.536280   11.910120  -14.666750
  N     -1.543130   11.931630  -14.115590
  C      3.167230   11.959510  -15.631180
  C      4.250720   12.146090  -14.724230
  C      3.727080   12.260080  -13.356390
  O      4.302870   12.673170  -12.375660
  C      5.545270   12.211690  -15.151600
  C      5.823480   12.078080  -16.529800
  C      4.746210   11.888080  -17.443720
  C      3.415200   11.832350  -16.973610
  C      5.036100   11.759050  -18.817930
  C      6.326280   11.814020  -19.269380
  C      7.386230   11.999950  -18.368680
  C      7.140170   12.128710  -17.028780
  H      9.735240    0.943700   -1.485820
  H      8.401700    4.530640    1.717430
  H      9.623310    3.395980    3.483970
  H     11.034170    1.529920    4.253800
  H     11.697110   -0.253610    2.689810
  H     10.955740   -0.184730    0.342160
  H      7.458800    4.629160   -4.456520
  H      7.650220    9.839900   -3.023450
  H      5.930620    9.397080   -4.999070
  H      6.522430    4.783040   -6.205240
  H      4.935520    4.857770   -8.286800
  H      2.792690    8.751810   -6.239190
  H      4.095380    8.223340   -3.524890
  H      2.384400    8.689050   -1.349630
  H      2.891850   10.131210   -0.462560
  H      4.069520    9.162310   -1.371160
  H      1.729450   14.248540   -4.002780
  H      0.477940   13.383640   -4.887140
  H      2.045980   13.670620   -5.650080
  H      3.855260   10.637940   -6.524640
  H      1.052230   11.810730   -6.913630
  H      4.546070    8.139490  -10.427220
  H      5.894400    9.259550  -10.539470
  H      0.375390   11.695430  -12.531010
  H      6.348430   12.353700  -14.444230
  H      2.622210   11.684590  -17.689660
  H      4.216880   11.616180  -19.507260
  H      6.538180   11.714070  -20.323370
  H      8.398430   12.040460  -18.742560
  H      7.952170   12.271900  -16.330960

 Total Charge           Charge          ....    0
 Multiplicity           Mult            ....    1
 Number of Electrons    NEL             ....  534
 Basis Dimension        Dim             .... 1236

ORBITAL ENERGIES
----------------

  NO   OCC          E(Eh)            E(eV)
   0   2.0000     -88.981858     -2421.3195
   1   2.0000     -88.976004     -2421.1601
   2   2.0000     -19.243054      -523.6301
   3   2.0000     -19.241960      -523.6003
   4   2.0000     -19.231132      -523.3057
   5   2.0000     -19.228153      -523.2246
   6   2.0000     -19.221093      -523.0325
   7   2.0000     -19.218070      -522.9503
   8   2.0000     -19.217965      -522.9474
   9   2.0000     -19.207576      -522.6647
  10   2.0000     -14.649820      -398.6419
  11   2.0000     -14.638343      -398.3296
  12   2.0000     -14.429612      -392.6497
  13   2.0000     -14.418735      -392.3537
  14   2.0000     -14.415586      -392.2680
  15   2.0000     -14.413019      -392.1982
  16   2.0000     -10.374610      -282.3075
  17   2.0000     -10.369224      -282.1609
  18   2.0000     -10.368628      -282.1447
  19   2.0000     -10.363410      -282.0027
  20   2.0000     -10.347865      -281.5797
  21   2.0000     -10.345911      -281.5265
  22   2.0000     -10.341341      -281.4022
  23   2.0000     -10.339339      -281.3477
  24   2.0000     -10.335792      -281.2512
  25   2.0000     -10.334419      -281.2138
  26   2.0000     -10.333686      -281.1939
  27   2.0000     -10.331062      -281.1225
  28   2.0000     -10.329931      -281.0917
  29   2.0000     -10.327403      -281.0229
  30   2.0000     -10.322505      -280.8896
  31   2.0000     -10.321512      -280.8626
  32   2.0000     -10.317944      -280.7655
  33   2.0000     -10.317936      -280.7653
  34   2.0000     -10.317846      -280.7629
  35   2.0000     -10.317822      -280.7622
  36   2.0000     -10.317442      -280.7519
  37   2.0000     -10.317079      -280.7420
  38   2.0000     -10.315644      -280.7029
  39   2.0000     -10.313586      -280.6469
  40   2.0000     -10.311216      -280.5825
  41   2.0000     -10.306005      -280.4406
  42   2.0000     -10.304811      -280.4082
  43   2.0000     -10.302251      -280.3385
  44   2.0000     -10.301892      -280.3287
  45   2.0000     -10.299688      -280.2688
  46   2.0000     -10.299473      -280.2629
  47   2.0000     -10.299238      -280.2565
  48   2.0000     -10.299139      -280.2538
  49   2.0000     -10.298621      -280.2397
  50   2.0000     -10.297982      -280.2223
  51   2.0000     -10.296710      -280.1877
  52   2.0000     -10.296112      -280.1714
  53   2.0000     -10.294446      -280.1261
  54   2.0000     -10.293767      -280.1076
  55   2.0000     -10.293519      -280.1009
  56   2.0000     -10.293266      -280.0940
  57   2.0000     -10.292994      -280.0866
  58   2.0000     -10.292784      -280.0809
  59   2.0000     -10.291789      -280.0538
  60   2.0000     -10.291572      -280.0479
  61   2.0000     -10.291058      -280.0339
  62   2.0000     -10.288850      -279.9738
  63   2.0000     -10.288025      -279.9514
  64   2.0000     -10.287406      -279.9345
  65   2.0000     -10.287204      -279.9290
  66   2.0000     -10.286705      -279.9155
  67   2.0000     -10.285069      -279.8710
  68   2.0000     -10.283525      -279.8289
  69   2.0000     -10.283049      -279.8160
  70   2.0000     -10.282293      -279.7954
  71   2.0000     -10.282182      -279.7924
  72   2.0000     -10.282148      -279.7915
  73   2.0000     -10.281913      -279.7851
  74   2.0000     -10.281709      -279.7795
  75   2.0000     -10.280867      -279.7566
  76   2.0000     -10.277755      -279.6719
  77   2.0000      -8.077449      -219.7986
  78   2.0000      -8.072532      -219.6648
  79   2.0000      -6.046549      -164.5350
  80   2.0000      -6.042320      -164.4199
  81   2.0000      -6.041399      -164.3948
  82   2.0000      -6.039955      -164.3555
  83   2.0000      -6.037342      -164.2844
  84   2.0000      -6.035200      -164.2261
  85   2.0000      -1.319950       -35.9177
  86   2.0000      -1.305349       -35.5204
  87   2.0000      -1.138790       -30.9881
  88   2.0000      -1.136498       -30.9257
  89   2.0000      -1.134559       -30.8729
  90   2.0000      -1.132950       -30.8291
  91   2.0000      -1.121961       -30.5301
  92   2.0000      -1.120544       -30.4915
  93   2.0000      -1.027605       -27.9626
  94   2.0000      -1.016697       -27.6657
  95   2.0000      -1.014368       -27.6023
  96   2.0000      -1.011963       -27.5369
  97   2.0000      -1.007361       -27.4117
  98   2.0000      -1.005873       -27.3712
  99   2.0000      -0.999513       -27.1981
 100   2.0000      -0.995371       -27.0854
 101   2.0000      -0.993237       -27.0274
 102   2.0000      -0.992296       -27.0018
 103   2.0000      -0.973657       -26.4946
 104   2.0000      -0.968024       -26.3413
 105   2.0000      -0.930059       -25.3082
 106   2.0000      -0.927736       -25.2450
 107   2.0000      -0.926872       -25.2215
 108   2.0000      -0.923228       -25.1223
 109   2.0000      -0.917060       -24.9545
 110   2.0000      -0.909467       -24.7479
 111   2.0000      -0.906392       -24.6642
 112   2.0000      -0.901563       -24.5328
 113   2.0000      -0.884754       -24.0754
 114   2.0000      -0.883592       -24.0438
 115   2.0000      -0.881443       -23.9853
 116   2.0000      -0.877068       -23.8662
 117   2.0000      -0.876324       -23.8460
 118   2.0000      -0.870664       -23.6920
 119   2.0000      -0.854875       -23.2623
 120   2.0000      -0.831208       -22.6183
 121   2.0000      -0.830608       -22.6020
 122   2.0000      -0.825206       -22.4550
 123   2.0000      -0.824424       -22.4337
 124   2.0000      -0.824074       -22.4242
 125   2.0000      -0.823269       -22.4023
 126   2.0000      -0.809620       -22.0309
 127   2.0000      -0.795020       -21.6336
 128   2.0000      -0.780618       -21.2417
 129   2.0000      -0.775725       -21.1085
 130   2.0000      -0.762006       -20.7352
 131   2.0000      -0.758004       -20.6263
 132   2.0000      -0.757833       -20.6217
 133   2.0000      -0.730821       -19.8867
 134   2.0000      -0.727944       -19.8084
 135   2.0000      -0.718162       -19.5422
 136   2.0000      -0.716873       -19.5071
 137   2.0000      -0.704725       -19.1765
 138   2.0000      -0.702134       -19.1060
 139   2.0000      -0.699908       -19.0455
 140   2.0000      -0.698123       -18.9969
 141   2.0000      -0.695536       -18.9265
 142   2.0000      -0.693806       -18.8794
 143   2.0000      -0.682756       -18.5787
 144   2.0000      -0.681754       -18.5515
 145   2.0000      -0.671873       -18.2826
 146   2.0000      -0.669837       -18.2272
 147   2.0000      -0.657137       -17.8816
 148   2.0000      -0.647512       -17.6197
 149   2.0000      -0.644136       -17.5278
 150   2.0000      -0.643552       -17.5119
 151   2.0000      -0.638665       -17.3790
 152   2.0000      -0.634355       -17.2617
 153   2.0000      -0.631320       -17.1791
 154   2.0000      -0.630384       -17.1536
 155   2.0000      -0.625063       -17.0088
 156   2.0000      -0.622918       -16.9505
 157   2.0000      -0.618270       -16.8240
 158   2.0000      -0.612481       -16.6664
 159   2.0000      -0.610064       -16.6007
 160   2.0000      -0.607863       -16.5408
 161   2.0000      -0.603368       -16.4185
 162   2.0000      -0.598455       -16.2848
 163   2.0000      -0.594335       -16.1727
 164   2.0000      -0.591133       -16.0855
 165   2.0000      -0.582948       -15.8628
 166   2.0000      -0.576306       -15.6821
 167   2.0000      -0.575725       -15.6663
 168   2.0000      -0.574165       -15.6238
 169   2.0000      -0.564560       -15.3625
 170   2.0000      -0.560975       -15.2649
 171   2.0000      -0.557079       -15.1589
 172   2.0000      -0.554334       -15.0842
 173   2.0000      -0.549233       -14.9454
 174   2.0000      -0.548792       -14.9334
 175   2.0000      -0.547979       -14.9113
 176   2.0000      -0.546495       -14.8709
 177   2.0000      -0.542982       -14.7753
 178   2.0000      -0.541924       -14.7465
 179   2.0000      -0.540267       -14.7014
 180   2.0000      -0.535861       -14.5815
 181   2.0000      -0.532895       -14.5008
 182   2.0000      -0.530319       -14.4307
 183   2.0000      -0.528876       -14.3915
 184   2.0000      -0.527227       -14.3466
 185   2.0000      -0.524958       -14.2848
 186   2.0000      -0.519753       -14.1432
 187   2.0000      -0.518509       -14.1094
 188   2.0000      -0.516763       -14.0618
 189   2.0000      -0.515030       -14.0147
 190   2.0000      -0.514610       -14.0033
 191   2.0000      -0.513632       -13.9766
 192   2.0000      -0.512284       -13.9400
 193   2.0000      -0.509609       -13.8672
 194   2.0000      -0.507946       -13.8219
 195   2.0000      -0.507766       -13.8170
 196   2.0000      -0.505207       -13.7474
 197   2.0000      -0.503768       -13.7082
 198   2.0000      -0.500808       -13.6277
 199   2.0000      -0.498270       -13.5586
 200   2.0000      -0.497226       -13.5302
 201   2.0000      -0.495363       -13.4795
 202   2.0000      -0.494690       -13.4612
 203   2.0000      -0.489570       -13.3219
 204   2.0000      -0.487851       -13.2751
 205   2.0000      -0.485466       -13.2102
 206   2.0000      -0.484142       -13.1742
 207   2.0000      -0.483663       -13.1611
 208   2.0000      -0.479137       -13.0380
 209   2.0000      -0.475907       -12.9501
 210   2.0000      -0.473250       -12.8778
 211   2.0000      -0.471192       -12.8218
 212   2.0000      -0.470915       -12.8143
 213   2.0000      -0.466138       -12.6842
 214   2.0000      -0.463803       -12.6207
 215   2.0000      -0.460715       -12.5367
 216   2.0000      -0.458139       -12.4666
 217   2.0000      -0.452598       -12.3158
 218   2.0000      -0.449199       -12.2233
 219   2.0000      -0.447903       -12.1881
 220   2.0000      -0.445970       -12.1355
 221   2.0000      -0.443440       -12.0666
 222   2.0000      -0.442434       -12.0392
 223   2.0000      -0.440434       -11.9848
 224   2.0000      -0.438734       -11.9386
 225   2.0000      -0.437085       -11.8937
 226   2.0000      -0.436830       -11.8868
 227   2.0000      -0.435745       -11.8572
 228   2.0000      -0.432029       -11.7561
 229   2.0000      -0.431114       -11.7312
 230   2.0000      -0.430315       -11.7095
 231   2.0000      -0.428643       -11.6640
 232   2.0000      -0.426642       -11.6095
 233   2.0000      -0.424996       -11.5647
 234   2.0000      -0.421078       -11.4581
 235   2.0000      -0.417559       -11.3624
 236   2.0000      -0.416397       -11.3307
 237   2.0000      -0.410249       -11.1634
 238   2.0000      -0.407946       -11.1008
 239   2.0000      -0.405097       -11.0232
 240   2.0000      -0.394280       -10.7289
 241   2.0000      -0.390827       -10.6349
 242   2.0000      -0.389193       -10.5905
 243   2.0000      -0.382310       -10.4032
 244   2.0000      -0.379544       -10.3279
 245   2.0000      -0.377581       -10.2745
 246   2.0000      -0.372580       -10.1384
 247   2.0000      -0.370470       -10.0810
 248   2.0000      -0.363000        -9.8777
 249   2.0000      -0.357367        -9.7244
 250   2.0000      -0.356338        -9.6964
 251   2.0000      -0.353823        -9.6280
 252   2.0000      -0.349074        -9.4988
 253   2.0000      -0.343823        -9.3559
 254   2.0000      -0.338265        -9.2047
 255   2.0000      -0.335577        -9.1315
 256   2.0000      -0.332692        -9.0530
 257   2.0000      -0.329169        -8.9572
 258   2.0000      -0.325412        -8.8549
 259   2.0000      -0.318071        -8.6552
 260   2.0000      -0.316184        -8.6038
 261   2.0000      -0.309468        -8.4211
 262   2.0000      -0.299365        -8.1461
 263   2.0000      -0.293155        -7.9772
 264   2.0000      -0.290273        -7.8987
 265   2.0000      -0.273204        -7.4343
 266   2.0000      -0.261898        -7.1266
 267   0.0000      -0.133528        -3.6335
 268   0.0000      -0.097265        -2.6467
 269   0.0000      -0.091941        -2.5019
 270   0.0000      -0.059262        -1.6126
 271   0.0000      -0.055618        -1.5134

MULLIKEN ATOMIC CHARGES
-----------------------
   0 C :    0.310517
   1 C :   -0.359270
   2 C :   -0.186825
   3 N :    0.163911
   4 C :   -0.154908
   5 N :    0.156656
   6 C :    0.035057
   7 C :    0.023717
   8 C :   -0.084970
   9 C :    0.096563
  10 C :    0.092158
  11 C :   -0.071144
  12 C :   -0.016237
  13 C :    0.037822
  14 C :    0.037199
  15 C :   -0.015545
  16 C :    0.133990
  17 O :   -0.141605
  18 C :   -0.089336
  19 C :   -0.003584
  20 C :    0.039401
  21 C :    0.050923
  22 N :    0.271543
  23 O :   -0.234827
  24 O :   -0.255492
  25 C :    0.000199
  26 C :    0.028055
  27 C :    0.010419
  28 C :    0.072323
  29 C :   -0.032350
  30 C :    0.033921
  31 C :    0.056814
  32 N :    0.278243
  33 O :   -0.271083
  34 O :   -0.276407
  35 C :    0.087378
  36 C :   -0.085668
  37 C :   -0.000762
  38 C :    0.109561
  39 C :   -0.277216
  40 C :    0.136446
  41 S :    0.156680
  42 C :   -0.307297
  43 C :    0.114845
  44 C :    0.115646
  45 C :   -0.072659
  46 C :    0.051756
  47 C :   -0.132427
  48 S :    0.187671
  49 C :   -0.146505
  50 C :    0.067096
  51 C :    0.041494
  52 C :    0.028981
  53 O :   -0.182078
  54 C :    0.055259
  55 C :    0.053421
  56 O :   -0.160546
  57 C :   -0.007029
  58 C :   -0.052380
  59 C :    0.303492
  60 C :   -0.340086
  61 C :   -0.184079
  62 N :    0.151724
  63 C :   -0.188074
  64 N :    0.151801
  65 C :    0.056027
  66 C :    0.024039
  67 C :    0.145054
  68 O :   -0.151856
  69 C :   -0.072600
  70 C :    0.094471
  71 C :    0.096538
  72 C :   -0.086259
  73 C :   -0.018213
  74 C :    0.034310
  75 C :    0.036320
  76 C :   -0.015439
  77 H :   -0.011322
  78 H :   -0.001793
  79 H :   -0.009561
  80 H :   -0.004089
  81 H :   -0.004344
  82 H :   -0.016197
  83 H :    0.016129
  84 H :   -0.007554
  85 H :    0.006657
  86 H :   -0.010226
  87 H :    0.009301
  88 H :    0.056296
  89 H :    0.028562
  90 H :    0.052761
  91 H :    0.016906
  92 H :    0.062196
  93 H :    0.025358
  94 H :    0.046101
  95 H :    0.041586
  96 H :    0.057600
  97 H :   -0.015644
  98 H :    0.085236
  99 H :    0.055604
 100 H :    0.028721
 101 H :   -0.015854
 102 H :   -0.008219
 103 H :   -0.009325
 104 H :   -0.005276
 105 H :   -0.006551
 106 H :   -0.017743
Sum of atomic charges:   -0.0000000

LOEWDIN ATOMIC CHARGES
----------------------
   0 C :    0.088461
   1 C :   -0.147630
   2 C :   -0.019956
   3 N :   -0.049921
   4 C :    0.013531
   5 N :   -0.062858
   6 C :   -0.018016
   7 C :   -0.052574
   8 C :    0.033296
   9 C :   -0.006222
  10 C :   -0.004456
  11 C :    0.026912
  12 C :   -0.004380
  13 C :   -0.011972
  14 C :   -0.010883
  15 C :   -0.009085
  16 C :    0.087368
  17 O :   -0.139858
  18 C :   -0.064470
  19 C :    0.056424
  20 C :   -0.031659
  21 C :   -0.025225
  22 N :    0.285566
  23 O :   -0.199943
  24 O :   -0.210709
  25 C :   -0.032991
  26 C :   -0.010531
  27 C :    0.016155
  28 C :    0.065120
  29 C :   -0.069484
  30 C :    0.059589
  31 C :   -0.097866
  32 N :    0.292469
  33 O :   -0.234627
  34 O :   -0.241188
  35 C :    0.050695
  36 C :   -0.019634
  37 C :    0.078229
  38 C :   -0.082237
  39 C :   -0.125128
  40 C :   -0.060235
  41 S :    0.468483
  42 C :   -0.165293
  43 C :   -0.062242
  44 C :   -0.058133
  45 C :    0.012981
  46 C :   -0.050726
  47 C :   -0.117243
  48 S :    0.489989
  49 C :   -0.151474
  50 C :   -0.062846
  51 C :   -0.087659
  52 C :    0.088515
  53 O :   -0.148586
  54 C :   -0.067516
  55 C :    0.095060
  56 O :   -0.126053
  57 C :    0.033301
  58 C :   -0.055610
  59 C :    0.078471
  60 C :   -0.133680
  61 C :   -0.017301
  62 N :   -0.050634
  63 C :   -0.018415
  64 N :   -0.050253
  65 C :   -0.022201
  66 C :   -0.044506
  67 C :    0.087727
  68 O :   -0.144822
  69 C :    0.034263
  70 C :   -0.005797
  71 C :   -0.005655
  72 C :    0.019767
  73 C :   -0.005238
  74 C :   -0.014715
  75 C :   -0.012361
  76 C :   -0.009987
  77 H :    0.039839
  78 H :    0.040684
  79 H :    0.034918
  80 H :    0.033575
  81 H :    0.033197
  82 H :    0.032315
  83 H :    0.043845
  84 H :    0.034098
  85 H :    0.035195
  86 H :    0.029046
  87 H :    0.041111
  88 H :    0.043855
  89 H :    0.039877
  90 H :    0.051027
  91 H :    0.034195
  92 H :    0.046379
  93 H :    0.035165
  94 H :    0.040813
  95 H :    0.042497
  96 H :    0.034997
  97 H :    0.028502
  98 H :    0.065320
  99 H :    0.056372
 100 H :    0.045255
 101 H :    0.038411
 102 H :    0.038639
 103 H :    0.034516
 104 H :    0.032824
 105 H :    0.032258
 106 H :    0.031584

  Mayer bond orders larger than 0.100000
B(  0-C ,  1-C ) :   1.6555 B(  0-C ,  6-C ) :   1.0137 B(  0-C , 18-C ) :   0.9932
B(  1-C ,  2-C ) :   1.1294 B(  1-C ,  4-C ) :   1.1800 B(  2-C ,  3-N ) :   2.9997
B(  4-C ,  5-N ) :   2.9154 B(  5-N , 89-H ) :   0.1040 B(  6-C ,  7-C ) :   1.2098
B(  6-C , 11-C ) :   1.4548 B(  7-C ,  8-C ) :   1.4705 B(  7-C , 16-C ) :   0.9238
B(  8-C ,  9-C ) :   1.1873 B(  8-C , 77-H ) :   1.0150 B(  9-C , 10-C ) :   1.2524
B(  9-C , 15-C ) :   1.2454 B( 10-C , 11-C ) :   1.2095 B( 10-C , 12-C ) :   1.2390
B( 11-C , 78-H ) :   0.9934 B( 12-C , 13-C ) :   1.4916 B( 12-C , 79-H ) :   0.9970
B( 13-C , 14-C ) :   1.2593 B( 13-C , 80-H ) :   0.9883 B( 14-C , 15-C ) :   1.4897
B( 14-C , 81-H ) :   0.9886 B( 15-C , 82-H ) :   0.9971 B( 16-C , 17-O ) :   2.2589
B( 16-C , 18-C ) :   0.9338 B( 18-C , 19-C ) :   1.7724 B( 19-C , 20-C ) :   1.0327
B( 19-C , 83-H ) :   0.9309 B( 20-C , 21-C ) :   1.4544 B( 20-C , 27-C ) :   1.1376
B( 21-C , 22-N ) :   0.9464 B( 21-C , 25-C ) :   1.1801 B( 22-N , 23-O ) :   1.5408
B( 22-N , 24-O ) :   1.4816 B( 23-O , 24-O ) :   0.2591 B( 25-C , 26-C ) :   1.5480
B( 25-C , 84-H ) :   1.0146 B( 26-C , 27-C ) :   1.1324 B( 26-C , 85-H ) :   0.9773
B( 27-C , 28-C ) :   1.3984 B( 28-C , 29-C ) :   1.2028 B( 28-C , 35-C ) :   1.0014
B( 29-C , 30-C ) :   1.4756 B( 29-C , 86-H ) :   1.0123 B( 30-C , 31-C ) :   1.1823
B( 30-C , 87-H ) :   1.0079 B( 31-C , 32-N ) :   1.0118 B( 31-C , 35-C ) :   1.3503
B( 32-N , 33-O ) :   1.4502 B( 32-N , 34-O ) :   1.4766 B( 33-O , 34-O ) :   0.2165
B( 35-C , 36-C ) :   1.3504 B( 36-C , 37-C ) :   1.3779 B( 36-C , 88-H ) :   0.9279
B( 37-C , 38-C ) :   1.2325 B( 37-C , 89-H ) :   0.9197 B( 38-C , 39-C ) :   1.3917
B( 38-C , 44-C ) :   1.1494 B( 39-C , 40-C ) :   1.1148 B( 39-C , 41-S ) :   1.2147
B( 40-C , 90-H ) :   0.9370 B( 40-C , 91-H ) :   0.9354 B( 40-C , 92-H ) :   0.9275
B( 41-S , 42-C ) :   1.1020 B( 42-C , 43-C ) :   1.0886 B( 42-C , 44-C ) :   1.6083
B( 43-C , 93-H ) :   0.9434 B( 43-C , 94-H ) :   0.9439 B( 43-C , 95-H ) :   0.9457
B( 44-C , 45-C ) :   1.0401 B( 45-C , 46-C ) :   1.7392 B( 45-C , 96-H ) :   0.9229
B( 46-C , 47-C ) :   1.1243 B( 46-C , 97-H ) :   0.9546 B( 47-C , 48-S ) :   1.1644
B( 47-C , 51-C ) :   1.4482 B( 48-S , 49-C ) :   1.1349 B( 49-C , 50-C ) :   1.4947
B( 49-C , 57-C ) :   1.0834 B( 50-C , 51-C ) :   1.2414 B( 50-C , 55-C ) :   0.9399
B( 51-C , 52-C ) :   0.9459 B( 52-C , 53-O ) :   2.0977 B( 52-C , 54-C ) :   1.0150
B( 54-C , 55-C ) :   1.0045 B( 54-C , 98-H ) :   0.8661 B( 54-C , 99-H ) :   0.9008
B( 55-C , 56-O ) :   2.1612 B( 57-C , 58-C ) :   1.7135 B( 57-C ,100-H ) :   0.9291
B( 58-C , 59-C ) :   1.0674 B( 58-C , 67-C ) :   0.8975 B( 59-C , 60-C ) :   1.6420
B( 59-C , 65-C ) :   1.0035 B( 60-C , 61-C ) :   1.1415 B( 60-C , 63-C ) :   1.1405
B( 61-C , 62-N ) :   2.9689 B( 63-C , 64-N ) :   2.9708 B( 65-C , 66-C ) :   1.2177
B( 65-C , 72-C ) :   1.4382 B( 66-C , 67-C ) :   0.9321 B( 66-C , 69-C ) :   1.4757
B( 67-C , 68-O ) :   2.2424 B( 69-C , 70-C ) :   1.1884 B( 69-C ,101-H ) :   1.0136
B( 70-C , 71-C ) :   1.2506 B( 70-C , 76-C ) :   1.2424 B( 71-C , 72-C ) :   1.2179
B( 71-C , 73-C ) :   1.2370 B( 72-C ,102-H ) :   0.9883 B( 73-C , 74-C ) :   1.4949
B( 73-C ,103-H ) :   0.9964 B( 74-C , 75-C ) :   1.2549 B( 74-C ,104-H ) :   0.9886
B( 75-C , 76-C ) :   1.4934 B( 75-C ,105-H ) :   0.9890 B( 76-C ,106-H ) :   0.9968

-----------------------------------------------------------------------------
         ABSORPTION SPECTRUM VIA TRANSITION ELECTRIC DIPOLE MOMENTS
-----------------------------------------------------------------------------
State   Energy  Wavelength   fosc         T2         TX        TY        TZ
        (cm-1)    (nm)                  (au**2)     (au)      (au)      (au)
-----------------------------------------------------------------------------
   0    9065.2   1103.1   0.160406555   5.82535  -1.67198   1.57071  -0.75013
   1   15337.6    652.0   0.065290764   1.40143  -0.21672  -0.46607   1.06642
   2   15734.5    635.5   0.032424133   0.67841   0.75119  -0.18339   0.28371
   3   20195.5    495.2   0.147080219   2.39759  -0.35521   0.27264  -1.48226
   4   20767.4    481.5   0.017620102   0.27932  -0.15888   0.17589   0.47238
   5   20902.0    478.4   0.565792399   8.91138   0.47651  -0.67017   2.86970
   6   22979.2    435.2   0.099340937   1.42321   0.47986  -0.76444  -0.78011
   7   23353.5    428.2   0.026393482   0.37207   0.06170  -0.60659   0.01752
   8   23934.5    417.8   0.010412853   0.14323   0.05404   0.19859   0.31760
   9   24047.2    415.8   0.073197625   1.00209   0.12521  -0.95226   0.28214
  10   24317.1    411.2   0.056476085   0.76459   0.25919  -0.61377  -0.56630
  11   24806.1    403.1   0.027842893   0.36951  -0.52100  -0.00563  -0.31311
  12   25075.3    398.8   0.024086185   0.31623  -0.35310   0.42430  -0.10732
  13   25525.5    391.8   0.022604586   0.29154  -0.53416  -0.07471  -0.02523
  14   26008.9    384.5   0.058634276   0.74217   0.05071  -0.39254   0.76519
  15   26372.8    379.2   0.135758286   1.69467  -0.26960  -0.07180   1.27155
  16   26745.6    373.9   0.055185649   0.67928   0.44137   0.11748   0.68606
  17   26944.8    371.1   0.008273559   0.10109  -0.25308  -0.12927  -0.14258
  18   27073.0    369.4   0.024229132   0.29463   0.23121   0.07413  -0.48546
  19   27420.0    364.7   0.082259505   0.98763  -0.73149   0.15483  -0.65467
  20   27605.3    362.2   0.267664592   3.19208  -0.50850  -0.66386  -1.57886
  21   28491.8    351.0   0.118138797   1.36505  -0.55613   0.19474   1.00888
  22   28551.4    350.2   0.067631509   0.77982   0.00953  -0.82957   0.30256
  23   28684.1    348.6   0.102219877   1.17319   0.46378  -0.08628   0.97502
  24   28910.7    345.9   0.551989094   6.28560   1.88119  -0.57192   1.55551
  25   29206.7    342.4   0.056769752   0.63990   0.44897  -0.27425   0.60258
  26   29703.7    336.7   0.066555794   0.73765  -0.84678  -0.06648   0.12727
  27   30186.0    331.3   0.068151260   0.74326   0.03242   0.28591  -0.81269
  28   30441.9    328.5   0.043935166   0.47513  -0.26954  -0.39216   0.49869
  29   30719.4    325.5   0.099798947   1.06952  -0.04724  -0.16766  -1.01940
  30   30891.8    323.7   0.169914724   1.81077   0.03682   0.58841   1.20962
  31   31123.9    321.3   0.205374028   2.17234  -0.50244   0.64626   1.22566
  32   31434.1    318.1   0.049563287   0.51908  -0.09657  -0.22092  -0.67893
  33   32038.5    312.1   0.049119544   0.50473  -0.06697  -0.69184  -0.14699
  34   32115.1    311.4   0.008935008   0.09159  -0.09503   0.22733   0.17573
  35   32603.2    306.7   0.000445116   0.00449   0.00006   0.05980  -0.03032
  36   32689.1    305.9   0.026714076   0.26904  -0.49533   0.10694  -0.11069
  37   32728.6    305.5   0.025196181   0.25344  -0.19061   0.25731   0.38846
  38   32962.4    303.4   0.094455795   0.94338   0.37495  -0.33299  -0.83181
  39   33108.5    302.0   0.027738965   0.27582   0.15837  -0.24041   0.43925
  40   33152.0    301.6   0.346381802   3.43971   1.68926   0.03133  -0.76493
  41   33221.9    301.0   0.145003765   1.43691  -1.14731  -0.34704   0.01255
  42   33530.4    298.2   0.191732285   1.88249  -0.32136   0.09128   1.33074
  43   33827.4    295.6   0.058886052   0.57309   0.27731   0.20144   0.67499
  44   34091.5    293.3   0.081398642   0.78604   0.74410  -0.39924   0.27012
  45   34218.0    292.2   0.408333599   3.92859   1.46591  -1.33172  -0.07885
  46   34344.3    291.2   0.196443958   1.88304  -0.25019   0.93672  -0.97108
  47   34560.7    289.3   0.040811016   0.38875  -0.36015  -0.24026   0.44869
  48   34721.5    288.0   0.077233916   0.73229  -0.34286   0.31675  -0.71722
  49   34792.9    287.4   0.175625011   1.66177   0.91182  -0.44924  -0.79280
  50   34999.9    285.7   0.103359124   0.97220  -0.44517   0.82366  -0.30922
  51   35179.9    284.3   0.040622637   0.38015   0.37978  -0.43384   0.21839
  52   35332.3    283.0   0.057883725   0.53934   0.72602   0.00237   0.11060
  53   35416.1    282.4   0.004799886   0.04462  -0.10722   0.17592  -0.04664
  54   35489.2    281.8   0.146116194   1.35543  -0.07355  -0.73635  -0.89878
  55   35974.0    278.0   0.010196647   0.09331   0.06330   0.15679   0.25441
  56   36012.6    277.7   0.002861928   0.02616   0.07482   0.13225   0.05545
  57   36069.1    277.2   0.025068569   0.22881   0.22080   0.26073   0.33477
  58   36593.3    273.3   0.070940118   0.63821   0.48409   0.49232   0.40186
  59   36973.1    270.5   0.015890514   0.14149  -0.17237  -0.26542  -0.20330
  60   37179.6    269.0   0.000555015   0.00491  -0.01877   0.06595  -0.01460
  61   37474.8    266.8   0.046945649   0.41241   0.50417   0.22795  -0.32598
  62   37516.8    266.5   0.014148554   0.12415   0.33634  -0.05051   0.09209
  63   37894.6    263.9   0.041956235   0.36450  -0.04079   0.60215  -0.01583
  64   38259.6    261.4   0.055066944   0.47383   0.01817   0.44715   0.52303
  65   38383.9    260.5   0.232050616   1.99026  -0.83682   1.09909  -0.28635
  66   38560.6    259.3   0.038686169   0.33028   0.36393  -0.26803  -0.35496
  67   38793.9    257.8   0.036943219   0.31351   0.09510   0.12417  -0.53763
  68   38812.4    257.6   0.146759731   1.24484  -0.95411   0.55560  -0.16065
  69   38895.7    257.1   0.084400873   0.71437  -0.66897   0.27589  -0.43672
  70   39165.0    255.3   0.024013240   0.20185  -0.26232  -0.28031  -0.23338
  71   39225.2    254.9   0.054494919   0.45737   0.22001  -0.53366   0.35238
  72   39406.0    253.8   0.037929733   0.31688  -0.53794   0.05494  -0.15647
  73   39598.9    252.5   0.017508485   0.14556  -0.35506  -0.04257  -0.13297
  74   39660.5    252.1   0.021769192   0.18070   0.41991   0.01247   0.06498
  75   39718.7    251.8   0.124624342   1.03296  -0.80222  -0.05679  -0.62143
  76   39959.4    250.3   0.019165537   0.15790   0.24484   0.03889   0.31055

FINAL SINGLE POINT ENERGY     -4064.541864454097

DIPOLE MOMENT
-------------
                                X             Y             Z
Electronic contribution:    -15.15271       3.72478     -11.84530
Nuclear contribution   :     17.20837      -3.90897      13.83954
                        -----------------------------------------
Total Dipole Moment    :      2.05565      -0.18419       1.99424
                        -----------------------------------------
Magnitude (a.u.)       :      2.86996
Magnitude (Debye)      :      7.29485

Rotational constants in cm-1:     0.001738     0.000315     0.000285
Rotational constants in MHz :    52.091354     9.434600     8.542349

                             ****ORCA TERMINATED NORMALLY****
TOTAL RUN TIME: 0 days 0 hours 12 minutes 50 seconds 699 msec
