                         Program Version 4.2.0 -  RELEASE  -
|  1> # ORCA input file
|  2> # SCF done       -187.334377982180          0.000550823363
|  3> ! CAM-B3LYP def2-SVP def2/J RIJCOSX Grid4 TightSCF
|  4> %maxcore 5000
|  5> %tddft
|  6>     Mode sTDDFT
|  7>     Ethresh 5.0
|  8>     maxcore 5000
|  9> end
| 10>
| 11> %pal
| 12>   nprocs 6
| 13>   end
| 14> * xyz 0 1
| 15>    C       -1.65265        -0.75428        -0.00125
| 16>    C       -1.44086        -1.46052        -1.15762
| 17>    C       -1.06294        -2.81934        -1.19483
| 18>    N       -0.75409        -3.92025        -1.29916
| 19>    C       -1.56693        -0.95883        -2.46948
| 20>    N       -1.65059        -0.63145        -3.56769
| 21>    C       -1.52065        -1.29470         1.34877
| 22>    C       -1.83205        -0.26538         2.28265
| 23>    C       -1.79118        -0.47236         3.63107
| 24>    C       -1.43020        -1.74769         4.12016
| 25>    C       -1.12019        -2.78499         3.19435
| 26>    C       -1.17045        -2.53852         1.80244
| 27>    C       -0.76363        -4.05443         3.69235
| 28>    C       -0.71394        -4.28945         5.03971
| 29>    C       -1.01777        -3.26674         5.95027
| 30>    C       -1.36858        -2.02267         5.50017
| 31>    C       -2.17680         0.96039         1.54989
| 32>    O       -2.50450         2.02823         2.04033
| 33>    C       -2.04756         0.63755         0.12217
| 34>    C       -2.25336         1.51056        -0.91345
| 35>    C       -2.63493         2.86294        -0.89634
| 36>    S       -2.99088         3.85268         0.49893
| 37>    C       -3.33043         5.23007        -0.49464
| 38>    C       -3.16924         4.92646        -1.85764
| 39>    C       -2.78304         3.60359        -2.06480
| 40>    C       -3.36046         5.81968        -2.92490
| 41>    N       -3.50558         6.52286        -3.82112
| 42>    C       -3.71094         6.43827         0.13990
| 43>    C       -3.96456         7.61269        -0.48869
| 44>    C       -4.34949         8.83346         0.13357
| 45>    C       -4.23001        10.10475        -0.44162
| 46>    C       -3.73715        10.38621        -1.81174
| 47>    C       -4.65669        11.11074         0.49104
| 48>    C       -5.08462        10.42420         1.63135
| 49>    C       -4.91219         8.99879         1.44595
| 50>    C       -5.36483         8.16954         2.44111
| 51>    C       -5.90691         8.76013         3.60236
| 52>    C       -5.98885        10.11810         3.70461
| 53>    O       -5.60039        10.94579         2.74379
| 54>    C       -4.67525        12.53178         0.42651
| 55>    C       -4.16197        13.34463        -0.53313
| 56>    C       -4.19409        14.75936        -0.47438
| 57>    C       -3.62063        15.61546        -1.39380
| 58>    C       -3.82066        16.95700        -0.98580
| 59>    C       -4.59111        16.88663         0.27669
| 60>    C       -4.80438        15.57940         0.56740
| 61>    C       -5.02975        17.95549         1.06517
| 62>    N       -5.40768        18.79744         1.74988
| 63>    C       -3.37096        18.10572        -1.60001
| 64>    C       -3.52857        19.44977        -1.14970
| 65>    C       -2.84045        20.29467        -1.99639
| 66>    C       -2.27844        19.49055        -3.06900
| 67>    C       -2.59210        18.18561        -2.84254
| 68>    C       -2.24615        17.12165        -3.68190
| 69>    N       -1.95735        16.26352        -4.38964
| 70>    C       -2.74339        21.70256        -1.83200
| 71>    C       -1.70276        22.49394        -2.21753
| 72>    C       -1.64840        23.94312        -2.15272
| 73>    C       -2.71389        24.78749        -1.97838
| 74>    C       -2.60905        26.19353        -1.94339
| 75>    N       -2.58712        27.34065        -1.90102
| 76>    C       -4.05759        24.37777        -1.84695
| 77>    N       -5.17399        24.12396        -1.75775
| 78>    C       -0.26956        24.35013        -2.39382
| 79>    C        0.50725        23.18661        -2.65950
| 80>    C       -0.34622        21.98992        -2.56640
| 81>    O        0.01248        20.83657        -2.66857
| 82>    C        1.84318        23.25586        -2.93092
| 83>    C        2.47695        24.51827        -2.95032
| 84>    C        1.70921        25.68718        -2.67741
| 85>    C        0.32704        25.58341        -2.39861
| 86>    C        2.35399        26.94080        -2.69159
| 87>    C        3.69146        27.03720        -2.96401
| 88>    C        4.44581        25.88568        -3.23438
| 89>    C        3.85136        24.65303        -3.22805
| 90>    H       -2.03081         0.32715         4.31647
| 91>    H       -0.92791        -3.34600         1.13047
| 92>    H       -0.53021        -4.83881         2.98745
| 93>    H       -0.43977        -5.26546         5.41110
| 94>    H       -0.97267        -3.46919         7.00993
| 95>    H       -1.60381        -1.23099         6.19659
| 96>    H       -2.10323         1.12933        -1.91626
| 97>    H       -2.61171         3.18354        -3.04131
| 98>    H       -3.75193         6.37845         1.21764
| 99>    H       -3.83209         7.65024        -1.55960
|100>    H       -3.65946         9.47951        -2.40426
|101>    H       -2.74944        10.84677        -1.77129
|102>    H       -4.41220        11.07397        -2.31854
|103>    H       -5.33628         7.09556         2.36153
|104>    H       -6.25978         8.14437         4.41155
|105>    H       -6.38693        10.63410         4.56534
|106>    H       -5.13804        12.99157         1.29095
|107>    H       -3.66312        12.93342        -1.39591
|108>    H       -3.09163        15.31843        -2.27778
|109>    H       -5.33733        15.20947         1.42351
|110>    H       -4.04968        19.74431        -0.25922
|111>    H       -1.74990        19.87309        -3.91985
|112>    H       -3.57182        22.15923        -1.30283
|113>    H        2.40907        22.35769        -3.12953
|114>    H       -0.22493        26.48600        -2.18943
|115>    H        1.76888        27.82472        -2.48407
|116>    H        4.17593        28.00208        -2.97283
|117>    H        5.50017        25.98012        -3.44724
|118>    H        4.42679        23.76252        -3.43497
|119> *
|120>
|121>                          ****END OF INPUT****

CARTESIAN COORDINATES (ANGSTROEM)
---------------------------------
  C     -1.652650   -0.754280   -0.001250
  C     -1.440860   -1.460520   -1.157620
  C     -1.062940   -2.819340   -1.194830
  N     -0.754090   -3.920250   -1.299160
  C     -1.566930   -0.958830   -2.469480
  N     -1.650590   -0.631450   -3.567690
  C     -1.520650   -1.294700    1.348770
  C     -1.832050   -0.265380    2.282650
  C     -1.791180   -0.472360    3.631070
  C     -1.430200   -1.747690    4.120160
  C     -1.120190   -2.784990    3.194350
  C     -1.170450   -2.538520    1.802440
  C     -0.763630   -4.054430    3.692350
  C     -0.713940   -4.289450    5.039710
  C     -1.017770   -3.266740    5.950270
  C     -1.368580   -2.022670    5.500170
  C     -2.176800    0.960390    1.549890
  O     -2.504500    2.028230    2.040330
  C     -2.047560    0.637550    0.122170
  C     -2.253360    1.510560   -0.913450
  C     -2.634930    2.862940   -0.896340
  S     -2.990880    3.852680    0.498930
  C     -3.330430    5.230070   -0.494640
  C     -3.169240    4.926460   -1.857640
  C     -2.783040    3.603590   -2.064800
  C     -3.360460    5.819680   -2.924900
  N     -3.505580    6.522860   -3.821120
  C     -3.710940    6.438270    0.139900
  C     -3.964560    7.612690   -0.488690
  C     -4.349490    8.833460    0.133570
  C     -4.230010   10.104750   -0.441620
  C     -3.737150   10.386210   -1.811740
  C     -4.656690   11.110740    0.491040
  C     -5.084620   10.424200    1.631350
  C     -4.912190    8.998790    1.445950
  C     -5.364830    8.169540    2.441110
  C     -5.906910    8.760130    3.602360
  C     -5.988850   10.118100    3.704610
  O     -5.600390   10.945790    2.743790
  C     -4.675250   12.531780    0.426510
  C     -4.161970   13.344630   -0.533130
  C     -4.194090   14.759360   -0.474380
  C     -3.620630   15.615460   -1.393800
  C     -3.820660   16.957000   -0.985800
  C     -4.591110   16.886630    0.276690
  C     -4.804380   15.579400    0.567400
  C     -5.029750   17.955490    1.065170
  N     -5.407680   18.797440    1.749880
  C     -3.370960   18.105720   -1.600010
  C     -3.528570   19.449770   -1.149700
  C     -2.840450   20.294670   -1.996390
  C     -2.278440   19.490550   -3.069000
  C     -2.592100   18.185610   -2.842540
  C     -2.246150   17.121650   -3.681900
  N     -1.957350   16.263520   -4.389640
  C     -2.743390   21.702560   -1.832000
  C     -1.702760   22.493940   -2.217530
  C     -1.648400   23.943120   -2.152720
  C     -2.713890   24.787490   -1.978380
  C     -2.609050   26.193530   -1.943390
  N     -2.587120   27.340650   -1.901020
  C     -4.057590   24.377770   -1.846950
  N     -5.173990   24.123960   -1.757750
  C     -0.269560   24.350130   -2.393820
  C      0.507250   23.186610   -2.659500
  C     -0.346220   21.989920   -2.566400
  O      0.012480   20.836570   -2.668570
  C      1.843180   23.255860   -2.930920
  C      2.476950   24.518270   -2.950320
  C      1.709210   25.687180   -2.677410
  C      0.327040   25.583410   -2.398610
  C      2.353990   26.940800   -2.691590
  C      3.691460   27.037200   -2.964010
  C      4.445810   25.885680   -3.234380
  C      3.851360   24.653030   -3.228050
  H     -2.030810    0.327150    4.316470
  H     -0.927910   -3.346000    1.130470
  H     -0.530210   -4.838810    2.987450
  H     -0.439770   -5.265460    5.411100
  H     -0.972670   -3.469190    7.009930
  H     -1.603810   -1.230990    6.196590
  H     -2.103230    1.129330   -1.916260
  H     -2.611710    3.183540   -3.041310
  H     -3.751930    6.378450    1.217640
  H     -3.832090    7.650240   -1.559600
  H     -3.659460    9.479510   -2.404260
  H     -2.749440   10.846770   -1.771290
  H     -4.412200   11.073970   -2.318540
  H     -5.336280    7.095560    2.361530
  H     -6.259780    8.144370    4.411550
  H     -6.386930   10.634100    4.565340
  H     -5.138040   12.991570    1.290950
  H     -3.663120   12.933420   -1.395910
  H     -3.091630   15.318430   -2.277780
  H     -5.337330   15.209470    1.423510
  H     -4.049680   19.744310   -0.259220
  H     -1.749900   19.873090   -3.919850
  H     -3.571820   22.159230   -1.302830
  H      2.409070   22.357690   -3.129530
  H     -0.224930   26.486000   -2.189430
  H      1.768880   27.824720   -2.484070
  H      4.175930   28.002080   -2.972830
  H      5.500170   25.980120   -3.447240
  H      4.426790   23.762520   -3.434970

 Total Charge           Charge          ....    0
 Multiplicity           Mult            ....    1
 Number of Electrons    NEL             ....  502
 Basis Dimension        Dim             .... 1199

ORBITAL ENERGIES
----------------

  NO   OCC          E(Eh)            E(eV)
   0   2.0000     -88.974197     -2421.1110
   1   2.0000     -19.353268      -526.6292
   2   2.0000     -19.223942      -523.1101
   3   2.0000     -19.218551      -522.9634
   4   2.0000     -14.417624      -392.3235
   5   2.0000     -14.414574      -392.2405
   6   2.0000     -14.414259      -392.2319
   7   2.0000     -14.413738      -392.2177
   8   2.0000     -14.411722      -392.1629
   9   2.0000     -14.411010      -392.1435
  10   2.0000     -14.397371      -391.7724
  11   2.0000     -10.389973      -282.7255
  12   2.0000     -10.373532      -282.2782
  13   2.0000     -10.372115      -282.2396
  14   2.0000     -10.369300      -282.1630
  15   2.0000     -10.342562      -281.4354
  16   2.0000     -10.341966      -281.4192
  17   2.0000     -10.341032      -281.3938
  18   2.0000     -10.339996      -281.3656
  19   2.0000     -10.336744      -281.2771
  20   2.0000     -10.332168      -281.1526
  21   2.0000     -10.327272      -281.0194
  22   2.0000     -10.322823      -280.8983
  23   2.0000     -10.321507      -280.8625
  24   2.0000     -10.320647      -280.8391
  25   2.0000     -10.320527      -280.8358
  26   2.0000     -10.319635      -280.8115
  27   2.0000     -10.319201      -280.7997
  28   2.0000     -10.317121      -280.7431
  29   2.0000     -10.317078      -280.7420
  30   2.0000     -10.316494      -280.7261
  31   2.0000     -10.316416      -280.7239
  32   2.0000     -10.316020      -280.7132
  33   2.0000     -10.313998      -280.6582
  34   2.0000     -10.313614      -280.6477
  35   2.0000     -10.312687      -280.6225
  36   2.0000     -10.311412      -280.5878
  37   2.0000     -10.311402      -280.5875
  38   2.0000     -10.309380      -280.5325
  39   2.0000     -10.304668      -280.4043
  40   2.0000     -10.304337      -280.3953
  41   2.0000     -10.304007      -280.3863
  42   2.0000     -10.302987      -280.3585
  43   2.0000     -10.302335      -280.3408
  44   2.0000     -10.301639      -280.3219
  45   2.0000     -10.301123      -280.3078
  46   2.0000     -10.300290      -280.2852
  47   2.0000     -10.300004      -280.2774
  48   2.0000     -10.299659      -280.2680
  49   2.0000     -10.299494      -280.2635
  50   2.0000     -10.299412      -280.2613
  51   2.0000     -10.298557      -280.2380
  52   2.0000     -10.298105      -280.2257
  53   2.0000     -10.298099      -280.2255
  54   2.0000     -10.297883      -280.2197
  55   2.0000     -10.297648      -280.2132
  56   2.0000     -10.296939      -280.1940
  57   2.0000     -10.296728      -280.1882
  58   2.0000     -10.293593      -280.1029
  59   2.0000     -10.291729      -280.0522
  60   2.0000     -10.291026      -280.0331
  61   2.0000     -10.290847      -280.0282
  62   2.0000     -10.289148      -279.9819
  63   2.0000     -10.288858      -279.9741
  64   2.0000     -10.288658      -279.9686
  65   2.0000     -10.288083      -279.9530
  66   2.0000     -10.287842      -279.9464
  67   2.0000     -10.287481      -279.9366
  68   2.0000     -10.286680      -279.9148
  69   2.0000     -10.286303      -279.9045
  70   2.0000     -10.286135      -279.9000
  71   2.0000     -10.285891      -279.8933
  72   2.0000     -10.285359      -279.8788
  73   2.0000     -10.279235      -279.7122
  74   2.0000     -10.273583      -279.5584
  75   2.0000      -8.067749      -219.5346
  76   2.0000      -6.037178      -164.2800
  77   2.0000      -6.032609      -164.1556
  78   2.0000      -6.029934      -164.0828
  79   2.0000      -1.263504       -34.3817
  80   2.0000      -1.138876       -30.9904
  81   2.0000      -1.133851       -30.8536
  82   2.0000      -1.019502       -27.7421
  83   2.0000      -1.017644       -27.6915
  84   2.0000      -1.014736       -27.6124
  85   2.0000      -1.013280       -27.5727
  86   2.0000      -1.004473       -27.3331
  87   2.0000      -1.000642       -27.2288
  88   2.0000      -0.998300       -27.1651
  89   2.0000      -0.996309       -27.1109
  90   2.0000      -0.993987       -27.0478
  91   2.0000      -0.992604       -27.0101
  92   2.0000      -0.990430       -26.9510
  93   2.0000      -0.983594       -26.7649
  94   2.0000      -0.975964       -26.5573
  95   2.0000      -0.973307       -26.4850
  96   2.0000      -0.970138       -26.3988
  97   2.0000      -0.954627       -25.9767
  98   2.0000      -0.930281       -25.3142
  99   2.0000      -0.925080       -25.1727
 100   2.0000      -0.920380       -25.0448
 101   2.0000      -0.910764       -24.7831
 102   2.0000      -0.904249       -24.6059
 103   2.0000      -0.901679       -24.5359
 104   2.0000      -0.890605       -24.2346
 105   2.0000      -0.883818       -24.0499
 106   2.0000      -0.882394       -24.0112
 107   2.0000      -0.880145       -23.9500
 108   2.0000      -0.878045       -23.8928
 109   2.0000      -0.866799       -23.5868
 110   2.0000      -0.855770       -23.2867
 111   2.0000      -0.851368       -23.1669
 112   2.0000      -0.838833       -22.8258
 113   2.0000      -0.833049       -22.6684
 114   2.0000      -0.830503       -22.5991
 115   2.0000      -0.828285       -22.5388
 116   2.0000      -0.825848       -22.4725
 117   2.0000      -0.815806       -22.1992
 118   2.0000      -0.796382       -21.6706
 119   2.0000      -0.789895       -21.4941
 120   2.0000      -0.770616       -20.9695
 121   2.0000      -0.764802       -20.8113
 122   2.0000      -0.761782       -20.7291
 123   2.0000      -0.761487       -20.7211
 124   2.0000      -0.751649       -20.4534
 125   2.0000      -0.726733       -19.7754
 126   2.0000      -0.723830       -19.6964
 127   2.0000      -0.722730       -19.6665
 128   2.0000      -0.714446       -19.4411
 129   2.0000      -0.706733       -19.2312
 130   2.0000      -0.703794       -19.1512
 131   2.0000      -0.699943       -19.0464
 132   2.0000      -0.699122       -19.0241
 133   2.0000      -0.692875       -18.8541
 134   2.0000      -0.682148       -18.5622
 135   2.0000      -0.679768       -18.4974
 136   2.0000      -0.678117       -18.4525
 137   2.0000      -0.676800       -18.4167
 138   2.0000      -0.668754       -18.1977
 139   2.0000      -0.658115       -17.9082
 140   2.0000      -0.655406       -17.8345
 141   2.0000      -0.645742       -17.5715
 142   2.0000      -0.638746       -17.3812
 143   2.0000      -0.636833       -17.3291
 144   2.0000      -0.635286       -17.2870
 145   2.0000      -0.629007       -17.1161
 146   2.0000      -0.623286       -16.9605
 147   2.0000      -0.615858       -16.7583
 148   2.0000      -0.612484       -16.6665
 149   2.0000      -0.608844       -16.5675
 150   2.0000      -0.606355       -16.4998
 151   2.0000      -0.604983       -16.4624
 152   2.0000      -0.602261       -16.3884
 153   2.0000      -0.589698       -16.0465
 154   2.0000      -0.581699       -15.8288
 155   2.0000      -0.580157       -15.7869
 156   2.0000      -0.571686       -15.5564
 157   2.0000      -0.569122       -15.4866
 158   2.0000      -0.564519       -15.3613
 159   2.0000      -0.554898       -15.0995
 160   2.0000      -0.552191       -15.0259
 161   2.0000      -0.550341       -14.9756
 162   2.0000      -0.547077       -14.8867
 163   2.0000      -0.546555       -14.8725
 164   2.0000      -0.544137       -14.8067
 165   2.0000      -0.542327       -14.7575
 166   2.0000      -0.540870       -14.7178
 167   2.0000      -0.539944       -14.6926
 168   2.0000      -0.536223       -14.5914
 169   2.0000      -0.530369       -14.4321
 170   2.0000      -0.528471       -14.3804
 171   2.0000      -0.527794       -14.3620
 172   2.0000      -0.526103       -14.3160
 173   2.0000      -0.523943       -14.2572
 174   2.0000      -0.520771       -14.1709
 175   2.0000      -0.520199       -14.1553
 176   2.0000      -0.519538       -14.1373
 177   2.0000      -0.515173       -14.0186
 178   2.0000      -0.514629       -14.0038
 179   2.0000      -0.513815       -13.9816
 180   2.0000      -0.511670       -13.9232
 181   2.0000      -0.508599       -13.8397
 182   2.0000      -0.506222       -13.7750
 183   2.0000      -0.502192       -13.6653
 184   2.0000      -0.499357       -13.5882
 185   2.0000      -0.498521       -13.5654
 186   2.0000      -0.496855       -13.5201
 187   2.0000      -0.495910       -13.4944
 188   2.0000      -0.494700       -13.4615
 189   2.0000      -0.489706       -13.3256
 190   2.0000      -0.487495       -13.2654
 191   2.0000      -0.485802       -13.2193
 192   2.0000      -0.482047       -13.1172
 193   2.0000      -0.479729       -13.0541
 194   2.0000      -0.478207       -13.0127
 195   2.0000      -0.472929       -12.8691
 196   2.0000      -0.470604       -12.8058
 197   2.0000      -0.468937       -12.7604
 198   2.0000      -0.467480       -12.7208
 199   2.0000      -0.464003       -12.6262
 200   2.0000      -0.462165       -12.5761
 201   2.0000      -0.450131       -12.2487
 202   2.0000      -0.447476       -12.1764
 203   2.0000      -0.447122       -12.1668
 204   2.0000      -0.446180       -12.1412
 205   2.0000      -0.444877       -12.1057
 206   2.0000      -0.444088       -12.0842
 207   2.0000      -0.443099       -12.0573
 208   2.0000      -0.442783       -12.0487
 209   2.0000      -0.441274       -12.0077
 210   2.0000      -0.440551       -11.9880
 211   2.0000      -0.440380       -11.9834
 212   2.0000      -0.436856       -11.8875
 213   2.0000      -0.436262       -11.8713
 214   2.0000      -0.433418       -11.7939
 215   2.0000      -0.432724       -11.7750
 216   2.0000      -0.432002       -11.7554
 217   2.0000      -0.431119       -11.7313
 218   2.0000      -0.429435       -11.6855
 219   2.0000      -0.427914       -11.6441
 220   2.0000      -0.427663       -11.6373
 221   2.0000      -0.427354       -11.6289
 222   2.0000      -0.424238       -11.5441
 223   2.0000      -0.422807       -11.5052
 224   2.0000      -0.418594       -11.3905
 225   2.0000      -0.416263       -11.3271
 226   2.0000      -0.413362       -11.2482
 227   2.0000      -0.407940       -11.1006
 228   2.0000      -0.406657       -11.0657
 229   2.0000      -0.404527       -11.0077
 230   2.0000      -0.402943       -10.9646
 231   2.0000      -0.398510       -10.8440
 232   2.0000      -0.391833       -10.6623
 233   2.0000      -0.388233       -10.5643
 234   2.0000      -0.379756       -10.3337
 235   2.0000      -0.376174       -10.2362
 236   2.0000      -0.358916        -9.7666
 237   2.0000      -0.351140        -9.5550
 238   2.0000      -0.344413        -9.3720
 239   2.0000      -0.339302        -9.2329
 240   2.0000      -0.338085        -9.1998
 241   2.0000      -0.322572        -8.7776
 242   2.0000      -0.320485        -8.7208
 243   2.0000      -0.319589        -8.6964
 244   2.0000      -0.314140        -8.5482
 245   2.0000      -0.313389        -8.5277
 246   2.0000      -0.297993        -8.1088
 247   2.0000      -0.295595        -8.0435
 248   2.0000      -0.288896        -7.8613
 249   2.0000      -0.272696        -7.4204
 250   2.0000      -0.245069        -6.6687
 251   0.0000      -0.125094        -3.4040
 252   0.0000      -0.097500        -2.6531
 253   0.0000      -0.078723        -2.1422
 254   0.0000      -0.072621        -1.9761
 255   0.0000      -0.061498        -1.6734

MULLIKEN ATOMIC CHARGES
-----------------------
   0 C :    0.334811
   1 C :   -0.358295
   2 C :   -0.184029
   3 N :    0.149700
   4 C :   -0.188120
   5 N :    0.142841
   6 C :    0.042357
   7 C :   -0.002908
   8 C :   -0.080181
   9 C :    0.097741
  10 C :    0.094263
  11 C :   -0.079865
  12 C :   -0.018490
  13 C :    0.038391
  14 C :    0.033237
  15 C :   -0.016524
  16 C :    0.169980
  17 O :   -0.186387
  18 C :   -0.100508
  19 C :   -0.013037
  20 C :   -0.052201
  21 S :    0.193005
  22 C :   -0.034777
  23 C :   -0.063580
  24 C :    0.011314
  25 C :   -0.165557
  26 N :    0.116142
  27 C :    0.002759
  28 C :   -0.012334
  29 C :    0.058543
  30 C :   -0.143917
  31 C :    0.121733
  32 C :   -0.000398
  33 C :    0.097490
  34 C :    0.038636
  35 C :    0.023665
  36 C :   -0.035294
  37 C :    0.179111
  38 O :   -0.138796
  39 C :    0.006770
  40 C :   -0.025936
  41 C :    0.130089
  42 C :   -0.131366
  43 C :    0.142193
  44 C :   -0.094553
  45 C :   -0.014316
  46 C :   -0.174690
  47 N :    0.134220
  48 C :    0.098003
  49 C :   -0.076729
  50 C :    0.075079
  51 C :    0.071956
  52 C :   -0.131413
  53 C :   -0.173825
  54 N :    0.121936
  55 C :   -0.023514
  56 C :   -0.092180
  57 C :    0.308372
  58 C :   -0.336133
  59 C :   -0.182435
  60 N :    0.148385
  61 C :   -0.201524
  62 N :    0.165566
  63 C :    0.051621
  64 C :   -0.010761
  65 C :    0.143406
  66 O :   -0.142994
  67 C :   -0.076636
  68 C :    0.097529
  69 C :    0.095699
  70 C :   -0.082342
  71 C :   -0.018057
  72 C :    0.036599
  73 C :    0.035937
  74 C :   -0.015751
  75 H :   -0.016847
  76 H :   -0.009216
  77 H :   -0.007307
  78 H :   -0.005179
  79 H :   -0.004531
  80 H :   -0.019421
  81 H :    0.009868
  82 H :    0.017229
  83 H :   -0.034212
  84 H :   -0.006058
  85 H :    0.027571
  86 H :    0.049285
  87 H :    0.044426
  88 H :    0.010098
  89 H :    0.023817
  90 H :    0.042924
  91 H :   -0.020408
  92 H :   -0.022240
  93 H :   -0.000654
  94 H :   -0.001625
  95 H :    0.009915
  96 H :    0.000311
  97 H :    0.038032
  98 H :   -0.012088
  99 H :   -0.008311
 100 H :   -0.008556
 101 H :   -0.004625
 102 H :   -0.003748
 103 H :   -0.017174
Sum of atomic charges:   -0.0000000

LOEWDIN ATOMIC CHARGES
----------------------
   0 C :    0.077552
   1 C :   -0.144029
   2 C :   -0.017372
   3 N :   -0.055893
   4 C :   -0.021280
   5 N :   -0.054595
   6 C :   -0.024724
   7 C :   -0.055358
   8 C :    0.030773
   9 C :   -0.009220
  10 C :   -0.006257
  11 C :    0.020161
  12 C :   -0.004826
  13 C :   -0.013081
  14 C :   -0.012780
  15 C :   -0.010507
  16 C :    0.085592
  17 O :   -0.173845
  18 C :   -0.111707
  19 C :    0.059967
  20 C :   -0.193676
  21 S :    0.515244
  22 C :   -0.117982
  23 C :   -0.128080
  24 C :    0.022188
  25 C :   -0.027921
  26 N :   -0.065504
  27 C :   -0.088177
  28 C :    0.032263
  29 C :   -0.088622
  30 C :    0.040128
  31 C :   -0.046655
  32 C :   -0.102542
  33 C :    0.076350
  34 C :   -0.021589
  35 C :    0.045892
  36 C :   -0.071306
  37 C :    0.094937
  38 O :    0.063705
  39 C :    0.012644
  40 C :   -0.039937
  41 C :    0.004781
  42 C :   -0.049557
  43 C :    0.051139
  44 C :   -0.071820
  45 C :    0.052082
  46 C :   -0.032242
  47 N :   -0.059869
  48 C :    0.016241
  49 C :    0.021569
  50 C :   -0.037436
  51 C :    0.072613
  52 C :   -0.097189
  53 C :   -0.026455
  54 N :   -0.073409
  55 C :    0.077708
  56 C :   -0.086847
  57 C :    0.073440
  58 C :   -0.133554
  59 C :   -0.016580
  60 N :   -0.051382
  61 C :   -0.024951
  62 N :   -0.044946
  63 C :   -0.025653
  64 C :   -0.056510
  65 C :    0.083893
  66 O :   -0.132177
  67 C :    0.033574
  68 C :   -0.008186
  69 C :   -0.005605
  70 C :    0.019631
  71 C :   -0.005290
  72 C :   -0.012546
  73 C :   -0.011949
  74 C :   -0.009001
  75 H :    0.037630
  76 H :    0.039272
  77 H :    0.035383
  78 H :    0.033231
  79 H :    0.032818
  80 H :    0.031080
  81 H :    0.051625
  82 H :    0.047081
  83 H :    0.020832
  84 H :    0.038013
  85 H :    0.040877
  86 H :    0.047972
  87 H :    0.044604
  88 H :    0.040743
  89 H :    0.046636
  90 H :    0.039281
  91 H :    0.028681
  92 H :    0.033860
  93 H :    0.034692
  94 H :    0.033981
  95 H :    0.037906
  96 H :    0.036172
  97 H :    0.051980
  98 H :    0.039463
  99 H :    0.039087
 100 H :    0.034943
 101 H :    0.033364
 102 H :    0.033186
 103 H :    0.032159

  Mayer bond orders larger than 0.100000
B(  0-C ,  1-C ) :   1.6196 B(  0-C ,  6-C ) :   0.9842 B(  0-C , 18-C ) :   1.0785
B(  1-C ,  2-C ) :   1.1489 B(  1-C ,  4-C ) :   1.1456 B(  2-C ,  3-N ) :   2.9611
B(  4-C ,  5-N ) :   2.9535 B(  6-C ,  7-C ) :   1.2154 B(  6-C , 11-C ) :   1.4546
B(  7-C ,  8-C ) :   1.4707 B(  7-C , 16-C ) :   0.9612 B(  8-C ,  9-C ) :   1.1756
B(  8-C , 75-H ) :   1.0157 B(  9-C , 10-C ) :   1.2588 B(  9-C , 15-C ) :   1.2451
B( 10-C , 11-C ) :   1.2026 B( 10-C , 12-C ) :   1.2409 B( 11-C , 76-H ) :   0.9885
B( 12-C , 13-C ) :   1.4880 B( 12-C , 77-H ) :   0.9969 B( 13-C , 14-C ) :   1.2619
B( 13-C , 78-H ) :   0.9880 B( 14-C , 15-C ) :   1.4867 B( 14-C , 79-H ) :   0.9893
B( 15-C , 80-H ) :   0.9972 B( 16-C , 17-O ) :   2.1260 B( 16-C , 18-C ) :   0.9764
B( 18-C , 19-C ) :   1.4998 B( 19-C , 20-C ) :   1.2541 B( 19-C , 81-H ) :   0.9379
B( 20-C , 21-S ) :   1.0720 B( 20-C , 24-C ) :   1.3628 B( 21-S , 22-C ) :   1.1374
B( 22-C , 23-C ) :   1.3657 B( 22-C , 27-C ) :   1.1824 B( 23-C , 24-C ) :   1.3420
B( 23-C , 25-C ) :   1.0976 B( 24-C , 82-H ) :   1.0131 B( 25-C , 26-N ) :   2.9895
B( 27-C , 28-C ) :   1.6259 B( 27-C , 83-H ) :   0.9442 B( 28-C , 29-C ) :   1.1634
B( 28-C , 84-H ) :   0.9497 B( 29-C , 30-C ) :   1.4446 B( 29-C , 34-C ) :   1.0824
B( 30-C , 31-C ) :   1.1366 B( 30-C , 32-C ) :   1.1834 B( 31-C , 85-H ) :   0.9334
B( 31-C , 86-H ) :   0.9240 B( 31-C , 87-H ) :   0.9307 B( 32-C , 33-C ) :   1.3772
B( 32-C , 39-C ) :   1.1404 B( 33-C , 34-C ) :   1.1084 B( 33-C , 38-O ) :   1.1584
B( 34-C , 35-C ) :   1.4950 B( 35-C , 36-C ) :   1.2265 B( 35-C , 88-H ) :   0.9854
B( 36-C , 37-C ) :   1.5802 B( 36-C , 89-H ) :   0.9671 B( 37-C , 38-O ) :   1.1719
B( 37-C , 90-H ) :   0.9806 B( 39-C , 40-C ) :   1.5664 B( 39-C , 91-H ) :   0.9625
B( 40-C , 41-C ) :   1.1445 B( 40-C , 92-H ) :   0.9780 B( 41-C , 42-C ) :   1.4868
B( 41-C , 45-C ) :   1.0242 B( 42-C , 43-C ) :   1.1498 B( 42-C , 93-H ) :   1.0098
B( 43-C , 44-C ) :   1.0838 B( 43-C , 48-C ) :   1.3863 B( 44-C , 45-C ) :   1.7048
B( 44-C , 46-C ) :   1.0875 B( 45-C , 94-H ) :   1.0139 B( 46-C , 47-N ) :   2.9664
B( 48-C , 49-C ) :   1.1159 B( 48-C , 52-C ) :   1.1273 B( 49-C , 50-C ) :   1.4951
B( 49-C , 95-H ) :   1.0056 B( 50-C , 51-C ) :   1.0739 B( 50-C , 55-C ) :   1.1093
B( 51-C , 52-C ) :   1.6519 B( 51-C , 96-H ) :   1.0069 B( 52-C , 53-C ) :   1.0955
B( 53-C , 54-N ) :   2.9637 B( 55-C , 56-C ) :   1.6102 B( 55-C , 97-H ) :   0.9495
B( 56-C , 57-C ) :   1.0471 B( 56-C , 65-C ) :   0.9377 B( 57-C , 58-C ) :   1.6477
B( 57-C , 63-C ) :   0.9931 B( 58-C , 59-C ) :   1.1447 B( 58-C , 61-C ) :   1.1392
B( 59-C , 60-N ) :   2.9650 B( 61-C , 62-N ) :   2.9897 B( 63-C , 64-C ) :   1.2125
B( 63-C , 70-C ) :   1.4495 B( 64-C , 65-C ) :   0.9454 B( 64-C , 67-C ) :   1.4713
B( 65-C , 66-O ) :   2.2178 B( 67-C , 68-C ) :   1.1803 B( 67-C , 98-H ) :   1.0163
B( 68-C , 69-C ) :   1.2563 B( 68-C , 74-C ) :   1.2429 B( 69-C , 70-C ) :   1.2066
B( 69-C , 71-C ) :   1.2395 B( 70-C , 99-H ) :   0.9899 B( 71-C , 72-C ) :   1.4893
B( 71-C ,100-H ) :   0.9975 B( 72-C , 73-C ) :   1.2594 B( 72-C ,101-H ) :   0.9890
B( 73-C , 74-C ) :   1.4895 B( 73-C ,102-H ) :   0.9886 B( 74-C ,103-H ) :   0.9976

-----------------------------------------------------------------------------
         ABSORPTION SPECTRUM VIA TRANSITION ELECTRIC DIPOLE MOMENTS
-----------------------------------------------------------------------------
State   Energy  Wavelength   fosc         T2         TX        TY        TZ
        (cm-1)    (nm)                  (au**2)     (au)      (au)      (au)
-----------------------------------------------------------------------------
   0   12077.0    828.0   1.269825306  34.61462   0.95392   5.60448  -1.51474
   1   17557.7    569.5   0.563484270  10.56548  -0.96578   3.08613   0.32944
   2   18061.4    553.7   0.023971091   0.43693   0.57762  -0.20563  -0.24699
   3   18896.7    529.2   0.507802335   8.84675   0.89986  -2.83468  -0.04021
   4   20034.5    499.1   0.125417663   2.06089   0.31304  -1.36835   0.30087
   5   22809.0    438.4   0.314834732   4.54415  -0.46174  -2.00994   0.53952
   6   23769.0    420.7   0.308523756   4.27319   0.97494   1.76116  -0.47011
   7   25122.2    398.1   0.029876831   0.39152   0.26473  -0.28208  -0.49180
   8   25781.8    387.9   0.022308478   0.28486   0.23900   0.47441  -0.05177
   9   25817.9    387.3   0.167611427   2.13727  -0.03407  -1.31261   0.64278
  10   26319.1    380.0   0.003520898   0.04404   0.02570  -0.00130   0.20828
  11   27140.7    368.5   0.017588337   0.21334  -0.37158   0.26650   0.06521
  12   27531.5    363.2   0.223435088   2.67176   0.29509  -1.00789   1.25254
  13   28470.5    351.2   0.020064898   0.23202  -0.23901   0.33568   0.24941
  14   28673.7    348.8   0.269725426   3.09680  -0.04004   1.73917   0.26548
  15   28724.7    348.1   0.001148687   0.01317   0.04766   0.07282   0.07477
  16   28893.6    346.1   0.155647602   1.77344  -0.29837   1.18260   0.53468
  17   28937.3    345.6   0.097817092   1.11284   0.33657  -0.18913  -0.98173
  18   29539.9    338.5   0.002961527   0.03301  -0.04194   0.12082  -0.12903
  19   29996.8    333.4   0.175479371   1.92587  -1.17858  -0.62088   0.38901
  20   30154.8    331.6   0.114240819   1.24721   0.49245   0.85002  -0.53120
  21   31131.0    321.2   0.527104758   5.57415  -2.05209  -1.06731   0.47319
  22   32085.0    311.7   0.019324206   0.19828   0.07931   0.43568   0.04657
  23   32288.5    309.7   0.015220663   0.15519   0.20022   0.23368  -0.24596
  24   32833.8    304.6   0.036507027   0.36604   0.41972   0.18125   0.39627
  25   33102.1    302.1   0.464027105   4.61491  -0.20890  -0.70216   2.01946
  26   33151.6    301.6   0.068744056   0.68266   0.63884   0.22764   0.47194
  27   33229.3    300.9   0.041657064   0.41271  -0.39045  -0.50954  -0.02501
  28   33660.4    297.1   0.007174995   0.07017  -0.06334   0.05250  -0.25181
  29   33861.5    295.3   0.289101128   2.81073  -0.31716  -1.51740   0.63847
  30   34174.8    292.6   0.191149562   1.84138  -0.89579  -0.87863   0.51668
  31   34678.6    288.4   0.169307364   1.60727   0.12063   0.04245   1.26132
  32   34791.2    287.4   0.240029437   2.27128  -0.30187  -0.60239   1.34807
  33   34924.3    286.3   0.015722809   0.14821   0.05608  -0.19891   0.32481
  34   35221.8    283.9   0.222612630   2.08072   0.53366  -0.50315   1.24208
  35   35337.5    283.0   0.124554924   1.16038  -0.48206   0.81686  -0.51062
  36   35932.2    278.3   0.025573457   0.23430  -0.05979   0.25233   0.40873
  37   36300.5    275.5   0.421122880   3.81919   1.89412  -0.15806  -0.45442
  38   36448.2    274.4   0.040469080   0.36553  -0.46486   0.06540  -0.38100
  39   36548.5    273.6   0.151900835   1.36825   0.97921  -0.20232  -0.60701
  40   36879.0    271.2   0.008109889   0.07240  -0.21190  -0.07462   0.14808
  41   37502.6    266.6   0.203058206   1.78252  -0.34083  -0.89754   0.92778
  42   37793.6    264.6   0.153009124   1.33283  -0.23870  -0.71637   0.87330
  43   37981.3    263.3   0.043816289   0.37979  -0.21218  -0.43118   0.38581
  44   38220.3    261.6   0.033859247   0.29165  -0.09514  -0.32003  -0.42447
  45   38455.6    260.0   0.002891742   0.02476  -0.12256  -0.04734   0.08656
  46   38676.3    258.6   0.063775852   0.54286  -0.43094   0.28677  -0.52432
  47   38848.8    257.4   0.219544954   1.86046  -0.30465   1.21824   0.53248
  48   39297.2    254.5   0.005505652   0.04612   0.05813  -0.11054   0.17471
  49   39429.0    253.6   0.000105558   0.00088  -0.02433   0.01699  -0.00090
  50   39516.4    253.1   0.047205628   0.39327  -0.09177  -0.61920   0.03801
  51   39603.6    252.5   0.106305326   0.88368  -0.23319  -0.89785  -0.15222
  52   39836.9    251.0   0.099415228   0.82157   0.30750  -0.85105   0.05211
  53   40020.3    249.9   0.025733674   0.21169  -0.02551   0.40703  -0.21300
  54   40251.2    248.4   0.169646313   1.38753   0.26992   0.15178  -1.13650

FINAL SINGLE POINT ENERGY     -3459.156066872717

DIPOLE MOMENT
-------------
                                X             Y             Z
Electronic contribution:     -8.98474       1.55116      -9.45009
Nuclear contribution   :      9.82147      -3.41859      14.37712
                        -----------------------------------------
Total Dipole Moment    :      0.83673      -1.86743       4.92703
                        -----------------------------------------
Magnitude (a.u.)       :      5.33507
Magnitude (Debye)      :     13.56068

Rotational constants in cm-1:     0.001970     0.000160     0.000156
Rotational constants in MHz :    59.047560     4.792934     4.676174

                             ****ORCA TERMINATED NORMALLY****
TOTAL RUN TIME: 0 days 0 hours 11 minutes 25 seconds 602 msec
