                         Program Version 4.2.0 -  RELEASE  -
|  1> # ORCA input file
|  2> # SCF done       -203.846471575477          0.000548280901
|  3> ! CAM-B3LYP def2-SVP def2/J RIJCOSX Grid4 TightSCF
|  4> %maxcore 5000
|  5> %tddft
|  6>     Mode sTDDFT
|  7>     Ethresh 5.0
|  8>     maxcore 5000
|  9> end
| 10>
| 11> %pal
| 12>   nprocs 6
| 13>   end
| 14> * xyz 0 1
| 15>    C       -3.06070         1.85536        -2.56479
| 16>    C       -3.68820         3.07357        -2.54084
| 17>    C       -4.46449         3.58630        -3.59989
| 18>    N       -5.07653         4.07581        -4.43832
| 19>    C       -3.64072         3.94130        -1.43454
| 20>    N       -3.58431         4.66816        -0.54677
| 21>    C       -3.26256         0.81641        -3.56549
| 22>    C       -2.80738        -0.42564        -3.03279
| 23>    C       -2.90566        -1.58897        -3.74080
| 24>    C       -3.46058        -1.56032        -5.04009
| 25>    C       -3.90264        -0.31937        -5.58437
| 26>    C       -3.79817         0.86820        -4.82472
| 27>    C       -4.44524        -0.30382        -6.88547
| 28>    C       -4.54948        -1.45713        -7.61448
| 29>    C       -4.11581        -2.67830        -7.07715
| 30>    C       -3.58356        -2.72889        -5.81721
| 31>    C       -2.24113        -0.20664        -1.69228
| 32>    O       -1.81252        -1.02366        -0.91473
| 33>    C       -2.25583         1.28224        -1.50373
| 34>    C       -1.47148         1.80380        -0.53822
| 35>    N       -1.05901         3.09785        -0.35469
| 36>    C       -0.56551         3.56004         0.90379
| 37>    O       -0.45847         2.86153         1.87016
| 38>    C       -0.26182         4.96882         0.69830
| 39>    C       -0.47939         5.31574        -0.59433
| 40>    C       -0.95572         4.08915        -1.31157
| 41>    O       -1.17131         3.92943        -2.48923
| 42>    C       -0.32361         6.62381        -1.14239
| 43>    S       -0.14638         7.92300        -0.00371
| 44>    C        0.00909         9.10259        -1.25812
| 45>    C       -0.11055         8.50306        -2.50858
| 46>    C       -0.27563         7.10671        -2.44696
| 47>    C       -0.31173         6.26826        -3.68380
| 48>    N        0.69952         5.15732        -3.63175
| 49>    O        0.72984         4.43560        -4.59065
| 50>    O        1.43884         5.09949        -2.68195
| 51>    C       -0.00092         7.07603        -4.94782
| 52>    C       -0.77206         8.38543        -4.91257
| 53>    C       -0.18950         9.26193        -3.79877
| 54>    N       -1.10668        10.43392        -3.66551
| 55>    O       -2.10709        10.28209        -3.01633
| 56>    O       -0.79326        11.43150        -4.26519
| 57>    C        0.24764        10.45165        -0.86435
| 58>    C        0.81189        11.43255        -1.60988
| 59>    C        1.03918        12.75906        -1.14821
| 60>    C        0.75463        13.32758         0.07098
| 61>    C        1.17941        14.69159         0.06361
| 62>    C        1.74524        14.93631        -1.27927
| 63>    C        1.65675        13.78185        -1.98509
| 64>    C        2.28006        16.13555        -1.76386
| 65>    N        2.72585        17.10235        -2.19475
| 66>    C        1.09672        15.59616         1.09179
| 67>    C        1.52773        16.96397         1.08315
| 68>    C        1.21893        17.53998         2.28934
| 69>    C        0.62500        16.51418         3.14211
| 70>    C        0.55012        15.35551         2.43674
| 71>    C        0.06974        14.13949         2.93656
| 72>    N       -0.31565        13.14689         3.36742
| 73>    C        1.46688        18.89839         2.64938
| 74>    C        0.66439        19.65470         3.44185
| 75>    C        0.91089        21.00071         3.93327
| 76>    C        2.10803        21.66446         3.90449
| 77>    C        2.30400        22.96401         4.41901
| 78>    N        2.52254        24.01847         4.81566
| 79>    C        3.30987        21.13307         3.38933
| 80>    N        4.32351        20.75212         3.00882
| 81>    C       -0.32451        21.48495         4.53445
| 82>    C       -1.30636        20.45412         4.46062
| 83>    C       -0.73774        19.27885         3.78629
| 84>    O       -1.30736        18.24856         3.49862
| 85>    C       -2.56910        20.62279         4.95311
| 86>    C       -2.91374        21.85194         5.55735
| 87>    C       -1.93896        22.88941         5.63283
| 88>    C       -0.64118        22.68737         5.11069
| 89>    C       -2.29506        24.11293         6.23598
| 90>    C       -3.55233        24.30393         6.74136
| 91>    C       -4.51101        23.28219         6.66617
| 92>    C       -4.19867        22.08206         6.08708
| 93>    H       -2.56151        -2.52014        -3.31599
| 94>    H       -4.13100         1.79582        -5.26358
| 95>    H       -4.77986         0.63824        -7.29424
| 96>    H       -4.96701        -1.43483        -8.60990
| 97>    H       -4.20477        -3.57847        -7.66660
| 98>    H       -3.24741        -3.66613        -5.39865
| 99>    H       -1.05964         1.11798         0.19765
|100>    H        0.08993         5.59856         1.49394
|101>    H       -1.28379         5.77573        -3.79181
|102>    H       -0.27420         6.48862        -5.82388
|103>    H        1.07077         7.28613        -5.00079
|104>    H       -1.82700         8.18891        -4.70719
|105>    H       -0.69229         8.90425        -5.86864
|106>    H        0.78521         9.65196        -4.11225
|107>    H       -0.00575        10.66979         0.16412
|108>    H        1.15649        11.23887        -2.61512
|109>    H        0.29381        12.84804         0.91090
|110>    H        1.97229        13.62741        -3.00058
|111>    H        1.96827        17.46199         0.24136
|112>    H        0.35436        16.64617         4.17159
|113>    H        2.34874        19.34410         2.20526
|114>    H       -3.29501        19.82623         4.88378
|115>    H        0.07144        23.49420         5.17629
|116>    H       -1.55363        24.89628         6.29218
|117>    H       -3.81524        25.24415         7.20216
|118>    H       -5.49825        23.45080         7.06923
|119>    H       -4.93248        21.29186         6.02609
|120> *
|121>
|122>                          ****END OF INPUT****

CARTESIAN COORDINATES (ANGSTROEM)
---------------------------------
  C     -3.060700    1.855360   -2.564790
  C     -3.688200    3.073570   -2.540840
  C     -4.464490    3.586300   -3.599890
  N     -5.076530    4.075810   -4.438320
  C     -3.640720    3.941300   -1.434540
  N     -3.584310    4.668160   -0.546770
  C     -3.262560    0.816410   -3.565490
  C     -2.807380   -0.425640   -3.032790
  C     -2.905660   -1.588970   -3.740800
  C     -3.460580   -1.560320   -5.040090
  C     -3.902640   -0.319370   -5.584370
  C     -3.798170    0.868200   -4.824720
  C     -4.445240   -0.303820   -6.885470
  C     -4.549480   -1.457130   -7.614480
  C     -4.115810   -2.678300   -7.077150
  C     -3.583560   -2.728890   -5.817210
  C     -2.241130   -0.206640   -1.692280
  O     -1.812520   -1.023660   -0.914730
  C     -2.255830    1.282240   -1.503730
  C     -1.471480    1.803800   -0.538220
  N     -1.059010    3.097850   -0.354690
  C     -0.565510    3.560040    0.903790
  O     -0.458470    2.861530    1.870160
  C     -0.261820    4.968820    0.698300
  C     -0.479390    5.315740   -0.594330
  C     -0.955720    4.089150   -1.311570
  O     -1.171310    3.929430   -2.489230
  C     -0.323610    6.623810   -1.142390
  S     -0.146380    7.923000   -0.003710
  C      0.009090    9.102590   -1.258120
  C     -0.110550    8.503060   -2.508580
  C     -0.275630    7.106710   -2.446960
  C     -0.311730    6.268260   -3.683800
  N      0.699520    5.157320   -3.631750
  O      0.729840    4.435600   -4.590650
  O      1.438840    5.099490   -2.681950
  C     -0.000920    7.076030   -4.947820
  C     -0.772060    8.385430   -4.912570
  C     -0.189500    9.261930   -3.798770
  N     -1.106680   10.433920   -3.665510
  O     -2.107090   10.282090   -3.016330
  O     -0.793260   11.431500   -4.265190
  C      0.247640   10.451650   -0.864350
  C      0.811890   11.432550   -1.609880
  C      1.039180   12.759060   -1.148210
  C      0.754630   13.327580    0.070980
  C      1.179410   14.691590    0.063610
  C      1.745240   14.936310   -1.279270
  C      1.656750   13.781850   -1.985090
  C      2.280060   16.135550   -1.763860
  N      2.725850   17.102350   -2.194750
  C      1.096720   15.596160    1.091790
  C      1.527730   16.963970    1.083150
  C      1.218930   17.539980    2.289340
  C      0.625000   16.514180    3.142110
  C      0.550120   15.355510    2.436740
  C      0.069740   14.139490    2.936560
  N     -0.315650   13.146890    3.367420
  C      1.466880   18.898390    2.649380
  C      0.664390   19.654700    3.441850
  C      0.910890   21.000710    3.933270
  C      2.108030   21.664460    3.904490
  C      2.304000   22.964010    4.419010
  N      2.522540   24.018470    4.815660
  C      3.309870   21.133070    3.389330
  N      4.323510   20.752120    3.008820
  C     -0.324510   21.484950    4.534450
  C     -1.306360   20.454120    4.460620
  C     -0.737740   19.278850    3.786290
  O     -1.307360   18.248560    3.498620
  C     -2.569100   20.622790    4.953110
  C     -2.913740   21.851940    5.557350
  C     -1.938960   22.889410    5.632830
  C     -0.641180   22.687370    5.110690
  C     -2.295060   24.112930    6.235980
  C     -3.552330   24.303930    6.741360
  C     -4.511010   23.282190    6.666170
  C     -4.198670   22.082060    6.087080
  H     -2.561510   -2.520140   -3.315990
  H     -4.131000    1.795820   -5.263580
  H     -4.779860    0.638240   -7.294240
  H     -4.967010   -1.434830   -8.609900
  H     -4.204770   -3.578470   -7.666600
  H     -3.247410   -3.666130   -5.398650
  H     -1.059640    1.117980    0.197650
  H      0.089930    5.598560    1.493940
  H     -1.283790    5.775730   -3.791810
  H     -0.274200    6.488620   -5.823880
  H      1.070770    7.286130   -5.000790
  H     -1.827000    8.188910   -4.707190
  H     -0.692290    8.904250   -5.868640
  H      0.785210    9.651960   -4.112250
  H     -0.005750   10.669790    0.164120
  H      1.156490   11.238870   -2.615120
  H      0.293810   12.848040    0.910900
  H      1.972290   13.627410   -3.000580
  H      1.968270   17.461990    0.241360
  H      0.354360   16.646170    4.171590
  H      2.348740   19.344100    2.205260
  H     -3.295010   19.826230    4.883780
  H      0.071440   23.494200    5.176290
  H     -1.553630   24.896280    6.292180
  H     -3.815240   25.244150    7.202160
  H     -5.498250   23.450800    7.069230
  H     -4.932480   21.291860    6.026090

 Total Charge           Charge          ....    0
 Multiplicity           Mult            ....    1
 Number of Electrons    NEL             ....  530
 Basis Dimension        Dim             .... 1231

ORBITAL ENERGIES
----------------

  NO   OCC          E(Eh)            E(eV)
   0   2.0000     -88.988117     -2421.4898
   1   2.0000     -19.260707      -524.1105
   2   2.0000     -19.260618      -524.1081
   3   2.0000     -19.254494      -523.9414
   4   2.0000     -19.254359      -523.9378
   5   2.0000     -19.247162      -523.7419
   6   2.0000     -19.241852      -523.5974
   7   2.0000     -19.230365      -523.2848
   8   2.0000     -19.218321      -522.9571
   9   2.0000     -14.658385      -398.8749
  10   2.0000     -14.653215      -398.7343
  11   2.0000     -14.497194      -394.4887
  12   2.0000     -14.423811      -392.4918
  13   2.0000     -14.423503      -392.4835
  14   2.0000     -14.423335      -392.4789
  15   2.0000     -14.419727      -392.3807
  16   2.0000     -14.413638      -392.2150
  17   2.0000     -14.409285      -392.0966
  18   2.0000     -10.428666      -283.7784
  19   2.0000     -10.417920      -283.4860
  20   2.0000     -10.379850      -282.4501
  21   2.0000     -10.370669      -282.2002
  22   2.0000     -10.360316      -281.9185
  23   2.0000     -10.356631      -281.8183
  24   2.0000     -10.353417      -281.7308
  25   2.0000     -10.349824      -281.6330
  26   2.0000     -10.346931      -281.5543
  27   2.0000     -10.345660      -281.5197
  28   2.0000     -10.345052      -281.5032
  29   2.0000     -10.343062      -281.4490
  30   2.0000     -10.338770      -281.3322
  31   2.0000     -10.338643      -281.3288
  32   2.0000     -10.331494      -281.1343
  33   2.0000     -10.330847      -281.1166
  34   2.0000     -10.329518      -281.0805
  35   2.0000     -10.326144      -280.9887
  36   2.0000     -10.325565      -280.9729
  37   2.0000     -10.325515      -280.9715
  38   2.0000     -10.322821      -280.8982
  39   2.0000     -10.322435      -280.8877
  40   2.0000     -10.322077      -280.8780
  41   2.0000     -10.317789      -280.7613
  42   2.0000     -10.315844      -280.7084
  43   2.0000     -10.315551      -280.7004
  44   2.0000     -10.315365      -280.6953
  45   2.0000     -10.314974      -280.6847
  46   2.0000     -10.314616      -280.6750
  47   2.0000     -10.314358      -280.6680
  48   2.0000     -10.313941      -280.6566
  49   2.0000     -10.313092      -280.6335
  50   2.0000     -10.312166      -280.6083
  51   2.0000     -10.311798      -280.5983
  52   2.0000     -10.310857      -280.5727
  53   2.0000     -10.310602      -280.5657
  54   2.0000     -10.309570      -280.5377
  55   2.0000     -10.306956      -280.4665
  56   2.0000     -10.305837      -280.4361
  57   2.0000     -10.305539      -280.4280
  58   2.0000     -10.305332      -280.4224
  59   2.0000     -10.305222      -280.4193
  60   2.0000     -10.305011      -280.4136
  61   2.0000     -10.304645      -280.4037
  62   2.0000     -10.304045      -280.3873
  63   2.0000     -10.299729      -280.2699
  64   2.0000     -10.299486      -280.2633
  65   2.0000     -10.299151      -280.2542
  66   2.0000     -10.298913      -280.2477
  67   2.0000     -10.297981      -280.2223
  68   2.0000     -10.293244      -280.0934
  69   2.0000     -10.292793      -280.0811
  70   2.0000     -10.292550      -280.0745
  71   2.0000     -10.292082      -280.0618
  72   2.0000     -10.291538      -280.0470
  73   2.0000     -10.291503      -280.0460
  74   2.0000     -10.288101      -279.9535
  75   2.0000     -10.287699      -279.9425
  76   2.0000     -10.287465      -279.9362
  77   2.0000     -10.287063      -279.9252
  78   2.0000      -8.083692      -219.9684
  79   2.0000      -6.052796      -164.7050
  80   2.0000      -6.048728      -164.5943
  81   2.0000      -6.046026      -164.5207
  82   2.0000      -1.342728       -36.5375
  83   2.0000      -1.337358       -36.3914
  84   2.0000      -1.194840       -32.5133
  85   2.0000      -1.168754       -31.8034
  86   2.0000      -1.164089       -31.6765
  87   2.0000      -1.158681       -31.5293
  88   2.0000      -1.145707       -31.1763
  89   2.0000      -1.135029       -30.8857
  90   2.0000      -1.087248       -29.5855
  91   2.0000      -1.031782       -28.0762
  92   2.0000      -1.027005       -27.9462
  93   2.0000      -1.022834       -27.8327
  94   2.0000      -1.022243       -27.8166
  95   2.0000      -1.007083       -27.4041
  96   2.0000      -1.005037       -27.3485
  97   2.0000      -1.003823       -27.3154
  98   2.0000      -1.001839       -27.2614
  99   2.0000      -0.999548       -27.1991
 100   2.0000      -0.990124       -26.9426
 101   2.0000      -0.987526       -26.8719
 102   2.0000      -0.981168       -26.6989
 103   2.0000      -0.978823       -26.6351
 104   2.0000      -0.973985       -26.5035
 105   2.0000      -0.960963       -26.1491
 106   2.0000      -0.943533       -25.6748
 107   2.0000      -0.933761       -25.4089
 108   2.0000      -0.924941       -25.1689
 109   2.0000      -0.921431       -25.0734
 110   2.0000      -0.914313       -24.8797
 111   2.0000      -0.899240       -24.4696
 112   2.0000      -0.891124       -24.2487
 113   2.0000      -0.887763       -24.1572
 114   2.0000      -0.883439       -24.0396
 115   2.0000      -0.875350       -23.8195
 116   2.0000      -0.869020       -23.6472
 117   2.0000      -0.862605       -23.4727
 118   2.0000      -0.854902       -23.2631
 119   2.0000      -0.848343       -23.0846
 120   2.0000      -0.838823       -22.8255
 121   2.0000      -0.836175       -22.7535
 122   2.0000      -0.830771       -22.6064
 123   2.0000      -0.830355       -22.5951
 124   2.0000      -0.808783       -22.0081
 125   2.0000      -0.802830       -21.8461
 126   2.0000      -0.789981       -21.4965
 127   2.0000      -0.776609       -21.1326
 128   2.0000      -0.770781       -20.9740
 129   2.0000      -0.764700       -20.8086
 130   2.0000      -0.752835       -20.4857
 131   2.0000      -0.747086       -20.3293
 132   2.0000      -0.738360       -20.0918
 133   2.0000      -0.733566       -19.9613
 134   2.0000      -0.725325       -19.7371
 135   2.0000      -0.722123       -19.6500
 136   2.0000      -0.713405       -19.4127
 137   2.0000      -0.711369       -19.3573
 138   2.0000      -0.706458       -19.2237
 139   2.0000      -0.705351       -19.1936
 140   2.0000      -0.703540       -19.1443
 141   2.0000      -0.696571       -18.9547
 142   2.0000      -0.687456       -18.7066
 143   2.0000      -0.682436       -18.5700
 144   2.0000      -0.680429       -18.5154
 145   2.0000      -0.672371       -18.2961
 146   2.0000      -0.669040       -18.2055
 147   2.0000      -0.666517       -18.1368
 148   2.0000      -0.659405       -17.9433
 149   2.0000      -0.650657       -17.7053
 150   2.0000      -0.646591       -17.5946
 151   2.0000      -0.643592       -17.5130
 152   2.0000      -0.641691       -17.4613
 153   2.0000      -0.638201       -17.3663
 154   2.0000      -0.636585       -17.3224
 155   2.0000      -0.633395       -17.2355
 156   2.0000      -0.626085       -17.0366
 157   2.0000      -0.623113       -16.9558
 158   2.0000      -0.617856       -16.8127
 159   2.0000      -0.614224       -16.7139
 160   2.0000      -0.609852       -16.5949
 161   2.0000      -0.609279       -16.5793
 162   2.0000      -0.607058       -16.5189
 163   2.0000      -0.598971       -16.2988
 164   2.0000      -0.594969       -16.1899
 165   2.0000      -0.591708       -16.1012
 166   2.0000      -0.586109       -15.9488
 167   2.0000      -0.581503       -15.8235
 168   2.0000      -0.576737       -15.6938
 169   2.0000      -0.568332       -15.4651
 170   2.0000      -0.564565       -15.3626
 171   2.0000      -0.561164       -15.2701
 172   2.0000      -0.554994       -15.1022
 173   2.0000      -0.554639       -15.0925
 174   2.0000      -0.552752       -15.0412
 175   2.0000      -0.550695       -14.9852
 176   2.0000      -0.548725       -14.9316
 177   2.0000      -0.547576       -14.9003
 178   2.0000      -0.546050       -14.8588
 179   2.0000      -0.545217       -14.8361
 180   2.0000      -0.542762       -14.7693
 181   2.0000      -0.539758       -14.6876
 182   2.0000      -0.538063       -14.6414
 183   2.0000      -0.534994       -14.5579
 184   2.0000      -0.532785       -14.4978
 185   2.0000      -0.530674       -14.4404
 186   2.0000      -0.529708       -14.4141
 187   2.0000      -0.527112       -14.3435
 188   2.0000      -0.523869       -14.2552
 189   2.0000      -0.522638       -14.2217
 190   2.0000      -0.521807       -14.1991
 191   2.0000      -0.517366       -14.0782
 192   2.0000      -0.516964       -14.0673
 193   2.0000      -0.515192       -14.0191
 194   2.0000      -0.514789       -14.0081
 195   2.0000      -0.512899       -13.9567
 196   2.0000      -0.510951       -13.9037
 197   2.0000      -0.505635       -13.7590
 198   2.0000      -0.504449       -13.7268
 199   2.0000      -0.499584       -13.5944
 200   2.0000      -0.495562       -13.4849
 201   2.0000      -0.493357       -13.4249
 202   2.0000      -0.491054       -13.3623
 203   2.0000      -0.490340       -13.3428
 204   2.0000      -0.489461       -13.3189
 205   2.0000      -0.485750       -13.2179
 206   2.0000      -0.484775       -13.1914
 207   2.0000      -0.483106       -13.1460
 208   2.0000      -0.481363       -13.0986
 209   2.0000      -0.473002       -12.8710
 210   2.0000      -0.468904       -12.7595
 211   2.0000      -0.467943       -12.7334
 212   2.0000      -0.459998       -12.5172
 213   2.0000      -0.456025       -12.4091
 214   2.0000      -0.454549       -12.3689
 215   2.0000      -0.451504       -12.2860
 216   2.0000      -0.450882       -12.2691
 217   2.0000      -0.450640       -12.2625
 218   2.0000      -0.448284       -12.1984
 219   2.0000      -0.446174       -12.1410
 220   2.0000      -0.444362       -12.0917
 221   2.0000      -0.443864       -12.0781
 222   2.0000      -0.442862       -12.0509
 223   2.0000      -0.442316       -12.0360
 224   2.0000      -0.441767       -12.0211
 225   2.0000      -0.441111       -12.0032
 226   2.0000      -0.440048       -11.9743
 227   2.0000      -0.437760       -11.9121
 228   2.0000      -0.436755       -11.8847
 229   2.0000      -0.433765       -11.8034
 230   2.0000      -0.433411       -11.7937
 231   2.0000      -0.428569       -11.6619
 232   2.0000      -0.427428       -11.6309
 233   2.0000      -0.425118       -11.5681
 234   2.0000      -0.421665       -11.4741
 235   2.0000      -0.420076       -11.4308
 236   2.0000      -0.416393       -11.3306
 237   2.0000      -0.414292       -11.2735
 238   2.0000      -0.410356       -11.1664
 239   2.0000      -0.403300       -10.9743
 240   2.0000      -0.401413       -10.9230
 241   2.0000      -0.398399       -10.8410
 242   2.0000      -0.397106       -10.8058
 243   2.0000      -0.393536       -10.7087
 244   2.0000      -0.389890       -10.6095
 245   2.0000      -0.388853       -10.5812
 246   2.0000      -0.386539       -10.5183
 247   2.0000      -0.385311       -10.4848
 248   2.0000      -0.383048       -10.4233
 249   2.0000      -0.380058       -10.3419
 250   2.0000      -0.376369       -10.2415
 251   2.0000      -0.369876       -10.0648
 252   2.0000      -0.360578        -9.8118
 253   2.0000      -0.355538        -9.6747
 254   2.0000      -0.348027        -9.4703
 255   2.0000      -0.341790        -9.3006
 256   2.0000      -0.331396        -9.0177
 257   2.0000      -0.327210        -8.9038
 258   2.0000      -0.321983        -8.7616
 259   2.0000      -0.320276        -8.7152
 260   2.0000      -0.314622        -8.5613
 261   2.0000      -0.308764        -8.4019
 262   2.0000      -0.298751        -8.1294
 263   2.0000      -0.295485        -8.0405
 264   2.0000      -0.276280        -7.5180
 265   0.0000      -0.135475        -3.6865
 266   0.0000      -0.097250        -2.6463
 267   0.0000      -0.087603        -2.3838
 268   0.0000      -0.081219        -2.2101
 269   0.0000      -0.065667        -1.7869

MULLIKEN ATOMIC CHARGES
-----------------------
   0 C :    0.321203
   1 C :   -0.315602
   2 C :   -0.180008
   3 N :    0.150909
   4 C :   -0.198249
   5 N :    0.141971
   6 C :    0.045659
   7 C :    0.007877
   8 C :   -0.078812
   9 C :    0.096005
  10 C :    0.097742
  11 C :   -0.084147
  12 C :   -0.018331
  13 C :    0.039735
  14 C :    0.034675
  15 C :   -0.014834
  16 C :    0.133082
  17 O :   -0.134184
  18 C :   -0.107507
  19 C :    0.097955
  20 N :   -0.215036
  21 C :    0.242190
  22 O :   -0.124881
  23 C :   -0.124631
  24 C :    0.097060
  25 C :    0.174105
  26 O :   -0.176477
  27 C :   -0.116605
  28 S :    0.179417
  29 C :   -0.099410
  30 C :   -0.028713
  31 C :   -0.006409
  32 C :    0.093614
  33 N :    0.208977
  34 O :   -0.215015
  35 O :   -0.228040
  36 C :    0.079173
  37 C :    0.071893
  38 C :    0.091854
  39 N :    0.190999
  40 O :   -0.200088
  41 O :   -0.231629
  42 C :    0.049977
  43 C :    0.010318
  44 C :    0.099875
  45 C :   -0.111792
  46 C :    0.109473
  47 C :   -0.090257
  48 C :    0.005834
  49 C :   -0.179039
  50 N :    0.139923
  51 C :    0.102595
  52 C :   -0.066131
  53 C :    0.076503
  54 C :    0.086697
  55 C :   -0.130735
  56 C :   -0.173024
  57 N :    0.131638
  58 C :   -0.023203
  59 C :   -0.089969
  60 C :    0.313352
  61 C :   -0.338249
  62 C :   -0.182209
  63 N :    0.158500
  64 C :   -0.199832
  65 N :    0.172229
  66 C :    0.055544
  67 C :   -0.008899
  68 C :    0.143519
  69 O :   -0.139531
  70 C :   -0.078387
  71 C :    0.101528
  72 C :    0.101460
  73 C :   -0.089807
  74 C :   -0.021900
  75 C :    0.039836
  76 C :    0.039466
  77 C :   -0.019489
  78 H :   -0.010567
  79 H :   -0.005686
  80 H :   -0.011787
  81 H :   -0.004509
  82 H :   -0.004032
  83 H :   -0.016579
  84 H :    0.054736
  85 H :    0.024643
  86 H :    0.074024
  87 H :    0.044604
  88 H :    0.018153
  89 H :    0.039432
  90 H :    0.033910
  91 H :    0.044716
  92 H :    0.012007
  93 H :   -0.019831
  94 H :    0.007133
  95 H :    0.003369
  96 H :    0.013691
  97 H :    0.003681
  98 H :    0.043188
  99 H :   -0.008374
 100 H :   -0.006065
 101 H :   -0.005640
 102 H :   -0.002116
 103 H :   -0.002178
 104 H :   -0.013222
Sum of atomic charges:   -0.0000000

LOEWDIN ATOMIC CHARGES
----------------------
   0 C :    0.083567
   1 C :   -0.136284
   2 C :   -0.018147
   3 N :   -0.054615
   4 C :   -0.014193
   5 N :   -0.066551
   6 C :   -0.021232
   7 C :   -0.058175
   8 C :    0.035868
   9 C :   -0.008522
  10 C :   -0.004637
  11 C :    0.018603
  12 C :   -0.005955
  13 C :   -0.011969
  14 C :   -0.012310
  15 C :   -0.008048
  16 C :    0.088633
  17 O :   -0.135196
  18 C :   -0.101841
  19 C :    0.120328
  20 N :   -0.003939
  21 C :    0.106023
  22 O :   -0.109970
  23 C :   -0.033418
  24 C :   -0.018959
  25 C :    0.102124
  26 O :   -0.136355
  27 C :   -0.161247
  28 S :    0.504958
  29 C :   -0.147792
  30 C :   -0.068499
  31 C :   -0.039602
  32 C :    0.008614
  33 N :    0.277732
  34 O :   -0.180512
  35 O :   -0.197663
  36 C :   -0.019845
  37 C :   -0.014802
  38 C :    0.012960
  39 N :    0.272715
  40 O :   -0.180001
  41 O :   -0.198585
  42 C :   -0.017116
  43 C :   -0.016851
  44 C :   -0.010889
  45 C :   -0.017490
  46 C :    0.043194
  47 C :   -0.080229
  48 C :    0.059463
  49 C :   -0.031939
  50 N :   -0.058663
  51 C :    0.038143
  52 C :    0.020352
  53 C :   -0.025450
  54 C :    0.083679
  55 C :   -0.097050
  56 C :   -0.026677
  57 N :   -0.069191
  58 C :    0.074034
  59 C :   -0.076814
  60 C :    0.071897
  61 C :   -0.127122
  62 C :   -0.017010
  63 N :   -0.044524
  64 C :   -0.023699
  65 N :   -0.039804
  66 C :   -0.025964
  67 C :   -0.058633
  68 C :    0.085731
  69 O :   -0.126315
  70 C :    0.036963
  71 C :   -0.007575
  72 C :   -0.004367
  73 C :    0.021571
  74 C :   -0.004556
  75 C :   -0.009746
  76 C :   -0.009220
  77 C :   -0.007827
  78 H :    0.040052
  79 H :    0.038890
  80 H :    0.034002
  81 H :    0.033414
  82 H :    0.033162
  83 H :    0.032256
  84 H :    0.051860
  85 H :    0.039899
  86 H :    0.052624
  87 H :    0.042816
  88 H :    0.031299
  89 H :    0.037696
  90 H :    0.039461
  91 H :    0.039062
  92 H :    0.039958
  93 H :    0.026733
  94 H :    0.033773
  95 H :    0.039393
  96 H :    0.040211
  97 H :    0.037958
  98 H :    0.053506
  99 H :    0.040828
 100 H :    0.039782
 101 H :    0.035818
 102 H :    0.034502
 103 H :    0.034200
 104 H :    0.033280

  Mayer bond orders larger than 0.100000
B(  0-C ,  1-C ) :   1.6449 B(  0-C ,  6-C ) :   1.0174 B(  0-C , 18-C ) :   1.0188
B(  1-C ,  2-C ) :   1.1424 B(  1-C ,  4-C ) :   1.1661 B(  2-C ,  3-N ) :   2.9814
B(  4-C ,  5-N ) :   2.9726 B(  6-C ,  7-C ) :   1.2109 B(  6-C , 11-C ) :   1.4537
B(  7-C ,  8-C ) :   1.4742 B(  7-C , 16-C ) :   0.9254 B(  8-C ,  9-C ) :   1.1841
B(  8-C , 78-H ) :   1.0163 B(  9-C , 10-C ) :   1.2567 B(  9-C , 15-C ) :   1.2452
B( 10-C , 11-C ) :   1.2056 B( 10-C , 12-C ) :   1.2403 B( 11-C , 79-H ) :   0.9924
B( 12-C , 13-C ) :   1.4905 B( 12-C , 80-H ) :   0.9974 B( 13-C , 14-C ) :   1.2598
B( 13-C , 81-H ) :   0.9881 B( 14-C , 15-C ) :   1.4891 B( 14-C , 82-H ) :   0.9890
B( 15-C , 83-H ) :   0.9979 B( 16-C , 17-O ) :   2.2811 B( 16-C , 18-C ) :   0.9375
B( 18-C , 19-C ) :   1.6906 B( 19-C , 20-N ) :   1.0925 B( 19-C , 84-H ) :   0.9267
B( 20-N , 21-C ) :   0.9199 B( 20-N , 25-C ) :   1.0589 B( 21-C , 22-O ) :   2.2001
B( 21-C , 23-C ) :   0.9902 B( 23-C , 24-C ) :   1.6404 B( 23-C , 85-H ) :   1.0096
B( 24-C , 25-C ) :   0.9113 B( 24-C , 27-C ) :   1.1248 B( 25-C , 26-O ) :   2.0731
B( 27-C , 28-S ) :   1.1522 B( 27-C , 29-C ) :   0.1066 B( 27-C , 31-C ) :   1.5005
B( 28-S , 29-C ) :   1.1624 B( 29-C , 30-C ) :   1.4854 B( 29-C , 42-C ) :   1.1134
B( 30-C , 31-C ) :   1.3608 B( 30-C , 38-C ) :   0.9603 B( 31-C , 32-C ) :   0.9737
B( 32-C , 33-N ) :   0.8284 B( 32-C , 36-C ) :   1.0790 B( 32-C , 86-H ) :   0.8704
B( 33-N , 34-O ) :   1.5741 B( 33-N , 35-O ) :   1.5857 B( 34-O , 35-O ) :   0.2606
B( 36-C , 37-C ) :   1.0915 B( 36-C , 87-H ) :   0.9204 B( 36-C , 88-H ) :   0.9215
B( 37-C , 38-C ) :   1.0670 B( 37-C , 89-H ) :   0.9259 B( 37-C , 90-H ) :   0.9279
B( 38-C , 39-N ) :   0.8375 B( 38-C , 91-H ) :   0.8957 B( 39-N , 40-O ) :   1.5985
B( 39-N , 41-O ) :   1.5284 B( 40-O , 41-O ) :   0.2717 B( 42-C , 43-C ) :   1.6714
B( 42-C , 92-H ) :   0.9477 B( 43-C , 44-C ) :   1.1277 B( 43-C , 93-H ) :   0.9590
B( 44-C , 45-C ) :   1.5585 B( 44-C , 48-C ) :   1.0296 B( 45-C , 46-C ) :   1.1252
B( 45-C , 94-H ) :   0.9926 B( 46-C , 47-C ) :   1.0976 B( 46-C , 51-C ) :   1.4327
B( 47-C , 48-C ) :   1.6791 B( 47-C , 49-C ) :   1.0869 B( 48-C , 95-H ) :   1.0219
B( 49-C , 50-N ) :   2.9687 B( 51-C , 52-C ) :   1.0891 B( 51-C , 55-C ) :   1.1185
B( 52-C , 53-C ) :   1.5503 B( 52-C , 96-H ) :   1.0053 B( 53-C , 54-C ) :   1.0487
B( 53-C , 58-C ) :   1.0740 B( 54-C , 55-C ) :   1.6750 B( 54-C , 97-H ) :   1.0053
B( 55-C , 56-C ) :   1.0936 B( 56-C , 57-N ) :   2.9708 B( 58-C , 59-C ) :   1.6551
B( 58-C , 98-H ) :   0.9486 B( 59-C , 60-C ) :   1.0328 B( 59-C , 68-C ) :   0.9353
B( 60-C , 61-C ) :   1.6594 B( 60-C , 66-C ) :   0.9988 B( 61-C , 62-C ) :   1.1449
B( 61-C , 64-C ) :   1.1413 B( 62-C , 63-N ) :   2.9672 B( 64-C , 65-N ) :   2.9872
B( 66-C , 67-C ) :   1.2105 B( 66-C , 73-C ) :   1.4451 B( 67-C , 68-C ) :   0.9497
B( 67-C , 70-C ) :   1.4659 B( 68-C , 69-O ) :   2.2095 B( 70-C , 71-C ) :   1.1823
B( 70-C , 99-H ) :   1.0172 B( 71-C , 72-C ) :   1.2524 B( 71-C , 77-C ) :   1.2424
B( 72-C , 73-C ) :   1.2083 B( 72-C , 74-C ) :   1.2393 B( 73-C ,100-H ) :   0.9907
B( 74-C , 75-C ) :   1.4903 B( 74-C ,101-H ) :   0.9975 B( 75-C , 76-C ) :   1.2594
B( 75-C ,102-H ) :   0.9880 B( 76-C , 77-C ) :   1.4904 B( 76-C ,103-H ) :   0.9882
B( 77-C ,104-H ) :   0.9981

-----------------------------------------------------------------------------
         ABSORPTION SPECTRUM VIA TRANSITION ELECTRIC DIPOLE MOMENTS
-----------------------------------------------------------------------------
State   Energy  Wavelength   fosc         T2         TX        TY        TZ
        (cm-1)    (nm)                  (au**2)     (au)      (au)      (au)
-----------------------------------------------------------------------------
   0   14738.5    678.5   0.687001787  15.34543   0.09924   3.51227   1.73193
   1   18316.6    546.0   0.012316220   0.22137   0.12965  -0.27878  -0.35614
   2   22148.3    451.5   0.736125801  10.94178  -0.44214  -3.13066  -0.97225
   3   22965.1    435.4   0.234183351   3.35709   0.17005  -1.79268  -0.33832
   4   24076.1    415.3   0.143031327   1.95578   0.53442   0.45570  -1.20934
   5   24881.5    401.9   0.022860235   0.30247  -0.12759   0.42677   0.32258
   6   25678.1    389.4   0.138892627   1.78070   0.26334   1.29495   0.18566
   7   26416.5    378.6   0.023355823   0.29107   0.35535  -0.37836  -0.14709
   8   27311.2    366.2   0.115802429   1.39590   0.40476   1.09261   0.19565
   9   28283.4    353.6   0.047188985   0.54927   0.20027  -0.67521   0.23076
  10   28658.1    348.9   0.052372857   0.60164  -0.05642   0.67228   0.38274
  11   28940.8    345.5   0.253839090   2.88751  -0.42955   0.90229   1.37436
  12   29213.9    342.3   0.090228282   1.01678   0.48950   0.40506   0.78301
  13   30033.6    333.0   0.062513139   0.68524   0.56980   0.51799   0.30374
  14   30083.9    332.4   0.036889959   0.40369   0.35548  -0.41845  -0.31972
  15   30568.8    327.1   0.334149156   3.59864  -1.35642   0.97715   0.89662
  16   30869.7    323.9   0.116546753   1.24292  -0.32640   0.81757   0.68408
  17   31282.5    319.7   0.216598506   2.27945  -0.81321   0.68602   1.07122
  18   31418.3    318.3   0.027728562   0.29055  -0.14909  -0.11956   0.50401
  19   31581.0    316.6   0.013235786   0.13797   0.20873   0.30449   0.04110
  20   31769.0    314.8   0.023270913   0.24115  -0.00264   0.17437   0.45906
  21   31917.1    313.3   0.015725523   0.16220   0.30058   0.26237  -0.05492
  22   32179.6    310.8   0.050693333   0.51862  -0.16781   0.26030   0.65016
  23   33193.5    301.3   0.069677092   0.69106  -0.50682   0.65707  -0.04943
  24   33378.4    299.6   0.008240024   0.08127   0.17779   0.07001  -0.21157
  25   33395.1    299.4   0.207609348   2.04663  -0.60958   1.11002   0.66551
  26   33688.8    296.8   0.060136490   0.58766  -0.05747  -0.75352  -0.12870
  27   33744.7    296.3   0.006522601   0.06363  -0.14172  -0.00674   0.20857
  28   34146.1    292.9   0.180388144   1.73917  -1.15391  -0.31227  -0.55691
  29   34455.4    290.2   0.133994005   1.28028  -1.00845   0.12054  -0.49877
  30   34845.3    287.0   0.017266902   0.16313   0.05917  -0.37441   0.13945
  31   35117.7    284.8   0.871404186   8.16900  -0.20002  -2.54133  -1.29253
  32   35491.3    281.8   0.028202273   0.26160   0.08304  -0.03586  -0.50341
  33   35670.9    280.3   0.292736945   2.70171   1.62625   0.18119  -0.15558
  34   35752.2    279.7   0.363291037   3.34524   1.50314   0.17210  -1.02772
  35   36276.9    275.7   0.012215474   0.11086   0.29323   0.12108   0.10104
  36   36351.1    275.1   0.025263319   0.22880   0.08256   0.45004  -0.13943
  37   36411.8    274.6   0.047783661   0.43203  -0.04321  -0.63289  -0.17209
  38   36497.6    274.0   0.007288180   0.06574  -0.25071   0.03531   0.04047
  39   36578.7    273.4   0.196356258   1.76722  -0.22103  -1.00065  -0.84680
  40   37217.0    268.7   0.044176642   0.39078   0.26353   0.03523   0.56576
  41   37618.5    265.8   0.078530047   0.68724  -0.25899   0.68864   0.38203
  42   37984.9    263.3   0.073821672   0.63981  -0.51393   0.49652   0.35938
  43   38651.9    258.7   0.005434745   0.04629   0.19215  -0.00903  -0.09636
  44   38692.7    258.4   0.000679520   0.00578   0.03080  -0.06893   0.00908
  45   38977.3    256.6   0.098157351   0.82906   0.22688   0.73941   0.48048
  46   39084.1    255.9   0.100502712   0.84655  -0.13061  -0.90487   0.10345
  47   39262.5    254.7   0.046962619   0.39378  -0.10639   0.46329   0.40966
  48   39336.0    254.2   0.000376555   0.00315  -0.00430   0.02810   0.04841
  49   39593.8    252.6   0.026129168   0.21726  -0.01169  -0.46550   0.02072
  50   39750.5    251.6   0.058049045   0.48076  -0.22197  -0.43227  -0.49460
  51   40095.5    249.4   0.251376529   2.06398   0.60374  -0.16417   1.29326
  52   40207.7    248.7   0.002547414   0.02086   0.05820   0.13197   0.00747

FINAL SINGLE POINT ENERGY     -3790.711621533126

DIPOLE MOMENT
-------------
                                X             Y             Z
Electronic contribution:     12.51716      -3.21676      15.28314
Nuclear contribution   :    -14.08871       2.68090     -16.32738
                        -----------------------------------------
Total Dipole Moment    :     -1.57154      -0.53586      -1.04424
                        -----------------------------------------
Magnitude (a.u.)       :      1.96146
Magnitude (Debye)      :      4.98564

Rotational constants in cm-1:     0.002231     0.000204     0.000199
Rotational constants in MHz :    66.878142     6.105265     5.962921

                             ****ORCA TERMINATED NORMALLY****
TOTAL RUN TIME: 0 days 0 hours 12 minutes 10 seconds 506 msec
