                         Program Version 4.2.0 -  RELEASE  -
|  1> # ORCA input file
|  2> # SCF done       -180.558969311903          0.003844088702
|  3> ! CAM-B3LYP def2-SVP def2/J RIJCOSX Grid4 TightSCF
|  4> %maxcore 5000
|  5> %tddft
|  6>     Mode sTDDFT
|  7>     Ethresh 5.0
|  8>     maxcore 5000
|  9> end
| 10>
| 11> %pal
| 12>   nprocs 6
| 13>   end
| 14> * xyz 0 1
| 15>    C       -1.32776         0.20986        -3.06665
| 16>    C       -1.07117         0.69341        -4.32360
| 17>    C       -0.47307        -0.06538        -5.35224
| 18>    N        0.00736        -0.61693        -6.23706
| 19>    C       -1.31904         2.00266        -4.78897
| 20>    N       -1.46709         3.04186        -5.25564
| 21>    C       -0.98253        -1.12873        -2.60458
| 22>    C       -1.26942        -1.21382        -1.21391
| 23>    C       -1.03756        -2.35064        -0.49443
| 24>    C       -0.50768        -3.48381        -1.15031
| 25>    C       -0.22704        -3.41150        -2.54545
| 26>    C       -0.46939        -2.21676        -3.26100
| 27>    C        0.29299        -4.55061        -3.19310
| 28>    C        0.52436        -5.70643        -2.49806
| 29>    C        0.24913        -5.77589        -1.12418
| 30>    C       -0.25457        -4.68792        -0.46440
| 31>    C       -1.83039         0.06329        -0.74510
| 32>    O       -2.14063         0.32271         0.39922
| 33>    C       -1.92843         0.92838        -1.94920
| 34>    C       -2.53016         2.14794        -2.07839
| 35>    C       -3.17602         2.98750        -1.14272
| 36>    S       -3.88467         4.46001        -1.77948
| 37>    C       -4.45264         4.94460        -0.22136
| 38>    C       -4.09345         3.98828         0.74525
| 39>    C       -3.37999         2.90502         0.22364
| 40>    C       -4.40916         4.07152         2.11236
| 41>    N       -4.65907         4.10709         3.23199
| 42>    C       -5.15951         6.16373        -0.10151
| 43>    C       -5.66014         6.67781         1.05464
| 44>    C       -6.34145         7.91816         1.09365
| 45>    N       -6.87016         8.46320         2.24114
| 46>    C       -6.90944         7.84562         3.54527
| 47>    C       -7.95939         6.74062         3.62407
| 48>    C       -7.44777         9.72810         2.01007
| 49>    O       -7.97750        10.39541         2.87278
| 50>    C       -7.23825         9.95420         0.59630
| 51>    C       -6.57339         8.82445         0.06022
| 52>    C       -6.36085         9.07801        -1.34485
| 53>    O       -5.85244         8.40739        -2.22284
| 54>    N       -6.89025        10.36677        -1.56247
| 55>    C       -6.94164        10.89218        -2.90626
| 56>    C       -8.36507        10.90527        -3.45570
| 57>    C       -7.40887        10.90036        -0.40764
| 58>    C       -7.95616        12.19972        -0.16325
| 59>    C       -7.96163        13.28126        -0.95192
| 60>    C       -8.51950        14.58418        -0.52219
| 61>    O       -7.71620        15.70826        -0.88763
| 62>    C       -8.77598        16.33122        -1.61405
| 63>    C       -9.69565        15.12570        -1.41011
| 64>    C      -10.96736        15.33474        -0.70230
| 65>    C      -11.90084        14.37725        -0.53379
| 66>    C      -13.19058        14.49784         0.14263
| 67>    C      -13.62807        15.56102         0.88136
| 68>    C      -14.88780        15.62269         1.51778
| 69>    N      -15.89551        15.74040         2.05393
| 70>    C      -12.89211        16.74192         1.12761
| 71>    N      -12.35389        17.72512         1.37188
| 72>    C      -13.92561        13.26380        -0.09644
| 73>    C      -13.09932        12.36805        -0.83569
| 74>    C      -11.80670        13.00751        -1.11339
| 75>    O      -10.86163        12.53040        -1.70714
| 76>    C      -13.53081        11.12465        -1.20078
| 77>    C      -14.83512        10.71586        -0.84561
| 78>    C      -15.67136        11.60934        -0.11526
| 79>    C      -15.19599        12.88650         0.25533
| 80>    C      -16.97479        11.19401         0.22609
| 81>    C      -17.43153         9.95645        -0.13645
| 82>    C      -16.60692         9.07688        -0.85425
| 83>    C      -15.33586         9.44798        -1.20058
| 84>    H       -1.25984        -2.38458         0.56173
| 85>    H       -0.24696        -2.19783        -4.31586
| 86>    H        0.50504        -4.49147        -4.25055
| 87>    H        0.92098        -6.57408        -3.00337
| 88>    H        0.43779        -6.69594        -0.59131
| 89>    H       -0.46792        -4.73558         0.59337
| 90>    H       -2.54615         2.56281        -3.07961
| 91>    H       -3.02354         2.08438         0.82057
| 92>    H       -5.29667         6.71629        -1.02284
| 93>    H       -5.53292         6.14490         1.98432
| 94>    H       -7.16350         8.64568         4.24586
| 95>    H       -5.92025         7.45393         3.79877
| 96>    H       -8.94338         7.14300         3.39510
| 97>    H       -7.97612         6.32481         4.62746
| 98>    H       -7.73701         5.94077         2.92252
| 99>    H       -6.32086        10.21809        -3.50452
|100>    H       -6.48928        11.88599        -2.93586
|101>    H       -8.75350         9.88958        -3.49168
|102>    H       -8.36553        11.30907        -4.46494
|103>    H       -9.02601        11.50273        -2.83322
|104>    H       -8.36778        12.28476         0.83496
|105>    H       -7.54850        13.28708        -1.94613
|106>    H       -8.75090        14.58959         0.54899
|107>    H       -8.48788        16.54752        -2.64471
|108>    H       -9.11191        17.24906        -1.12252
|109>    H       -9.82770        14.50170        -2.29448
|110>    H      -11.12033        16.31954        -0.28181
|111>    H      -12.88480        10.46326        -1.75826
|112>    H      -15.85409        13.54096         0.80415
|113>    H      -17.60544        11.87318         0.78078
|114>    H      -18.43125         9.64739         0.12909
|115>    H      -16.98379         8.10306        -1.13125
|116>    H      -14.69637         8.77483        -1.75246
|117> *
|118>
|119>                          ****END OF INPUT****

CARTESIAN COORDINATES (ANGSTROEM)
---------------------------------
  C     -1.327760    0.209860   -3.066650
  C     -1.071170    0.693410   -4.323600
  C     -0.473070   -0.065380   -5.352240
  N      0.007360   -0.616930   -6.237060
  C     -1.319040    2.002660   -4.788970
  N     -1.467090    3.041860   -5.255640
  C     -0.982530   -1.128730   -2.604580
  C     -1.269420   -1.213820   -1.213910
  C     -1.037560   -2.350640   -0.494430
  C     -0.507680   -3.483810   -1.150310
  C     -0.227040   -3.411500   -2.545450
  C     -0.469390   -2.216760   -3.261000
  C      0.292990   -4.550610   -3.193100
  C      0.524360   -5.706430   -2.498060
  C      0.249130   -5.775890   -1.124180
  C     -0.254570   -4.687920   -0.464400
  C     -1.830390    0.063290   -0.745100
  O     -2.140630    0.322710    0.399220
  C     -1.928430    0.928380   -1.949200
  C     -2.530160    2.147940   -2.078390
  C     -3.176020    2.987500   -1.142720
  S     -3.884670    4.460010   -1.779480
  C     -4.452640    4.944600   -0.221360
  C     -4.093450    3.988280    0.745250
  C     -3.379990    2.905020    0.223640
  C     -4.409160    4.071520    2.112360
  N     -4.659070    4.107090    3.231990
  C     -5.159510    6.163730   -0.101510
  C     -5.660140    6.677810    1.054640
  C     -6.341450    7.918160    1.093650
  N     -6.870160    8.463200    2.241140
  C     -6.909440    7.845620    3.545270
  C     -7.959390    6.740620    3.624070
  C     -7.447770    9.728100    2.010070
  O     -7.977500   10.395410    2.872780
  C     -7.238250    9.954200    0.596300
  C     -6.573390    8.824450    0.060220
  C     -6.360850    9.078010   -1.344850
  O     -5.852440    8.407390   -2.222840
  N     -6.890250   10.366770   -1.562470
  C     -6.941640   10.892180   -2.906260
  C     -8.365070   10.905270   -3.455700
  C     -7.408870   10.900360   -0.407640
  C     -7.956160   12.199720   -0.163250
  C     -7.961630   13.281260   -0.951920
  C     -8.519500   14.584180   -0.522190
  O     -7.716200   15.708260   -0.887630
  C     -8.775980   16.331220   -1.614050
  C     -9.695650   15.125700   -1.410110
  C    -10.967360   15.334740   -0.702300
  C    -11.900840   14.377250   -0.533790
  C    -13.190580   14.497840    0.142630
  C    -13.628070   15.561020    0.881360
  C    -14.887800   15.622690    1.517780
  N    -15.895510   15.740400    2.053930
  C    -12.892110   16.741920    1.127610
  N    -12.353890   17.725120    1.371880
  C    -13.925610   13.263800   -0.096440
  C    -13.099320   12.368050   -0.835690
  C    -11.806700   13.007510   -1.113390
  O    -10.861630   12.530400   -1.707140
  C    -13.530810   11.124650   -1.200780
  C    -14.835120   10.715860   -0.845610
  C    -15.671360   11.609340   -0.115260
  C    -15.195990   12.886500    0.255330
  C    -16.974790   11.194010    0.226090
  C    -17.431530    9.956450   -0.136450
  C    -16.606920    9.076880   -0.854250
  C    -15.335860    9.447980   -1.200580
  H     -1.259840   -2.384580    0.561730
  H     -0.246960   -2.197830   -4.315860
  H      0.505040   -4.491470   -4.250550
  H      0.920980   -6.574080   -3.003370
  H      0.437790   -6.695940   -0.591310
  H     -0.467920   -4.735580    0.593370
  H     -2.546150    2.562810   -3.079610
  H     -3.023540    2.084380    0.820570
  H     -5.296670    6.716290   -1.022840
  H     -5.532920    6.144900    1.984320
  H     -7.163500    8.645680    4.245860
  H     -5.920250    7.453930    3.798770
  H     -8.943380    7.143000    3.395100
  H     -7.976120    6.324810    4.627460
  H     -7.737010    5.940770    2.922520
  H     -6.320860   10.218090   -3.504520
  H     -6.489280   11.885990   -2.935860
  H     -8.753500    9.889580   -3.491680
  H     -8.365530   11.309070   -4.464940
  H     -9.026010   11.502730   -2.833220
  H     -8.367780   12.284760    0.834960
  H     -7.548500   13.287080   -1.946130
  H     -8.750900   14.589590    0.548990
  H     -8.487880   16.547520   -2.644710
  H     -9.111910   17.249060   -1.122520
  H     -9.827700   14.501700   -2.294480
  H    -11.120330   16.319540   -0.281810
  H    -12.884800   10.463260   -1.758260
  H    -15.854090   13.540960    0.804150
  H    -17.605440   11.873180    0.780780
  H    -18.431250    9.647390    0.129090
  H    -16.983790    8.103060   -1.131250
  H    -14.696370    8.774830   -1.752460

 Total Charge           Charge          ....    0
 Multiplicity           Mult            ....    1
 Number of Electrons    NEL             ....  474
 Basis Dimension        Dim             .... 1135

ORBITAL ENERGIES
----------------

  NO   OCC          E(Eh)            E(eV)
   0   2.0000     -88.984489     -2421.3910
   1   2.0000     -19.232407      -523.3404
   2   2.0000     -19.223378      -523.0947
   3   2.0000     -19.216361      -522.9038
   4   2.0000     -19.197448      -522.3891
   5   2.0000     -19.187369      -522.1149
   6   2.0000     -14.455825      -393.3630
   7   2.0000     -14.452186      -393.2640
   8   2.0000     -14.425602      -392.5406
   9   2.0000     -14.423932      -392.4951
  10   2.0000     -14.419266      -392.3682
  11   2.0000     -14.417321      -392.3152
  12   2.0000     -14.415942      -392.2777
  13   2.0000     -10.381290      -282.4893
  14   2.0000     -10.377933      -282.3979
  15   2.0000     -10.374106      -282.2938
  16   2.0000     -10.372591      -282.2526
  17   2.0000     -10.353734      -281.7394
  18   2.0000     -10.350703      -281.6569
  19   2.0000     -10.344575      -281.4902
  20   2.0000     -10.344101      -281.4773
  21   2.0000     -10.343820      -281.4696
  22   2.0000     -10.342116      -281.4233
  23   2.0000     -10.340527      -281.3800
  24   2.0000     -10.338559      -281.3265
  25   2.0000     -10.330236      -281.1000
  26   2.0000     -10.328586      -281.0551
  27   2.0000     -10.327623      -281.0289
  28   2.0000     -10.326151      -280.9889
  29   2.0000     -10.326120      -280.9880
  30   2.0000     -10.325394      -280.9682
  31   2.0000     -10.324914      -280.9552
  32   2.0000     -10.321812      -280.8708
  33   2.0000     -10.318944      -280.7927
  34   2.0000     -10.318449      -280.7793
  35   2.0000     -10.312598      -280.6201
  36   2.0000     -10.310181      -280.5543
  37   2.0000     -10.307285      -280.4755
  38   2.0000     -10.307256      -280.4747
  39   2.0000     -10.306709      -280.4598
  40   2.0000     -10.306467      -280.4532
  41   2.0000     -10.306103      -280.4433
  42   2.0000     -10.305090      -280.4158
  43   2.0000     -10.304872      -280.4098
  44   2.0000     -10.304542      -280.4009
  45   2.0000     -10.304149      -280.3901
  46   2.0000     -10.303732      -280.3788
  47   2.0000     -10.302831      -280.3543
  48   2.0000     -10.299753      -280.2705
  49   2.0000     -10.299474      -280.2629
  50   2.0000     -10.298886      -280.2469
  51   2.0000     -10.298850      -280.2459
  52   2.0000     -10.298656      -280.2407
  53   2.0000     -10.296843      -280.1913
  54   2.0000     -10.294586      -280.1299
  55   2.0000     -10.294101      -280.1167
  56   2.0000     -10.293727      -280.1066
  57   2.0000     -10.293237      -280.0932
  58   2.0000     -10.290779      -280.0263
  59   2.0000     -10.290237      -280.0116
  60   2.0000     -10.289367      -279.9879
  61   2.0000     -10.288498      -279.9643
  62   2.0000     -10.287933      -279.9489
  63   2.0000     -10.287668      -279.9417
  64   2.0000     -10.287162      -279.9279
  65   2.0000     -10.265176      -279.3296
  66   2.0000     -10.261551      -279.2310
  67   2.0000     -10.259412      -279.1728
  68   2.0000     -10.256208      -279.0856
  69   2.0000      -8.079948      -219.8666
  70   2.0000      -6.048971      -164.6009
  71   2.0000      -6.044884      -164.4896
  72   2.0000      -6.042458      -164.4236
  73   2.0000      -1.146640       -31.2017
  74   2.0000      -1.143122       -31.1059
  75   2.0000      -1.137990       -30.9663
  76   2.0000      -1.136019       -30.9127
  77   2.0000      -1.126385       -30.6505
  78   2.0000      -1.064501       -28.9665
  79   2.0000      -1.055451       -28.7203
  80   2.0000      -1.027650       -27.9638
  81   2.0000      -1.023092       -27.8398
  82   2.0000      -1.019959       -27.7545
  83   2.0000      -1.008188       -27.4342
  84   2.0000      -1.003002       -27.2931
  85   2.0000      -1.001498       -27.2521
  86   2.0000      -0.996647       -27.1201
  87   2.0000      -0.995339       -27.0845
  88   2.0000      -0.980605       -26.6836
  89   2.0000      -0.973937       -26.5022
  90   2.0000      -0.935597       -25.4589
  91   2.0000      -0.934043       -25.4166
  92   2.0000      -0.928349       -25.2617
  93   2.0000      -0.921936       -25.0872
  94   2.0000      -0.919597       -25.0235
  95   2.0000      -0.906971       -24.6799
  96   2.0000      -0.903658       -24.5898
  97   2.0000      -0.891816       -24.2675
  98   2.0000      -0.888080       -24.1659
  99   2.0000      -0.886427       -24.1209
 100   2.0000      -0.882640       -24.0179
 101   2.0000      -0.874054       -23.7842
 102   2.0000      -0.868256       -23.6265
 103   2.0000      -0.845162       -22.9980
 104   2.0000      -0.839880       -22.8543
 105   2.0000      -0.837358       -22.7857
 106   2.0000      -0.830400       -22.5963
 107   2.0000      -0.825279       -22.4570
 108   2.0000      -0.817758       -22.2523
 109   2.0000      -0.803731       -21.8706
 110   2.0000      -0.786880       -21.4121
 111   2.0000      -0.778786       -21.1919
 112   2.0000      -0.772188       -21.0123
 113   2.0000      -0.765421       -20.8282
 114   2.0000      -0.758978       -20.6528
 115   2.0000      -0.757632       -20.6162
 116   2.0000      -0.736851       -20.0507
 117   2.0000      -0.720036       -19.5932
 118   2.0000      -0.716602       -19.4997
 119   2.0000      -0.712778       -19.3957
 120   2.0000      -0.707469       -19.2512
 121   2.0000      -0.706219       -19.2172
 122   2.0000      -0.702810       -19.1244
 123   2.0000      -0.700449       -19.0602
 124   2.0000      -0.693763       -18.8783
 125   2.0000      -0.687425       -18.7058
 126   2.0000      -0.681996       -18.5581
 127   2.0000      -0.680438       -18.5157
 128   2.0000      -0.673108       -18.3162
 129   2.0000      -0.661378       -17.9970
 130   2.0000      -0.656784       -17.8720
 131   2.0000      -0.648956       -17.6590
 132   2.0000      -0.646843       -17.6015
 133   2.0000      -0.638549       -17.3758
 134   2.0000      -0.630617       -17.1600
 135   2.0000      -0.620290       -16.8789
 136   2.0000      -0.615948       -16.7608
 137   2.0000      -0.612988       -16.6802
 138   2.0000      -0.609384       -16.5822
 139   2.0000      -0.606933       -16.5155
 140   2.0000      -0.601673       -16.3724
 141   2.0000      -0.591019       -16.0824
 142   2.0000      -0.587044       -15.9743
 143   2.0000      -0.584759       -15.9121
 144   2.0000      -0.579912       -15.7802
 145   2.0000      -0.576784       -15.6951
 146   2.0000      -0.567192       -15.4341
 147   2.0000      -0.563106       -15.3229
 148   2.0000      -0.561760       -15.2863
 149   2.0000      -0.555933       -15.1277
 150   2.0000      -0.554067       -15.0769
 151   2.0000      -0.550248       -14.9730
 152   2.0000      -0.548938       -14.9374
 153   2.0000      -0.548482       -14.9249
 154   2.0000      -0.547677       -14.9030
 155   2.0000      -0.545961       -14.8564
 156   2.0000      -0.542053       -14.7500
 157   2.0000      -0.538694       -14.6586
 158   2.0000      -0.536552       -14.6003
 159   2.0000      -0.535107       -14.5610
 160   2.0000      -0.529890       -14.4190
 161   2.0000      -0.527739       -14.3605
 162   2.0000      -0.525407       -14.2971
 163   2.0000      -0.522250       -14.2111
 164   2.0000      -0.519600       -14.1390
 165   2.0000      -0.518810       -14.1175
 166   2.0000      -0.516946       -14.0668
 167   2.0000      -0.515511       -14.0278
 168   2.0000      -0.512680       -13.9507
 169   2.0000      -0.512081       -13.9344
 170   2.0000      -0.510539       -13.8925
 171   2.0000      -0.507254       -13.8031
 172   2.0000      -0.506410       -13.7801
 173   2.0000      -0.504609       -13.7311
 174   2.0000      -0.500587       -13.6217
 175   2.0000      -0.499405       -13.5895
 176   2.0000      -0.498842       -13.5742
 177   2.0000      -0.496488       -13.5101
 178   2.0000      -0.489293       -13.3143
 179   2.0000      -0.483241       -13.1496
 180   2.0000      -0.482420       -13.1273
 181   2.0000      -0.474677       -12.9166
 182   2.0000      -0.472909       -12.8685
 183   2.0000      -0.472675       -12.8622
 184   2.0000      -0.467515       -12.7217
 185   2.0000      -0.463494       -12.6123
 186   2.0000      -0.461060       -12.5461
 187   2.0000      -0.457262       -12.4427
 188   2.0000      -0.453313       -12.3353
 189   2.0000      -0.452686       -12.3182
 190   2.0000      -0.451787       -12.2938
 191   2.0000      -0.450832       -12.2678
 192   2.0000      -0.449977       -12.2445
 193   2.0000      -0.449305       -12.2262
 194   2.0000      -0.449028       -12.2187
 195   2.0000      -0.447133       -12.1671
 196   2.0000      -0.445473       -12.1219
 197   2.0000      -0.443685       -12.0733
 198   2.0000      -0.442786       -12.0488
 199   2.0000      -0.442162       -12.0318
 200   2.0000      -0.442010       -12.0277
 201   2.0000      -0.441713       -12.0196
 202   2.0000      -0.437381       -11.9018
 203   2.0000      -0.435939       -11.8625
 204   2.0000      -0.435271       -11.8443
 205   2.0000      -0.435193       -11.8422
 206   2.0000      -0.430030       -11.7017
 207   2.0000      -0.428582       -11.6623
 208   2.0000      -0.427159       -11.6236
 209   2.0000      -0.424971       -11.5640
 210   2.0000      -0.421128       -11.4595
 211   2.0000      -0.416153       -11.3241
 212   2.0000      -0.414990       -11.2925
 213   2.0000      -0.413069       -11.2402
 214   2.0000      -0.412214       -11.2169
 215   2.0000      -0.407907       -11.0997
 216   2.0000      -0.407026       -11.0757
 217   2.0000      -0.396828       -10.7983
 218   2.0000      -0.389961       -10.6114
 219   2.0000      -0.385432       -10.4881
 220   2.0000      -0.377339       -10.2679
 221   2.0000      -0.355724        -9.6797
 222   2.0000      -0.350551        -9.5390
 223   2.0000      -0.350063        -9.5257
 224   2.0000      -0.348183        -9.4745
 225   2.0000      -0.343322        -9.3423
 226   2.0000      -0.343142        -9.3374
 227   2.0000      -0.339775        -9.2457
 228   2.0000      -0.332144        -9.0381
 229   2.0000      -0.331399        -9.0178
 230   2.0000      -0.323592        -8.8054
 231   2.0000      -0.319817        -8.7027
 232   2.0000      -0.316314        -8.6073
 233   2.0000      -0.301844        -8.2136
 234   2.0000      -0.300982        -8.1901
 235   2.0000      -0.290063        -7.8930
 236   2.0000      -0.241710        -6.5773
 237   0.0000      -0.110328        -3.0022
 238   0.0000      -0.094205        -2.5634
 239   0.0000      -0.077260        -2.1024
 240   0.0000      -0.066324        -1.8048
 241   0.0000      -0.058865        -1.6018

MULLIKEN ATOMIC CHARGES
-----------------------
   0 C :    0.320046
   1 C :   -0.361195
   2 C :   -0.182317
   3 N :    0.149657
   4 C :   -0.190765
   5 N :    0.158541
   6 C :    0.044863
   7 C :    0.001002
   8 C :   -0.082453
   9 C :    0.100769
  10 C :    0.096661
  11 C :   -0.081874
  12 C :   -0.019798
  13 C :    0.037447
  14 C :    0.037372
  15 C :   -0.017606
  16 C :    0.159966
  17 O :   -0.154321
  18 C :   -0.081030
  19 C :    0.054365
  20 C :   -0.109564
  21 S :    0.199221
  22 C :   -0.051301
  23 C :   -0.087182
  24 C :    0.031730
  25 C :   -0.155541
  26 N :    0.117595
  27 C :    0.053337
  28 C :   -0.028184
  29 C :    0.134776
  30 N :   -0.263596
  31 C :    0.094736
  32 C :    0.008391
  33 C :    0.146883
  34 O :   -0.192541
  35 C :   -0.036505
  36 C :   -0.059734
  37 C :    0.167303
  38 O :   -0.208682
  39 N :   -0.260369
  40 C :    0.096808
  41 C :   -0.007666
  42 C :    0.091811
  43 C :   -0.005582
  44 C :    0.074511
  45 C :    0.176772
  46 O :   -0.365679
  47 C :    0.312717
  48 C :   -0.141858
  49 C :   -0.063003
  50 C :   -0.032099
  51 C :    0.337838
  52 C :   -0.344045
  53 C :   -0.182248
  54 N :    0.157142
  55 C :   -0.196509
  56 N :    0.161123
  57 C :    0.046732
  58 C :   -0.005274
  59 C :    0.149888
  60 O :   -0.138741
  61 C :   -0.076204
  62 C :    0.099957
  63 C :    0.099775
  64 C :   -0.085360
  65 C :   -0.021263
  66 C :    0.040178
  67 C :    0.039675
  68 C :   -0.018384
  69 H :   -0.011956
  70 H :   -0.007542
  71 H :   -0.007904
  72 H :   -0.004421
  73 H :   -0.004413
  74 H :   -0.016277
  75 H :    0.008374
  76 H :    0.026753
  77 H :    0.006339
  78 H :   -0.009633
  79 H :    0.043045
  80 H :    0.035878
  81 H :    0.021878
  82 H :    0.028892
  83 H :    0.016081
  84 H :    0.044050
  85 H :    0.026895
  86 H :    0.016175
  87 H :    0.015198
  88 H :    0.035784
  89 H :    0.005459
  90 H :   -0.016850
  91 H :    0.008605
  92 H :    0.014406
  93 H :    0.012960
  94 H :    0.040628
  95 H :    0.020897
  96 H :   -0.011295
  97 H :   -0.005813
  98 H :   -0.005509
  99 H :   -0.001763
 100 H :   -0.001927
 101 H :   -0.014111
Sum of atomic charges:   -0.0000000

LOEWDIN ATOMIC CHARGES
----------------------
   0 C :    0.076707
   1 C :   -0.139376
   2 C :   -0.016591
   3 N :   -0.052734
   4 C :   -0.025678
   5 N :   -0.048154
   6 C :   -0.026671
   7 C :   -0.056061
   8 C :    0.033217
   9 C :   -0.008041
  10 C :   -0.005801
  11 C :    0.020219
  12 C :   -0.005021
  13 C :   -0.012501
  14 C :   -0.011457
  15 C :   -0.009214
  16 C :    0.089065
  17 O :   -0.141083
  18 C :   -0.088152
  19 C :    0.045718
  20 C :   -0.180067
  21 S :    0.503613
  22 C :   -0.124458
  23 C :   -0.110401
  24 C :    0.020902
  25 C :   -0.023282
  26 N :   -0.057842
  27 C :   -0.011004
  28 C :   -0.016190
  29 C :    0.072625
  30 N :   -0.002877
  31 C :    0.036336
  32 C :   -0.059256
  33 C :    0.078608
  34 O :   -0.197210
  35 C :   -0.116493
  36 C :   -0.115709
  37 C :    0.084063
  38 O :   -0.194491
  39 N :    0.001778
  40 C :    0.035195
  41 C :   -0.067071
  42 C :    0.080629
  43 C :   -0.026635
  44 C :    0.003258
  45 C :    0.104141
  46 O :   -0.187616
  47 C :    0.105784
  48 C :   -0.045439
  49 C :    0.083445
  50 C :   -0.084636
  51 C :    0.076190
  52 C :   -0.128992
  53 C :   -0.017123
  54 N :   -0.045062
  55 C :   -0.020965
  56 N :   -0.043094
  57 C :   -0.026345
  58 C :   -0.058842
  59 C :    0.093533
  60 O :   -0.137991
  61 C :    0.036976
  62 C :   -0.007276
  63 C :   -0.004359
  64 C :    0.023003
  65 C :   -0.004090
  66 C :   -0.009522
  67 C :   -0.008973
  68 C :   -0.008082
  69 H :    0.039293
  70 H :    0.039262
  71 H :    0.035156
  72 H :    0.033470
  73 H :    0.033167
  74 H :    0.032290
  75 H :    0.043640
  76 H :    0.042523
  77 H :    0.037482
  78 H :    0.037179
  79 H :    0.037958
  80 H :    0.027337
  81 H :    0.028988
  82 H :    0.033926
  83 H :    0.022265
  84 H :    0.036293
  85 H :    0.020609
  86 H :    0.028491
  87 H :    0.028481
  88 H :    0.023728
  89 H :    0.044963
  90 H :    0.026742
  91 H :    0.019758
  92 H :    0.015655
  93 H :    0.014253
  94 H :    0.040955
  95 H :    0.041348
  96 H :    0.039779
  97 H :    0.039999
  98 H :    0.035992
  99 H :    0.034655
 100 H :    0.034320
 101 H :    0.032967

  Mayer bond orders larger than 0.100000
B(  0-C ,  1-C ) :   1.6239 B(  0-C ,  6-C ) :   0.9842 B(  0-C , 18-C ) :   1.0722
B(  1-C ,  2-C ) :   1.1519 B(  1-C ,  4-C ) :   1.1388 B(  2-C ,  3-N ) :   2.9625
B(  4-C ,  5-N ) :   2.9711 B(  6-C ,  7-C ) :   1.2166 B(  6-C , 11-C ) :   1.4485
B(  7-C ,  8-C ) :   1.4666 B(  7-C , 16-C ) :   0.9571 B(  8-C ,  9-C ) :   1.1797
B(  8-C , 69-H ) :   1.0164 B(  9-C , 10-C ) :   1.2559 B(  9-C , 15-C ) :   1.2419
B( 10-C , 11-C ) :   1.2073 B( 10-C , 12-C ) :   1.2403 B( 11-C , 70-H ) :   0.9889
B( 12-C , 13-C ) :   1.4897 B( 12-C , 71-H ) :   0.9972 B( 13-C , 14-C ) :   1.2595
B( 13-C , 72-H ) :   0.9881 B( 14-C , 15-C ) :   1.4909 B( 14-C , 73-H ) :   0.9883
B( 15-C , 74-H ) :   0.9978 B( 16-C , 17-O ) :   2.1665 B( 16-C , 18-C ) :   0.9315
B( 18-C , 19-C ) :   1.6175 B( 19-C , 20-C ) :   1.1916 B( 19-C , 75-H ) :   0.9083
B( 20-C , 21-S ) :   1.1070 B( 20-C , 24-C ) :   1.4262 B( 21-S , 22-C ) :   1.1893
B( 22-C , 23-C ) :   1.3748 B( 22-C , 27-C ) :   1.1646 B( 23-C , 24-C ) :   1.3146
B( 23-C , 25-C ) :   1.1199 B( 24-C , 76-H ) :   0.9806 B( 25-C , 26-N ) :   2.9665
B( 27-C , 28-C ) :   1.6022 B( 27-C , 77-H ) :   0.9210 B( 28-C , 29-C ) :   1.1701
B( 28-C , 78-H ) :   0.9487 B( 29-C , 30-N ) :   1.1658 B( 29-C , 36-C ) :   1.3386
B( 30-N , 31-C ) :   0.9397 B( 30-N , 33-C ) :   1.0348 B( 31-C , 32-C ) :   1.1233
B( 31-C , 79-H ) :   0.9270 B( 31-C , 80-H ) :   0.9481 B( 32-C , 81-H ) :   0.9635
B( 32-C , 82-H ) :   0.9674 B( 32-C , 83-H ) :   0.9673 B( 33-C , 34-O ) :   2.1366
B( 33-C , 35-C ) :   0.9740 B( 35-C , 36-C ) :   1.2380 B( 35-C , 42-C ) :   1.3691
B( 36-C , 37-C ) :   0.9871 B( 37-C , 38-O ) :   2.0134 B( 37-C , 39-N ) :   1.0616
B( 38-O , 77-H ) :   0.1171 B( 39-N , 40-C ) :   0.9400 B( 39-N , 42-C ) :   1.1770
B( 40-C , 41-C ) :   1.1133 B( 40-C , 84-H ) :   0.9242 B( 40-C , 85-H ) :   0.9502
B( 41-C , 86-H ) :   0.9590 B( 41-C , 87-H ) :   0.9647 B( 41-C , 88-H ) :   0.9608
B( 42-C , 43-C ) :   1.1473 B( 43-C , 44-C ) :   1.6981 B( 43-C , 89-H ) :   0.9485
B( 44-C , 45-C ) :   1.0118 B( 44-C , 90-H ) :   0.9562 B( 45-C , 46-O ) :   1.0551
B( 45-C , 48-C ) :   1.0098 B( 45-C , 91-H ) :   0.9302 B( 46-O , 47-C ) :   1.0202
B( 47-C , 48-C ) :   1.0425 B( 47-C , 92-H ) :   0.9416 B( 47-C , 93-H ) :   0.9400
B( 48-C , 49-C ) :   1.0173 B( 48-C , 94-H ) :   0.8978 B( 49-C , 50-C ) :   1.7292
B( 49-C , 95-H ) :   0.9438 B( 50-C , 51-C ) :   1.0166 B( 50-C , 59-C ) :   0.9297
B( 51-C , 52-C ) :   1.6638 B( 51-C , 57-C ) :   0.9989 B( 52-C , 53-C ) :   1.1412
B( 52-C , 55-C ) :   1.1431 B( 53-C , 54-N ) :   2.9676 B( 55-C , 56-N ) :   2.9726
B( 57-C , 58-C ) :   1.2128 B( 57-C , 64-C ) :   1.4433 B( 58-C , 59-C ) :   0.9547
B( 58-C , 61-C ) :   1.4639 B( 59-C , 60-O ) :   2.1562 B( 61-C , 62-C ) :   1.1868
B( 61-C , 96-H ) :   1.0155 B( 62-C , 63-C ) :   1.2495 B( 62-C , 68-C ) :   1.2422
B( 63-C , 64-C ) :   1.2125 B( 63-C , 65-C ) :   1.2388 B( 64-C , 97-H ) :   0.9890
B( 65-C , 66-C ) :   1.4918 B( 65-C , 98-H ) :   0.9969 B( 66-C , 67-C ) :   1.2573
B( 66-C , 99-H ) :   0.9886 B( 67-C , 68-C ) :   1.4912 B( 67-C ,100-H ) :   0.9887
B( 68-C ,101-H ) :   0.9975

-----------------------------------------------------------------------------
         ABSORPTION SPECTRUM VIA TRANSITION ELECTRIC DIPOLE MOMENTS
-----------------------------------------------------------------------------
State   Energy  Wavelength   fosc         T2         TX        TY        TZ
        (cm-1)    (nm)                  (au**2)     (au)      (au)      (au)
-----------------------------------------------------------------------------
   0   14146.6    706.9   0.874496671  20.35079  -2.18725   3.94503   0.05933
   1   19407.9    515.3   0.011778968   0.19980   0.32876   0.08100   0.29182
   2   22459.8    445.2   0.287660720   4.21648  -0.66744   0.31876   1.91557
   3   24060.1    415.6   0.405543432   5.54901   1.23858  -1.70543  -1.05186
   4   24278.3    411.9   0.014881189   0.20179   0.24647  -0.35140  -0.13250
   5   25791.9    387.7   0.130272635   1.66282  -0.52740   1.17611   0.03774
   6   26074.7    383.5   0.293659474   3.70766   0.88588  -1.62890  -0.51919
   7   27610.3    362.2   0.046944724   0.55975   0.35205  -0.63746  -0.17161
   8   27723.3    360.7   0.099428607   1.18071   0.40670   0.96700   0.28321
   9   27891.5    358.5   0.004842938   0.05716  -0.11360   0.19203   0.08593
  10   28067.1    356.3   0.030050076   0.35247   0.22248  -0.54355  -0.08676
  11   28912.0    345.9   0.098392675   1.12037   0.36196  -0.98770   0.11743
  12   29597.9    337.9   0.013340235   0.14838  -0.24098   0.23584   0.18626
  13   30204.9    331.1   0.020258687   0.22081  -0.22489  -0.10779   0.39826
  14   30311.6    329.9   0.103875618   1.12819   0.12100   0.17347  -1.04089
  15   31282.5    319.7   0.136420226   1.43566  -0.45720   1.10753  -0.00022
  16   31676.3    315.7   0.008028471   0.08344  -0.04677   0.27558   0.07284
  17   32536.6    307.3   0.127176705   1.28680   0.79624  -0.78047  -0.20897
  18   32811.5    304.8   0.630398912   6.32507  -0.44863   2.22278  -1.08767
  19   32968.4    303.3   0.033226118   0.33179  -0.20129  -0.51970  -0.14553
  20   33586.3    297.7   0.030212545   0.29614   0.02110  -0.16064  -0.51951
  21   33700.6    296.7   0.384958700   3.76056   0.14421  -1.72958  -0.86506
  22   34188.6    292.5   0.002234488   0.02152   0.04042  -0.11723   0.07836
  23   34406.0    290.6   0.042054257   0.40239   0.63307  -0.02565  -0.03102
  24   34545.6    289.5   0.267039217   2.54482   0.82870   1.30484   0.39430
  25   34894.1    286.6   0.007074414   0.06674   0.19842   0.06275   0.15309
  26   35066.1    285.2   0.130557109   1.22571   0.76551   0.79958   0.01936
  27   35450.8    282.1   0.409984196   3.80730   1.32312   1.42753   0.13716
  28   35776.9    279.5   0.002402087   0.02210   0.08400  -0.07742   0.09515
  29   35935.7    278.3   0.115378037   1.05699  -0.12545  -0.79229   0.64306
  30   36527.5    273.8   0.043451935   0.39162  -0.00360   0.55746   0.28433
  31   37079.7    269.7   0.025254419   0.22422  -0.07060  -0.20858   0.41920
  32   37177.3    269.0   0.028682301   0.25399  -0.02383   0.29897   0.40502
  33   37273.6    268.3   0.027408897   0.24208   0.08978   0.10096  -0.47311
  34   37569.4    266.2   0.042621729   0.37348  -0.04396   0.29158  -0.53529
  35   38072.6    262.7   0.047614240   0.41172  -0.40958  -0.26063  -0.41957
  36   38391.3    260.5   0.097932252   0.83979   0.10857   0.61563  -0.67007
  37   38504.3    259.7   0.100699473   0.86098  -0.27245  -0.71819   0.52053
  38   38880.4    257.2   0.201379191   1.70514  -0.49767   0.22869   1.18540
  39   39360.6    254.1   0.028003077   0.23422   0.28176  -0.01775  -0.39308
  40   39535.2    252.9   0.176738279   1.47171   1.18143  -0.01689  -0.27504
  41   39832.9    251.0   0.009872026   0.08159   0.17444  -0.14902  -0.17016
  42   39927.8    250.5   0.009004534   0.07424  -0.22979   0.08092   0.12204
  43   40064.6    249.6   0.014099324   0.11585  -0.32648  -0.00894   0.09585

FINAL SINGLE POINT ENERGY     -3307.508868755560

DIPOLE MOMENT
-------------
                                X             Y             Z
Electronic contribution:     18.53948     -12.80361      -4.82220
Nuclear contribution   :    -20.30499      10.14025       4.04118
                        -----------------------------------------
Total Dipole Moment    :     -1.76550      -2.66336      -0.78103
                        -----------------------------------------
Magnitude (a.u.)       :      3.28945
Magnitude (Debye)      :      8.36112

Rotational constants in cm-1:     0.002160     0.000274     0.000267
Rotational constants in MHz :    64.744110     8.206689     8.001734

                             ****ORCA TERMINATED NORMALLY****
TOTAL RUN TIME: 0 days 0 hours 9 minutes 7 seconds 819 msec
