                         Program Version 4.2.0 -  RELEASE  -
|  1> # ORCA input file
|  2> # SCF done       -155.521108836128          0.000566204579
|  3> ! CAM-B3LYP def2-SVP def2/J RIJCOSX Grid4 TightSCF
|  4> %maxcore 5000
|  5> %tddft
|  6>     Mode sTDDFT
|  7>     Ethresh 5.0
|  8>     maxcore 5000
|  9> end
| 10>
| 11> %pal
| 12>   nprocs 6
| 13>   end
| 14> * xyz 0 1
| 15>    C        0.89257         0.56660        -1.46646
| 16>    C       -0.46150         0.58731        -1.64294
| 17>    C       -1.27931        -0.55901        -1.55202
| 18>    N       -1.98134        -1.46431        -1.49041
| 19>    C       -1.18021         1.73322        -2.04536
| 20>    N       -1.79508         2.61981        -2.43619
| 21>    C        1.71711        -0.62511        -1.32071
| 22>    C        3.06163        -0.29769        -1.67057
| 23>    C        4.05138        -1.23965        -1.66833
| 24>    C        3.73867        -2.56751        -1.30186
| 25>    C        2.40089        -2.89574        -0.93334
| 26>    C        1.39511        -1.90321        -0.94932
| 27>    C        2.10469        -4.22335        -0.56237
| 28>    C        3.07992        -5.18294        -0.55827
| 29>    C        4.39591        -4.85971        -0.92289
| 30>    C        4.71822        -3.58056        -1.28685
| 31>    C        3.15239         1.13599        -1.98976
| 32>    O        4.10533         1.76412        -2.38331
| 33>    C        1.80002         1.68795        -1.65522
| 34>    C        1.63670         3.01099        -1.44502
| 35>    C        0.52990         3.61578        -0.77585
| 36>    S        0.00538         5.25688        -1.09577
| 37>    C       -1.22286         4.96037         0.12471
| 38>    N       -1.12540         3.77273         0.65077
| 39>    N       -0.17576         3.03760         0.15484
| 40>    C       -2.22020         5.92289         0.45515
| 41>    C       -3.12955         5.70650         1.42592
| 42>    C       -4.17938         6.60614         1.75789
| 43>    S       -4.54091         8.08471         0.86699
| 44>    C       -5.86986         8.28407         2.00073
| 45>    N       -5.92363         7.32175         2.87929
| 46>    N       -5.00764         6.41093         2.74413
| 47>    C       -6.78779         9.36937         1.91826
| 48>    C       -7.80118         9.51386         2.79775
| 49>    C       -8.76260        10.55790         2.69694
| 50>    S      -10.06923        10.73745         3.85805
| 51>    C      -10.58601        12.09930         2.86496
| 52>    N       -9.79984        12.29028         1.84188
| 53>    N       -8.81061        11.45668         1.75112
| 54>    C      -11.74746        12.85698         3.17367
| 55>    C      -12.22383        13.84288         2.37484
| 56>    C      -13.40694        14.54923         2.71343
| 57>    C      -13.99173        15.51271         1.94876
| 58>    C      -15.21641        16.23766         2.25011
| 59>    C      -15.93037        16.19473         3.41895
| 60>    C      -17.10851        16.93589         3.65426
| 61>    N      -18.07060        17.50627         3.91252
| 62>    C      -15.59999        15.43385         4.56037
| 63>    N      -15.40209        14.85336         5.53148
| 64>    C      -15.54466        17.05673         1.08949
| 65>    C      -14.51974        16.89927         0.11312
| 66>    C      -13.50362        15.95675         0.61048
| 67>    O      -12.49147        15.61461         0.04066
| 68>    C      -14.55664        17.55280        -1.08504
| 69>    C      -15.64529        18.40595        -1.37146
| 70>    C      -16.67966        18.56312        -0.40372
| 71>    C      -16.61149        17.87744         0.83020
| 72>    C      -17.76595        19.41100        -0.70260
| 73>    C      -17.82846        20.07302        -1.89836
| 74>    C      -16.80846        19.91902        -2.84950
| 75>    C      -15.74005        19.10358        -2.59166
| 76>    H        5.06160        -0.97458        -1.94285
| 77>    H        0.39252        -2.17323        -0.65643
| 78>    H        1.08969        -4.46750        -0.28561
| 79>    H        2.84284        -6.19722        -0.27433
| 80>    H        5.15273        -5.62963        -0.91369
| 81>    H        5.72954        -3.32634        -1.56849
| 82>    H        2.44397         3.66625        -1.75094
| 83>    H       -2.22635         6.83631        -0.12373
| 84>    H       -3.09419         4.79483         2.00459
| 85>    H       -6.66412        10.07650         1.11186
| 86>    H       -7.91228         8.80776         3.60729
| 87>    H      -12.26174        12.59694         4.08996
| 88>    H      -11.70535        14.08832         1.45994
| 89>    H      -13.87588        14.26893         3.64871
| 90>    H      -13.76474        17.41665        -1.80655
| 91>    H      -17.41204        18.01655         1.53912
| 92>    H      -18.54817        19.52711         0.03316
| 93>    H      -18.66467        20.71963        -2.11826
| 94>    H      -16.87408        20.44937        -3.78769
| 95>    H      -14.95208        18.98056        -3.32016
| 96> *
| 97>
| 98>                          ****END OF INPUT****

CARTESIAN COORDINATES (ANGSTROEM)
---------------------------------
  C      0.892570    0.566600   -1.466460
  C     -0.461500    0.587310   -1.642940
  C     -1.279310   -0.559010   -1.552020
  N     -1.981340   -1.464310   -1.490410
  C     -1.180210    1.733220   -2.045360
  N     -1.795080    2.619810   -2.436190
  C      1.717110   -0.625110   -1.320710
  C      3.061630   -0.297690   -1.670570
  C      4.051380   -1.239650   -1.668330
  C      3.738670   -2.567510   -1.301860
  C      2.400890   -2.895740   -0.933340
  C      1.395110   -1.903210   -0.949320
  C      2.104690   -4.223350   -0.562370
  C      3.079920   -5.182940   -0.558270
  C      4.395910   -4.859710   -0.922890
  C      4.718220   -3.580560   -1.286850
  C      3.152390    1.135990   -1.989760
  O      4.105330    1.764120   -2.383310
  C      1.800020    1.687950   -1.655220
  C      1.636700    3.010990   -1.445020
  C      0.529900    3.615780   -0.775850
  S      0.005380    5.256880   -1.095770
  C     -1.222860    4.960370    0.124710
  N     -1.125400    3.772730    0.650770
  N     -0.175760    3.037600    0.154840
  C     -2.220200    5.922890    0.455150
  C     -3.129550    5.706500    1.425920
  C     -4.179380    6.606140    1.757890
  S     -4.540910    8.084710    0.866990
  C     -5.869860    8.284070    2.000730
  N     -5.923630    7.321750    2.879290
  N     -5.007640    6.410930    2.744130
  C     -6.787790    9.369370    1.918260
  C     -7.801180    9.513860    2.797750
  C     -8.762600   10.557900    2.696940
  S    -10.069230   10.737450    3.858050
  C    -10.586010   12.099300    2.864960
  N     -9.799840   12.290280    1.841880
  N     -8.810610   11.456680    1.751120
  C    -11.747460   12.856980    3.173670
  C    -12.223830   13.842880    2.374840
  C    -13.406940   14.549230    2.713430
  C    -13.991730   15.512710    1.948760
  C    -15.216410   16.237660    2.250110
  C    -15.930370   16.194730    3.418950
  C    -17.108510   16.935890    3.654260
  N    -18.070600   17.506270    3.912520
  C    -15.599990   15.433850    4.560370
  N    -15.402090   14.853360    5.531480
  C    -15.544660   17.056730    1.089490
  C    -14.519740   16.899270    0.113120
  C    -13.503620   15.956750    0.610480
  O    -12.491470   15.614610    0.040660
  C    -14.556640   17.552800   -1.085040
  C    -15.645290   18.405950   -1.371460
  C    -16.679660   18.563120   -0.403720
  C    -16.611490   17.877440    0.830200
  C    -17.765950   19.411000   -0.702600
  C    -17.828460   20.073020   -1.898360
  C    -16.808460   19.919020   -2.849500
  C    -15.740050   19.103580   -2.591660
  H      5.061600   -0.974580   -1.942850
  H      0.392520   -2.173230   -0.656430
  H      1.089690   -4.467500   -0.285610
  H      2.842840   -6.197220   -0.274330
  H      5.152730   -5.629630   -0.913690
  H      5.729540   -3.326340   -1.568490
  H      2.443970    3.666250   -1.750940
  H     -2.226350    6.836310   -0.123730
  H     -3.094190    4.794830    2.004590
  H     -6.664120   10.076500    1.111860
  H     -7.912280    8.807760    3.607290
  H    -12.261740   12.596940    4.089960
  H    -11.705350   14.088320    1.459940
  H    -13.875880   14.268930    3.648710
  H    -13.764740   17.416650   -1.806550
  H    -17.412040   18.016550    1.539120
  H    -18.548170   19.527110    0.033160
  H    -18.664670   20.719630   -2.118260
  H    -16.874080   20.449370   -3.787690
  H    -14.952080   18.980560   -3.320160

 Total Charge           Charge          ....    0
 Multiplicity           Mult            ....    1
 Number of Electrons    NEL             ....  430
 Basis Dimension        Dim             ....  966

ORBITAL ENERGIES
----------------

  NO   OCC          E(Eh)            E(eV)
   0   2.0000     -88.985749     -2421.4253
   1   2.0000     -88.983401     -2421.3614
   2   2.0000     -88.981030     -2421.2969
   3   2.0000     -19.223054      -523.0859
   4   2.0000     -19.217876      -522.9450
   5   2.0000     -14.452384      -393.2694
   6   2.0000     -14.448816      -393.1723
   7   2.0000     -14.447679      -393.1413
   8   2.0000     -14.446446      -393.1078
   9   2.0000     -14.446048      -393.0969
  10   2.0000     -14.444276      -393.0487
  11   2.0000     -14.419524      -392.3752
  12   2.0000     -14.417522      -392.3207
  13   2.0000     -14.416858      -392.3026
  14   2.0000     -14.416550      -392.2943
  15   2.0000     -10.373862      -282.2871
  16   2.0000     -10.368626      -282.1447
  17   2.0000     -10.355226      -281.7800
  18   2.0000     -10.354132      -281.7503
  19   2.0000     -10.352757      -281.7128
  20   2.0000     -10.351800      -281.6868
  21   2.0000     -10.350990      -281.6648
  22   2.0000     -10.349190      -281.6158
  23   2.0000     -10.347264      -281.5634
  24   2.0000     -10.345343      -281.5111
  25   2.0000     -10.343074      -281.4493
  26   2.0000     -10.343049      -281.4487
  27   2.0000     -10.327562      -281.0272
  28   2.0000     -10.322177      -280.8807
  29   2.0000     -10.319562      -280.8095
  30   2.0000     -10.319193      -280.7995
  31   2.0000     -10.318890      -280.7913
  32   2.0000     -10.317378      -280.7501
  33   2.0000     -10.313864      -280.6545
  34   2.0000     -10.312629      -280.6209
  35   2.0000     -10.309748      -280.5425
  36   2.0000     -10.307731      -280.4876
  37   2.0000     -10.307539      -280.4824
  38   2.0000     -10.307204      -280.4733
  39   2.0000     -10.306854      -280.4638
  40   2.0000     -10.304433      -280.3979
  41   2.0000     -10.303712      -280.3783
  42   2.0000     -10.301564      -280.3198
  43   2.0000     -10.301140      -280.3083
  44   2.0000     -10.300776      -280.2984
  45   2.0000     -10.299428      -280.2617
  46   2.0000     -10.299051      -280.2514
  47   2.0000     -10.298814      -280.2450
  48   2.0000     -10.298238      -280.2293
  49   2.0000     -10.297628      -280.2127
  50   2.0000     -10.294595      -280.1302
  51   2.0000     -10.294182      -280.1189
  52   2.0000     -10.289506      -279.9917
  53   2.0000     -10.289244      -279.9846
  54   2.0000     -10.288775      -279.9718
  55   2.0000     -10.288486      -279.9639
  56   2.0000     -10.287774      -279.9446
  57   2.0000     -10.287740      -279.9436
  58   2.0000     -10.287188      -279.9286
  59   2.0000     -10.287002      -279.9235
  60   2.0000     -10.286546      -279.9111
  61   2.0000      -8.082004      -219.9225
  62   2.0000      -8.079735      -219.8608
  63   2.0000      -8.077228      -219.7925
  64   2.0000      -6.050637      -164.6462
  65   2.0000      -6.048273      -164.5819
  66   2.0000      -6.047231      -164.5535
  67   2.0000      -6.045800      -164.5146
  68   2.0000      -6.045017      -164.4933
  69   2.0000      -6.044481      -164.4787
  70   2.0000      -6.042595      -164.4274
  71   2.0000      -6.042247      -164.4179
  72   2.0000      -6.039642      -164.3470
  73   2.0000      -1.155479       -31.4422
  74   2.0000      -1.153271       -31.3821
  75   2.0000      -1.150511       -31.3070
  76   2.0000      -1.138431       -30.9783
  77   2.0000      -1.133015       -30.8309
  78   2.0000      -1.021189       -27.7880
  79   2.0000      -1.020526       -27.7699
  80   2.0000      -1.001426       -27.2502
  81   2.0000      -1.000448       -27.2236
  82   2.0000      -0.996182       -27.1075
  83   2.0000      -0.995661       -27.0933
  84   2.0000      -0.977109       -26.5885
  85   2.0000      -0.973381       -26.4871
  86   2.0000      -0.966182       -26.2912
  87   2.0000      -0.960346       -26.1323
  88   2.0000      -0.949180       -25.8285
  89   2.0000      -0.942276       -25.6406
  90   2.0000      -0.930304       -25.3149
  91   2.0000      -0.926218       -25.2037
  92   2.0000      -0.924059       -25.1449
  93   2.0000      -0.923275       -25.1236
  94   2.0000      -0.911165       -24.7940
  95   2.0000      -0.898539       -24.4505
  96   2.0000      -0.887859       -24.1599
  97   2.0000      -0.884391       -24.0655
  98   2.0000      -0.881997       -24.0004
  99   2.0000      -0.874335       -23.7919
 100   2.0000      -0.864948       -23.5364
 101   2.0000      -0.853530       -23.2257
 102   2.0000      -0.843336       -22.9483
 103   2.0000      -0.831557       -22.6278
 104   2.0000      -0.829517       -22.5723
 105   2.0000      -0.802933       -21.8489
 106   2.0000      -0.797778       -21.7087
 107   2.0000      -0.775609       -21.1054
 108   2.0000      -0.765275       -20.8242
 109   2.0000      -0.763491       -20.7757
 110   2.0000      -0.757867       -20.6226
 111   2.0000      -0.742207       -20.1965
 112   2.0000      -0.734776       -19.9943
 113   2.0000      -0.714992       -19.4559
 114   2.0000      -0.707548       -19.2534
 115   2.0000      -0.705749       -19.2044
 116   2.0000      -0.703952       -19.1555
 117   2.0000      -0.703124       -19.1330
 118   2.0000      -0.697190       -18.9715
 119   2.0000      -0.689010       -18.7489
 120   2.0000      -0.687253       -18.7011
 121   2.0000      -0.678544       -18.4641
 122   2.0000      -0.674040       -18.3415
 123   2.0000      -0.657168       -17.8824
 124   2.0000      -0.651267       -17.7219
 125   2.0000      -0.642593       -17.4858
 126   2.0000      -0.635497       -17.2928
 127   2.0000      -0.627041       -17.0627
 128   2.0000      -0.616918       -16.7872
 129   2.0000      -0.611270       -16.6335
 130   2.0000      -0.608095       -16.5471
 131   2.0000      -0.607423       -16.5288
 132   2.0000      -0.602211       -16.3870
 133   2.0000      -0.600148       -16.3309
 134   2.0000      -0.592011       -16.1095
 135   2.0000      -0.589659       -16.0454
 136   2.0000      -0.572132       -15.5685
 137   2.0000      -0.564137       -15.3509
 138   2.0000      -0.561431       -15.2773
 139   2.0000      -0.556013       -15.1299
 140   2.0000      -0.552529       -15.0351
 141   2.0000      -0.551464       -15.0061
 142   2.0000      -0.549370       -14.9491
 143   2.0000      -0.547686       -14.9033
 144   2.0000      -0.547004       -14.8847
 145   2.0000      -0.542605       -14.7650
 146   2.0000      -0.540238       -14.7006
 147   2.0000      -0.538907       -14.6644
 148   2.0000      -0.536633       -14.6025
 149   2.0000      -0.534157       -14.5352
 150   2.0000      -0.528133       -14.3712
 151   2.0000      -0.523930       -14.2569
 152   2.0000      -0.521371       -14.1872
 153   2.0000      -0.518981       -14.1222
 154   2.0000      -0.517859       -14.0917
 155   2.0000      -0.515202       -14.0194
 156   2.0000      -0.514025       -13.9873
 157   2.0000      -0.511569       -13.9205
 158   2.0000      -0.505996       -13.7689
 159   2.0000      -0.504848       -13.7376
 160   2.0000      -0.499244       -13.5851
 161   2.0000      -0.498871       -13.5750
 162   2.0000      -0.494977       -13.4690
 163   2.0000      -0.492874       -13.4118
 164   2.0000      -0.488376       -13.2894
 165   2.0000      -0.487965       -13.2782
 166   2.0000      -0.486923       -13.2499
 167   2.0000      -0.485100       -13.2003
 168   2.0000      -0.476559       -12.9678
 169   2.0000      -0.471215       -12.8224
 170   2.0000      -0.468994       -12.7620
 171   2.0000      -0.464692       -12.6449
 172   2.0000      -0.457638       -12.4530
 173   2.0000      -0.452306       -12.3079
 174   2.0000      -0.451549       -12.2873
 175   2.0000      -0.447259       -12.1705
 176   2.0000      -0.446607       -12.1528
 177   2.0000      -0.445283       -12.1168
 178   2.0000      -0.442809       -12.0494
 179   2.0000      -0.441487       -12.0135
 180   2.0000      -0.436576       -11.8798
 181   2.0000      -0.435394       -11.8477
 182   2.0000      -0.434254       -11.8167
 183   2.0000      -0.433698       -11.8015
 184   2.0000      -0.430280       -11.7085
 185   2.0000      -0.428363       -11.6563
 186   2.0000      -0.427162       -11.6237
 187   2.0000      -0.421575       -11.4716
 188   2.0000      -0.420323       -11.4376
 189   2.0000      -0.412813       -11.2332
 190   2.0000      -0.408516       -11.1163
 191   2.0000      -0.406493       -11.0612
 192   2.0000      -0.401395       -10.9225
 193   2.0000      -0.400030       -10.8854
 194   2.0000      -0.397547       -10.8178
 195   2.0000      -0.396384       -10.7862
 196   2.0000      -0.385740       -10.4965
 197   2.0000      -0.383462       -10.4345
 198   2.0000      -0.380843       -10.3633
 199   2.0000      -0.379906       -10.3378
 200   2.0000      -0.374527       -10.1914
 201   2.0000      -0.367675       -10.0049
 202   2.0000      -0.351967        -9.5775
 203   2.0000      -0.342419        -9.3177
 204   2.0000      -0.337446        -9.1824
 205   2.0000      -0.336094        -9.1456
 206   2.0000      -0.332767        -9.0551
 207   2.0000      -0.329128        -8.9560
 208   2.0000      -0.328181        -8.9303
 209   2.0000      -0.318948        -8.6790
 210   2.0000      -0.316591        -8.6149
 211   2.0000      -0.302783        -8.2391
 212   2.0000      -0.296341        -8.0639
 213   2.0000      -0.292398        -7.9566
 214   2.0000      -0.276140        -7.5142
 215   0.0000      -0.109165        -2.9705
 216   0.0000      -0.100526        -2.7355
 217   0.0000      -0.076541        -2.0828
 218   0.0000      -0.060620        -1.6496
 219   0.0000      -0.057214        -1.5569

MULLIKEN ATOMIC CHARGES
-----------------------
   0 C :    0.281946
   1 C :   -0.294852
   2 C :   -0.185517
   3 N :    0.158220
   4 C :   -0.181727
   5 N :    0.159741
   6 C :    0.040556
   7 C :    0.004708
   8 C :   -0.076673
   9 C :    0.092704
  10 C :    0.094316
  11 C :   -0.076206
  12 C :   -0.015709
  13 C :    0.037455
  14 C :    0.034211
  15 C :   -0.013617
  16 C :    0.137178
  17 O :   -0.132647
  18 C :   -0.102890
  19 C :    0.091743
  20 C :   -0.127135
  21 S :    0.144906
  22 C :   -0.086911
  23 N :   -0.045699
  24 N :   -0.039478
  25 C :    0.050210
  26 C :    0.075093
  27 C :   -0.082076
  28 S :    0.102505
  29 C :   -0.087116
  30 N :   -0.052425
  31 N :   -0.028937
  32 C :    0.066049
  33 C :    0.070328
  34 C :   -0.095759
  35 S :    0.122744
  36 C :   -0.108656
  37 N :   -0.025548
  38 N :   -0.043709
  39 C :    0.087062
  40 C :    0.015640
  41 C :   -0.051120
  42 C :   -0.053151
  43 C :    0.335034
  44 C :   -0.348913
  45 C :   -0.183203
  46 N :    0.150186
  47 C :   -0.192146
  48 N :    0.150226
  49 C :    0.047293
  50 C :   -0.004394
  51 C :    0.147042
  52 O :   -0.135774
  53 C :   -0.082269
  54 C :    0.101324
  55 C :    0.098609
  56 C :   -0.087597
  57 C :   -0.021202
  58 C :    0.036833
  59 C :    0.038887
  60 C :   -0.018896
  61 H :   -0.009848
  62 H :   -0.001730
  63 H :   -0.008327
  64 H :   -0.003040
  65 H :   -0.002439
  66 H :   -0.016530
  67 H :    0.029822
  68 H :    0.002243
  69 H :    0.042580
  70 H :    0.024378
  71 H :    0.025563
  72 H :    0.010290
  73 H :    0.053394
  74 H :    0.013120
  75 H :   -0.010712
  76 H :   -0.007833
  77 H :   -0.007765
  78 H :   -0.003929
  79 H :   -0.004623
  80 H :   -0.015407
Sum of atomic charges:   -0.0000000

LOEWDIN ATOMIC CHARGES
----------------------
   0 C :    0.071945
   1 C :   -0.112309
   2 C :   -0.016191
   3 N :   -0.044278
   4 C :   -0.015488
   5 N :   -0.052897
   6 C :   -0.020289
   7 C :   -0.059755
   8 C :    0.035546
   9 C :   -0.008863
  10 C :   -0.003430
  11 C :    0.019155
  12 C :   -0.005267
  13 C :   -0.010591
  14 C :   -0.011891
  15 C :   -0.008341
  16 C :    0.085043
  17 O :   -0.133435
  18 C :   -0.048116
  19 C :    0.027939
  20 C :   -0.161659
  21 S :    0.423696
  22 C :   -0.133375
  23 N :   -0.067956
  24 N :   -0.055536
  25 C :   -0.048731
  26 C :    0.009937
  27 C :   -0.149327
  28 S :    0.393766
  29 C :   -0.143579
  30 N :   -0.074316
  31 N :   -0.059083
  32 C :   -0.015446
  33 C :   -0.015484
  34 C :   -0.146563
  35 S :    0.406325
  36 C :   -0.153630
  37 N :   -0.056090
  38 N :   -0.069533
  39 C :   -0.012017
  40 C :    0.010956
  41 C :    0.062165
  42 C :   -0.078721
  43 C :    0.075064
  44 C :   -0.134879
  45 C :   -0.016884
  46 N :   -0.050975
  47 C :   -0.020356
  48 N :   -0.051094
  49 C :   -0.026353
  50 C :   -0.056042
  51 C :    0.083683
  52 O :   -0.132689
  53 C :    0.033481
  54 C :   -0.007406
  55 C :   -0.005786
  56 C :    0.019944
  57 C :   -0.005124
  58 C :   -0.012851
  59 C :   -0.011220
  60 C :   -0.009234
  61 H :    0.040013
  62 H :    0.040174
  63 H :    0.035282
  64 H :    0.033909
  65 H :    0.033551
  66 H :    0.032215
  67 H :    0.049910
  68 H :    0.028959
  69 H :    0.057071
  70 H :    0.042920
  71 H :    0.043124
  72 H :    0.038169
  73 H :    0.044200
  74 H :    0.041836
  75 H :    0.039803
  76 H :    0.039071
  77 H :    0.035064
  78 H :    0.033563
  79 H :    0.033156
  80 H :    0.032449

  Mayer bond orders larger than 0.100000
B(  0-C ,  1-C ) :   1.6994 B(  0-C ,  6-C ) :   1.0066 B(  0-C , 18-C ) :   1.0054
B(  1-C ,  2-C ) :   1.1371 B(  1-C ,  4-C ) :   1.1514 B(  2-C ,  3-N ) :   2.9896
B(  4-C ,  5-N ) :   3.0071 B(  6-C ,  7-C ) :   1.2096 B(  6-C , 11-C ) :   1.4542
B(  7-C ,  8-C ) :   1.4681 B(  7-C , 16-C ) :   0.9238 B(  8-C ,  9-C ) :   1.1929
B(  8-C , 61-H ) :   1.0156 B(  9-C , 10-C ) :   1.2520 B(  9-C , 15-C ) :   1.2436
B( 10-C , 11-C ) :   1.2102 B( 10-C , 12-C ) :   1.2395 B( 11-C , 62-H ) :   0.9933
B( 12-C , 13-C ) :   1.4917 B( 12-C , 63-H ) :   0.9978 B( 13-C , 14-C ) :   1.2576
B( 13-C , 64-H ) :   0.9888 B( 14-C , 15-C ) :   1.4912 B( 14-C , 65-H ) :   0.9897
B( 15-C , 66-H ) :   0.9976 B( 16-C , 17-O ) :   2.2864 B( 16-C , 18-C ) :   0.9193
B( 18-C , 19-C ) :   1.7670 B( 19-C , 20-C ) :   1.0445 B( 19-C , 67-H ) :   0.9362
B( 20-C , 21-S ) :   1.1033 B( 20-C , 24-N ) :   1.6311 B( 21-S , 22-C ) :   1.1119
B( 21-S , 24-N ) :   0.1017 B( 22-C , 23-N ) :   1.6720 B( 22-C , 25-C ) :   1.1098
B( 23-N , 24-N ) :   1.2488 B( 25-C , 26-C ) :   1.6927 B( 25-C , 68-H ) :   0.9485
B( 26-C , 27-C ) :   1.1090 B( 26-C , 69-H ) :   0.9833 B( 27-C , 28-S ) :   1.0883
B( 27-C , 31-N ) :   1.6571 B( 28-S , 29-C ) :   1.1000 B( 29-C , 30-N ) :   1.6805
B( 29-C , 32-C ) :   1.0864 B( 30-N , 31-N ) :   1.2340 B( 32-C , 33-C ) :   1.7615
B( 32-C , 70-H ) :   0.9562 B( 33-C , 34-C ) :   1.0852 B( 33-C , 71-H ) :   0.9533
B( 34-C , 35-S ) :   1.1079 B( 34-C , 38-N ) :   1.6659 B( 35-S , 36-C ) :   1.0946
B( 36-C , 37-N ) :   1.6670 B( 36-C , 39-C ) :   1.0835 B( 37-N , 38-N ) :   1.2474
B( 39-C , 40-C ) :   1.6402 B( 39-C , 72-H ) :   0.9590 B( 40-C , 41-C ) :   1.1169
B( 40-C , 73-H ) :   0.9856 B( 41-C , 42-C ) :   1.5769 B( 41-C , 74-H ) :   0.9608
B( 42-C , 43-C ) :   1.0538 B( 42-C , 51-C ) :   0.9300 B( 43-C , 44-C ) :   1.6327
B( 43-C , 49-C ) :   0.9914 B( 44-C , 45-C ) :   1.1441 B( 44-C , 47-C ) :   1.1465
B( 45-C , 46-N ) :   2.9642 B( 47-C , 48-N ) :   2.9653 B( 49-C , 50-C ) :   1.2151
B( 49-C , 56-C ) :   1.4447 B( 50-C , 51-C ) :   0.9408 B( 50-C , 53-C ) :   1.4700
B( 51-C , 52-O ) :   2.2253 B( 53-C , 54-C ) :   1.1807 B( 53-C , 75-H ) :   1.0162
B( 54-C , 55-C ) :   1.2536 B( 54-C , 60-C ) :   1.2437 B( 55-C , 56-C ) :   1.2099
B( 55-C , 57-C ) :   1.2387 B( 56-C , 76-H ) :   0.9892 B( 57-C , 58-C ) :   1.4914
B( 57-C , 77-H ) :   0.9969 B( 58-C , 59-C ) :   1.2584 B( 58-C , 78-H ) :   0.9882
B( 59-C , 60-C ) :   1.4903 B( 59-C , 79-H ) :   0.9881 B( 60-C , 80-H ) :   0.9976

-----------------------------------------------------------------------------
         ABSORPTION SPECTRUM VIA TRANSITION ELECTRIC DIPOLE MOMENTS
-----------------------------------------------------------------------------
State   Energy  Wavelength   fosc         T2         TX        TY        TZ
        (cm-1)    (nm)                  (au**2)     (au)      (au)      (au)
-----------------------------------------------------------------------------
   0   21392.5    467.5   2.598811444  39.99342   4.59281  -4.27682  -0.77993
   1   23835.8    419.5   0.100108014   1.38266   0.69848   0.13235   0.93662
   2   25259.7    395.9   0.177714873   2.31618  -1.03162   1.10800  -0.15582
   3   25452.5    392.9   0.044762050   0.57897  -0.19512   0.08669  -0.73033
   4   26039.0    384.0   0.001082625   0.01369  -0.10674   0.04154  -0.02382
   5   26724.2    374.2   0.019761118   0.24343   0.22125  -0.43155   0.09085
   6   26838.7    372.6   0.000015508   0.00019   0.00337  -0.01290   0.00351
   7   27627.3    362.0   0.000542871   0.00647  -0.01142  -0.06977   0.03835
   8   28280.3    353.6   0.023223598   0.27035  -0.50880   0.10559   0.01793
   9   28417.7    351.9   0.017629528   0.20423   0.02166  -0.18247   0.41288
  10   28831.2    346.8   0.165934446   1.89474  -1.23258   0.54245   0.28502
  11   29518.5    338.8   0.035635678   0.39743  -0.37723   0.48687  -0.13451
  12   29891.5    334.5   0.067243657   0.74059  -0.67230   0.31198  -0.43735
  13   31949.7    313.0   0.344626374   3.55105  -0.84074   0.35084   1.64958
  14   32377.9    308.9   0.388700274   3.95223  -0.38085   1.64756  -1.04533
  15   33359.4    299.8   0.636130118   6.27774  -1.23335   1.77800  -1.26305
  16   33610.3    297.5   0.004028260   0.03946  -0.12626   0.11753  -0.09849
  17   33772.7    296.1   0.593606841   5.78641   1.76019  -1.63263   0.15047
  18   33917.9    294.8   0.200994143   1.95088  -0.12304  -0.48364   1.30454
  19   34232.8    292.1   0.021039826   0.20234  -0.32172   0.16789  -0.26579
  20   34413.6    290.6   0.095222144   0.91093   0.41724  -0.78227   0.35339
  21   35208.4    284.0   0.097066968   0.90761   0.04699  -0.75688   0.57666
  22   35571.6    281.1   0.023830077   0.22054   0.29497   0.34505   0.12033
  23   35658.1    280.4   0.002372273   0.02190  -0.09987  -0.01490  -0.10819
  24   35868.0    278.8   0.021990576   0.20184   0.14881  -0.10810   0.40989
  25   36149.8    276.6   0.044275208   0.40321   0.05323  -0.19134   0.60313
  26   36412.1    274.6   0.061177477   0.55312  -0.16001   0.60449   0.40263
  27   37293.2    268.1   0.076955459   0.67934  -0.14897  -0.64269   0.49405
  28   37663.7    265.5   0.038949047   0.34045  -0.51279   0.24997  -0.12251
  29   38183.9    261.9   0.049005891   0.42252  -0.12027   0.18344   0.61188
  30   38904.4    257.0   0.172554527   1.46017  -1.00176  -0.32302   0.59354
  31   39299.4    254.5   0.113544096   0.95116   0.96461  -0.13960  -0.03456
  32   39723.7    251.7   0.030974725   0.25670  -0.10953   0.43504   0.23548
  33   39961.9    250.2   0.097622116   0.80422  -0.51355   0.01281   0.73507
  34   40169.7    248.9   0.001178074   0.00965   0.06612  -0.06396  -0.03452

FINAL SINGLE POINT ENERGY     -3653.829694102780

DIPOLE MOMENT
-------------
                                X             Y             Z
Electronic contribution:      9.45796      -3.76992       8.30299
Nuclear contribution   :     -7.40267       3.82626      -9.81401
                        -----------------------------------------
Total Dipole Moment    :      2.05529       0.05634      -1.51102
                        -----------------------------------------
Magnitude (a.u.)       :      2.55158
Magnitude (Debye)      :      6.48560

Rotational constants in cm-1:     0.003875     0.000181     0.000177
Rotational constants in MHz :   116.176089     5.414994     5.307660

                             ****ORCA TERMINATED NORMALLY****
TOTAL RUN TIME: 0 days 0 hours 5 minutes 34 seconds 439 msec
