                         Program Version 4.2.0 -  RELEASE  -
|  1> # ORCA input file
|  2> # SCF done       -202.232618819664          0.000723368189
|  3> ! CAM-B3LYP def2-SVP def2/J RIJCOSX Grid4 TightSCF
|  4> %maxcore 5000
|  5> %tddft
|  6>     Mode sTDDFT
|  7>     Ethresh 5.0
|  8>     maxcore 5000
|  9> end
| 10>
| 11> %pal
| 12>   nprocs 6
| 13>   end
| 14> * xyz 0 1
| 15>    C        3.80464         3.39019         2.30721
| 16>    C        3.52004         4.32985         3.26002
| 17>    C        4.48491         4.88428         4.12833
| 18>    N        5.22690         5.36637         4.85834
| 19>    C        2.22241         4.80666         3.52836
| 20>    N        1.17718         5.21251         3.77511
| 21>    C        5.09489         2.73921         2.12111
| 22>    C        4.89862         1.53140         1.38854
| 23>    C        5.93789         0.69808         1.08677
| 24>    C        7.24274         1.04723         1.50019
| 25>    C        7.44792         2.26247         2.21691
| 26>    C        6.35273         3.10202         2.52266
| 27>    C        8.75712         2.60443         2.61265
| 28>    C        9.81351         1.78614         2.31827
| 29>    C        9.61037         0.58936         1.61462
| 30>    C        8.35258         0.22737         1.21502
| 31>    C        3.47740         1.39999         1.03678
| 32>    O        2.91904         0.48736         0.47772
| 33>    C        2.84745         2.69458         1.46454
| 34>    C        1.63503         3.01277         0.96131
| 35>    C        0.94766         4.27786         0.91716
| 36>    C        1.58733         5.52088         0.80865
| 37>    F        2.92628         5.57341         0.73628
| 38>    C        0.87388         6.69671         0.72673
| 39>    F        1.55308         7.85158         0.61389
| 40>    C       -0.53336         6.74290         0.75108
| 41>    C       -1.16942         5.49210         0.83962
| 42>    C       -0.45452         4.31231         0.90111
| 43>    F       -1.12347         3.15580         0.97816
| 44>    F       -2.50821         5.41281         0.85916
| 45>    C       -1.17569         8.02134         0.67968
| 46>    C       -2.50630         8.27512         0.60440
| 47>    C       -3.06677         9.56943         0.52700
| 48>    S       -4.78151         9.74022         0.23475
| 49>    C       -4.74275        11.47973         0.20360
| 50>    C       -3.43702        11.92060         0.44173
| 51>    C       -2.51331        10.84386         0.61967
| 52>    N       -1.28843        11.37506         0.86021
| 53>    C       -1.40202        12.75110         0.84691
| 54>    C       -0.29112        13.57682         1.07722
| 55>    N        0.62176        14.24347         1.26975
| 56>    C       -2.70330        13.12197         0.58908
| 57>    C       -5.93903        12.18679        -0.05823
| 58>    C       -6.02245        13.53164        -0.20125
| 59>    C       -7.20156        14.27256        -0.48616
| 60>    N       -8.47577        13.75717        -0.62489
| 61>    C       -9.36568        14.73682        -0.90542
| 62>    C       -8.67011        15.93454        -0.95977
| 63>    C       -7.31406        15.63109        -0.69175
| 64>    S       -6.38479        17.14750        -0.75253
| 65>    O       -5.88011        17.48566         0.54645
| 66>    O       -5.46534        17.13307        -1.85304
| 67>    C       -7.87255        18.12371        -1.15749
| 68>    C       -8.95790        17.30996        -1.21111
| 69>    C       -7.71910        19.51152        -1.35329
| 70>    C       -8.72980        20.33298        -1.76432
| 71>    C       -8.69415        21.71936        -2.04030
| 72>    C       -7.66890        22.61070        -2.33552
| 73>    N       -6.26891        22.48418        -2.22936
| 74>    O       -5.80025        21.64398        -1.48164
| 75>    O       -5.60041        23.25665        -2.89308
| 76>    C       -8.23331        23.82194        -2.87741
| 77>    C       -9.58229        23.70819        -2.93390
| 78>    C       -9.95265        22.44559        -2.36071
| 79>    C      -11.21511        22.06391        -1.97581
| 80>    C      -11.53499        21.21640        -0.85107
| 81>    C      -12.86383        21.29583        -0.61111
| 82>    C      -13.46838        22.12582        -1.62916
| 83>    N      -14.85993        22.33374        -1.69584
| 84>    O      -15.30841        23.02406        -2.59545
| 85>    O      -15.54159        21.80593        -0.83473
| 86>    C      -12.49136        22.60021        -2.48024
| 87>    C      -12.69619        23.32261        -3.70499
| 88>    C      -11.94184        23.19549        -4.79802
| 89>    H        5.76689        -0.21504         0.53628
| 90>    H        6.53681         4.02248         3.05422
| 91>    H        8.90817         3.52522         3.15642
| 92>    H       10.81231         2.05654         2.62621
| 93>    H       10.45561        -0.04371         1.39011
| 94>    H        8.19019        -0.69245         0.67262
| 95>    H        1.11381         2.19264         0.47453
| 96>    H       -0.48868         8.85392         0.66033
| 97>    H       -3.22057         7.46707         0.57636
| 98>    H       -0.43408        10.88185         1.05893
| 99>    H       -3.05552        14.13141         0.52885
|100>    H       -6.82147        11.56838        -0.16265
|101>    H       -5.13702        14.14075        -0.11897
|102>    H       -8.70878        12.78236        -0.52133
|103>    H      -10.40766        14.52949        -1.04913
|104>    H       -9.96477        17.64400        -1.41005
|105>    H       -6.73132        19.90248        -1.15316
|106>    H       -9.69778        19.87742        -1.92840
|107>    H       -7.63362        24.66371        -3.16887
|108>    H      -10.27591        24.46835        -3.23287
|109>    H      -10.80726        20.73727        -0.22538
|110>    H      -13.42057        20.84168         0.18631
|111>    H      -13.58649        23.93765        -3.73276
|112>    H      -11.10178        22.52201        -4.84306
|113>    H      -12.16629        23.74678        -5.69431
|114> *
|115>
|116>                          ****END OF INPUT****

CARTESIAN COORDINATES (ANGSTROEM)
---------------------------------
  C      3.804640    3.390190    2.307210
  C      3.520040    4.329850    3.260020
  C      4.484910    4.884280    4.128330
  N      5.226900    5.366370    4.858340
  C      2.222410    4.806660    3.528360
  N      1.177180    5.212510    3.775110
  C      5.094890    2.739210    2.121110
  C      4.898620    1.531400    1.388540
  C      5.937890    0.698080    1.086770
  C      7.242740    1.047230    1.500190
  C      7.447920    2.262470    2.216910
  C      6.352730    3.102020    2.522660
  C      8.757120    2.604430    2.612650
  C      9.813510    1.786140    2.318270
  C      9.610370    0.589360    1.614620
  C      8.352580    0.227370    1.215020
  C      3.477400    1.399990    1.036780
  O      2.919040    0.487360    0.477720
  C      2.847450    2.694580    1.464540
  C      1.635030    3.012770    0.961310
  C      0.947660    4.277860    0.917160
  C      1.587330    5.520880    0.808650
  F      2.926280    5.573410    0.736280
  C      0.873880    6.696710    0.726730
  F      1.553080    7.851580    0.613890
  C     -0.533360    6.742900    0.751080
  C     -1.169420    5.492100    0.839620
  C     -0.454520    4.312310    0.901110
  F     -1.123470    3.155800    0.978160
  F     -2.508210    5.412810    0.859160
  C     -1.175690    8.021340    0.679680
  C     -2.506300    8.275120    0.604400
  C     -3.066770    9.569430    0.527000
  S     -4.781510    9.740220    0.234750
  C     -4.742750   11.479730    0.203600
  C     -3.437020   11.920600    0.441730
  C     -2.513310   10.843860    0.619670
  N     -1.288430   11.375060    0.860210
  C     -1.402020   12.751100    0.846910
  C     -0.291120   13.576820    1.077220
  N      0.621760   14.243470    1.269750
  C     -2.703300   13.121970    0.589080
  C     -5.939030   12.186790   -0.058230
  C     -6.022450   13.531640   -0.201250
  C     -7.201560   14.272560   -0.486160
  N     -8.475770   13.757170   -0.624890
  C     -9.365680   14.736820   -0.905420
  C     -8.670110   15.934540   -0.959770
  C     -7.314060   15.631090   -0.691750
  S     -6.384790   17.147500   -0.752530
  O     -5.880110   17.485660    0.546450
  O     -5.465340   17.133070   -1.853040
  C     -7.872550   18.123710   -1.157490
  C     -8.957900   17.309960   -1.211110
  C     -7.719100   19.511520   -1.353290
  C     -8.729800   20.332980   -1.764320
  C     -8.694150   21.719360   -2.040300
  C     -7.668900   22.610700   -2.335520
  N     -6.268910   22.484180   -2.229360
  O     -5.800250   21.643980   -1.481640
  O     -5.600410   23.256650   -2.893080
  C     -8.233310   23.821940   -2.877410
  C     -9.582290   23.708190   -2.933900
  C     -9.952650   22.445590   -2.360710
  C    -11.215110   22.063910   -1.975810
  C    -11.534990   21.216400   -0.851070
  C    -12.863830   21.295830   -0.611110
  C    -13.468380   22.125820   -1.629160
  N    -14.859930   22.333740   -1.695840
  O    -15.308410   23.024060   -2.595450
  O    -15.541590   21.805930   -0.834730
  C    -12.491360   22.600210   -2.480240
  C    -12.696190   23.322610   -3.704990
  C    -11.941840   23.195490   -4.798020
  H      5.766890   -0.215040    0.536280
  H      6.536810    4.022480    3.054220
  H      8.908170    3.525220    3.156420
  H     10.812310    2.056540    2.626210
  H     10.455610   -0.043710    1.390110
  H      8.190190   -0.692450    0.672620
  H      1.113810    2.192640    0.474530
  H     -0.488680    8.853920    0.660330
  H     -3.220570    7.467070    0.576360
  H     -0.434080   10.881850    1.058930
  H     -3.055520   14.131410    0.528850
  H     -6.821470   11.568380   -0.162650
  H     -5.137020   14.140750   -0.118970
  H     -8.708780   12.782360   -0.521330
  H    -10.407660   14.529490   -1.049130
  H     -9.964770   17.644000   -1.410050
  H     -6.731320   19.902480   -1.153160
  H     -9.697780   19.877420   -1.928400
  H     -7.633620   24.663710   -3.168870
  H    -10.275910   24.468350   -3.232870
  H    -10.807260   20.737270   -0.225380
  H    -13.420570   20.841680    0.186310
  H    -13.586490   23.937650   -3.732760
  H    -11.101780   22.522010   -4.843060
  H    -12.166290   23.746780   -5.694310

 Total Charge           Charge          ....    0
 Multiplicity           Mult            ....    1
 Number of Electrons    NEL             ....  522
 Basis Dimension        Dim             .... 1169

ORBITAL ENERGIES
----------------

  NO   OCC          E(Eh)            E(eV)
   0   2.0000     -89.146565     -2425.8014
   1   2.0000     -88.978855     -2421.2377
   2   2.0000     -24.813508      -675.2099
   3   2.0000     -24.808073      -675.0620
   4   2.0000     -24.807097      -675.0354
   5   2.0000     -24.806472      -675.0184
   6   2.0000     -19.240470      -523.5598
   7   2.0000     -19.239700      -523.5388
   8   2.0000     -19.238942      -523.5182
   9   2.0000     -19.236615      -523.4549
  10   2.0000     -19.220330      -523.0118
  11   2.0000     -19.195705      -522.3417
  12   2.0000     -19.194647      -522.3129
  13   2.0000     -14.649196      -398.6249
  14   2.0000     -14.646446      -398.5501
  15   2.0000     -14.500154      -394.5692
  16   2.0000     -14.487581      -394.2271
  17   2.0000     -14.421731      -392.4352
  18   2.0000     -14.419178      -392.3658
  19   2.0000     -14.418968      -392.3601
  20   2.0000     -10.388646      -282.6894
  21   2.0000     -10.386796      -282.6391
  22   2.0000     -10.383322      -282.5446
  23   2.0000     -10.381607      -282.4979
  24   2.0000     -10.370705      -282.2012
  25   2.0000     -10.354677      -281.7651
  26   2.0000     -10.348561      -281.5987
  27   2.0000     -10.344780      -281.4958
  28   2.0000     -10.342908      -281.4448
  29   2.0000     -10.340045      -281.3669
  30   2.0000     -10.334983      -281.2292
  31   2.0000     -10.334319      -281.2111
  32   2.0000     -10.332282      -281.1557
  33   2.0000     -10.331656      -281.1386
  34   2.0000     -10.329897      -281.0908
  35   2.0000     -10.328220      -281.0452
  36   2.0000     -10.326738      -281.0048
  37   2.0000     -10.325264      -280.9647
  38   2.0000     -10.325249      -280.9643
  39   2.0000     -10.323651      -280.9208
  40   2.0000     -10.322824      -280.8983
  41   2.0000     -10.322711      -280.8953
  42   2.0000     -10.321421      -280.8601
  43   2.0000     -10.321273      -280.8561
  44   2.0000     -10.319644      -280.8118
  45   2.0000     -10.317620      -280.7567
  46   2.0000     -10.312834      -280.6265
  47   2.0000     -10.310493      -280.5628
  48   2.0000     -10.307488      -280.4810
  49   2.0000     -10.307368      -280.4778
  50   2.0000     -10.306732      -280.4604
  51   2.0000     -10.305590      -280.4294
  52   2.0000     -10.305444      -280.4254
  53   2.0000     -10.303040      -280.3600
  54   2.0000     -10.302010      -280.3319
  55   2.0000     -10.300948      -280.3030
  56   2.0000     -10.300869      -280.3009
  57   2.0000     -10.300473      -280.2901
  58   2.0000     -10.299953      -280.2760
  59   2.0000     -10.299785      -280.2714
  60   2.0000     -10.298905      -280.2474
  61   2.0000     -10.298011      -280.2231
  62   2.0000     -10.297777      -280.2168
  63   2.0000     -10.297149      -280.1997
  64   2.0000     -10.293740      -280.1069
  65   2.0000     -10.293182      -280.0917
  66   2.0000     -10.293069      -280.0887
  67   2.0000     -10.291659      -280.0503
  68   2.0000     -10.290867      -280.0287
  69   2.0000     -10.289005      -279.9781
  70   2.0000     -10.288634      -279.9680
  71   2.0000     -10.288368      -279.9607
  72   2.0000     -10.287764      -279.9443
  73   2.0000     -10.287047      -279.9248
  74   2.0000      -8.210791      -223.4270
  75   2.0000      -8.073832      -219.7002
  76   2.0000      -6.180088      -168.1687
  77   2.0000      -6.179313      -168.1476
  78   2.0000      -6.179128      -168.1426
  79   2.0000      -6.043048      -164.4397
  80   2.0000      -6.039023      -164.3302
  81   2.0000      -6.036126      -164.2513
  82   2.0000      -1.332978       -36.2722
  83   2.0000      -1.331127       -36.2218
  84   2.0000      -1.319644       -35.9093
  85   2.0000      -1.317643       -35.8549
  86   2.0000      -1.315256       -35.7899
  87   2.0000      -1.314438       -35.7677
  88   2.0000      -1.201755       -32.7014
  89   2.0000      -1.136868       -30.9357
  90   2.0000      -1.136093       -30.9147
  91   2.0000      -1.135081       -30.8871
  92   2.0000      -1.113525       -30.3006
  93   2.0000      -1.109596       -30.1936
  94   2.0000      -1.079801       -29.3829
  95   2.0000      -1.023122       -27.8406
  96   2.0000      -1.020675       -27.7740
  97   2.0000      -1.002834       -27.2885
  98   2.0000      -1.002571       -27.2814
  99   2.0000      -1.000408       -27.2225
 100   2.0000      -0.999318       -27.1928
 101   2.0000      -0.995016       -27.0758
 102   2.0000      -0.992510       -27.0076
 103   2.0000      -0.974625       -26.5209
 104   2.0000      -0.974415       -26.5152
 105   2.0000      -0.939952       -25.5774
 106   2.0000      -0.929743       -25.2996
 107   2.0000      -0.922408       -25.1000
 108   2.0000      -0.918924       -25.0052
 109   2.0000      -0.913452       -24.8563
 110   2.0000      -0.909801       -24.7569
 111   2.0000      -0.898418       -24.4472
 112   2.0000      -0.897926       -24.4338
 113   2.0000      -0.884911       -24.0796
 114   2.0000      -0.882199       -24.0059
 115   2.0000      -0.881240       -23.9797
 116   2.0000      -0.874092       -23.7852
 117   2.0000      -0.864872       -23.5344
 118   2.0000      -0.859594       -23.3907
 119   2.0000      -0.857341       -23.3294
 120   2.0000      -0.845290       -23.0015
 121   2.0000      -0.831788       -22.6341
 122   2.0000      -0.831550       -22.6276
 123   2.0000      -0.816773       -22.2255
 124   2.0000      -0.812629       -22.1128
 125   2.0000      -0.797607       -21.7040
 126   2.0000      -0.791123       -21.5276
 127   2.0000      -0.780935       -21.2503
 128   2.0000      -0.766938       -20.8695
 129   2.0000      -0.758621       -20.6431
 130   2.0000      -0.750551       -20.4235
 131   2.0000      -0.749429       -20.3930
 132   2.0000      -0.738966       -20.1083
 133   2.0000      -0.731294       -19.8995
 134   2.0000      -0.730436       -19.8762
 135   2.0000      -0.718869       -19.5614
 136   2.0000      -0.714581       -19.4447
 137   2.0000      -0.705315       -19.1926
 138   2.0000      -0.703808       -19.1516
 139   2.0000      -0.701807       -19.0971
 140   2.0000      -0.693984       -18.8843
 141   2.0000      -0.691980       -18.8297
 142   2.0000      -0.682746       -18.5785
 143   2.0000      -0.681753       -18.5514
 144   2.0000      -0.676359       -18.4047
 145   2.0000      -0.674928       -18.3657
 146   2.0000      -0.665367       -18.1056
 147   2.0000      -0.655951       -17.8493
 148   2.0000      -0.652828       -17.7643
 149   2.0000      -0.647829       -17.6283
 150   2.0000      -0.640156       -17.4195
 151   2.0000      -0.637619       -17.3505
 152   2.0000      -0.637393       -17.3443
 153   2.0000      -0.630730       -17.1630
 154   2.0000      -0.628420       -17.1002
 155   2.0000      -0.627533       -17.0760
 156   2.0000      -0.625629       -17.0242
 157   2.0000      -0.621719       -16.9178
 158   2.0000      -0.620135       -16.8747
 159   2.0000      -0.613867       -16.7042
 160   2.0000      -0.612454       -16.6657
 161   2.0000      -0.610213       -16.6047
 162   2.0000      -0.606668       -16.5083
 163   2.0000      -0.604867       -16.4593
 164   2.0000      -0.602564       -16.3966
 165   2.0000      -0.595034       -16.1917
 166   2.0000      -0.591936       -16.1074
 167   2.0000      -0.588487       -16.0135
 168   2.0000      -0.584827       -15.9139
 169   2.0000      -0.579932       -15.7807
 170   2.0000      -0.577034       -15.7019
 171   2.0000      -0.574121       -15.6226
 172   2.0000      -0.570141       -15.5143
 173   2.0000      -0.563400       -15.3309
 174   2.0000      -0.561587       -15.2816
 175   2.0000      -0.561313       -15.2741
 176   2.0000      -0.555245       -15.1090
 177   2.0000      -0.553930       -15.0732
 178   2.0000      -0.553617       -15.0647
 179   2.0000      -0.552571       -15.0362
 180   2.0000      -0.550331       -14.9753
 181   2.0000      -0.549495       -14.9525
 182   2.0000      -0.547507       -14.8984
 183   2.0000      -0.546688       -14.8761
 184   2.0000      -0.545859       -14.8536
 185   2.0000      -0.543094       -14.7783
 186   2.0000      -0.541671       -14.7396
 187   2.0000      -0.538104       -14.6425
 188   2.0000      -0.533441       -14.5157
 189   2.0000      -0.529560       -14.4101
 190   2.0000      -0.527644       -14.3579
 191   2.0000      -0.522809       -14.2264
 192   2.0000      -0.522737       -14.2244
 193   2.0000      -0.517535       -14.0828
 194   2.0000      -0.517226       -14.0744
 195   2.0000      -0.514169       -13.9912
 196   2.0000      -0.507786       -13.8176
 197   2.0000      -0.506959       -13.7951
 198   2.0000      -0.505106       -13.7446
 199   2.0000      -0.502329       -13.6691
 200   2.0000      -0.498745       -13.5715
 201   2.0000      -0.496971       -13.5233
 202   2.0000      -0.491586       -13.3767
 203   2.0000      -0.491019       -13.3613
 204   2.0000      -0.488558       -13.2943
 205   2.0000      -0.486851       -13.2479
 206   2.0000      -0.484782       -13.1916
 207   2.0000      -0.484533       -13.1848
 208   2.0000      -0.477107       -12.9827
 209   2.0000      -0.475153       -12.9296
 210   2.0000      -0.471125       -12.8200
 211   2.0000      -0.467907       -12.7324
 212   2.0000      -0.466659       -12.6984
 213   2.0000      -0.465653       -12.6711
 214   2.0000      -0.463826       -12.6213
 215   2.0000      -0.461468       -12.5572
 216   2.0000      -0.458739       -12.4829
 217   2.0000      -0.454658       -12.3719
 218   2.0000      -0.448737       -12.2108
 219   2.0000      -0.448309       -12.1991
 220   2.0000      -0.446365       -12.1462
 221   2.0000      -0.445538       -12.1237
 222   2.0000      -0.442786       -12.0488
 223   2.0000      -0.442268       -12.0347
 224   2.0000      -0.438018       -11.9191
 225   2.0000      -0.436401       -11.8751
 226   2.0000      -0.435197       -11.8423
 227   2.0000      -0.432511       -11.7692
 228   2.0000      -0.430152       -11.7050
 229   2.0000      -0.424417       -11.5490
 230   2.0000      -0.421347       -11.4654
 231   2.0000      -0.415876       -11.3166
 232   2.0000      -0.409167       -11.1340
 233   2.0000      -0.408089       -11.1047
 234   2.0000      -0.400990       -10.9115
 235   2.0000      -0.395912       -10.7733
 236   2.0000      -0.392685       -10.6855
 237   2.0000      -0.388410       -10.5692
 238   2.0000      -0.385387       -10.4869
 239   2.0000      -0.382609       -10.4113
 240   2.0000      -0.382181       -10.3997
 241   2.0000      -0.376557       -10.2466
 242   2.0000      -0.375579       -10.2200
 243   2.0000      -0.373060       -10.1515
 244   2.0000      -0.366206        -9.9650
 245   2.0000      -0.365403        -9.9431
 246   2.0000      -0.364717        -9.9244
 247   2.0000      -0.361529        -9.8377
 248   2.0000      -0.353212        -9.6114
 249   2.0000      -0.341139        -9.2829
 250   2.0000      -0.340387        -9.2624
 251   2.0000      -0.334848        -9.1117
 252   2.0000      -0.327378        -8.9084
 253   2.0000      -0.326099        -8.8736
 254   2.0000      -0.317343        -8.6353
 255   2.0000      -0.314420        -8.5558
 256   2.0000      -0.305252        -8.3063
 257   2.0000      -0.302339        -8.2271
 258   2.0000      -0.296267        -8.0618
 259   2.0000      -0.271195        -7.3796
 260   2.0000      -0.243349        -6.6219
 261   0.0000      -0.132945        -3.6176
 262   0.0000      -0.100020        -2.7217
 263   0.0000      -0.078085        -2.1248
 264   0.0000      -0.067143        -1.8271
 265   0.0000      -0.057563        -1.5664

MULLIKEN ATOMIC CHARGES
-----------------------
   0 C :    0.281503
   1 C :   -0.320050
   2 C :   -0.182262
   3 N :    0.160405
   4 C :   -0.200395
   5 N :    0.167586
   6 C :    0.036176
   7 C :    0.014852
   8 C :   -0.077036
   9 C :    0.092676
  10 C :    0.094122
  11 C :   -0.077415
  12 C :   -0.016414
  13 C :    0.038178
  14 C :    0.034612
  15 C :   -0.012669
  16 C :    0.133529
  17 O :   -0.134956
  18 C :   -0.102952
  19 C :    0.021928
  20 C :   -0.111544
  21 C :    0.206170
  22 F :   -0.165009
  23 C :    0.191776
  24 F :   -0.179100
  25 C :   -0.013953
  26 C :    0.180455
  27 C :    0.220060
  28 F :   -0.160345
  29 F :   -0.173482
  30 C :   -0.048341
  31 C :    0.107277
  32 C :   -0.193998
  33 S :    0.154178
  34 C :   -0.162546
  35 C :    0.116337
  36 C :    0.107636
  37 N :   -0.035139
  38 C :   -0.096793
  39 C :   -0.148145
  40 N :    0.177926
  41 C :   -0.037079
  42 C :    0.057423
  43 C :    0.037406
  44 C :   -0.029114
  45 N :   -0.039816
  46 C :    0.017942
  47 C :    0.039685
  48 C :   -0.022338
  49 S :    0.786777
  50 O :   -0.446187
  51 O :   -0.446049
  52 C :   -0.080842
  53 C :    0.045307
  54 C :    0.094689
  55 C :   -0.088622
  56 C :    0.099261
  57 C :    0.057350
  58 N :    0.275344
  59 O :   -0.241451
  60 O :   -0.244816
  61 C :    0.032128
  62 C :    0.007082
  63 C :    0.001880
  64 C :    0.020467
  65 C :   -0.009726
  66 C :    0.014496
  67 C :    0.083552
  68 N :    0.271392
  69 O :   -0.250719
  70 O :   -0.246173
  71 C :    0.018412
  72 C :   -0.046199
  73 C :   -0.002707
  74 H :   -0.010781
  75 H :   -0.004113
  76 H :   -0.008992
  77 H :   -0.003521
  78 H :   -0.003531
  79 H :   -0.016950
  80 H :    0.038609
  81 H :   -0.050651
  82 H :   -0.003972
  83 H :    0.142633
  84 H :    0.011999
  85 H :   -0.044533
  86 H :   -0.015808
  87 H :    0.137397
  88 H :    0.009482
  89 H :   -0.003304
  90 H :    0.034146
  91 H :    0.001878
  92 H :    0.007583
  93 H :    0.000713
  94 H :    0.004632
  95 H :    0.005268
  96 H :    0.035835
  97 H :    0.042002
  98 H :    0.040383
Sum of atomic charges:   -0.0000000

LOEWDIN ATOMIC CHARGES
----------------------
   0 C :    0.068891
   1 C :   -0.129254
   2 C :   -0.018103
   3 N :   -0.045397
   4 C :   -0.016932
   5 N :   -0.047632
   6 C :   -0.022010
   7 C :   -0.058850
   8 C :    0.035356
   9 C :   -0.008679
  10 C :   -0.004202
  11 C :    0.018762
  12 C :   -0.005488
  13 C :   -0.010952
  14 C :   -0.011872
  15 C :   -0.008359
  16 C :    0.086034
  17 O :   -0.133840
  18 C :   -0.070897
  19 C :    0.066511
  20 C :   -0.086845
  21 C :    0.070192
  22 F :   -0.036920
  23 C :    0.061083
  24 F :   -0.052541
  25 C :   -0.043040
  26 C :    0.060634
  27 C :    0.078527
  28 F :   -0.040252
  29 F :   -0.043546
  30 C :   -0.054614
  31 C :   -0.007803
  32 C :   -0.212630
  33 S :    0.465369
  34 C :   -0.165782
  35 C :   -0.064790
  36 C :    0.004765
  37 N :    0.079264
  38 C :   -0.021891
  39 C :   -0.045283
  40 N :   -0.028509
  41 C :   -0.028607
  42 C :   -0.046618
  43 C :   -0.020916
  44 C :   -0.001170
  45 N :    0.105073
  46 C :    0.022429
  47 C :   -0.092028
  48 C :   -0.210226
  49 S :    1.170550
  50 O :   -0.491775
  51 O :   -0.492191
  52 C :   -0.170668
  53 C :    0.019934
  54 C :    0.015182
  55 C :   -0.031512
  56 C :    0.010930
  57 C :   -0.044210
  58 N :    0.284836
  59 O :   -0.200836
  60 O :   -0.208491
  61 C :    0.019175
  62 C :   -0.042912
  63 C :    0.053168
  64 C :    0.026797
  65 C :   -0.048220
  66 C :    0.012877
  67 C :   -0.046853
  68 N :    0.284786
  69 O :   -0.211204
  70 O :   -0.211307
  71 C :    0.017607
  72 C :   -0.028794
  73 C :   -0.000970
  74 H :    0.039975
  75 H :    0.039478
  76 H :    0.035035
  77 H :    0.033718
  78 H :    0.033406
  79 H :    0.032207
  80 H :    0.051637
  81 H :    0.020126
  82 H :    0.030763
  83 H :    0.096703
  84 H :    0.040364
  85 H :    0.020270
  86 H :    0.042689
  87 H :    0.095692
  88 H :    0.029384
  89 H :    0.036831
  90 H :    0.036183
  91 H :    0.031509
  92 H :    0.039243
  93 H :    0.031907
  94 H :    0.031995
  95 H :    0.038072
  96 H :    0.041695
  97 H :    0.026116
  98 H :    0.032690

  Mayer bond orders larger than 0.100000
B(  0-C ,  1-C ) :   1.6707 B(  0-C ,  6-C ) :   1.0054 B(  0-C , 18-C ) :   1.0112
B(  1-C ,  2-C ) :   1.1321 B(  1-C ,  4-C ) :   1.1660 B(  2-C ,  3-N ) :   2.9910
B(  4-C ,  5-N ) :   3.0051 B(  6-C ,  7-C ) :   1.2115 B(  6-C , 11-C ) :   1.4520
B(  7-C ,  8-C ) :   1.4710 B(  7-C , 16-C ) :   0.9244 B(  8-C ,  9-C ) :   1.1863
B(  8-C , 74-H ) :   1.0155 B(  9-C , 10-C ) :   1.2556 B(  9-C , 15-C ) :   1.2459
B( 10-C , 11-C ) :   1.2099 B( 10-C , 12-C ) :   1.2378 B( 11-C , 75-H ) :   0.9931
B( 12-C , 13-C ) :   1.4914 B( 12-C , 76-H ) :   0.9974 B( 13-C , 14-C ) :   1.2603
B( 13-C , 77-H ) :   0.9885 B( 14-C , 15-C ) :   1.4886 B( 14-C , 78-H ) :   0.9889
B( 15-C , 79-H ) :   0.9972 B( 16-C , 17-O ) :   2.2738 B( 16-C , 18-C ) :   0.9228
B( 18-C , 19-C ) :   1.7377 B( 19-C , 20-C ) :   1.0544 B( 19-C , 80-H ) :   0.9334
B( 20-C , 21-C ) :   1.2696 B( 20-C , 25-C ) :   0.1249 B( 20-C , 27-C ) :   1.2991
B( 21-C , 22-F ) :   1.1444 B( 21-C , 23-C ) :   1.3330 B( 23-C , 24-F ) :   1.1287
B( 23-C , 25-C ) :   1.2843 B( 25-C , 26-C ) :   1.2391 B( 25-C , 30-C ) :   1.1725
B( 26-C , 27-C ) :   1.3277 B( 26-C , 29-F ) :   1.1242 B( 27-C , 28-F ) :   1.1874
B( 30-C , 31-C ) :   1.6129 B( 30-C , 81-H ) :   0.9648 B( 31-C , 32-C ) :   1.1636
B( 31-C , 82-H ) :   0.9467 B( 32-C , 33-S ) :   1.1018 B( 32-C , 34-C ) :   0.1075
B( 32-C , 36-C ) :   1.3548 B( 33-S , 34-C ) :   1.1474 B( 34-C , 35-C ) :   1.3025
B( 34-C , 42-C ) :   1.1713 B( 35-C , 36-C ) :   1.2502 B( 35-C , 41-C ) :   1.1690
B( 36-C , 37-N ) :   1.1925 B( 37-N , 38-C ) :   1.1992 B( 37-N , 83-H ) :   0.9320
B( 38-C , 39-C ) :   1.0536 B( 38-C , 41-C ) :   1.5976 B( 39-C , 40-N ) :   3.0572
B( 41-C , 84-H ) :   1.0086 B( 42-C , 43-C ) :   1.6099 B( 42-C , 85-H ) :   0.9552
B( 43-C , 44-C ) :   1.1781 B( 43-C , 86-H ) :   0.9583 B( 44-C , 45-N ) :   1.2239
B( 44-C , 48-C ) :   1.4784 B( 45-N , 46-C ) :   1.2447 B( 45-N , 87-H ) :   0.9280
B( 46-C , 47-C ) :   1.4064 B( 46-C , 88-H ) :   0.9866 B( 47-C , 48-C ) :   1.3318
B( 47-C , 53-C ) :   1.0770 B( 48-C , 49-S ) :   0.7878 B( 49-S , 50-O ) :   1.7347
B( 49-S , 51-O ) :   1.7382 B( 49-S , 52-C ) :   0.8322 B( 52-C , 53-C ) :   1.6399
B( 52-C , 54-C ) :   1.1384 B( 53-C , 89-H ) :   0.9861 B( 54-C , 55-C ) :   1.6339
B( 54-C , 90-H ) :   0.9387 B( 55-C , 56-C ) :   1.1773 B( 55-C , 91-H ) :   0.9578
B( 56-C , 57-C ) :   1.4977 B( 56-C , 63-C ) :   1.0010 B( 57-C , 58-N ) :   0.9489
B( 57-C , 61-C ) :   1.1315 B( 58-N , 59-O ) :   1.4818 B( 58-N , 60-O ) :   1.5344
B( 59-O , 60-O ) :   0.2584 B( 61-C , 62-C ) :   1.5866 B( 61-C , 92-H ) :   1.0063
B( 62-C , 63-C ) :   1.1217 B( 62-C , 93-H ) :   1.0012 B( 63-C , 64-C ) :   1.5284
B( 64-C , 65-C ) :   1.1107 B( 64-C , 71-C ) :   1.0299 B( 65-C , 66-C ) :   1.5988
B( 65-C , 94-H ) :   1.0025 B( 66-C , 67-C ) :   1.1201 B( 66-C , 95-H ) :   1.0114
B( 67-C , 68-N ) :   0.9379 B( 67-C , 71-C ) :   1.5675 B( 68-N , 69-O ) :   1.5026
B( 68-N , 70-O ) :   1.5362 B( 69-O , 70-O ) :   0.2646 B( 71-C , 72-C ) :   1.1303
B( 72-C , 73-C ) :   1.8811 B( 72-C , 96-H ) :   0.9407 B( 73-C , 97-H ) :   0.9572
B( 73-C , 98-H ) :   0.9516

-----------------------------------------------------------------------------
         ABSORPTION SPECTRUM VIA TRANSITION ELECTRIC DIPOLE MOMENTS
-----------------------------------------------------------------------------
State   Energy  Wavelength   fosc         T2         TX        TY        TZ
        (cm-1)    (nm)                  (au**2)     (au)      (au)      (au)
-----------------------------------------------------------------------------
   0   11185.2    894.0   0.322546581   9.49346   1.34745  -2.70227   0.61286
   1   15061.6    663.9   0.032512167   0.71064  -0.33777   0.77103  -0.04537
   2   17117.6    584.2   0.012258791   0.23577   0.26164   0.13681   0.38548
   3   17788.0    562.2   1.686721923  31.21705  -3.69270   4.08646  -0.93907
   4   22291.8    448.6   0.416146103   6.14578   1.19401  -2.16294   0.20449
   5   24701.4    404.8   0.058039245   0.77353  -0.41886  -0.76482   0.11461
   6   25526.0    391.8   0.013721623   0.17697  -0.04184  -0.41780  -0.02567
   7   26261.5    380.8   0.160150628   2.00763   1.35668   0.39874  -0.08968
   8   26556.1    376.6   0.070435804   0.87318   0.83373  -0.15692  -0.39173
   9   27445.3    364.4   0.114235620   1.37028   0.17091  -1.14134   0.19598
  10   27680.3    361.3   0.010214266   0.12148  -0.02395   0.31306  -0.15133
  11   28020.7    356.9   0.006763345   0.07946  -0.00911  -0.26443   0.09724
  12   28245.6    354.0   0.083439144   0.97251   0.83425  -0.52478   0.03372
  13   28363.5    352.6   0.028073268   0.32584   0.21738  -0.49276  -0.18915
  14   28745.5    347.9   0.078037123   0.89373  -0.32209  -0.77801  -0.42975
  15   29452.4    339.5   0.002257800   0.02524   0.12571   0.03432  -0.09086
  16   29609.6    337.7   0.245897486   2.73399  -1.45908  -0.75486   0.18777
  17   29976.1    333.6   0.083682206   0.91904  -0.30176   0.88782  -0.19937
  18   30212.3    331.0   0.042187063   0.45970  -0.59383   0.29767   0.13582
  19   30446.3    328.4   0.057337368   0.61998   0.68699  -0.27098   0.27312
  20   31443.9    318.0   0.006046390   0.06330  -0.24633   0.01141  -0.04994
  21   31603.3    316.4   0.004107454   0.04279   0.18807  -0.08475  -0.01537
  22   31946.2    313.0   0.104636862   1.07830   0.78881   0.20847   0.64235
  23   31974.5    312.7   0.019833464   0.20421  -0.38022  -0.21020  -0.12431
  24   32412.8    308.5   0.005728481   0.05818   0.19363  -0.12595   0.06950
  25   33110.0    302.0   0.096069979   0.95522  -0.89520   0.21271   0.32953
  26   33248.4    300.8   0.134107278   1.32788   0.07205  -1.12058  -0.25880
  27   33423.3    299.2   0.249618284   2.45868  -1.26584   0.44291   0.81251
  28   33542.6    298.1   0.033603578   0.32981   0.20497   0.51587   0.14721
  29   33575.5    297.8   0.212944098   2.08794  -0.53087  -1.34276   0.05580
  30   33904.7    294.9   0.468917293   4.55315   1.94846  -0.50062  -0.71137
  31   34078.4    293.4   0.048473642   0.46828   0.22108   0.45372  -0.46210
  32   34164.3    292.7   0.284494638   2.74143  -1.65166  -0.11438   0.01887
  33   34565.0    289.3   0.155306816   1.47921   0.67028   1.00459  -0.14402
  34   34669.7    288.4   0.289135792   2.74554  -1.59035   0.40620   0.22654
  35   35053.4    285.3   0.228701456   2.14790  -0.95046   1.06371  -0.33624
  36   35242.6    283.7   0.061874181   0.57799  -0.31403   0.64919  -0.24068
  37   35558.7    281.2   0.027401135   0.25369   0.01687   0.50033  -0.05543
  38   35804.2    279.3   0.007143852   0.06569   0.19272  -0.16888   0.00513
  39   35989.5    277.9   0.003335184   0.03051   0.10547   0.11908   0.07214
  40   36576.7    273.4   0.097266037   0.87545   0.90699   0.20532  -0.10330
  41   36775.9    271.9   0.006267580   0.05611   0.02445  -0.17018  -0.16293
  42   36982.9    270.4   0.031708046   0.28226   0.47134  -0.24512   0.00296
  43   37103.8    269.5   0.063973344   0.56762  -0.49709   0.55404  -0.11647
  44   37569.7    266.2   0.103133151   0.90372  -0.20397  -0.83277   0.41062
  45   38012.3    263.1   0.003366651   0.02916   0.05784   0.13538   0.08650
  46   38031.5    262.9   0.063278792   0.54776  -0.68428  -0.16870   0.22596
  47   38272.5    261.3   0.101194954   0.87046   0.93059  -0.02316  -0.06261
  48   38602.4    259.1   0.130881490   1.11619   0.96565   0.34677  -0.25193
  49   38795.5    257.8   0.148420592   1.25947  -0.87471   0.58442   0.39091
  50   38930.8    256.9   0.041564417   0.35148  -0.28522  -0.47227  -0.21701
  51   39049.8    256.1   0.062296513   0.52519  -0.08327   0.67262   0.25660
  52   39166.0    255.3   0.021284838   0.17891  -0.36862  -0.08146   0.19077
  53   39299.7    254.5   0.004794679   0.04016  -0.16025  -0.09336   0.07596
  54   39356.2    254.1   0.018974797   0.15872   0.24914   0.29015  -0.11163
  55   39571.3    252.7   0.020699972   0.17221  -0.11660   0.05275  -0.39476
  56   39892.9    250.7   0.055166539   0.45526  -0.17828  -0.43740  -0.48182

FINAL SINGLE POINT ENERGY     -4173.518535686106

DIPOLE MOMENT
-------------
                                X             Y             Z
Electronic contribution:     24.77829     -51.46595      14.51449
Nuclear contribution   :    -25.95210      48.41080     -16.17209
                        -----------------------------------------
Total Dipole Moment    :     -1.17381      -3.05515      -1.65760
                        -----------------------------------------
Magnitude (a.u.)       :      3.66871
Magnitude (Debye)      :      9.32512

Rotational constants in cm-1:     0.002888     0.000162     0.000156
Rotational constants in MHz :    86.584457     4.870652     4.690339

                             ****ORCA TERMINATED NORMALLY****
TOTAL RUN TIME: 0 days 0 hours 11 minutes 3 seconds 988 msec
