                         Program Version 4.2.0 -  RELEASE  -
|  1> # ORCA input file
|  2> # SCF done       -174.512472714665          0.000743677444
|  3> ! CAM-B3LYP def2-SVP def2/J RIJCOSX Grid4 TightSCF
|  4> %maxcore 5000
|  5> %tddft
|  6>     Mode sTDDFT
|  7>     Ethresh 5.0
|  8>     maxcore 5000
|  9> end
| 10>
| 11> %pal
| 12>   nprocs 6
| 13>   end
| 14> * xyz 0 1
| 15>    C       -5.01744         1.39690        -5.02808
| 16>    C       -6.02487         2.31901        -4.99007
| 17>    C       -6.37284         3.14032        -6.08281
| 18>    N       -6.68397         3.83446        -6.94201
| 19>    C       -6.91124         2.46956        -3.90215
| 20>    N       -7.71252         2.57143        -3.08686
| 21>    C       -4.27278         0.99635        -6.21645
| 22>    C       -3.69896        -0.28921        -5.98415
| 23>    C       -2.97928        -0.93861        -6.94629
| 24>    C       -2.78705        -0.31699        -8.19996
| 25>    C       -3.34027         0.97622        -8.43129
| 26>    C       -4.08768         1.62215        -7.42001
| 27>    C       -3.13147         1.58897        -9.68370
| 28>    C       -2.41515         0.95569       -10.66241
| 29>    C       -1.87345        -0.31844       -10.43465
| 30>    C       -2.05559        -0.94116        -9.22996
| 31>    C       -3.99875        -0.71903        -4.60897
| 32>    O       -3.72774        -1.76616        -4.07043
| 33>    C       -4.66765         0.45949        -3.97540
| 34>    C       -4.70697         0.55400        -2.62615
| 35>    C       -4.96146         1.71849        -1.85414
| 36>    S       -5.31980         1.63105        -0.13388
| 37>    C       -5.39647         3.38451        -0.19588
| 38>    N       -5.14127         3.85442        -1.38961
| 39>    N       -4.91098         2.94770        -2.28733
| 40>    C       -5.73144         4.16666         0.93680
| 41>    C       -5.88830         5.51138         0.86233
| 42>    C       -6.22149         6.33230         1.96669
| 43>    S       -6.07453         5.68395         3.57020
| 44>    C       -6.49624         7.17392         4.31605
| 45>    C       -6.73041         8.16733         3.36179
| 46>    C       -6.60917         7.68138         2.01461
| 47>    C       -6.89853         8.58363         0.95909
| 48>    S       -6.96796         8.12927        -0.75573
| 49>    C       -7.12999         9.90702         1.24390
| 50>    C       -7.12472        10.38984         2.56067
| 51>    C       -6.95874         9.53684         3.61310
| 52>    C       -6.57128         7.24807         5.75619
| 53>    C       -5.68368         6.51061         6.53812
| 54>    C       -5.75307         6.54641         7.91950
| 55>    N       -4.82795         5.70707         8.63903
| 56>    O       -3.81722         5.37224         8.05967
| 57>    O       -5.11777         5.37276         9.76863
| 58>    C       -6.72022         7.31639         8.59084
| 59>    C       -7.62045         8.03077         7.78850
| 60>    C       -7.55440         8.00112         6.41462
| 61>    C       -6.78974         7.40747        10.03161
| 62>    C       -7.95045         7.50881        10.71388
| 63>    C       -7.97849         7.56291        12.13420
| 64>    C       -9.11520         7.54565        12.88175
| 65>    C       -9.19818         7.52575        14.33413
| 66>    C       -8.19817         7.84715        15.21187
| 67>    C       -8.34484         7.82537        16.61529
| 68>    N       -8.40379         7.82399        17.76156
| 69>    C       -6.91068         8.29328        14.84373
| 70>    N       -5.85605         8.68710        14.61903
| 71>    C      -10.56513         7.16925        14.69237
| 72>    C      -11.34741         7.11238        13.50292
| 73>    C      -10.49462         7.39879        12.33790
| 74>    O      -10.84990         7.48754        11.18127
| 75>    C      -12.67859         6.80982        13.52935
| 76>    C      -13.29721         6.53061        14.76806
| 77>    C      -12.51823         6.57060        15.96093
| 78>    C      -11.14433         6.89778        15.90405
| 79>    C      -13.14345         6.27676        17.18999
| 80>    C      -14.47361         5.96024        17.24052
| 81>    C      -15.24021         5.92429        16.06586
| 82>    C      -14.66478         6.20406        14.85616
| 83>    H       -2.56034        -1.91486        -6.75247
| 84>    H       -4.48802         2.60442        -7.61663
| 85>    H       -3.55313         2.56829        -9.85558
| 86>    H       -2.26211         1.43289       -11.61872
| 87>    H       -1.31079        -0.80339       -11.21820
| 88>    H       -1.64075        -1.92180        -9.04831
| 89>    H       -4.44482        -0.34075        -2.07279
| 90>    H       -5.89250         3.63715         1.86554
| 91>    H       -5.71879         5.98099        -0.09531
| 92>    H       -7.56366         6.94925        -0.58756
| 93>    H       -7.32549        10.58588         0.42836
| 94>    H       -7.28234        11.44330         2.73154
| 95>    H       -6.96699         9.89858         4.62842
| 96>    H       -4.92556         5.89597         6.07438
| 97>    H       -8.37630         8.63031         8.27119
| 98>    H       -8.29079         8.53494         5.83454
| 99>    H       -5.86052         7.36068        10.58443
|100>    H       -8.89885         7.49191        10.19737
|101>    H       -7.01775         7.57149        12.63364
|102>    H      -13.25124         6.77740        12.61419
|103>    H      -10.58051         6.91557        16.82333
|104>    H      -12.54962         6.30724        18.09172
|105>    H      -14.94293         5.73541        18.18650
|106>    H      -16.28862         5.67296        16.12435
|107>    H      -15.24957         6.17700        13.94827
|108> *
|109>
|110>                          ****END OF INPUT****

CARTESIAN COORDINATES (ANGSTROEM)
---------------------------------
  C     -5.017440    1.396900   -5.028080
  C     -6.024870    2.319010   -4.990070
  C     -6.372840    3.140320   -6.082810
  N     -6.683970    3.834460   -6.942010
  C     -6.911240    2.469560   -3.902150
  N     -7.712520    2.571430   -3.086860
  C     -4.272780    0.996350   -6.216450
  C     -3.698960   -0.289210   -5.984150
  C     -2.979280   -0.938610   -6.946290
  C     -2.787050   -0.316990   -8.199960
  C     -3.340270    0.976220   -8.431290
  C     -4.087680    1.622150   -7.420010
  C     -3.131470    1.588970   -9.683700
  C     -2.415150    0.955690  -10.662410
  C     -1.873450   -0.318440  -10.434650
  C     -2.055590   -0.941160   -9.229960
  C     -3.998750   -0.719030   -4.608970
  O     -3.727740   -1.766160   -4.070430
  C     -4.667650    0.459490   -3.975400
  C     -4.706970    0.554000   -2.626150
  C     -4.961460    1.718490   -1.854140
  S     -5.319800    1.631050   -0.133880
  C     -5.396470    3.384510   -0.195880
  N     -5.141270    3.854420   -1.389610
  N     -4.910980    2.947700   -2.287330
  C     -5.731440    4.166660    0.936800
  C     -5.888300    5.511380    0.862330
  C     -6.221490    6.332300    1.966690
  S     -6.074530    5.683950    3.570200
  C     -6.496240    7.173920    4.316050
  C     -6.730410    8.167330    3.361790
  C     -6.609170    7.681380    2.014610
  C     -6.898530    8.583630    0.959090
  S     -6.967960    8.129270   -0.755730
  C     -7.129990    9.907020    1.243900
  C     -7.124720   10.389840    2.560670
  C     -6.958740    9.536840    3.613100
  C     -6.571280    7.248070    5.756190
  C     -5.683680    6.510610    6.538120
  C     -5.753070    6.546410    7.919500
  N     -4.827950    5.707070    8.639030
  O     -3.817220    5.372240    8.059670
  O     -5.117770    5.372760    9.768630
  C     -6.720220    7.316390    8.590840
  C     -7.620450    8.030770    7.788500
  C     -7.554400    8.001120    6.414620
  C     -6.789740    7.407470   10.031610
  C     -7.950450    7.508810   10.713880
  C     -7.978490    7.562910   12.134200
  C     -9.115200    7.545650   12.881750
  C     -9.198180    7.525750   14.334130
  C     -8.198170    7.847150   15.211870
  C     -8.344840    7.825370   16.615290
  N     -8.403790    7.823990   17.761560
  C     -6.910680    8.293280   14.843730
  N     -5.856050    8.687100   14.619030
  C    -10.565130    7.169250   14.692370
  C    -11.347410    7.112380   13.502920
  C    -10.494620    7.398790   12.337900
  O    -10.849900    7.487540   11.181270
  C    -12.678590    6.809820   13.529350
  C    -13.297210    6.530610   14.768060
  C    -12.518230    6.570600   15.960930
  C    -11.144330    6.897780   15.904050
  C    -13.143450    6.276760   17.189990
  C    -14.473610    5.960240   17.240520
  C    -15.240210    5.924290   16.065860
  C    -14.664780    6.204060   14.856160
  H     -2.560340   -1.914860   -6.752470
  H     -4.488020    2.604420   -7.616630
  H     -3.553130    2.568290   -9.855580
  H     -2.262110    1.432890  -11.618720
  H     -1.310790   -0.803390  -11.218200
  H     -1.640750   -1.921800   -9.048310
  H     -4.444820   -0.340750   -2.072790
  H     -5.892500    3.637150    1.865540
  H     -5.718790    5.980990   -0.095310
  H     -7.563660    6.949250   -0.587560
  H     -7.325490   10.585880    0.428360
  H     -7.282340   11.443300    2.731540
  H     -6.966990    9.898580    4.628420
  H     -4.925560    5.895970    6.074380
  H     -8.376300    8.630310    8.271190
  H     -8.290790    8.534940    5.834540
  H     -5.860520    7.360680   10.584430
  H     -8.898850    7.491910   10.197370
  H     -7.017750    7.571490   12.633640
  H    -13.251240    6.777400   12.614190
  H    -10.580510    6.915570   16.823330
  H    -12.549620    6.307240   18.091720
  H    -14.942930    5.735410   18.186500
  H    -16.288620    5.672960   16.124350
  H    -15.249570    6.177000   13.948270

 Total Charge           Charge          ....    0
 Multiplicity           Mult            ....    1
 Number of Electrons    NEL             ....  478
 Basis Dimension        Dim             .... 1089

ORBITAL ENERGIES
----------------

  NO   OCC          E(Eh)            E(eV)
   0   2.0000     -88.984895     -2421.4021
   1   2.0000     -88.978366     -2421.2244
   2   2.0000     -88.934320     -2420.0259
   3   2.0000     -19.255776      -523.9763
   4   2.0000     -19.253715      -523.9202
   5   2.0000     -19.220398      -523.0136
   6   2.0000     -19.216994      -522.9210
   7   2.0000     -14.660450      -398.9311
   8   2.0000     -14.449331      -393.1863
   9   2.0000     -14.439655      -392.9230
  10   2.0000     -14.416766      -392.3001
  11   2.0000     -14.415969      -392.2785
  12   2.0000     -14.413311      -392.2061
  13   2.0000     -14.408973      -392.0881
  14   2.0000     -10.371081      -282.2114
  15   2.0000     -10.367756      -282.1210
  16   2.0000     -10.349634      -281.6278
  17   2.0000     -10.346794      -281.5506
  18   2.0000     -10.346048      -281.5303
  19   2.0000     -10.344144      -281.4785
  20   2.0000     -10.341963      -281.4191
  21   2.0000     -10.341406      -281.4040
  22   2.0000     -10.336779      -281.2780
  23   2.0000     -10.326417      -280.9961
  24   2.0000     -10.324224      -280.9364
  25   2.0000     -10.322082      -280.8781
  26   2.0000     -10.321955      -280.8747
  27   2.0000     -10.321741      -280.8689
  28   2.0000     -10.319143      -280.7981
  29   2.0000     -10.318591      -280.7831
  30   2.0000     -10.317523      -280.7541
  31   2.0000     -10.317168      -280.7444
  32   2.0000     -10.315123      -280.6888
  33   2.0000     -10.312107      -280.6067
  34   2.0000     -10.312000      -280.6038
  35   2.0000     -10.310110      -280.5524
  36   2.0000     -10.309515      -280.5362
  37   2.0000     -10.307180      -280.4726
  38   2.0000     -10.306088      -280.4429
  39   2.0000     -10.305149      -280.4174
  40   2.0000     -10.304933      -280.4115
  41   2.0000     -10.302784      -280.3530
  42   2.0000     -10.302531      -280.3461
  43   2.0000     -10.301797      -280.3261
  44   2.0000     -10.301477      -280.3174
  45   2.0000     -10.299899      -280.2745
  46   2.0000     -10.299645      -280.2676
  47   2.0000     -10.299087      -280.2524
  48   2.0000     -10.298692      -280.2416
  49   2.0000     -10.296977      -280.1950
  50   2.0000     -10.296913      -280.1932
  51   2.0000     -10.296445      -280.1805
  52   2.0000     -10.295331      -280.1502
  53   2.0000     -10.294619      -280.1308
  54   2.0000     -10.290904      -280.0297
  55   2.0000     -10.290378      -280.0154
  56   2.0000     -10.289156      -279.9822
  57   2.0000     -10.288603      -279.9671
  58   2.0000     -10.288094      -279.9533
  59   2.0000     -10.288061      -279.9524
  60   2.0000     -10.287779      -279.9447
  61   2.0000     -10.287254      -279.9304
  62   2.0000     -10.286406      -279.9073
  63   2.0000     -10.285705      -279.8883
  64   2.0000     -10.285594      -279.8852
  65   2.0000     -10.285151      -279.8732
  66   2.0000     -10.284877      -279.8657
  67   2.0000     -10.284091      -279.8443
  68   2.0000      -8.080030      -219.8688
  69   2.0000      -8.074738      -219.7248
  70   2.0000      -8.029632      -218.4974
  71   2.0000      -6.048843      -164.5974
  72   2.0000      -6.044847      -164.4887
  73   2.0000      -6.043351      -164.4479
  74   2.0000      -6.043021      -164.4390
  75   2.0000      -6.040048      -164.3581
  76   2.0000      -6.037147      -164.2791
  77   2.0000      -5.999935      -163.2665
  78   2.0000      -5.996015      -163.1599
  79   2.0000      -5.989511      -162.9829
  80   2.0000      -1.336224       -36.3605
  81   2.0000      -1.154878       -31.4258
  82   2.0000      -1.149617       -31.2827
  83   2.0000      -1.134679       -30.8762
  84   2.0000      -1.132277       -30.8108
  85   2.0000      -1.020989       -27.7825
  86   2.0000      -1.019294       -27.7364
  87   2.0000      -1.015406       -27.6306
  88   2.0000      -1.001900       -27.2631
  89   2.0000      -1.000023       -27.2120
  90   2.0000      -0.996339       -27.1118
  91   2.0000      -0.994753       -27.0686
  92   2.0000      -0.989681       -26.9306
  93   2.0000      -0.973499       -26.4902
  94   2.0000      -0.971885       -26.4463
  95   2.0000      -0.955722       -26.0065
  96   2.0000      -0.951186       -25.8831
  97   2.0000      -0.938407       -25.5353
  98   2.0000      -0.932889       -25.3852
  99   2.0000      -0.925105       -25.1734
 100   2.0000      -0.919665       -25.0254
 101   2.0000      -0.918415       -24.9914
 102   2.0000      -0.904942       -24.6247
 103   2.0000      -0.897840       -24.4315
 104   2.0000      -0.893030       -24.3006
 105   2.0000      -0.884043       -24.0560
 106   2.0000      -0.881076       -23.9753
 107   2.0000      -0.879959       -23.9449
 108   2.0000      -0.875074       -23.8120
 109   2.0000      -0.856279       -23.3005
 110   2.0000      -0.851265       -23.1641
 111   2.0000      -0.840728       -22.8774
 112   2.0000      -0.830262       -22.5926
 113   2.0000      -0.827184       -22.5088
 114   2.0000      -0.822630       -22.3849
 115   2.0000      -0.808128       -21.9903
 116   2.0000      -0.799232       -21.7482
 117   2.0000      -0.793078       -21.5807
 118   2.0000      -0.784406       -21.3448
 119   2.0000      -0.763389       -20.7729
 120   2.0000      -0.760107       -20.6836
 121   2.0000      -0.757628       -20.6161
 122   2.0000      -0.730433       -19.8761
 123   2.0000      -0.730301       -19.8725
 124   2.0000      -0.716136       -19.4870
 125   2.0000      -0.713407       -19.4128
 126   2.0000      -0.708524       -19.2799
 127   2.0000      -0.706230       -19.2175
 128   2.0000      -0.704890       -19.1810
 129   2.0000      -0.700367       -19.0579
 130   2.0000      -0.694900       -18.9092
 131   2.0000      -0.688351       -18.7310
 132   2.0000      -0.681377       -18.5412
 133   2.0000      -0.673019       -18.3138
 134   2.0000      -0.669214       -18.2102
 135   2.0000      -0.664554       -18.0834
 136   2.0000      -0.657690       -17.8966
 137   2.0000      -0.647860       -17.6292
 138   2.0000      -0.643185       -17.5020
 139   2.0000      -0.642473       -17.4826
 140   2.0000      -0.631499       -17.1840
 141   2.0000      -0.630080       -17.1454
 142   2.0000      -0.623606       -16.9692
 143   2.0000      -0.611397       -16.6370
 144   2.0000      -0.608875       -16.5683
 145   2.0000      -0.606875       -16.5139
 146   2.0000      -0.604747       -16.4560
 147   2.0000      -0.604157       -16.4399
 148   2.0000      -0.597006       -16.2454
 149   2.0000      -0.595782       -16.2121
 150   2.0000      -0.590455       -16.0671
 151   2.0000      -0.577812       -15.7231
 152   2.0000      -0.574500       -15.6329
 153   2.0000      -0.566769       -15.4226
 154   2.0000      -0.562666       -15.3109
 155   2.0000      -0.557078       -15.1589
 156   2.0000      -0.552457       -15.0331
 157   2.0000      -0.550839       -14.9891
 158   2.0000      -0.549071       -14.9410
 159   2.0000      -0.547570       -14.9001
 160   2.0000      -0.545502       -14.8439
 161   2.0000      -0.544623       -14.8199
 162   2.0000      -0.539125       -14.6703
 163   2.0000      -0.537864       -14.6360
 164   2.0000      -0.535725       -14.5778
 165   2.0000      -0.534702       -14.5500
 166   2.0000      -0.530287       -14.4298
 167   2.0000      -0.526700       -14.3322
 168   2.0000      -0.522604       -14.2208
 169   2.0000      -0.522002       -14.2044
 170   2.0000      -0.519745       -14.1430
 171   2.0000      -0.518488       -14.1088
 172   2.0000      -0.516144       -14.0450
 173   2.0000      -0.512932       -13.9576
 174   2.0000      -0.511469       -13.9178
 175   2.0000      -0.509042       -13.8517
 176   2.0000      -0.507551       -13.8112
 177   2.0000      -0.498922       -13.5763
 178   2.0000      -0.498061       -13.5529
 179   2.0000      -0.494464       -13.4550
 180   2.0000      -0.493249       -13.4220
 181   2.0000      -0.491802       -13.3826
 182   2.0000      -0.488399       -13.2900
 183   2.0000      -0.487247       -13.2587
 184   2.0000      -0.486951       -13.2506
 185   2.0000      -0.483811       -13.1652
 186   2.0000      -0.481701       -13.1077
 187   2.0000      -0.470980       -12.8160
 188   2.0000      -0.464517       -12.6402
 189   2.0000      -0.464327       -12.6350
 190   2.0000      -0.462659       -12.5896
 191   2.0000      -0.459585       -12.5059
 192   2.0000      -0.451404       -12.2833
 193   2.0000      -0.449486       -12.2311
 194   2.0000      -0.448707       -12.2099
 195   2.0000      -0.445535       -12.1236
 196   2.0000      -0.445114       -12.1122
 197   2.0000      -0.441872       -12.0239
 198   2.0000      -0.441375       -12.0104
 199   2.0000      -0.438571       -11.9341
 200   2.0000      -0.438280       -11.9262
 201   2.0000      -0.435909       -11.8617
 202   2.0000      -0.434957       -11.8358
 203   2.0000      -0.434153       -11.8139
 204   2.0000      -0.432507       -11.7691
 205   2.0000      -0.429985       -11.7005
 206   2.0000      -0.427853       -11.6425
 207   2.0000      -0.426252       -11.5989
 208   2.0000      -0.424496       -11.5511
 209   2.0000      -0.421014       -11.4564
 210   2.0000      -0.418176       -11.3792
 211   2.0000      -0.415180       -11.2976
 212   2.0000      -0.409063       -11.1312
 213   2.0000      -0.407158       -11.0793
 214   2.0000      -0.403855       -10.9895
 215   2.0000      -0.399568       -10.8728
 216   2.0000      -0.394703       -10.7404
 217   2.0000      -0.392451       -10.6791
 218   2.0000      -0.389939       -10.6108
 219   2.0000      -0.383890       -10.4462
 220   2.0000      -0.383057       -10.4235
 221   2.0000      -0.380531       -10.3548
 222   2.0000      -0.374409       -10.1882
 223   2.0000      -0.371812       -10.1175
 224   2.0000      -0.361041        -9.8244
 225   2.0000      -0.359805        -9.7908
 226   2.0000      -0.351220        -9.5572
 227   2.0000      -0.338993        -9.2245
 228   2.0000      -0.338152        -9.2016
 229   2.0000      -0.333852        -9.0846
 230   2.0000      -0.330722        -8.9994
 231   2.0000      -0.324903        -8.8411
 232   2.0000      -0.319466        -8.6931
 233   2.0000      -0.312998        -8.5171
 234   2.0000      -0.303639        -8.2624
 235   2.0000      -0.299272        -8.1436
 236   2.0000      -0.292047        -7.9470
 237   2.0000      -0.290317        -7.8999
 238   2.0000      -0.249788        -6.7971
 239   0.0000      -0.104122        -2.8333
 240   0.0000      -0.095770        -2.6060
 241   0.0000      -0.073591        -2.0025
 242   0.0000      -0.062020        -1.6876
 243   0.0000      -0.055204        -1.5022

MULLIKEN ATOMIC CHARGES
-----------------------
   0 C :    0.277648
   1 C :   -0.283883
   2 C :   -0.187590
   3 N :    0.151543
   4 C :   -0.185715
   5 N :    0.161228
   6 C :    0.037076
   7 C :    0.007242
   8 C :   -0.078008
   9 C :    0.094564
  10 C :    0.095927
  11 C :   -0.077105
  12 C :   -0.016822
  13 C :    0.037452
  14 C :    0.033960
  15 C :   -0.013761
  16 C :    0.135530
  17 O :   -0.137099
  18 C :   -0.108194
  19 C :    0.097781
  20 C :   -0.116040
  21 S :    0.122747
  22 C :   -0.076715
  23 N :   -0.058310
  24 N :   -0.042615
  25 C :    0.031833
  26 C :   -0.008756
  27 C :   -0.137889
  28 S :    0.169443
  29 C :   -0.124315
  30 C :    0.113769
  31 C :    0.142264
  32 C :   -0.133270
  33 S :    0.041281
  34 C :    0.022457
  35 C :    0.031402
  36 C :   -0.036046
  37 C :    0.081100
  38 C :   -0.072484
  39 C :    0.157447
  40 N :    0.243265
  41 O :   -0.225667
  42 O :   -0.228260
  43 C :    0.046894
  44 C :   -0.027915
  45 C :    0.019155
  46 C :    0.035904
  47 C :   -0.014522
  48 C :   -0.035645
  49 C :   -0.064697
  50 C :    0.314479
  51 C :   -0.336790
  52 C :   -0.182739
  53 N :    0.146915
  54 C :   -0.198332
  55 N :    0.157831
  56 C :    0.049148
  57 C :    0.001033
  58 C :    0.149186
  59 O :   -0.153518
  60 C :   -0.081286
  61 C :    0.099319
  62 C :    0.096191
  63 C :   -0.083194
  64 C :   -0.017867
  65 C :    0.036667
  66 C :    0.037289
  67 C :   -0.018254
  68 H :   -0.012075
  69 H :   -0.004879
  70 H :   -0.010620
  71 H :   -0.005111
  72 H :   -0.005188
  73 H :   -0.018442
  74 H :    0.022017
  75 H :   -0.005587
  76 H :    0.034580
  77 H :    0.076538
  78 H :   -0.010260
  79 H :   -0.005729
  80 H :   -0.020224
  81 H :    0.011603
  82 H :    0.004945
  83 H :    0.004263
  84 H :    0.029365
  85 H :    0.033296
  86 H :    0.022330
  87 H :   -0.013566
  88 H :   -0.007188
  89 H :   -0.008270
  90 H :   -0.004509
  91 H :   -0.003662
  92 H :   -0.017290
Sum of atomic charges:   -0.0000000

LOEWDIN ATOMIC CHARGES
----------------------
   0 C :    0.068178
   1 C :   -0.111292
   2 C :   -0.015335
   3 N :   -0.048680
   4 C :   -0.015530
   5 N :   -0.053859
   6 C :   -0.019522
   7 C :   -0.059365
   8 C :    0.034165
   9 C :   -0.009781
  10 C :   -0.003799
  11 C :    0.016254
  12 C :   -0.006164
  13 C :   -0.012055
  14 C :   -0.013722
  15 C :   -0.008676
  16 C :    0.084151
  17 O :   -0.138144
  18 C :   -0.056301
  19 C :    0.027532
  20 C :   -0.165390
  21 S :    0.407866
  22 C :   -0.129048
  23 N :   -0.079024
  24 N :   -0.043779
  25 C :   -0.080646
  26 C :    0.001702
  27 C :   -0.182984
  28 S :    0.505837
  29 C :   -0.168167
  30 C :   -0.039648
  31 C :   -0.048178
  32 C :   -0.148504
  33 S :    0.245772
  34 C :   -0.037847
  35 C :   -0.018247
  36 C :   -0.023797
  37 C :   -0.033824
  38 C :    0.002435
  39 C :   -0.019391
  40 N :    0.284497
  41 O :   -0.193901
  42 O :   -0.187493
  43 C :   -0.010440
  44 C :    0.004776
  45 C :    0.008801
  46 C :    0.034430
  47 C :   -0.026672
  48 C :    0.072960
  49 C :   -0.085805
  50 C :    0.075453
  51 C :   -0.134782
  52 C :   -0.017031
  53 N :   -0.051442
  54 C :   -0.022404
  55 N :   -0.048413
  56 C :   -0.025211
  57 C :   -0.056135
  58 C :    0.086952
  59 O :   -0.146168
  60 C :    0.032692
  61 C :   -0.008171
  62 C :   -0.005636
  63 C :    0.020059
  64 C :   -0.004933
  65 C :   -0.012421
  66 C :   -0.011702
  67 C :   -0.009524
  68 H :    0.039341
  69 H :    0.039251
  70 H :    0.034522
  71 H :    0.033125
  72 H :    0.032666
  73 H :    0.031688
  74 H :    0.048164
  75 H :    0.022467
  76 H :    0.032035
  77 H :   -0.017285
  78 H :    0.031102
  79 H :    0.033678
  80 H :    0.029647
  81 H :    0.036641
  82 H :    0.041412
  83 H :    0.039056
  84 H :    0.036981
  85 H :    0.033203
  86 H :    0.044941
  87 H :    0.038755
  88 H :    0.039318
  89 H :    0.035118
  90 H :    0.033467
  91 H :    0.033250
  92 H :    0.031926

  Mayer bond orders larger than 0.100000
B(  0-C ,  1-C ) :   1.6980 B(  0-C ,  6-C ) :   0.9984 B(  0-C , 18-C ) :   1.0142
B(  1-C ,  2-C ) :   1.1391 B(  1-C ,  4-C ) :   1.1511 B(  2-C ,  3-N ) :   2.9853
B(  4-C ,  5-N ) :   3.0093 B(  6-C ,  7-C ) :   1.2153 B(  6-C , 11-C ) :   1.4579
B(  7-C ,  8-C ) :   1.4698 B(  7-C , 16-C ) :   0.9232 B(  8-C ,  9-C ) :   1.1892
B(  8-C , 68-H ) :   1.0151 B(  9-C , 10-C ) :   1.2570 B(  9-C , 15-C ) :   1.2420
B( 10-C , 11-C ) :   1.2062 B( 10-C , 12-C ) :   1.2398 B( 11-C , 69-H ) :   0.9930
B( 12-C , 13-C ) :   1.4911 B( 12-C , 70-H ) :   0.9974 B( 13-C , 14-C ) :   1.2594
B( 13-C , 71-H ) :   0.9885 B( 14-C , 15-C ) :   1.4911 B( 14-C , 72-H ) :   0.9888
B( 15-C , 73-H ) :   0.9975 B( 16-C , 17-O ) :   2.2783 B( 16-C , 18-C ) :   0.9265
B( 18-C , 19-C ) :   1.7243 B( 19-C , 20-C ) :   1.0853 B( 19-C , 74-H ) :   0.9320
B( 20-C , 21-S ) :   1.0804 B( 20-C , 24-N ) :   1.6123 B( 21-S , 22-C ) :   1.1117
B( 21-S , 24-N ) :   0.1031 B( 22-C , 23-N ) :   1.6321 B( 22-C , 25-C ) :   1.1354
B( 23-N , 24-N ) :   1.2643 B( 25-C , 26-C ) :   1.6674 B( 25-C , 75-H ) :   0.9452
B( 26-C , 27-C ) :   1.1439 B( 26-C , 76-H ) :   0.9609 B( 27-C , 28-S ) :   1.1402
B( 27-C , 29-C ) :   0.1174 B( 27-C , 31-C ) :   1.3451 B( 28-S , 29-C ) :   1.1947
B( 29-C , 30-C ) :   1.3805 B( 29-C , 37-C ) :   1.0290 B( 30-C , 31-C ) :   1.2042
B( 30-C , 36-C ) :   1.1943 B( 31-C , 32-C ) :   1.2194 B( 32-C , 33-S ) :   1.0436
B( 32-C , 34-C ) :   1.5516 B( 33-S , 77-H ) :   0.9464 B( 34-C , 35-C ) :   1.2260
B( 34-C , 78-H ) :   0.9811 B( 35-C , 36-C ) :   1.5407 B( 35-C , 79-H ) :   0.9869
B( 36-C , 80-H ) :   0.9923 B( 37-C , 38-C ) :   1.2955 B( 37-C , 45-C ) :   1.3387
B( 38-C , 39-C ) :   1.3906 B( 38-C , 81-H ) :   0.9870 B( 39-C , 40-N ) :   0.8773
B( 39-C , 43-C ) :   1.3486 B( 40-N , 41-O ) :   1.5599 B( 40-N , 42-O ) :   1.5239
B( 41-O , 42-O ) :   0.2681 B( 43-C , 44-C ) :   1.3507 B( 43-C , 46-C ) :   1.0314
B( 44-C , 45-C ) :   1.3959 B( 44-C , 82-H ) :   0.9918 B( 45-C , 83-H ) :   0.9934
B( 46-C , 47-C ) :   1.6617 B( 46-C , 84-H ) :   0.9538 B( 47-C , 48-C ) :   1.1391
B( 47-C , 85-H ) :   0.9743 B( 48-C , 49-C ) :   1.5860 B( 48-C , 86-H ) :   0.9670
B( 49-C , 50-C ) :   1.0438 B( 49-C , 58-C ) :   0.9379 B( 50-C , 51-C ) :   1.6518
B( 50-C , 56-C ) :   0.9921 B( 51-C , 52-C ) :   1.1395 B( 51-C , 54-C ) :   1.1398
B( 52-C , 53-N ) :   2.9707 B( 54-C , 55-N ) :   2.9893 B( 56-C , 57-C ) :   1.2161
B( 56-C , 63-C ) :   1.4480 B( 57-C , 58-C ) :   0.9463 B( 57-C , 60-C ) :   1.4662
B( 58-C , 59-O ) :   2.1970 B( 60-C , 61-C ) :   1.1827 B( 60-C , 87-H ) :   1.0170
B( 61-C , 62-C ) :   1.2569 B( 61-C , 67-C ) :   1.2409 B( 62-C , 63-C ) :   1.2055
B( 62-C , 64-C ) :   1.2391 B( 63-C , 88-H ) :   0.9922 B( 64-C , 65-C ) :   1.4889
B( 64-C , 89-H ) :   0.9983 B( 65-C , 66-C ) :   1.2590 B( 65-C , 90-H ) :   0.9890
B( 66-C , 67-C ) :   1.4896 B( 66-C , 91-H ) :   0.9886 B( 67-C , 92-H ) :   0.9987

-----------------------------------------------------------------------------
         ABSORPTION SPECTRUM VIA TRANSITION ELECTRIC DIPOLE MOMENTS
-----------------------------------------------------------------------------
State   Energy  Wavelength   fosc         T2         TX        TY        TZ
        (cm-1)    (nm)                  (au**2)     (au)      (au)      (au)
-----------------------------------------------------------------------------
   0   17357.3    576.1   1.466293204  27.81086   1.04354  -2.26558  -4.64640
   1   20732.7    482.3   0.125493444   1.99269   0.57309   0.72191  -1.06916
   2   24028.6    416.2   0.040073165   0.54904  -0.11969   0.69523   0.22663
   3   24460.1    408.8   0.014308018   0.19257   0.35057   0.14340   0.22160
   4   26030.4    384.2   0.186747974   2.36184  -0.08715   0.26944   1.51051
   5   26361.0    379.3   0.030049503   0.37528  -0.11494  -0.36184   0.48076
   6   26554.2    376.6   0.030705943   0.38068  -0.39885   0.12396   0.45413
   7   27112.8    368.8   0.407340857   4.94606   0.65046  -0.86161  -1.94437
   8   27732.2    360.6   0.259400644   3.07937   1.06744   0.18076  -1.38104
   9   28080.8    356.1   0.019040300   0.22322   0.28964  -0.31881  -0.19414
  10   28314.5    353.2   0.138365395   1.60877   0.70083   0.01968  -1.05698
  11   29193.9    342.5   0.023585684   0.26597  -0.36512   0.24544   0.26909
  12   29368.1    340.5   0.030802584   0.34529   0.14465   0.31265  -0.47604
  13   30076.1    332.5   0.115553725   1.26485  -0.51298   0.95673  -0.29390
  14   30922.7    323.4   0.086959938   0.92580   0.50215   0.66364   0.48294
  15   31345.9    319.0   0.165744399   1.74074  -1.02124  -0.42587   0.71864
  16   32270.4    309.9   0.078179513   0.79756  -0.22917   0.55210   0.66349
  17   32874.6    304.2   0.079162523   0.79275   0.87036  -0.13213  -0.13325
  18   33143.7    301.7   0.142751837   1.41793  -1.12572  -0.37983  -0.08015
  19   33343.8    299.9   0.235878930   2.32890   0.72431  -0.39721  -1.28316
  20   33696.5    296.8   0.434436817   4.24441  -1.39451   1.06018   1.08433
  21   33867.0    295.3   0.757913633   7.36748   2.46272   0.65599  -0.93392
  22   34249.1    292.0   0.104994161   1.00923  -0.90084  -0.23881   0.37508
  23   34398.4    290.7   0.147623295   1.41284  -0.47791   0.04844   1.08724
  24   34919.7    286.4   0.018288044   0.17241   0.36363  -0.19961   0.01852
  25   35227.8    283.9   0.072284046   0.67551   0.51191  -0.52592  -0.36995
  26   35458.8    282.0   0.048588469   0.45111  -0.07250  -0.30917  -0.59184
  27   35567.8    281.2   0.035269673   0.32645   0.18325  -0.50397   0.19719
  28   35833.3    279.1   0.102150053   0.93848  -0.45765   0.81575  -0.25218
  29   36046.7    277.4   0.197976137   1.80810   0.40870   0.76226  -1.02958
  30   36855.8    271.3   0.037744781   0.33715  -0.56117   0.09710  -0.11321
  31   36954.3    270.6   0.042428051   0.37798  -0.16763   0.57483  -0.13943
  32   37227.6    268.6   0.078733494   0.69626  -0.28575   0.32788   0.71211
  33   37661.4    265.5   0.190067860   1.66145   0.97839  -0.49120   0.68038
  34   38107.2    262.4   0.068189572   0.58910   0.54886  -0.34895  -0.40754
  35   38156.9    262.1   0.061187582   0.52792  -0.15855  -0.46983  -0.53107
  36   38842.8    257.4   0.023932878   0.20284   0.26067  -0.33755  -0.14476
  37   38998.3    256.4   0.175867216   1.48462   0.63237   0.04479   1.04054
  38   39067.6    256.0   0.015990767   0.13475  -0.24776   0.26304  -0.06460
  39   39316.8    254.3   0.012401922   0.10385   0.15154   0.15411   0.23902
  40   39467.7    253.4   0.025051241   0.20896   0.16009  -0.38539   0.18656
  41   40031.1    249.8   0.225073215   1.85098  -0.23911   0.61168  -1.19149
  42   40210.8    248.7   0.056081259   0.45915  -0.35477  -0.22721  -0.53072

FINAL SINGLE POINT ENERGY     -3947.489806559515

DIPOLE MOMENT
-------------
                                X             Y             Z
Electronic contribution:     12.44206      -7.48423      -4.15020
Nuclear contribution   :    -13.85918       7.25993       3.15111
                        -----------------------------------------
Total Dipole Moment    :     -1.41712      -0.22430      -0.99909
                        -----------------------------------------
Magnitude (a.u.)       :      1.74835
Magnitude (Debye)      :      4.44396

Rotational constants in cm-1:     0.002359     0.000211     0.000208
Rotational constants in MHz :    70.708868     6.326545     6.243119

                             ****ORCA TERMINATED NORMALLY****
TOTAL RUN TIME: 0 days 0 hours 8 minutes 11 seconds 12 msec
