                         Program Version 4.2.0 -  RELEASE  -
|  1> # ORCA input file
|  2> # SCF done       -176.701432885791          0.000550888768
|  3> ! CAM-B3LYP def2-SVP def2/J RIJCOSX Grid4 TightSCF
|  4> %maxcore 5000
|  5> %tddft
|  6>     Mode sTDDFT
|  7>     Ethresh 5.0
|  8>     maxcore 5000
|  9> end
| 10>
| 11> %pal
| 12>   nprocs 6
| 13>   end
| 14> * xyz 0 1
| 15>    C       -1.62622        -1.52792         1.45457
| 16>    C       -2.70294        -1.39735         0.62475
| 17>    C       -2.69974        -1.80027        -0.72671
| 18>    N       -2.73531        -2.10995        -1.83103
| 19>    C       -3.97041        -0.95778         1.06588
| 20>    N       -5.03711        -0.70030         1.40104
| 21>    C       -0.38527        -2.23210         1.15378
| 22>    C        0.26030        -2.56437         2.38231
| 23>    C        1.44161        -3.24955         2.40963
| 24>    C        2.04531        -3.63051         1.19078
| 25>    C        1.40957        -3.29411        -0.04007
| 26>    C        0.18328        -2.59045        -0.03887
| 27>    C        2.02737        -3.67522        -1.24863
| 28>    C        3.21539        -4.35402        -1.24426
| 29>    C        3.84128        -4.68290        -0.03229
| 30>    C        3.26802        -4.33028         1.15906
| 31>    C       -0.52343        -2.03317         3.50926
| 32>    O       -0.32709        -2.16563         4.69364
| 33>    C       -1.59500        -1.20608         2.86996
| 34>    C       -2.18487        -0.22161         3.58727
| 35>    C       -2.87209         0.91451         3.08331
| 36>    S       -3.62127         2.09174         4.15442
| 37>    C       -3.94468         3.01820         2.69878
| 38>    N       -3.50593         2.42250         1.62134
| 39>    N       -2.92724         1.28184         1.83225
| 40>    C       -4.53714         4.30810         2.74041
| 41>    C       -4.78464         5.03253         1.62573
| 42>    C       -5.21788         6.38184         1.67680
| 43>    N       -5.38385         7.08402         2.76095
| 44>    C       -5.66143         8.35860         2.48945
| 45>    C       -5.72293         8.67480         1.14212
| 46>    S       -5.44446         7.30691         0.16982
| 47>    C       -6.05717        10.10749         1.02173
| 48>    C       -5.36962        10.62285         2.29889
| 49>    C       -5.82538         9.58151         3.37449
| 50>    C       -7.29176         9.84088         3.79689
| 51>    C       -8.20830         8.63069         3.65119
| 52>    C       -4.90391         9.50023         4.59831
| 53>    C       -5.26186         8.36494         5.55204
| 54>    N       -5.64450        12.04695         2.36830
| 55>    C       -6.10002        12.53263         1.07959
| 56>    S       -5.55600        11.33589        -0.21610
| 57>    C       -4.81287        12.88827         3.08345
| 58>    C       -3.67157        12.49099         3.79897
| 59>    N       -2.88547        13.35106         4.39812
| 60>    C       -3.20197        14.64082         4.34837
| 61>    N       -4.33020        15.11224         3.81311
| 62>    C       -5.10544        14.26107         3.18531
| 63>    C       -2.31147        15.59897         4.97344
| 64>    C       -0.96681        15.47865         5.00994
| 65>    C       -0.03214        16.29969         5.77406
| 66>    C       -0.34024        17.37927         6.55557
| 67>    C        0.61075        18.12324         7.28782
| 68>    N        1.33063        18.77280         7.90217
| 69>    C       -1.63007        17.92101         6.74621
| 70>    N       -2.63686        18.42774         6.96415
| 71>    C        1.30212        15.74354         5.58685
| 72>    C        1.22507        14.66306         4.66282
| 73>    C       -0.16647        14.49584         4.20912
| 74>    O       -0.54763        13.79187         3.30447
| 75>    C        2.32754        13.94659         4.29475
| 76>    C        3.58150        14.27260         4.85648
| 77>    C        3.66845        15.35148         5.78357
| 78>    C        2.51220        16.08286         6.13642
| 79>    C        4.92552        15.66936         6.33860
| 80>    C        6.04193        14.95614         5.99748
| 81>    C        5.95460        13.89340         5.08520
| 82>    C        4.75093        13.55925         4.52679
| 83>    H        1.91233        -3.49425         3.35026
| 84>    H       -0.27219        -2.33661        -0.98338
| 85>    H        1.54104        -3.42173        -2.17904
| 86>    H        3.68028        -4.64150        -2.17534
| 87>    H        4.77973        -5.21657        -0.04764
| 88>    H        3.74473        -4.58081         2.09542
| 89>    H       -2.01838        -0.24080         4.65823
| 90>    H       -4.74624         4.72833         3.71252
| 91>    H       -4.59968         4.60153         0.65320
| 92>    H       -7.14816        10.21374         1.08344
| 93>    H       -4.28630        10.47323         2.15549
| 94>    H       -7.69641        10.66808         3.21002
| 95>    H       -7.29602        10.16902         4.83676
| 96>    H       -8.32825         8.35081         2.60648
| 97>    H       -9.19141         8.86255         4.05469
| 98>    H       -7.80685         7.77502         4.18639
| 99>    H       -4.94860        10.44971         5.13660
|100>    H       -3.87830         9.34273         4.25457
|101>    H       -6.24153         8.51408         5.99687
|102>    H       -4.52913         8.32363         6.35439
|103>    H       -5.25462         7.41717         5.02275
|104>    H       -5.68008        13.50744         0.83810
|105>    H       -7.19280        12.57678         1.03478
|106>    H       -3.36318        11.46142         3.88156
|107>    H       -6.00805        14.67633         2.75485
|108>    H       -2.80968        16.44591         5.42460
|109>    H        2.24042        13.13472         3.58801
|110>    H        2.61406        16.89499         6.83837
|111>    H        4.98791        16.48806         7.04037
|112>    H        6.99957        15.20624         6.42886
|113>    H        6.84613        13.34140         4.82750
|114>    H        4.67736        12.74257         3.82358
|115> *
|116>
|117>                          ****END OF INPUT****

CARTESIAN COORDINATES (ANGSTROEM)
---------------------------------
  C     -1.626220   -1.527920    1.454570
  C     -2.702940   -1.397350    0.624750
  C     -2.699740   -1.800270   -0.726710
  N     -2.735310   -2.109950   -1.831030
  C     -3.970410   -0.957780    1.065880
  N     -5.037110   -0.700300    1.401040
  C     -0.385270   -2.232100    1.153780
  C      0.260300   -2.564370    2.382310
  C      1.441610   -3.249550    2.409630
  C      2.045310   -3.630510    1.190780
  C      1.409570   -3.294110   -0.040070
  C      0.183280   -2.590450   -0.038870
  C      2.027370   -3.675220   -1.248630
  C      3.215390   -4.354020   -1.244260
  C      3.841280   -4.682900   -0.032290
  C      3.268020   -4.330280    1.159060
  C     -0.523430   -2.033170    3.509260
  O     -0.327090   -2.165630    4.693640
  C     -1.595000   -1.206080    2.869960
  C     -2.184870   -0.221610    3.587270
  C     -2.872090    0.914510    3.083310
  S     -3.621270    2.091740    4.154420
  C     -3.944680    3.018200    2.698780
  N     -3.505930    2.422500    1.621340
  N     -2.927240    1.281840    1.832250
  C     -4.537140    4.308100    2.740410
  C     -4.784640    5.032530    1.625730
  C     -5.217880    6.381840    1.676800
  N     -5.383850    7.084020    2.760950
  C     -5.661430    8.358600    2.489450
  C     -5.722930    8.674800    1.142120
  S     -5.444460    7.306910    0.169820
  C     -6.057170   10.107490    1.021730
  C     -5.369620   10.622850    2.298890
  C     -5.825380    9.581510    3.374490
  C     -7.291760    9.840880    3.796890
  C     -8.208300    8.630690    3.651190
  C     -4.903910    9.500230    4.598310
  C     -5.261860    8.364940    5.552040
  N     -5.644500   12.046950    2.368300
  C     -6.100020   12.532630    1.079590
  S     -5.556000   11.335890   -0.216100
  C     -4.812870   12.888270    3.083450
  C     -3.671570   12.490990    3.798970
  N     -2.885470   13.351060    4.398120
  C     -3.201970   14.640820    4.348370
  N     -4.330200   15.112240    3.813110
  C     -5.105440   14.261070    3.185310
  C     -2.311470   15.598970    4.973440
  C     -0.966810   15.478650    5.009940
  C     -0.032140   16.299690    5.774060
  C     -0.340240   17.379270    6.555570
  C      0.610750   18.123240    7.287820
  N      1.330630   18.772800    7.902170
  C     -1.630070   17.921010    6.746210
  N     -2.636860   18.427740    6.964150
  C      1.302120   15.743540    5.586850
  C      1.225070   14.663060    4.662820
  C     -0.166470   14.495840    4.209120
  O     -0.547630   13.791870    3.304470
  C      2.327540   13.946590    4.294750
  C      3.581500   14.272600    4.856480
  C      3.668450   15.351480    5.783570
  C      2.512200   16.082860    6.136420
  C      4.925520   15.669360    6.338600
  C      6.041930   14.956140    5.997480
  C      5.954600   13.893400    5.085200
  C      4.750930   13.559250    4.526790
  H      1.912330   -3.494250    3.350260
  H     -0.272190   -2.336610   -0.983380
  H      1.541040   -3.421730   -2.179040
  H      3.680280   -4.641500   -2.175340
  H      4.779730   -5.216570   -0.047640
  H      3.744730   -4.580810    2.095420
  H     -2.018380   -0.240800    4.658230
  H     -4.746240    4.728330    3.712520
  H     -4.599680    4.601530    0.653200
  H     -7.148160   10.213740    1.083440
  H     -4.286300   10.473230    2.155490
  H     -7.696410   10.668080    3.210020
  H     -7.296020   10.169020    4.836760
  H     -8.328250    8.350810    2.606480
  H     -9.191410    8.862550    4.054690
  H     -7.806850    7.775020    4.186390
  H     -4.948600   10.449710    5.136600
  H     -3.878300    9.342730    4.254570
  H     -6.241530    8.514080    5.996870
  H     -4.529130    8.323630    6.354390
  H     -5.254620    7.417170    5.022750
  H     -5.680080   13.507440    0.838100
  H     -7.192800   12.576780    1.034780
  H     -3.363180   11.461420    3.881560
  H     -6.008050   14.676330    2.754850
  H     -2.809680   16.445910    5.424600
  H      2.240420   13.134720    3.588010
  H      2.614060   16.894990    6.838370
  H      4.987910   16.488060    7.040370
  H      6.999570   15.206240    6.428860
  H      6.846130   13.341400    4.827500
  H      4.677360   12.742570    3.823580

 Total Charge           Charge          ....    0
 Multiplicity           Mult            ....    1
 Number of Electrons    NEL             ....  484
 Basis Dimension        Dim             .... 1124

ORBITAL ENERGIES
----------------

  NO   OCC          E(Eh)            E(eV)
   0   2.0000     -88.984456     -2421.3901
   1   2.0000     -88.984204     -2421.3833
   2   2.0000     -88.932356     -2419.9724
   3   2.0000     -19.220163      -523.0072
   4   2.0000     -19.208869      -522.6999
   5   2.0000     -14.454056      -393.3148
   6   2.0000     -14.454025      -393.3140
   7   2.0000     -14.446851      -393.1188
   8   2.0000     -14.425744      -392.5444
   9   2.0000     -14.418799      -392.3555
  10   2.0000     -14.415802      -392.2739
  11   2.0000     -14.414544      -392.2397
  12   2.0000     -14.413551      -392.2127
  13   2.0000     -14.413386      -392.2082
  14   2.0000     -14.409219      -392.0948
  15   2.0000     -10.371041      -282.2104
  16   2.0000     -10.360930      -281.9352
  17   2.0000     -10.354513      -281.7606
  18   2.0000     -10.352308      -281.7006
  19   2.0000     -10.349276      -281.6181
  20   2.0000     -10.344915      -281.4994
  21   2.0000     -10.344176      -281.4794
  22   2.0000     -10.341239      -281.3994
  23   2.0000     -10.339218      -281.3444
  24   2.0000     -10.338721      -281.3309
  25   2.0000     -10.338064      -281.3130
  26   2.0000     -10.336078      -281.2590
  27   2.0000     -10.328332      -281.0482
  28   2.0000     -10.327588      -281.0280
  29   2.0000     -10.325034      -280.9584
  30   2.0000     -10.321735      -280.8687
  31   2.0000     -10.318966      -280.7933
  32   2.0000     -10.317299      -280.7480
  33   2.0000     -10.316386      -280.7231
  34   2.0000     -10.316101      -280.7154
  35   2.0000     -10.315652      -280.7031
  36   2.0000     -10.313413      -280.6422
  37   2.0000     -10.312188      -280.6089
  38   2.0000     -10.309206      -280.5277
  39   2.0000     -10.306852      -280.4637
  40   2.0000     -10.306192      -280.4457
  41   2.0000     -10.304766      -280.4069
  42   2.0000     -10.302080      -280.3338
  43   2.0000     -10.300709      -280.2966
  44   2.0000     -10.299567      -280.2655
  45   2.0000     -10.299384      -280.2605
  46   2.0000     -10.299117      -280.2532
  47   2.0000     -10.298562      -280.2381
  48   2.0000     -10.298121      -280.2261
  49   2.0000     -10.296705      -280.1876
  50   2.0000     -10.295948      -280.1670
  51   2.0000     -10.295638      -280.1586
  52   2.0000     -10.294740      -280.1341
  53   2.0000     -10.293427      -280.0984
  54   2.0000     -10.291660      -280.0503
  55   2.0000     -10.287545      -279.9383
  56   2.0000     -10.287135      -279.9272
  57   2.0000     -10.286788      -279.9177
  58   2.0000     -10.286116      -279.8994
  59   2.0000     -10.285300      -279.8772
  60   2.0000     -10.285195      -279.8744
  61   2.0000     -10.284584      -279.8578
  62   2.0000     -10.284359      -279.8516
  63   2.0000     -10.283873      -279.8384
  64   2.0000     -10.271856      -279.5114
  65   2.0000     -10.270738      -279.4810
  66   2.0000     -10.259825      -279.1840
  67   2.0000     -10.250641      -278.9341
  68   2.0000      -8.080570      -219.8835
  69   2.0000      -8.079492      -219.8542
  70   2.0000      -8.028532      -218.4675
  71   2.0000      -6.049127      -164.6051
  72   2.0000      -6.048448      -164.5866
  73   2.0000      -6.045856      -164.5161
  74   2.0000      -6.044585      -164.4815
  75   2.0000      -6.043035      -164.4393
  76   2.0000      -6.042051      -164.4126
  77   2.0000      -5.998783      -163.2352
  78   2.0000      -5.995819      -163.1545
  79   2.0000      -5.987275      -162.9220
  80   2.0000      -1.155550       -31.4441
  81   2.0000      -1.135541       -30.8996
  82   2.0000      -1.125048       -30.6141
  83   2.0000      -1.095110       -29.7994
  84   2.0000      -1.083638       -29.4873
  85   2.0000      -1.070344       -29.1256
  86   2.0000      -1.017422       -27.6855
  87   2.0000      -1.015619       -27.6364
  88   2.0000      -0.998381       -27.1673
  89   2.0000      -0.995638       -27.0927
  90   2.0000      -0.991682       -26.9850
  91   2.0000      -0.990897       -26.9637
  92   2.0000      -0.982168       -26.7262
  93   2.0000      -0.974744       -26.5241
  94   2.0000      -0.973463       -26.4893
  95   2.0000      -0.968553       -26.3557
  96   2.0000      -0.954934       -25.9851
  97   2.0000      -0.937805       -25.5190
  98   2.0000      -0.926932       -25.2231
  99   2.0000      -0.922459       -25.1014
 100   2.0000      -0.921005       -25.0618
 101   2.0000      -0.911757       -24.8102
 102   2.0000      -0.897754       -24.4291
 103   2.0000      -0.897215       -24.4145
 104   2.0000      -0.890857       -24.2414
 105   2.0000      -0.882050       -24.0018
 106   2.0000      -0.879924       -23.9439
 107   2.0000      -0.876315       -23.8457
 108   2.0000      -0.862602       -23.4726
 109   2.0000      -0.857288       -23.3280
 110   2.0000      -0.843677       -22.9576
 111   2.0000      -0.841942       -22.9104
 112   2.0000      -0.829274       -22.5657
 113   2.0000      -0.826045       -22.4778
 114   2.0000      -0.817396       -22.2425
 115   2.0000      -0.800513       -21.7831
 116   2.0000      -0.797201       -21.6929
 117   2.0000      -0.779437       -21.2096
 118   2.0000      -0.768406       -20.9094
 119   2.0000      -0.761534       -20.7224
 120   2.0000      -0.758748       -20.6466
 121   2.0000      -0.751201       -20.4412
 122   2.0000      -0.742758       -20.2115
 123   2.0000      -0.733656       -19.9638
 124   2.0000      -0.717803       -19.5324
 125   2.0000      -0.712146       -19.3785
 126   2.0000      -0.707011       -19.2387
 127   2.0000      -0.702792       -19.1239
 128   2.0000      -0.701426       -19.0868
 129   2.0000      -0.699362       -19.0306
 130   2.0000      -0.695391       -18.9226
 131   2.0000      -0.691004       -18.8032
 132   2.0000      -0.685378       -18.6501
 133   2.0000      -0.675266       -18.3749
 134   2.0000      -0.672100       -18.2888
 135   2.0000      -0.665486       -18.1088
 136   2.0000      -0.663513       -18.0551
 137   2.0000      -0.649858       -17.6835
 138   2.0000      -0.638689       -17.3796
 139   2.0000      -0.635369       -17.2893
 140   2.0000      -0.629417       -17.1273
 141   2.0000      -0.627093       -17.0641
 142   2.0000      -0.623426       -16.9643
 143   2.0000      -0.616047       -16.7635
 144   2.0000      -0.608354       -16.5542
 145   2.0000      -0.604929       -16.4610
 146   2.0000      -0.601486       -16.3673
 147   2.0000      -0.599967       -16.3259
 148   2.0000      -0.596686       -16.2366
 149   2.0000      -0.584857       -15.9148
 150   2.0000      -0.581728       -15.8296
 151   2.0000      -0.567338       -15.4381
 152   2.0000      -0.564787       -15.3686
 153   2.0000      -0.561721       -15.2852
 154   2.0000      -0.558442       -15.1960
 155   2.0000      -0.555504       -15.1160
 156   2.0000      -0.552952       -15.0466
 157   2.0000      -0.550240       -14.9728
 158   2.0000      -0.547415       -14.8959
 159   2.0000      -0.544237       -14.8094
 160   2.0000      -0.540441       -14.7061
 161   2.0000      -0.537082       -14.6148
 162   2.0000      -0.534919       -14.5559
 163   2.0000      -0.534016       -14.5313
 164   2.0000      -0.531039       -14.4503
 165   2.0000      -0.527513       -14.3544
 166   2.0000      -0.524181       -14.2637
 167   2.0000      -0.521655       -14.1949
 168   2.0000      -0.520468       -14.1626
 169   2.0000      -0.520007       -14.1501
 170   2.0000      -0.517553       -14.0833
 171   2.0000      -0.515922       -14.0389
 172   2.0000      -0.512746       -13.9525
 173   2.0000      -0.511465       -13.9177
 174   2.0000      -0.509644       -13.8681
 175   2.0000      -0.506861       -13.7924
 176   2.0000      -0.504317       -13.7232
 177   2.0000      -0.502845       -13.6831
 178   2.0000      -0.497255       -13.5310
 179   2.0000      -0.496033       -13.4978
 180   2.0000      -0.494346       -13.4518
 181   2.0000      -0.493459       -13.4277
 182   2.0000      -0.489939       -13.3319
 183   2.0000      -0.487860       -13.2753
 184   2.0000      -0.485106       -13.2004
 185   2.0000      -0.484471       -13.1831
 186   2.0000      -0.482731       -13.1358
 187   2.0000      -0.480923       -13.0866
 188   2.0000      -0.478540       -13.0217
 189   2.0000      -0.466850       -12.7036
 190   2.0000      -0.466237       -12.6870
 191   2.0000      -0.462323       -12.5805
 192   2.0000      -0.455390       -12.3918
 193   2.0000      -0.450132       -12.2487
 194   2.0000      -0.446701       -12.1553
 195   2.0000      -0.445978       -12.1357
 196   2.0000      -0.443519       -12.0688
 197   2.0000      -0.442350       -12.0370
 198   2.0000      -0.442089       -12.0299
 199   2.0000      -0.440469       -11.9858
 200   2.0000      -0.439485       -11.9590
 201   2.0000      -0.438449       -11.9308
 202   2.0000      -0.432778       -11.7765
 203   2.0000      -0.432198       -11.7607
 204   2.0000      -0.431660       -11.7461
 205   2.0000      -0.430169       -11.7055
 206   2.0000      -0.429675       -11.6920
 207   2.0000      -0.427195       -11.6246
 208   2.0000      -0.425026       -11.5655
 209   2.0000      -0.423582       -11.5263
 210   2.0000      -0.417525       -11.3614
 211   2.0000      -0.417165       -11.3516
 212   2.0000      -0.413688       -11.2570
 213   2.0000      -0.409721       -11.1491
 214   2.0000      -0.408114       -11.1054
 215   2.0000      -0.405088       -11.0230
 216   2.0000      -0.403393       -10.9769
 217   2.0000      -0.398956       -10.8561
 218   2.0000      -0.395136       -10.7522
 219   2.0000      -0.394470       -10.7341
 220   2.0000      -0.391578       -10.6554
 221   2.0000      -0.388414       -10.5693
 222   2.0000      -0.386399       -10.5145
 223   2.0000      -0.385272       -10.4838
 224   2.0000      -0.376918       -10.2565
 225   2.0000      -0.373004       -10.1500
 226   2.0000      -0.372472       -10.1355
 227   2.0000      -0.359594        -9.7850
 228   2.0000      -0.356269        -9.6946
 229   2.0000      -0.342069        -9.3082
 230   2.0000      -0.338308        -9.2058
 231   2.0000      -0.335115        -9.1189
 232   2.0000      -0.334707        -9.1078
 233   2.0000      -0.326152        -8.8751
 234   2.0000      -0.318698        -8.6722
 235   2.0000      -0.314922        -8.5695
 236   2.0000      -0.312339        -8.4992
 237   2.0000      -0.309250        -8.4151
 238   2.0000      -0.294220        -8.0061
 239   2.0000      -0.293218        -7.9789
 240   2.0000      -0.282801        -7.6954
 241   2.0000      -0.275660        -7.5011
 242   0.0000      -0.101548        -2.7633
 243   0.0000      -0.088996        -2.4217
 244   0.0000      -0.064352        -1.7511
 245   0.0000      -0.052388        -1.4256
 246   0.0000      -0.051030        -1.3886

MULLIKEN ATOMIC CHARGES
-----------------------
   0 C :    0.264156
   1 C :   -0.274441
   2 C :   -0.188097
   3 N :    0.155017
   4 C :   -0.185448
   5 N :    0.164489
   6 C :    0.046580
   7 C :    0.004640
   8 C :   -0.078843
   9 C :    0.094460
  10 C :    0.097286
  11 C :   -0.083623
  12 C :   -0.017886
  13 C :    0.037588
  14 C :    0.036121
  15 C :   -0.015364
  16 C :    0.138764
  17 O :   -0.136380
  18 C :   -0.101505
  19 C :    0.099769
  20 C :   -0.110493
  21 S :    0.131106
  22 C :   -0.079820
  23 N :   -0.046997
  24 N :   -0.048717
  25 C :    0.057111
  26 C :    0.068725
  27 C :   -0.104779
  28 N :   -0.022545
  29 C :   -0.065174
  30 C :   -0.070383
  31 S :    0.163683
  32 C :   -0.115570
  33 C :    0.091019
  34 C :   -0.182189
  35 C :    0.055042
  36 C :    0.061575
  37 C :    0.042558
  38 C :    0.024948
  39 N :   -0.254496
  40 C :    0.101045
  41 S :   -0.008316
  42 C :    0.102428
  43 C :    0.003762
  44 N :   -0.014461
  45 C :   -0.094945
  46 N :   -0.030718
  47 C :   -0.009014
  48 C :    0.031131
  49 C :   -0.057418
  50 C :    0.314210
  51 C :   -0.349441
  52 C :   -0.185373
  53 N :    0.151471
  54 C :   -0.189929
  55 N :    0.159653
  56 C :    0.052761
  57 C :   -0.003046
  58 C :    0.149570
  59 O :   -0.129263
  60 C :   -0.082753
  61 C :    0.101988
  62 C :    0.098073
  63 C :   -0.086778
  64 C :   -0.021220
  65 C :    0.037252
  66 C :    0.036085
  67 C :   -0.019432
  68 H :   -0.012006
  69 H :   -0.005251
  70 H :   -0.010223
  71 H :   -0.004573
  72 H :   -0.004892
  73 H :   -0.017973
  74 H :    0.020713
  75 H :    0.012797
  76 H :    0.024127
  77 H :    0.061128
  78 H :    0.029693
  79 H :   -0.004500
  80 H :    0.004906
  81 H :    0.004870
  82 H :    0.015636
  83 H :    0.010845
  84 H :    0.014687
  85 H :    0.012595
  86 H :    0.005857
  87 H :    0.010404
  88 H :    0.031163
  89 H :    0.063254
  90 H :    0.054008
  91 H :   -0.009076
  92 H :    0.006606
  93 H :    0.035737
  94 H :   -0.014044
  95 H :   -0.008419
  96 H :   -0.007983
  97 H :   -0.005973
  98 H :   -0.005859
  99 H :   -0.017463
Sum of atomic charges:   -0.0000000

LOEWDIN ATOMIC CHARGES
----------------------
   0 C :    0.063682
   1 C :   -0.106854
   2 C :   -0.015164
   3 N :   -0.046305
   4 C :   -0.017304
   5 N :   -0.048947
   6 C :   -0.019241
   7 C :   -0.059966
   8 C :    0.034653
   9 C :   -0.010028
  10 C :   -0.003493
  11 C :    0.015469
  12 C :   -0.006417
  13 C :   -0.011509
  14 C :   -0.013648
  15 C :   -0.008561
  16 C :    0.084777
  17 O :   -0.136837
  18 C :   -0.050730
  19 C :    0.023413
  20 C :   -0.159186
  21 S :    0.416201
  22 C :   -0.133990
  23 N :   -0.072218
  24 N :   -0.042360
  25 C :   -0.036792
  26 C :   -0.005216
  27 C :   -0.127609
  28 N :   -0.075841
  29 C :   -0.026959
  30 C :   -0.212908
  31 S :    0.448546
  32 C :   -0.135835
  33 C :    0.033608
  34 C :   -0.042319
  35 C :   -0.022314
  36 C :   -0.054896
  37 C :   -0.024919
  38 C :   -0.059901
  39 N :   -0.069674
  40 C :   -0.042024
  41 S :    0.219309
  42 C :   -0.003864
  43 C :    0.012262
  44 N :   -0.039953
  45 C :   -0.008815
  46 N :   -0.057661
  47 C :    0.008698
  48 C :    0.069564
  49 C :   -0.068392
  50 C :    0.076101
  51 C :   -0.132013
  52 C :   -0.015909
  53 N :   -0.052178
  54 C :   -0.021239
  55 N :   -0.044149
  56 C :   -0.026870
  57 C :   -0.053535
  58 C :    0.082960
  59 O :   -0.126025
  60 C :    0.029928
  61 C :   -0.007146
  62 C :   -0.006656
  63 C :    0.019524
  64 C :   -0.005179
  65 C :   -0.014510
  66 C :   -0.012500
  67 C :   -0.010638
  68 H :    0.039389
  69 H :    0.039208
  70 H :    0.034596
  71 H :    0.033297
  72 H :    0.032860
  73 H :    0.031764
  74 H :    0.047944
  75 H :    0.038705
  76 H :    0.042332
  77 H :    0.031740
  78 H :    0.021081
  79 H :    0.017219
  80 H :    0.025929
  81 H :    0.020740
  82 H :    0.026692
  83 H :    0.025553
  84 H :    0.022725
  85 H :    0.020920
  86 H :    0.019563
  87 H :    0.025820
  88 H :    0.020776
  89 H :    0.027670
  90 H :    0.015277
  91 H :    0.023790
  92 H :    0.025037
  93 H :    0.049326
  94 H :    0.038244
  95 H :    0.038650
  96 H :    0.034823
  97 H :    0.032787
  98 H :    0.032468
  99 H :    0.031577

  Mayer bond orders larger than 0.100000
B(  0-C ,  1-C ) :   1.7054 B(  0-C ,  6-C ) :   0.9994 B(  0-C , 18-C ) :   1.0157
B(  1-C ,  2-C ) :   1.1403 B(  1-C ,  4-C ) :   1.1453 B(  2-C ,  3-N ) :   2.9851
B(  4-C ,  5-N ) :   3.0138 B(  6-C ,  7-C ) :   1.2132 B(  6-C , 11-C ) :   1.4575
B(  7-C ,  8-C ) :   1.4686 B(  7-C , 16-C ) :   0.9227 B(  8-C ,  9-C ) :   1.1888
B(  8-C , 68-H ) :   1.0162 B(  9-C , 10-C ) :   1.2572 B(  9-C , 15-C ) :   1.2423
B( 10-C , 11-C ) :   1.2034 B( 10-C , 12-C ) :   1.2395 B( 11-C , 69-H ) :   0.9952
B( 12-C , 13-C ) :   1.4904 B( 12-C , 70-H ) :   0.9980 B( 13-C , 14-C ) :   1.2591
B( 13-C , 71-H ) :   0.9889 B( 14-C , 15-C ) :   1.4904 B( 14-C , 72-H ) :   0.9887
B( 15-C , 73-H ) :   0.9981 B( 16-C , 17-O ) :   2.2777 B( 16-C , 18-C ) :   0.9239
B( 18-C , 19-C ) :   1.7212 B( 19-C , 20-C ) :   1.0967 B( 19-C , 74-H ) :   0.9325
B( 20-C , 21-S ) :   1.0902 B( 20-C , 24-N ) :   1.6058 B( 21-S , 22-C ) :   1.1188
B( 21-S , 24-N ) :   0.1022 B( 22-C , 23-N ) :   1.6508 B( 22-C , 25-C ) :   1.0983
B( 23-N , 24-N ) :   1.2726 B( 25-C , 26-C ) :   1.7463 B( 25-C , 75-H ) :   0.9541
B( 26-C , 27-C ) :   1.0860 B( 26-C , 76-H ) :   0.9551 B( 27-C , 28-N ) :   1.6653
B( 27-C , 31-S ) :   1.0914 B( 28-N , 29-C ) :   1.4090 B( 28-N , 31-S ) :   0.1051
B( 29-C , 30-C ) :   1.5209 B( 29-C , 34-C ) :   0.9634 B( 30-C , 31-S ) :   1.1360
B( 30-C , 32-C ) :   1.0578 B( 32-C , 33-C ) :   0.9675 B( 32-C , 41-S ) :   1.0088
B( 32-C , 77-H ) :   0.8751 B( 33-C , 34-C ) :   0.9828 B( 33-C , 39-N ) :   0.9999
B( 33-C , 78-H ) :   0.9162 B( 34-C , 35-C ) :   0.9848 B( 34-C , 37-C ) :   1.0728
B( 35-C , 36-C ) :   1.1486 B( 35-C , 79-H ) :   0.9302 B( 35-C , 80-H ) :   0.9322
B( 36-C , 81-H ) :   0.9457 B( 36-C , 82-H ) :   0.9634 B( 36-C , 83-H ) :   0.9538
B( 37-C , 38-C ) :   1.0990 B( 37-C , 84-H ) :   0.9284 B( 37-C , 85-H ) :   0.9263
B( 38-C , 86-H ) :   0.9607 B( 38-C , 87-H ) :   0.9585 B( 38-C , 88-H ) :   0.9572
B( 39-N , 40-C ) :   0.9746 B( 39-N , 42-C ) :   1.1009 B( 40-C , 41-S ) :   1.0057
B( 40-C , 89-H ) :   0.9461 B( 40-C , 90-H ) :   0.9493 B( 42-C , 43-C ) :   1.2887
B( 42-C , 47-C ) :   1.3018 B( 43-C , 44-N ) :   1.5766 B( 43-C , 91-H ) :   0.9827
B( 44-N , 45-C ) :   1.5016 B( 45-C , 46-N ) :   1.5051 B( 45-C , 48-C ) :   1.0171
B( 46-N , 47-C ) :   1.6020 B( 47-C , 92-H ) :   0.9812 B( 48-C , 49-C ) :   1.7191
B( 48-C , 93-H ) :   0.9363 B( 49-C , 50-C ) :   1.0466 B( 49-C , 58-C ) :   0.9126
B( 50-C , 51-C ) :   1.6487 B( 50-C , 56-C ) :   0.9971 B( 51-C , 52-C ) :   1.1445
B( 51-C , 54-C ) :   1.1398 B( 52-C , 53-N ) :   2.9660 B( 54-C , 55-N ) :   2.9737
B( 56-C , 57-C ) :   1.2162 B( 56-C , 63-C ) :   1.4379 B( 57-C , 58-C ) :   0.9349
B( 57-C , 60-C ) :   1.4717 B( 58-C , 59-O ) :   2.2620 B( 60-C , 61-C ) :   1.1830
B( 60-C , 94-H ) :   1.0160 B( 61-C , 62-C ) :   1.2544 B( 61-C , 67-C ) :   1.2419
B( 62-C , 63-C ) :   1.2138 B( 62-C , 64-C ) :   1.2347 B( 63-C , 95-H ) :   0.9898
B( 64-C , 65-C ) :   1.4934 B( 64-C , 96-H ) :   0.9979 B( 65-C , 66-C ) :   1.2565
B( 65-C , 97-H ) :   0.9885 B( 66-C , 67-C ) :   1.4913 B( 66-C , 98-H ) :   0.9886
B( 67-C , 99-H ) :   0.9983

-----------------------------------------------------------------------------
         ABSORPTION SPECTRUM VIA TRANSITION ELECTRIC DIPOLE MOMENTS
-----------------------------------------------------------------------------
State   Energy  Wavelength   fosc         T2         TX        TY        TZ
        (cm-1)    (nm)                  (au**2)     (au)      (au)      (au)
-----------------------------------------------------------------------------
   0   22056.7    453.4   0.942244867  14.06364   1.08802  -3.58244  -0.21447
   1   24514.3    407.9   0.111634631   1.49918   0.31607  -1.16965  -0.17663
   2   24696.3    404.9   0.235873856   3.14429  -1.49130  -0.56776  -0.77328
   3   25771.7    388.0   0.235287897   3.00561  -1.26143  -0.95977  -0.70231
   4   26339.4    379.7   0.013708405   0.17134  -0.38645  -0.02880   0.14549
   5   27311.6    366.1   0.166268513   2.00419  -1.40323  -0.04878  -0.18095
   6   27806.4    359.6   0.010188528   0.12063   0.27154   0.09496   0.19461
   7   29156.5    343.0   0.034848896   0.39349   0.04563  -0.53038   0.33182
   8   29324.9    341.0   0.072318012   0.81187  -0.04956   0.76595   0.47194
   9   30018.7    333.1   0.056059837   0.61480   0.24496   0.74462  -0.01849
  10   30121.0    332.0   0.112993518   1.23498   0.75771  -0.61690   0.52943
  11   30507.4    327.8   0.484651221   5.22997   1.27828  -1.70714   0.82562
  12   31064.0    321.9   0.007747973   0.08211  -0.10799   0.24004  -0.11328
  13   31742.4    315.0   0.088393457   0.91676  -0.93668  -0.02532  -0.19686
  14   32726.7    305.6   0.190764625   1.91899  -0.32422   1.21555   0.57991
  15   33431.9    299.1   0.754432937   7.42909   2.46867  -1.06182  -0.45528
  16   33638.3    297.3   0.545052700   5.33433  -2.05742   0.95370   0.43796
  17   34021.2    293.9   0.039245054   0.37976   0.31680  -0.52282  -0.07779
  18   34682.6    288.3   0.101686404   0.96522  -0.80654   0.45680   0.32566
  19   34830.0    287.1   0.039154580   0.37009   0.48682  -0.34880  -0.10693
  20   34905.5    286.5   0.311928475   2.94196   1.38420  -0.93820  -0.38176
  21   35245.1    283.7   0.064618151   0.60358  -0.24865  -0.23172   0.69861
  22   35866.2    278.8   0.009166078   0.08413   0.17337  -0.03603   0.22973
  23   36014.0    277.7   0.001100948   0.01006  -0.05287   0.01292   0.08427
  24   36994.6    270.3   0.030198941   0.26874   0.50992   0.09182  -0.01683
  25   37292.6    268.1   0.048357645   0.42689  -0.61700  -0.12963   0.17145
  26   37990.4    263.2   0.000631462   0.00547   0.03530   0.05419  -0.03592
  27   38631.7    258.9   0.026951457   0.22968  -0.28328   0.25240  -0.29279
  28   39010.7    256.3   0.106673689   0.90022   0.57691  -0.53194  -0.53332
  29   39045.7    256.1   0.077162469   0.65059   0.64101  -0.48781   0.04172
  30   39155.8    255.4   0.071139820   0.59813  -0.40214   0.15314  -0.64261
  31   39397.8    253.8   0.018274040   0.15270   0.38950   0.00151   0.03139
  32   39707.8    251.8   0.000398920   0.00331   0.04660  -0.02258   0.02501
  33   40017.2    249.9   0.077711671   0.63932  -0.72942  -0.13397  -0.29885
  34   40223.4    248.6   0.052121067   0.42659   0.30105  -0.06331   0.57615

FINAL SINGLE POINT ENERGY     -3927.474449856925

DIPOLE MOMENT
-------------
                                X             Y             Z
Electronic contribution:      8.74460     -14.79867      -8.84851
Nuclear contribution   :     -6.87038      13.01727       8.15776
                        -----------------------------------------
Total Dipole Moment    :      1.87422      -1.78140      -0.69074
                        -----------------------------------------
Magnitude (a.u.)       :      2.67642
Magnitude (Debye)      :      6.80292

Rotational constants in cm-1:     0.001201     0.000303     0.000258
Rotational constants in MHz :    36.006969     9.090231     7.721483

                             ****ORCA TERMINATED NORMALLY****
TOTAL RUN TIME: 0 days 0 hours 8 minutes 19 seconds 546 msec
