                         Program Version 4.2.0 -  RELEASE  -
|  1> # ORCA input file
|  2> # SCF done       -197.638726896229          0.000499017511
|  3> ! CAM-B3LYP def2-SVP def2/J RIJCOSX Grid4 TightSCF
|  4> %maxcore 5000
|  5> %tddft
|  6>     Mode sTDDFT
|  7>     Ethresh 5.0
|  8>     maxcore 5000
|  9> end
| 10>
| 11> %pal
| 12>   nprocs 6
| 13>   end
| 14> * xyz 0 1
| 15>    C        3.64628         3.07286        -0.89648
| 16>    C        3.31377         3.58702         0.32735
| 17>    C        4.26352         4.02322         1.27339
| 18>    N        5.00790         4.39134         2.06508
| 19>    C        1.98531         3.61631         0.80603
| 20>    N        0.92089         3.57539         1.23166
| 21>    C        4.98734         2.72487        -1.35098
| 22>    C        4.87378         1.76990        -2.40579
| 23>    C        5.97706         1.23336        -3.00644
| 24>    C        7.26074         1.64317        -2.58178
| 25>    C        7.37892         2.60926        -1.53994
| 26>    C        6.22013         3.14175        -0.92873
| 27>    C        8.66601         3.01606        -1.13441
| 28>    C        9.78413         2.49409        -1.72611
| 29>    C        9.66718         1.54203        -2.75003
| 30>    C        8.43265         1.12505        -3.16813
| 31>    C        3.45140         1.52275        -2.69740
| 32>    O        2.96610         0.73835        -3.47549
| 33>    C        2.71507         2.52479        -1.86165
| 34>    C        1.44225         2.88486        -2.17799
| 35>    C        0.78832         4.07939        -1.80127
| 36>    C       -0.53509         4.44420        -1.94042
| 37>    C       -0.67338         5.76811        -1.44151
| 38>    C        0.65581         6.23242        -1.08126
| 39>    O        1.08771         7.29875        -0.75624
| 40>    O        1.48991         5.13387        -1.29086
| 41>    C       -1.99218         6.14140        -1.61458
| 42>    O       -2.67357         5.12839        -2.22900
| 43>    C       -1.83781         4.02996        -2.43745
| 44>    O       -2.23209         3.02620        -2.95172
| 45>    C       -2.60074         7.35659        -1.24199
| 46>    N       -3.71700         7.92949        -1.79720
| 47>    C       -4.56702         7.35964        -2.81647
| 48>    C       -5.59809         6.40852        -2.21683
| 49>    C       -3.96893         9.20611        -1.25408
| 50>    O       -4.87136         9.92841        -1.61570
| 51>    C       -2.93251         9.37265        -0.25467
| 52>    C       -2.11461         8.22883        -0.26488
| 53>    C       -1.17716         8.34611         0.83650
| 54>    O       -0.37702         7.58131         1.31267
| 55>    N       -1.44657         9.63136         1.38554
| 56>    C       -0.61159        10.11872         2.45648
| 57>    C        0.45364        11.08293         1.94066
| 58>    C       -2.48937        10.24452         0.74903
| 59>    C       -3.10723        11.50250         0.97189
| 60>    C       -2.80976        12.47210         1.87144
| 61>    C       -3.54104        13.69060         1.96147
| 62>    S       -3.23868        14.76938         3.29446
| 63>    C       -4.42661        15.88863         2.72405
| 64>    C       -4.79743        17.11744         3.43700
| 65>    O       -5.74064        17.78547         3.10043
| 66>    O       -4.03728        17.46688         4.48536
| 67>    C       -5.03013        15.43704         1.55566
| 68>    C       -4.51687        14.19794         1.13352
| 69>    C       -6.02874        16.20226         0.84335
| 70>    C       -7.16525        15.68528         0.33352
| 71>    C       -8.17987        16.40385        -0.43109
| 72>    C       -8.01957        17.62181        -1.02938
| 73>    C       -9.02835        18.27644        -1.76939
| 74>    N       -9.81048        18.85495        -2.37794
| 75>    C       -6.81674        18.36256        -1.03913
| 76>    N       -5.86361        18.99539        -1.12919
| 77>    C       -9.35429        15.54907        -0.51629
| 78>    C       -9.05978        14.29895         0.10225
| 79>    C       -7.69061        14.31707         0.63567
| 80>    O       -7.12560        13.42920         1.23454
| 81>    C       -9.97144        13.28220         0.14410
| 82>    C      -11.24258        13.47220        -0.44034
| 83>    C      -11.54983        14.72388        -1.04983
| 84>    C      -10.58769        15.75818        -1.07729
| 85>    C      -12.82363        14.90299        -1.62752
| 86>    C      -13.74848        13.89487        -1.60863
| 87>    C      -13.44404        12.66245        -1.01056
| 88>    C      -12.21825        12.45563        -0.43857
| 89>    H        5.87199         0.50667        -3.79828
| 90>    H        6.33379         3.87832        -0.14849
| 91>    H        8.75124         3.74704        -0.34394
| 92>    H       10.76563         2.81204        -1.40800
| 93>    H       10.55995         1.14124        -3.20605
| 94>    H        8.33628         0.39252        -3.95602
| 95>    H        0.89188         2.24087        -2.85380
| 96>    H       -3.95116         6.83747        -3.55146
| 97>    H       -5.07261         8.20198        -3.29673
| 98>    H       -5.10659         5.56215        -1.74479
| 99>    H       -6.24992         6.03664        -3.00188
|100>    H       -6.20181         6.92921        -1.47728
|101>    H       -0.12190         9.23381         2.87429
|102>    H       -1.23209        10.57077         3.23376
|103>    H        1.09859        10.56537         1.23506
|104>    H        1.06021        11.43960         2.76844
|105>    H        0.00560        11.93657         1.43650
|106>    H       -3.94343        11.66428         0.30433
|107>    H       -2.00475        12.36369         2.58145
|108>    H       -3.30690        16.85687         4.65603
|109>    H       -4.83549        13.70899         0.23255
|110>    H       -5.83501        17.26413         0.76851
|111>    H       -9.72110        12.34238         0.61339
|112>    H      -10.85079        16.69504        -1.54224
|113>    H      -13.05264        15.85255        -2.08836
|114>    H      -14.72037        14.04097        -2.05540
|115>    H      -14.18594        11.87807        -1.00570
|116>    H      -11.97796        11.50919         0.02310
|117> *
|118>
|119>                          ****END OF INPUT****

CARTESIAN COORDINATES (ANGSTROEM)
---------------------------------
  C      3.646280    3.072860   -0.896480
  C      3.313770    3.587020    0.327350
  C      4.263520    4.023220    1.273390
  N      5.007900    4.391340    2.065080
  C      1.985310    3.616310    0.806030
  N      0.920890    3.575390    1.231660
  C      4.987340    2.724870   -1.350980
  C      4.873780    1.769900   -2.405790
  C      5.977060    1.233360   -3.006440
  C      7.260740    1.643170   -2.581780
  C      7.378920    2.609260   -1.539940
  C      6.220130    3.141750   -0.928730
  C      8.666010    3.016060   -1.134410
  C      9.784130    2.494090   -1.726110
  C      9.667180    1.542030   -2.750030
  C      8.432650    1.125050   -3.168130
  C      3.451400    1.522750   -2.697400
  O      2.966100    0.738350   -3.475490
  C      2.715070    2.524790   -1.861650
  C      1.442250    2.884860   -2.177990
  C      0.788320    4.079390   -1.801270
  C     -0.535090    4.444200   -1.940420
  C     -0.673380    5.768110   -1.441510
  C      0.655810    6.232420   -1.081260
  O      1.087710    7.298750   -0.756240
  O      1.489910    5.133870   -1.290860
  C     -1.992180    6.141400   -1.614580
  O     -2.673570    5.128390   -2.229000
  C     -1.837810    4.029960   -2.437450
  O     -2.232090    3.026200   -2.951720
  C     -2.600740    7.356590   -1.241990
  N     -3.717000    7.929490   -1.797200
  C     -4.567020    7.359640   -2.816470
  C     -5.598090    6.408520   -2.216830
  C     -3.968930    9.206110   -1.254080
  O     -4.871360    9.928410   -1.615700
  C     -2.932510    9.372650   -0.254670
  C     -2.114610    8.228830   -0.264880
  C     -1.177160    8.346110    0.836500
  O     -0.377020    7.581310    1.312670
  N     -1.446570    9.631360    1.385540
  C     -0.611590   10.118720    2.456480
  C      0.453640   11.082930    1.940660
  C     -2.489370   10.244520    0.749030
  C     -3.107230   11.502500    0.971890
  C     -2.809760   12.472100    1.871440
  C     -3.541040   13.690600    1.961470
  S     -3.238680   14.769380    3.294460
  C     -4.426610   15.888630    2.724050
  C     -4.797430   17.117440    3.437000
  O     -5.740640   17.785470    3.100430
  O     -4.037280   17.466880    4.485360
  C     -5.030130   15.437040    1.555660
  C     -4.516870   14.197940    1.133520
  C     -6.028740   16.202260    0.843350
  C     -7.165250   15.685280    0.333520
  C     -8.179870   16.403850   -0.431090
  C     -8.019570   17.621810   -1.029380
  C     -9.028350   18.276440   -1.769390
  N     -9.810480   18.854950   -2.377940
  C     -6.816740   18.362560   -1.039130
  N     -5.863610   18.995390   -1.129190
  C     -9.354290   15.549070   -0.516290
  C     -9.059780   14.298950    0.102250
  C     -7.690610   14.317070    0.635670
  O     -7.125600   13.429200    1.234540
  C     -9.971440   13.282200    0.144100
  C    -11.242580   13.472200   -0.440340
  C    -11.549830   14.723880   -1.049830
  C    -10.587690   15.758180   -1.077290
  C    -12.823630   14.902990   -1.627520
  C    -13.748480   13.894870   -1.608630
  C    -13.444040   12.662450   -1.010560
  C    -12.218250   12.455630   -0.438570
  H      5.871990    0.506670   -3.798280
  H      6.333790    3.878320   -0.148490
  H      8.751240    3.747040   -0.343940
  H     10.765630    2.812040   -1.408000
  H     10.559950    1.141240   -3.206050
  H      8.336280    0.392520   -3.956020
  H      0.891880    2.240870   -2.853800
  H     -3.951160    6.837470   -3.551460
  H     -5.072610    8.201980   -3.296730
  H     -5.106590    5.562150   -1.744790
  H     -6.249920    6.036640   -3.001880
  H     -6.201810    6.929210   -1.477280
  H     -0.121900    9.233810    2.874290
  H     -1.232090   10.570770    3.233760
  H      1.098590   10.565370    1.235060
  H      1.060210   11.439600    2.768440
  H      0.005600   11.936570    1.436500
  H     -3.943430   11.664280    0.304330
  H     -2.004750   12.363690    2.581450
  H     -3.306900   16.856870    4.656030
  H     -4.835490   13.708990    0.232550
  H     -5.835010   17.264130    0.768510
  H     -9.721100   12.342380    0.613390
  H    -10.850790   16.695040   -1.542240
  H    -13.052640   15.852550   -2.088360
  H    -14.720370   14.040970   -2.055400
  H    -14.185940   11.878070   -1.005700
  H    -11.977960   11.509190    0.023100

 Total Charge           Charge          ....    0
 Multiplicity           Mult            ....    1
 Number of Electrons    NEL             ....  508
 Basis Dimension        Dim             .... 1180

ORBITAL ENERGIES
----------------

  NO   OCC          E(Eh)            E(eV)
   0   2.0000     -88.994501     -2421.6635
   1   2.0000     -19.303716      -525.2808
   2   2.0000     -19.294727      -525.0362
   3   2.0000     -19.276176      -524.5314
   4   2.0000     -19.233343      -523.3659
   5   2.0000     -19.223520      -523.0986
   6   2.0000     -19.223288      -523.0923
   7   2.0000     -19.221543      -523.0448
   8   2.0000     -19.214369      -522.8496
   9   2.0000     -19.213357      -522.8220
  10   2.0000     -19.196047      -522.3510
  11   2.0000     -14.471285      -393.7837
  12   2.0000     -14.463847      -393.5813
  13   2.0000     -14.419758      -392.3816
  14   2.0000     -14.418424      -392.3453
  15   2.0000     -14.417064      -392.3083
  16   2.0000     -14.415240      -392.2586
  17   2.0000     -10.432489      -283.8825
  18   2.0000     -10.423831      -283.6469
  19   2.0000     -10.419463      -283.5280
  20   2.0000     -10.391523      -282.7677
  21   2.0000     -10.390721      -282.7459
  22   2.0000     -10.385080      -282.5924
  23   2.0000     -10.383151      -282.5399
  24   2.0000     -10.374588      -282.3069
  25   2.0000     -10.374478      -282.3039
  26   2.0000     -10.363602      -282.0080
  27   2.0000     -10.356666      -281.8192
  28   2.0000     -10.350361      -281.6477
  29   2.0000     -10.347520      -281.5703
  30   2.0000     -10.343679      -281.4658
  31   2.0000     -10.343590      -281.4634
  32   2.0000     -10.337136      -281.2878
  33   2.0000     -10.333701      -281.1943
  34   2.0000     -10.326884      -281.0088
  35   2.0000     -10.326737      -281.0048
  36   2.0000     -10.323270      -280.9105
  37   2.0000     -10.321027      -280.8494
  38   2.0000     -10.320465      -280.8341
  39   2.0000     -10.319848      -280.8173
  40   2.0000     -10.319818      -280.8165
  41   2.0000     -10.319055      -280.7958
  42   2.0000     -10.317382      -280.7502
  43   2.0000     -10.317346      -280.7493
  44   2.0000     -10.311537      -280.5912
  45   2.0000     -10.311176      -280.5814
  46   2.0000     -10.308385      -280.5054
  47   2.0000     -10.308024      -280.4956
  48   2.0000     -10.307052      -280.4691
  49   2.0000     -10.306891      -280.4648
  50   2.0000     -10.306805      -280.4624
  51   2.0000     -10.306279      -280.4481
  52   2.0000     -10.301866      -280.3280
  53   2.0000     -10.301494      -280.3179
  54   2.0000     -10.301319      -280.3131
  55   2.0000     -10.301108      -280.3074
  56   2.0000     -10.300923      -280.3024
  57   2.0000     -10.300767      -280.2981
  58   2.0000     -10.300217      -280.2832
  59   2.0000     -10.299807      -280.2720
  60   2.0000     -10.294646      -280.1316
  61   2.0000     -10.292838      -280.0824
  62   2.0000     -10.290619      -280.0220
  63   2.0000     -10.289603      -279.9943
  64   2.0000     -10.289434      -279.9897
  65   2.0000     -10.289063      -279.9796
  66   2.0000     -10.289035      -279.9789
  67   2.0000     -10.288771      -279.9717
  68   2.0000     -10.288726      -279.9705
  69   2.0000     -10.288228      -279.9569
  70   2.0000     -10.288083      -279.9530
  71   2.0000     -10.278251      -279.6854
  72   2.0000     -10.273032      -279.5434
  73   2.0000     -10.257908      -279.1319
  74   2.0000      -8.090347      -220.1495
  75   2.0000      -6.059501      -164.8874
  76   2.0000      -6.055480      -164.7780
  77   2.0000      -6.052628      -164.7004
  78   2.0000      -1.235058       -33.6076
  79   2.0000      -1.223709       -33.2988
  80   2.0000      -1.199617       -32.6432
  81   2.0000      -1.152314       -31.3560
  82   2.0000      -1.142921       -31.1005
  83   2.0000      -1.139019       -30.9943
  84   2.0000      -1.138987       -30.9934
  85   2.0000      -1.136686       -30.9308
  86   2.0000      -1.129943       -30.7473
  87   2.0000      -1.113634       -30.3035
  88   2.0000      -1.079922       -29.3862
  89   2.0000      -1.067659       -29.0525
  90   2.0000      -1.022048       -27.8113
  91   2.0000      -1.021721       -27.8024
  92   2.0000      -1.018848       -27.7243
  93   2.0000      -1.001943       -27.2642
  94   2.0000      -1.001351       -27.2482
  95   2.0000      -0.995969       -27.1017
  96   2.0000      -0.995836       -27.0981
  97   2.0000      -0.976280       -26.5659
  98   2.0000      -0.974843       -26.5268
  99   2.0000      -0.953236       -25.9389
 100   2.0000      -0.942580       -25.6489
 101   2.0000      -0.937045       -25.4983
 102   2.0000      -0.932065       -25.3628
 103   2.0000      -0.927240       -25.2315
 104   2.0000      -0.916263       -24.9328
 105   2.0000      -0.911262       -24.7967
 106   2.0000      -0.898633       -24.4531
 107   2.0000      -0.888090       -24.1662
 108   2.0000      -0.886534       -24.1238
 109   2.0000      -0.883852       -24.0508
 110   2.0000      -0.883161       -24.0320
 111   2.0000      -0.875569       -23.8255
 112   2.0000      -0.864709       -23.5299
 113   2.0000      -0.846991       -23.0478
 114   2.0000      -0.833678       -22.6855
 115   2.0000      -0.831744       -22.6329
 116   2.0000      -0.831682       -22.6312
 117   2.0000      -0.829048       -22.5596
 118   2.0000      -0.814554       -22.1651
 119   2.0000      -0.792872       -21.5752
 120   2.0000      -0.787365       -21.4253
 121   2.0000      -0.772909       -21.0319
 122   2.0000      -0.768314       -20.9069
 123   2.0000      -0.765974       -20.8432
 124   2.0000      -0.765418       -20.8281
 125   2.0000      -0.762519       -20.7492
 126   2.0000      -0.741480       -20.1767
 127   2.0000      -0.733989       -19.9729
 128   2.0000      -0.726983       -19.7822
 129   2.0000      -0.719997       -19.5921
 130   2.0000      -0.716957       -19.5094
 131   2.0000      -0.712560       -19.3897
 132   2.0000      -0.706628       -19.2283
 133   2.0000      -0.706141       -19.2151
 134   2.0000      -0.700573       -19.0636
 135   2.0000      -0.698504       -19.0073
 136   2.0000      -0.695833       -18.9346
 137   2.0000      -0.686733       -18.6870
 138   2.0000      -0.680097       -18.5064
 139   2.0000      -0.677217       -18.4280
 140   2.0000      -0.669551       -18.2194
 141   2.0000      -0.662323       -18.0227
 142   2.0000      -0.652994       -17.7689
 143   2.0000      -0.644951       -17.5500
 144   2.0000      -0.642406       -17.4808
 145   2.0000      -0.633166       -17.2293
 146   2.0000      -0.631543       -17.1852
 147   2.0000      -0.619451       -16.8561
 148   2.0000      -0.618067       -16.8185
 149   2.0000      -0.610958       -16.6250
 150   2.0000      -0.610402       -16.6099
 151   2.0000      -0.608347       -16.5540
 152   2.0000      -0.603942       -16.4341
 153   2.0000      -0.599514       -16.3136
 154   2.0000      -0.594908       -16.1883
 155   2.0000      -0.585902       -15.9432
 156   2.0000      -0.580099       -15.7853
 157   2.0000      -0.577905       -15.7256
 158   2.0000      -0.575658       -15.6644
 159   2.0000      -0.565819       -15.3967
 160   2.0000      -0.564536       -15.3618
 161   2.0000      -0.561549       -15.2805
 162   2.0000      -0.558386       -15.1945
 163   2.0000      -0.551199       -14.9989
 164   2.0000      -0.550042       -14.9674
 165   2.0000      -0.549953       -14.9650
 166   2.0000      -0.547914       -14.9095
 167   2.0000      -0.546796       -14.8791
 168   2.0000      -0.545755       -14.8508
 169   2.0000      -0.543564       -14.7911
 170   2.0000      -0.542564       -14.7639
 171   2.0000      -0.541745       -14.7416
 172   2.0000      -0.539925       -14.6921
 173   2.0000      -0.536966       -14.6116
 174   2.0000      -0.534475       -14.5438
 175   2.0000      -0.531499       -14.4628
 176   2.0000      -0.530268       -14.4293
 177   2.0000      -0.528814       -14.3898
 178   2.0000      -0.525694       -14.3049
 179   2.0000      -0.524506       -14.2725
 180   2.0000      -0.524046       -14.2600
 181   2.0000      -0.516901       -14.0656
 182   2.0000      -0.516105       -14.0439
 183   2.0000      -0.516069       -14.0430
 184   2.0000      -0.515802       -14.0357
 185   2.0000      -0.512272       -13.9396
 186   2.0000      -0.510568       -13.8933
 187   2.0000      -0.505271       -13.7491
 188   2.0000      -0.503559       -13.7025
 189   2.0000      -0.502178       -13.6649
 190   2.0000      -0.498485       -13.5645
 191   2.0000      -0.495962       -13.4958
 192   2.0000      -0.495053       -13.4711
 193   2.0000      -0.492026       -13.3887
 194   2.0000      -0.490336       -13.3427
 195   2.0000      -0.489752       -13.3268
 196   2.0000      -0.485236       -13.2039
 197   2.0000      -0.482464       -13.1285
 198   2.0000      -0.477018       -12.9803
 199   2.0000      -0.473483       -12.8841
 200   2.0000      -0.472173       -12.8485
 201   2.0000      -0.470460       -12.8019
 202   2.0000      -0.470094       -12.7919
 203   2.0000      -0.468246       -12.7416
 204   2.0000      -0.466813       -12.7026
 205   2.0000      -0.465693       -12.6722
 206   2.0000      -0.458487       -12.4761
 207   2.0000      -0.454036       -12.3550
 208   2.0000      -0.452023       -12.3002
 209   2.0000      -0.450605       -12.2616
 210   2.0000      -0.449881       -12.2419
 211   2.0000      -0.447693       -12.1823
 212   2.0000      -0.446103       -12.1391
 213   2.0000      -0.445905       -12.1337
 214   2.0000      -0.443422       -12.0661
 215   2.0000      -0.442789       -12.0489
 216   2.0000      -0.436678       -11.8826
 217   2.0000      -0.436080       -11.8663
 218   2.0000      -0.435737       -11.8570
 219   2.0000      -0.435034       -11.8379
 220   2.0000      -0.433763       -11.8033
 221   2.0000      -0.429202       -11.6792
 222   2.0000      -0.428877       -11.6703
 223   2.0000      -0.427323       -11.6281
 224   2.0000      -0.422120       -11.4865
 225   2.0000      -0.421058       -11.4576
 226   2.0000      -0.419669       -11.4198
 227   2.0000      -0.414601       -11.2819
 228   2.0000      -0.412668       -11.2293
 229   2.0000      -0.411410       -11.1950
 230   2.0000      -0.405991       -11.0476
 231   2.0000      -0.402019       -10.9395
 232   2.0000      -0.397462       -10.8155
 233   2.0000      -0.392749       -10.6872
 234   2.0000      -0.387458       -10.5433
 235   2.0000      -0.382235       -10.4012
 236   2.0000      -0.379791       -10.3346
 237   2.0000      -0.371781       -10.1167
 238   2.0000      -0.367855       -10.0098
 239   2.0000      -0.366721        -9.9790
 240   2.0000      -0.360383        -9.8065
 241   2.0000      -0.358005        -9.7418
 242   2.0000      -0.344495        -9.3742
 243   2.0000      -0.343230        -9.3398
 244   2.0000      -0.341754        -9.2996
 245   2.0000      -0.331099        -9.0097
 246   2.0000      -0.325039        -8.8448
 247   2.0000      -0.319482        -8.6936
 248   2.0000      -0.318306        -8.6616
 249   2.0000      -0.313350        -8.5267
 250   2.0000      -0.302828        -8.2404
 251   2.0000      -0.296306        -8.0629
 252   2.0000      -0.295579        -8.0431
 253   2.0000      -0.252447        -6.8694
 254   0.0000      -0.129569        -3.5257
 255   0.0000      -0.096329        -2.6213
 256   0.0000      -0.090123        -2.4524
 257   0.0000      -0.064094        -1.7441
 258   0.0000      -0.061043        -1.6611

MULLIKEN ATOMIC CHARGES
-----------------------
   0 C :    0.260177
   1 C :   -0.282054
   2 C :   -0.174260
   3 N :    0.156100
   4 C :   -0.189131
   5 N :    0.162354
   6 C :    0.046085
   7 C :    0.003717
   8 C :   -0.076693
   9 C :    0.093310
  10 C :    0.095472
  11 C :   -0.078261
  12 C :   -0.018752
  13 C :    0.037699
  14 C :    0.036138
  15 C :   -0.016516
  16 C :    0.141329
  17 O :   -0.126596
  18 C :   -0.096527
  19 C :    0.010151
  20 C :    0.087726
  21 C :   -0.019199
  22 C :   -0.049743
  23 C :    0.242414
  24 O :   -0.112100
  25 O :   -0.259181
  26 C :    0.078812
  27 O :   -0.252431
  28 C :    0.237690
  29 O :   -0.104773
  30 C :    0.115515
  31 N :   -0.259339
  32 C :    0.113879
  33 C :    0.002841
  34 C :    0.158171
  35 O :   -0.194648
  36 C :   -0.069216
  37 C :   -0.030138
  38 C :    0.156990
  39 O :   -0.141836
  40 N :   -0.270094
  41 C :    0.094973
  42 C :   -0.002158
  43 C :    0.140321
  44 C :   -0.045252
  45 C :    0.095279
  46 C :   -0.107445
  47 S :    0.119111
  48 C :   -0.197196
  49 C :    0.194368
  50 O :   -0.175057
  51 O :   -0.149257
  52 C :    0.071538
  53 C :    0.075396
  54 C :   -0.008321
  55 C :   -0.090870
  56 C :    0.304886
  57 C :   -0.327134
  58 C :   -0.181354
  59 N :    0.154382
  60 C :   -0.196880
  61 N :    0.164139
  62 C :    0.051295
  63 C :   -0.010460
  64 C :    0.148664
  65 O :   -0.139849
  66 C :   -0.071857
  67 C :    0.097802
  68 C :    0.095685
  69 C :   -0.082033
  70 C :   -0.016142
  71 C :    0.038945
  72 C :    0.035287
  73 C :   -0.014337
  74 H :   -0.008087
  75 H :   -0.002421
  76 H :   -0.008028
  77 H :   -0.003586
  78 H :   -0.003843
  79 H :   -0.014831
  80 H :    0.039083
  81 H :    0.026976
  82 H :    0.039654
  83 H :    0.026918
  84 H :    0.022441
  85 H :    0.022418
  86 H :    0.054749
  87 H :    0.024680
  88 H :    0.043685
  89 H :    0.025726
  90 H :    0.018156
  91 H :    0.020067
  92 H :   -0.011685
  93 H :    0.182050
  94 H :    0.012844
  95 H :    0.058678
  96 H :   -0.011084
  97 H :   -0.005954
  98 H :   -0.008049
  99 H :   -0.003490
 100 H :   -0.002162
 101 H :   -0.016457
Sum of atomic charges:    0.0000000

LOEWDIN ATOMIC CHARGES
----------------------
   0 C :    0.062096
   1 C :   -0.109932
   2 C :   -0.015505
   3 N :   -0.041858
   4 C :   -0.021864
   5 N :   -0.044793
   6 C :   -0.020185
   7 C :   -0.059715
   8 C :    0.035983
   9 C :   -0.009344
  10 C :   -0.003260
  11 C :    0.016465
  12 C :   -0.006334
  13 C :   -0.010442
  14 C :   -0.012218
  15 C :   -0.008150
  16 C :    0.083589
  17 O :   -0.128284
  18 C :   -0.041329
  19 C :    0.030944
  20 C :    0.089744
  21 C :   -0.088285
  22 C :   -0.096224
  23 C :    0.106465
  24 O :   -0.109190
  25 O :   -0.040266
  26 C :    0.089144
  27 O :   -0.046706
  28 C :    0.109771
  29 O :   -0.110518
  30 C :    0.036642
  31 N :    0.002600
  32 C :    0.037815
  33 C :   -0.060533
  34 C :    0.076180
  35 O :   -0.198141
  36 C :   -0.116850
  37 C :   -0.073933
  38 C :    0.089574
  39 O :   -0.131585
  40 N :    0.000529
  41 C :    0.035344
  42 C :   -0.062030
  43 C :    0.092887
  44 C :   -0.023089
  45 C :   -0.004179
  46 C :   -0.160207
  47 S :    0.443817
  48 C :   -0.222104
  49 C :    0.068802
  50 O :   -0.147831
  51 O :   -0.024458
  52 C :   -0.025678
  53 C :    0.002734
  54 C :    0.084180
  55 C :   -0.075860
  56 C :    0.075391
  57 C :   -0.124537
  58 C :   -0.015785
  59 N :   -0.046776
  60 C :   -0.021860
  61 N :   -0.041256
  62 C :   -0.025099
  63 C :   -0.057584
  64 C :    0.086426
  65 O :   -0.132804
  66 C :    0.037213
  67 C :   -0.007591
  68 C :   -0.004467
  69 C :    0.021467
  70 C :   -0.004617
  71 C :   -0.010931
  72 C :   -0.010788
  73 C :   -0.007950
  74 H :    0.040460
  75 H :    0.039759
  76 H :    0.034995
  77 H :    0.033670
  78 H :    0.033305
  79 H :    0.032518
  80 H :    0.061734
  81 H :    0.025393
  82 H :    0.035329
  83 H :    0.023182
  84 H :    0.031482
  85 H :    0.027890
  86 H :    0.041970
  87 H :    0.020748
  88 H :    0.039028
  89 H :    0.032182
  90 H :    0.020479
  91 H :    0.050906
  92 H :    0.030991
  93 H :    0.082951
  94 H :    0.041011
  95 H :    0.051753
  96 H :    0.040171
  97 H :    0.039685
  98 H :    0.035327
  99 H :    0.033959
 100 H :    0.033699
 101 H :    0.032550

  Mayer bond orders larger than 0.100000
B(  0-C ,  1-C ) :   1.6850 B(  0-C ,  6-C ) :   1.0000 B(  0-C , 18-C ) :   1.0272
B(  1-C ,  2-C ) :   1.1401 B(  1-C ,  4-C ) :   1.1456 B(  2-C ,  3-N ) :   2.9851
B(  4-C ,  5-N ) :   3.0016 B(  6-C ,  7-C ) :   1.2118 B(  6-C , 11-C ) :   1.4633
B(  7-C ,  8-C ) :   1.4706 B(  7-C , 16-C ) :   0.9245 B(  8-C ,  9-C ) :   1.1913
B(  8-C , 74-H ) :   1.0162 B(  9-C , 10-C ) :   1.2551 B(  9-C , 15-C ) :   1.2436
B( 10-C , 11-C ) :   1.2034 B( 10-C , 12-C ) :   1.2417 B( 11-C , 75-H ) :   0.9946
B( 12-C , 13-C ) :   1.4882 B( 12-C , 76-H ) :   0.9984 B( 13-C , 14-C ) :   1.2600
B( 13-C , 77-H ) :   0.9895 B( 14-C , 15-C ) :   1.4901 B( 14-C , 78-H ) :   0.9891
B( 15-C , 79-H ) :   0.9983 B( 16-C , 17-O ) :   2.2891 B( 16-C , 18-C ) :   0.9171
B( 18-C , 19-C ) :   1.6321 B( 19-C , 20-C ) :   1.1429 B( 19-C , 80-H ) :   0.9485
B( 20-C , 21-C ) :   1.4110 B( 20-C , 25-O ) :   1.1244 B( 21-C , 22-C ) :   1.1743
B( 21-C , 28-C ) :   0.9290 B( 22-C , 23-C ) :   0.9531 B( 22-C , 26-C ) :   1.4230
B( 23-C , 24-O ) :   2.2332 B( 23-C , 25-O ) :   0.9865 B( 26-C , 27-O ) :   1.1330
B( 26-C , 30-C ) :   1.1239 B( 27-O , 28-C ) :   0.9936 B( 28-C , 29-O ) :   2.2789
B( 30-C , 31-N ) :   1.1837 B( 30-C , 37-C ) :   1.3697 B( 31-N , 32-C ) :   0.9341
B( 31-N , 34-C ) :   1.0383 B( 32-C , 33-C ) :   1.1226 B( 32-C , 81-H ) :   0.9486
B( 32-C , 82-H ) :   0.9304 B( 33-C , 83-H ) :   0.9657 B( 33-C , 84-H ) :   0.9676
B( 33-C , 85-H ) :   0.9662 B( 34-C , 35-O ) :   2.1257 B( 34-C , 36-C ) :   0.9785
B( 36-C , 37-C ) :   1.2772 B( 36-C , 43-C ) :   1.2932 B( 37-C , 38-C ) :   0.9560
B( 38-C , 39-O ) :   2.1463 B( 38-C , 40-N ) :   1.0029 B( 40-N , 41-C ) :   0.9376
B( 40-N , 43-C ) :   1.2088 B( 41-C , 42-C ) :   1.1155 B( 41-C , 86-H ) :   0.9225
B( 41-C , 87-H ) :   0.9509 B( 42-C , 88-H ) :   0.9609 B( 42-C , 89-H ) :   0.9686
B( 42-C , 90-H ) :   0.9683 B( 43-C , 44-C ) :   1.1843 B( 44-C , 45-C ) :   1.6126
B( 44-C , 91-H ) :   0.9480 B( 45-C , 46-C ) :   1.1060 B( 45-C , 92-H ) :   0.9646
B( 46-C , 47-S ) :   1.1220 B( 46-C , 53-C ) :   1.5060 B( 47-S , 48-C ) :   1.1117
B( 48-C , 49-C ) :   0.9455 B( 48-C , 52-C ) :   1.4972 B( 49-C , 50-O ) :   2.1154
B( 49-C , 51-O ) :   1.2540 B( 51-O , 93-H ) :   0.9484 B( 52-C , 53-C ) :   1.2770
B( 52-C , 54-C ) :   1.0465 B( 53-C , 94-H ) :   0.9818 B( 54-C , 55-C ) :   1.7382
B( 54-C , 95-H ) :   0.9175 B( 55-C , 56-C ) :   1.0197 B( 55-C , 64-C ) :   0.9207
B( 56-C , 57-C ) :   1.6763 B( 56-C , 62-C ) :   1.0021 B( 57-C , 58-C ) :   1.1390
B( 57-C , 60-C ) :   1.1361 B( 58-C , 59-N ) :   2.9706 B( 60-C , 61-N ) :   2.9899
B( 62-C , 63-C ) :   1.2116 B( 62-C , 69-C ) :   1.4437 B( 63-C , 64-C ) :   0.9499
B( 63-C , 66-C ) :   1.4675 B( 64-C , 65-O ) :   2.2307 B( 66-C , 67-C ) :   1.1850
B( 66-C , 96-H ) :   1.0154 B( 67-C , 68-C ) :   1.2539 B( 67-C , 73-C ) :   1.2420
B( 68-C , 69-C ) :   1.2115 B( 68-C , 70-C ) :   1.2386 B( 69-C , 97-H ) :   0.9891
B( 70-C , 71-C ) :   1.4922 B( 70-C , 98-H ) :   0.9967 B( 71-C , 72-C ) :   1.2584
B( 71-C , 99-H ) :   0.9878 B( 72-C , 73-C ) :   1.4915 B( 72-C ,100-H ) :   0.9885
B( 73-C ,101-H ) :   0.9973

-----------------------------------------------------------------------------
         ABSORPTION SPECTRUM VIA TRANSITION ELECTRIC DIPOLE MOMENTS
-----------------------------------------------------------------------------
State   Energy  Wavelength   fosc         T2         TX        TY        TZ
        (cm-1)    (nm)                  (au**2)     (au)      (au)      (au)
-----------------------------------------------------------------------------
   0   11645.0    858.7   0.796893235  22.52874   2.63770  -3.70860  -1.34817
   1   20044.4    498.9   0.160799957   2.64100   0.67335   0.93952   1.14232
   2   20951.2    477.3   0.269689436   4.23770   1.76655  -0.18876   1.03988
   3   21787.3    459.0   0.151566660   2.29021  -1.42616   0.49457   0.10799
   4   22180.2    450.9   0.018050177   0.26791  -0.46896   0.20380   0.08031
   5   24573.9    406.9   0.012920084   0.17309   0.28248  -0.25172  -0.17300
   6   24711.9    404.7   0.026273865   0.35002   0.38003  -0.28491  -0.35274
   7   25467.1    392.7   0.000839508   0.01085   0.07951  -0.04272  -0.05202
   8   26317.2    380.0   0.195433388   2.44475  -0.92330   1.19272   0.41195
   9   26543.0    376.7   0.036763063   0.45597  -0.44387   0.39087   0.32584
  10   26572.9    376.3   0.196709207   2.43703   0.79141  -1.26065   0.47059
  11   27011.0    370.2   0.041935554   0.51111   0.43031   0.40335  -0.40406
  12   27529.7    363.2   0.123466081   1.47646   1.11986   0.18527   0.43365
  13   27753.3    360.3   0.045959885   0.54518  -0.18694  -0.63922  -0.31879
  14   28312.7    353.2   0.033446080   0.38890   0.36505  -0.46168  -0.20614
  15   29103.7    343.6   0.006429181   0.07272  -0.06954   0.21380   0.14892
  16   29209.6    342.4   0.011004361   0.12403   0.01858  -0.04022  -0.34938
  17   29442.3    339.6   0.055735435   0.62321   0.22905  -0.74803  -0.10581
  18   29600.8    337.8   0.069565958   0.77369   0.42476  -0.65836  -0.39979
  19   29675.7    337.0   0.045926359   0.50949  -0.56874   0.43129   0.00349
  20   29838.3    335.1   0.034880543   0.38484   0.39000  -0.46671  -0.12218
  21   31172.9    320.8   0.224280627   2.36859  -1.04634   0.30613  -1.08631
  22   31753.0    314.9   0.293186719   3.03973  -1.56301   0.18152   0.75086
  23   32107.8    311.5   0.092914125   0.95268  -0.86063  -0.09038  -0.45147
  24   32402.0    308.6   0.190347761   1.93398  -1.33123   0.38834   0.10484
  25   32776.3    305.1   0.118221379   1.18744   0.23682   1.05578  -0.12917
  26   33426.3    299.2   0.154793714   1.52455  -1.12853  -0.21871  -0.45072
  27   33573.7    297.9   0.004790384   0.04697  -0.11070  -0.18413  -0.02853
  28   33762.4    296.2   0.454396252   4.43075  -2.01796   0.58725  -0.11721
  29   34058.4    293.6   0.010600478   0.10247  -0.00549   0.28178  -0.15177
  30   34150.1    292.8   0.766962019   7.39363  -1.91861  -1.92590  -0.05874
  31   34341.4    291.2   0.052686811   0.50508  -0.55559  -0.42256   0.13360
  32   34615.6    288.9   0.024563788   0.23361  -0.44845   0.16025   0.08261
  33   35176.3    284.3   0.047774504   0.44712  -0.18777   0.07508   0.63736
  34   35337.9    283.0   0.121871092   1.13537  -0.87607   0.59365  -0.12430
  35   35893.5    278.6   0.021727544   0.19928   0.31267   0.31261   0.06160
  36   36023.3    277.6   0.197562236   1.80549   0.69245   0.99077   0.58683
  37   36121.3    276.8   0.086445297   0.78787   0.30478   0.76005   0.34249
  38   36488.0    274.1   0.152191473   1.37314  -1.08972   0.12134  -0.41342
  39   36680.3    272.6   0.077861281   0.69882   0.55340   0.19847  -0.59429
  40   37039.5    270.0   0.118478452   1.05305  -0.54015   0.49707   0.71708
  41   37097.1    269.6   0.241082990   2.13945  -0.98715   0.78713   0.73851
  42   37314.9    268.0   0.006232534   0.05499  -0.21033  -0.08912  -0.05295
  43   37819.5    264.4   0.100753415   0.87704   0.64211   0.64731   0.21382
  44   38187.2    261.9   0.007428002   0.06404  -0.22201   0.12140   0.00314
  45   38491.1    259.8   0.019851455   0.16979   0.28367  -0.16864   0.24674
  46   38858.4    257.3   0.029770259   0.25222   0.07703  -0.07105   0.49116
  47   38888.4    257.1   0.234717375   1.98701  -0.66003   0.95543  -0.79908
  48   38977.7    256.6   0.018219697   0.15389  -0.35454   0.00974  -0.16760
  49   39718.7    251.8   0.239130372   1.98205   0.95429  -0.96280  -0.38001
  50   39974.0    250.2   0.006875500   0.05662  -0.23022   0.05957  -0.00852
  51   40000.1    250.0   0.019776888   0.16277   0.07256   0.37425  -0.13205
  52   40061.8    249.6   0.035022144   0.28780   0.41433  -0.33532   0.06076
  53   40192.0    248.8   0.035372080   0.28973  -0.44297   0.17686  -0.24946

FINAL SINGLE POINT ENERGY     -3663.653811225596

DIPOLE MOMENT
-------------
                                X             Y             Z
Electronic contribution:      4.58700       4.24608       4.09253
Nuclear contribution   :     -3.54614      -5.67299      -4.14854
                        -----------------------------------------
Total Dipole Moment    :      1.04086      -1.42692      -0.05601
                        -----------------------------------------
Magnitude (a.u.)       :      1.76709
Magnitude (Debye)      :      4.49160

Rotational constants in cm-1:     0.001862     0.000281     0.000256
Rotational constants in MHz :    55.819433     8.423834     7.678991

                             ****ORCA TERMINATED NORMALLY****
TOTAL RUN TIME: 0 days 0 hours 11 minutes 21 seconds 644 msec
