                         Program Version 4.2.0 -  RELEASE  -
|  1> # ORCA input file
|  2> # SCF done       -205.623409859265          0.000567021347
|  3> ! CAM-B3LYP def2-SVP def2/J RIJCOSX Grid4 TightSCF
|  4> %maxcore 5000
|  5> %tddft
|  6>     Mode sTDDFT
|  7>     Ethresh 5.0
|  8>     maxcore 5000
|  9> end
| 10>
| 11> %pal
| 12>   nprocs 6
| 13>   end
| 14> * xyz 0 1
| 15>    C       -1.30252         0.57808        -3.27822
| 16>    C       -2.46481         1.21369        -3.62902
| 17>    C       -3.02414         1.17508        -4.92312
| 18>    N       -3.51425         1.21179        -5.96070
| 19>    C       -3.27684         1.95642        -2.75147
| 20>    N       -3.99163         2.57098        -2.09477
| 21>    C       -0.58944        -0.37848        -4.11710
| 22>    C        0.27898        -1.15199        -3.29198
| 23>    C        1.03962        -2.16551        -3.79955
| 24>    C        0.97152        -2.45311        -5.18141
| 25>    C        0.12215        -1.67016        -6.01602
| 26>    C       -0.65604        -0.62805        -5.46200
| 27>    C        0.06689        -1.96342        -7.39391
| 28>    C        0.80885        -2.98423        -7.92274
| 29>    C        1.64257        -3.75616        -7.09975
| 30>    C        1.72265        -3.49583        -5.75851
| 31>    C        0.19291        -0.66548        -1.90469
| 32>    O        0.74199        -1.10426        -0.92276
| 33>    C       -0.69000         0.54189        -1.96619
| 34>    C       -0.71201         1.38790        -0.90661
| 35>    C       -1.22001         2.71906        -0.82117
| 36>    C       -1.67362         3.21865         0.41871
| 37>    C       -2.30382         4.49752         0.53245
| 38>    N       -2.90384         4.84434         1.69244
| 39>    C       -2.76999         4.07367         2.71637
| 40>    C       -2.02613         2.85906         2.63814
| 41>    N       -1.54469         2.43854         1.51743
| 42>    F       -1.84446         2.10560         3.71526
| 43>    F       -3.38629         4.41923         3.84099
| 44>    C       -2.39191         5.38895        -0.55844
| 45>    C       -1.83684         4.94546        -1.76973
| 46>    C       -1.26799         3.62196        -1.90191
| 47>    N       -0.77435         3.41997        -3.12636
| 48>    S       -0.99265         4.74295        -4.00635
| 49>    N       -1.71726         5.64401        -2.90174
| 50>    C       -2.97171         6.68279        -0.32838
| 51>    N       -3.85798         7.34520        -1.12471
| 52>    C       -4.48186         6.87594        -2.34204
| 53>    C       -3.99664         7.66463        -3.55393
| 54>    C       -4.28388         8.55326        -0.53025
| 55>    O       -5.10294         9.29328        -1.03161
| 56>    C       -3.54637         8.62353         0.71358
| 57>    C       -2.75299         7.45625         0.80801
| 58>    C       -1.97873         7.53153         2.03117
| 59>    O       -1.12884         6.81503         2.51242
| 60>    N       -2.41765         8.72912         2.63428
| 61>    C       -1.86069         9.18006         3.88652
| 62>    C       -0.82957        10.28753         3.68371
| 63>    C       -3.34475         9.38654         1.86410
| 64>    C       -3.98892        10.58803         2.25515
| 65>    C       -4.89754        11.22290         1.47377
| 66>    C       -5.59936        12.38630         1.87349
| 67>    S       -5.42636        13.15976         3.45211
| 68>    C       -6.66008        14.29010         2.88427
| 69>    N       -7.05019        14.01762         1.66871
| 70>    N       -6.47930        12.99379         1.12347
| 71>    C       -7.19752        15.35008         3.65653
| 72>    C       -6.80432        15.61752         4.92615
| 73>    C       -7.31599        16.58805         5.83006
| 74>    C       -8.21680        17.60537         5.68890
| 75>    C       -8.65165        18.44165         6.80489
| 76>    C       -8.46500        18.19670         8.14018
| 77>    C       -8.93314        19.04313         9.16912
| 78>    N       -9.27920        19.68368        10.05647
| 79>    C       -7.82653        17.07335         8.70921
| 80>    N       -7.34522        16.19288         9.26833
| 81>    C       -9.40695        19.56355         6.26300
| 82>    C       -9.51948        19.39071         4.85569
| 83>    C       -8.82792        18.15847         4.44733
| 84>    O       -8.77481        17.72418         3.31672
| 85>    C      -10.19246        20.27897         4.06659
| 86>    C      -10.79657        21.40727         4.66317
| 87>    C      -10.68380        21.59310         6.07173
| 88>    C       -9.97927        20.65597         6.86129
| 89>    C      -11.29095        22.72273         6.65768
| 90>    C      -11.97786        23.62452         5.89142
| 91>    C      -12.08787        23.44041         4.50479
| 92>    C      -11.50966        22.35551         3.90356
| 93>    H        1.68322        -2.74439        -3.15401
| 94>    H       -1.28261        -0.04633        -6.11963
| 95>    H       -0.57938        -1.36896        -8.02289
| 96>    H        0.75646        -3.20362        -8.97859
| 97>    H        2.22062        -4.55816        -7.53372
| 98>    H        2.36256        -4.08697        -5.11999
| 99>    H       -0.27340         1.00421         0.00931
|100>    H       -5.56103         7.02062        -2.22838
|101>    H       -4.27645         5.81113        -2.45348
|102>    H       -2.91946         7.57099        -3.65647
|103>    H       -4.25871         8.71266        -3.43734
|104>    H       -4.47370         7.28215        -4.45158
|105>    H       -1.37847         8.30620         4.33295
|106>    H       -2.66540         9.51266         4.54798
|107>    H       -0.01551         9.92656         3.06006
|108>    H       -0.42256        10.59107         4.64409
|109>    H       -1.27601        11.15491         3.20225
|110>    H       -3.75417        10.99184         3.23148
|111>    H       -5.14946        10.84798         0.48990
|112>    H       -7.95953        15.93409         3.16024
|113>    H       -6.02890        14.98841         5.35187
|114>    H       -6.89878        16.48202         6.82478
|115>    H      -10.26370        20.11904         3.00097
|116>    H       -9.90878        20.83101         7.92277
|117>    H      -11.20508        22.85955         7.72563
|118>    H      -12.44112        24.48525         6.34986
|119>    H      -12.63301        24.16257         3.91568
|120>    H      -11.59083        22.20797         2.83665
|121> *
|122>
|123>                          ****END OF INPUT****

CARTESIAN COORDINATES (ANGSTROEM)
---------------------------------
  C     -1.302520    0.578080   -3.278220
  C     -2.464810    1.213690   -3.629020
  C     -3.024140    1.175080   -4.923120
  N     -3.514250    1.211790   -5.960700
  C     -3.276840    1.956420   -2.751470
  N     -3.991630    2.570980   -2.094770
  C     -0.589440   -0.378480   -4.117100
  C      0.278980   -1.151990   -3.291980
  C      1.039620   -2.165510   -3.799550
  C      0.971520   -2.453110   -5.181410
  C      0.122150   -1.670160   -6.016020
  C     -0.656040   -0.628050   -5.462000
  C      0.066890   -1.963420   -7.393910
  C      0.808850   -2.984230   -7.922740
  C      1.642570   -3.756160   -7.099750
  C      1.722650   -3.495830   -5.758510
  C      0.192910   -0.665480   -1.904690
  O      0.741990   -1.104260   -0.922760
  C     -0.690000    0.541890   -1.966190
  C     -0.712010    1.387900   -0.906610
  C     -1.220010    2.719060   -0.821170
  C     -1.673620    3.218650    0.418710
  C     -2.303820    4.497520    0.532450
  N     -2.903840    4.844340    1.692440
  C     -2.769990    4.073670    2.716370
  C     -2.026130    2.859060    2.638140
  N     -1.544690    2.438540    1.517430
  F     -1.844460    2.105600    3.715260
  F     -3.386290    4.419230    3.840990
  C     -2.391910    5.388950   -0.558440
  C     -1.836840    4.945460   -1.769730
  C     -1.267990    3.621960   -1.901910
  N     -0.774350    3.419970   -3.126360
  S     -0.992650    4.742950   -4.006350
  N     -1.717260    5.644010   -2.901740
  C     -2.971710    6.682790   -0.328380
  N     -3.857980    7.345200   -1.124710
  C     -4.481860    6.875940   -2.342040
  C     -3.996640    7.664630   -3.553930
  C     -4.283880    8.553260   -0.530250
  O     -5.102940    9.293280   -1.031610
  C     -3.546370    8.623530    0.713580
  C     -2.752990    7.456250    0.808010
  C     -1.978730    7.531530    2.031170
  O     -1.128840    6.815030    2.512420
  N     -2.417650    8.729120    2.634280
  C     -1.860690    9.180060    3.886520
  C     -0.829570   10.287530    3.683710
  C     -3.344750    9.386540    1.864100
  C     -3.988920   10.588030    2.255150
  C     -4.897540   11.222900    1.473770
  C     -5.599360   12.386300    1.873490
  S     -5.426360   13.159760    3.452110
  C     -6.660080   14.290100    2.884270
  N     -7.050190   14.017620    1.668710
  N     -6.479300   12.993790    1.123470
  C     -7.197520   15.350080    3.656530
  C     -6.804320   15.617520    4.926150
  C     -7.315990   16.588050    5.830060
  C     -8.216800   17.605370    5.688900
  C     -8.651650   18.441650    6.804890
  C     -8.465000   18.196700    8.140180
  C     -8.933140   19.043130    9.169120
  N     -9.279200   19.683680   10.056470
  C     -7.826530   17.073350    8.709210
  N     -7.345220   16.192880    9.268330
  C     -9.406950   19.563550    6.263000
  C     -9.519480   19.390710    4.855690
  C     -8.827920   18.158470    4.447330
  O     -8.774810   17.724180    3.316720
  C    -10.192460   20.278970    4.066590
  C    -10.796570   21.407270    4.663170
  C    -10.683800   21.593100    6.071730
  C     -9.979270   20.655970    6.861290
  C    -11.290950   22.722730    6.657680
  C    -11.977860   23.624520    5.891420
  C    -12.087870   23.440410    4.504790
  C    -11.509660   22.355510    3.903560
  H      1.683220   -2.744390   -3.154010
  H     -1.282610   -0.046330   -6.119630
  H     -0.579380   -1.368960   -8.022890
  H      0.756460   -3.203620   -8.978590
  H      2.220620   -4.558160   -7.533720
  H      2.362560   -4.086970   -5.119990
  H     -0.273400    1.004210    0.009310
  H     -5.561030    7.020620   -2.228380
  H     -4.276450    5.811130   -2.453480
  H     -2.919460    7.570990   -3.656470
  H     -4.258710    8.712660   -3.437340
  H     -4.473700    7.282150   -4.451580
  H     -1.378470    8.306200    4.332950
  H     -2.665400    9.512660    4.547980
  H     -0.015510    9.926560    3.060060
  H     -0.422560   10.591070    4.644090
  H     -1.276010   11.154910    3.202250
  H     -3.754170   10.991840    3.231480
  H     -5.149460   10.847980    0.489900
  H     -7.959530   15.934090    3.160240
  H     -6.028900   14.988410    5.351870
  H     -6.898780   16.482020    6.824780
  H    -10.263700   20.119040    3.000970
  H     -9.908780   20.831010    7.922770
  H    -11.205080   22.859550    7.725630
  H    -12.441120   24.485250    6.349860
  H    -12.633010   24.162570    3.915680
  H    -11.590830   22.207970    2.836650

 Total Charge           Charge          ....    0
 Multiplicity           Mult            ....    1
 Number of Electrons    NEL             ....  542
 Basis Dimension        Dim             .... 1240

ORBITAL ENERGIES
----------------

  NO   OCC          E(Eh)            E(eV)
   0   2.0000     -89.048338     -2423.1285
   1   2.0000     -88.980243     -2421.2755
   2   2.0000     -24.816275      -675.2852
   3   2.0000     -24.812296      -675.1769
   4   2.0000     -19.223871      -523.1081
   5   2.0000     -19.215470      -522.8795
   6   2.0000     -19.198044      -522.4053
   7   2.0000     -19.197149      -522.3810
   8   2.0000     -14.460618      -393.4934
   9   2.0000     -14.458544      -393.4370
  10   2.0000     -14.457233      -393.4013
  11   2.0000     -14.454090      -393.3158
  12   2.0000     -14.453737      -393.3062
  13   2.0000     -14.450135      -393.2082
  14   2.0000     -14.447811      -393.1449
  15   2.0000     -14.445462      -393.0810
  16   2.0000     -14.422499      -392.4561
  17   2.0000     -14.419636      -392.3782
  18   2.0000     -14.418251      -392.3406
  19   2.0000     -14.417413      -392.3178
  20   2.0000     -10.433799      -283.9181
  21   2.0000     -10.428186      -283.7654
  22   2.0000     -10.380666      -282.4723
  23   2.0000     -10.378422      -282.4112
  24   2.0000     -10.374223      -282.2969
  25   2.0000     -10.365705      -282.0652
  26   2.0000     -10.352915      -281.7171
  27   2.0000     -10.351824      -281.6875
  28   2.0000     -10.350561      -281.6531
  29   2.0000     -10.350289      -281.6457
  30   2.0000     -10.349930      -281.6359
  31   2.0000     -10.348073      -281.5854
  32   2.0000     -10.347121      -281.5595
  33   2.0000     -10.346300      -281.5371
  34   2.0000     -10.344708      -281.4938
  35   2.0000     -10.344283      -281.4822
  36   2.0000     -10.343670      -281.4656
  37   2.0000     -10.341955      -281.4189
  38   2.0000     -10.326420      -280.9962
  39   2.0000     -10.325301      -280.9657
  40   2.0000     -10.322663      -280.8940
  41   2.0000     -10.322401      -280.8868
  42   2.0000     -10.321114      -280.8518
  43   2.0000     -10.320231      -280.8278
  44   2.0000     -10.317784      -280.7612
  45   2.0000     -10.315620      -280.7023
  46   2.0000     -10.315023      -280.6860
  47   2.0000     -10.309118      -280.5254
  48   2.0000     -10.308331      -280.5039
  49   2.0000     -10.306913      -280.4654
  50   2.0000     -10.305749      -280.4337
  51   2.0000     -10.305248      -280.4201
  52   2.0000     -10.304209      -280.3918
  53   2.0000     -10.303918      -280.3839
  54   2.0000     -10.301573      -280.3201
  55   2.0000     -10.300637      -280.2946
  56   2.0000     -10.299916      -280.2750
  57   2.0000     -10.299678      -280.2685
  58   2.0000     -10.299112      -280.2531
  59   2.0000     -10.298852      -280.2460
  60   2.0000     -10.298791      -280.2443
  61   2.0000     -10.298438      -280.2347
  62   2.0000     -10.297769      -280.2165
  63   2.0000     -10.297509      -280.2095
  64   2.0000     -10.290826      -280.0276
  65   2.0000     -10.289831      -280.0005
  66   2.0000     -10.288444      -279.9628
  67   2.0000     -10.287884      -279.9476
  68   2.0000     -10.287703      -279.9426
  69   2.0000     -10.287413      -279.9347
  70   2.0000     -10.287247      -279.9302
  71   2.0000     -10.287040      -279.9246
  72   2.0000     -10.286808      -279.9183
  73   2.0000     -10.286420      -279.9077
  74   2.0000     -10.270983      -279.4877
  75   2.0000     -10.270233      -279.4672
  76   2.0000     -10.269039      -279.4348
  77   2.0000     -10.243645      -278.7438
  78   2.0000      -8.139393      -221.4841
  79   2.0000      -8.076138      -219.7629
  80   2.0000      -6.110373      -166.2717
  81   2.0000      -6.102660      -166.0618
  82   2.0000      -6.102343      -166.0532
  83   2.0000      -6.044672      -164.4839
  84   2.0000      -6.041595      -164.4002
  85   2.0000      -6.038567      -164.3178
  86   2.0000      -1.343582       -36.5607
  87   2.0000      -1.328793       -36.1583
  88   2.0000      -1.152632       -31.3647
  89   2.0000      -1.145537       -31.1716
  90   2.0000      -1.140276       -31.0285
  91   2.0000      -1.139025       -30.9945
  92   2.0000      -1.133436       -30.8423
  93   2.0000      -1.131028       -30.7768
  94   2.0000      -1.113960       -30.3124
  95   2.0000      -1.071381       -29.1538
  96   2.0000      -1.062933       -28.9239
  97   2.0000      -1.038169       -28.2500
  98   2.0000      -1.023044       -27.8384
  99   2.0000      -1.021763       -27.8036
 100   2.0000      -1.001844       -27.2616
 101   2.0000      -1.001600       -27.2549
 102   2.0000      -1.000098       -27.2141
 103   2.0000      -0.996652       -27.1203
 104   2.0000      -0.996040       -27.1036
 105   2.0000      -0.979534       -26.6545
 106   2.0000      -0.974506       -26.5177
 107   2.0000      -0.970732       -26.4150
 108   2.0000      -0.957029       -26.0421
 109   2.0000      -0.944356       -25.6972
 110   2.0000      -0.932390       -25.3716
 111   2.0000      -0.927193       -25.2302
 112   2.0000      -0.925615       -25.1873
 113   2.0000      -0.913388       -24.8545
 114   2.0000      -0.909575       -24.7508
 115   2.0000      -0.895596       -24.3704
 116   2.0000      -0.889915       -24.2158
 117   2.0000      -0.887430       -24.1482
 118   2.0000      -0.886424       -24.1208
 119   2.0000      -0.882698       -24.0194
 120   2.0000      -0.882206       -24.0061
 121   2.0000      -0.872451       -23.7406
 122   2.0000      -0.857356       -23.3298
 123   2.0000      -0.847514       -23.0620
 124   2.0000      -0.830541       -22.6002
 125   2.0000      -0.829408       -22.5694
 126   2.0000      -0.822620       -22.3846
 127   2.0000      -0.819502       -22.2998
 128   2.0000      -0.813046       -22.1241
 129   2.0000      -0.805511       -21.9191
 130   2.0000      -0.797452       -21.6998
 131   2.0000      -0.784581       -21.3495
 132   2.0000      -0.767866       -20.8947
 133   2.0000      -0.765583       -20.8326
 134   2.0000      -0.761252       -20.7147
 135   2.0000      -0.759418       -20.6648
 136   2.0000      -0.753779       -20.5114
 137   2.0000      -0.750123       -20.4119
 138   2.0000      -0.727328       -19.7916
 139   2.0000      -0.721647       -19.6370
 140   2.0000      -0.711137       -19.3510
 141   2.0000      -0.707551       -19.2535
 142   2.0000      -0.707288       -19.2463
 143   2.0000      -0.702836       -19.1251
 144   2.0000      -0.701375       -19.0854
 145   2.0000      -0.698680       -19.0120
 146   2.0000      -0.688936       -18.7469
 147   2.0000      -0.684946       -18.6383
 148   2.0000      -0.678547       -18.4642
 149   2.0000      -0.677223       -18.4282
 150   2.0000      -0.675432       -18.3794
 151   2.0000      -0.668048       -18.1785
 152   2.0000      -0.664842       -18.0913
 153   2.0000      -0.662634       -18.0312
 154   2.0000      -0.653427       -17.7807
 155   2.0000      -0.649922       -17.6853
 156   2.0000      -0.638295       -17.3689
 157   2.0000      -0.636368       -17.3165
 158   2.0000      -0.633548       -17.2397
 159   2.0000      -0.624109       -16.9829
 160   2.0000      -0.618403       -16.8276
 161   2.0000      -0.616786       -16.7836
 162   2.0000      -0.613401       -16.6915
 163   2.0000      -0.608888       -16.5687
 164   2.0000      -0.608162       -16.5489
 165   2.0000      -0.603208       -16.4141
 166   2.0000      -0.595080       -16.1930
 167   2.0000      -0.590259       -16.0618
 168   2.0000      -0.589362       -16.0374
 169   2.0000      -0.586129       -15.9494
 170   2.0000      -0.580784       -15.8039
 171   2.0000      -0.574256       -15.6263
 172   2.0000      -0.573035       -15.5931
 173   2.0000      -0.569862       -15.5067
 174   2.0000      -0.563593       -15.3361
 175   2.0000      -0.559522       -15.2254
 176   2.0000      -0.555848       -15.1254
 177   2.0000      -0.554227       -15.0813
 178   2.0000      -0.551207       -14.9991
 179   2.0000      -0.549074       -14.9411
 180   2.0000      -0.548837       -14.9346
 181   2.0000      -0.548305       -14.9201
 182   2.0000      -0.547353       -14.8942
 183   2.0000      -0.542789       -14.7701
 184   2.0000      -0.540311       -14.7026
 185   2.0000      -0.540221       -14.7001
 186   2.0000      -0.538467       -14.6524
 187   2.0000      -0.533604       -14.5201
 188   2.0000      -0.530548       -14.4370
 189   2.0000      -0.528702       -14.3867
 190   2.0000      -0.524649       -14.2764
 191   2.0000      -0.522790       -14.2259
 192   2.0000      -0.521480       -14.1902
 193   2.0000      -0.518987       -14.1224
 194   2.0000      -0.517694       -14.0872
 195   2.0000      -0.516464       -14.0537
 196   2.0000      -0.514176       -13.9915
 197   2.0000      -0.513194       -13.9647
 198   2.0000      -0.512501       -13.9459
 199   2.0000      -0.509631       -13.8678
 200   2.0000      -0.507580       -13.8119
 201   2.0000      -0.505805       -13.7637
 202   2.0000      -0.503621       -13.7042
 203   2.0000      -0.502615       -13.6768
 204   2.0000      -0.498997       -13.5784
 205   2.0000      -0.496730       -13.5167
 206   2.0000      -0.495926       -13.4948
 207   2.0000      -0.491041       -13.3619
 208   2.0000      -0.489417       -13.3177
 209   2.0000      -0.486742       -13.2449
 210   2.0000      -0.484214       -13.1761
 211   2.0000      -0.478192       -13.0123
 212   2.0000      -0.475620       -12.9423
 213   2.0000      -0.470731       -12.8092
 214   2.0000      -0.467248       -12.7145
 215   2.0000      -0.466705       -12.6997
 216   2.0000      -0.464911       -12.6509
 217   2.0000      -0.460240       -12.5238
 218   2.0000      -0.459337       -12.4992
 219   2.0000      -0.456965       -12.4346
 220   2.0000      -0.455486       -12.3944
 221   2.0000      -0.452141       -12.3034
 222   2.0000      -0.451161       -12.2767
 223   2.0000      -0.449755       -12.2385
 224   2.0000      -0.446621       -12.1532
 225   2.0000      -0.445821       -12.1314
 226   2.0000      -0.442276       -12.0350
 227   2.0000      -0.442054       -12.0289
 228   2.0000      -0.440355       -11.9827
 229   2.0000      -0.439990       -11.9727
 230   2.0000      -0.436347       -11.8736
 231   2.0000      -0.436142       -11.8680
 232   2.0000      -0.435893       -11.8612
 233   2.0000      -0.432809       -11.7773
 234   2.0000      -0.431602       -11.7445
 235   2.0000      -0.429754       -11.6942
 236   2.0000      -0.428470       -11.6593
 237   2.0000      -0.426450       -11.6043
 238   2.0000      -0.421636       -11.4733
 239   2.0000      -0.421112       -11.4590
 240   2.0000      -0.417560       -11.3624
 241   2.0000      -0.413928       -11.2636
 242   2.0000      -0.412696       -11.2300
 243   2.0000      -0.409753       -11.1500
 244   2.0000      -0.408079       -11.1044
 245   2.0000      -0.406604       -11.0643
 246   2.0000      -0.403262       -10.9733
 247   2.0000      -0.396089       -10.7781
 248   2.0000      -0.395991       -10.7754
 249   2.0000      -0.389455       -10.5976
 250   2.0000      -0.381898       -10.3920
 251   2.0000      -0.380439       -10.3523
 252   2.0000      -0.376312       -10.2400
 253   2.0000      -0.373640       -10.1673
 254   2.0000      -0.368118       -10.0170
 255   2.0000      -0.353572        -9.6212
 256   2.0000      -0.351322        -9.5599
 257   2.0000      -0.344210        -9.3664
 258   2.0000      -0.341204        -9.2846
 259   2.0000      -0.338238        -9.2039
 260   2.0000      -0.336858        -9.1664
 261   2.0000      -0.334707        -9.1078
 262   2.0000      -0.328246        -8.9320
 263   2.0000      -0.320037        -8.7086
 264   2.0000      -0.318384        -8.6637
 265   2.0000      -0.315261        -8.5787
 266   2.0000      -0.302226        -8.2240
 267   2.0000      -0.299456        -8.1486
 268   2.0000      -0.294418        -8.0115
 269   2.0000      -0.290624        -7.9083
 270   2.0000      -0.245636        -6.6841
 271   0.0000      -0.127892        -3.4801
 272   0.0000      -0.108707        -2.9581
 273   0.0000      -0.078068        -2.1243
 274   0.0000      -0.073102        -1.9892
 275   0.0000      -0.060436        -1.6445

MULLIKEN ATOMIC CHARGES
-----------------------
   0 C :    0.343422
   1 C :   -0.349361
   2 C :   -0.192815
   3 N :    0.153253
   4 C :   -0.185143
   5 N :    0.153451
   6 C :    0.030117
   7 C :    0.015478
   8 C :   -0.081208
   9 C :    0.095620
  10 C :    0.096739
  11 C :   -0.084520
  12 C :   -0.018874
  13 C :    0.034757
  14 C :    0.035380
  15 C :   -0.015662
  16 C :    0.128920
  17 O :   -0.132317
  18 C :   -0.099233
  19 C :   -0.046950
  20 C :    0.108868
  21 C :   -0.044456
  22 C :   -0.047003
  23 N :    0.033216
  24 C :    0.149421
  25 C :    0.144631
  26 N :    0.019743
  27 F :   -0.130758
  28 F :   -0.136678
  29 C :    0.060692
  30 C :    0.067399
  31 C :   -0.076037
  32 N :   -0.278586
  33 S :    0.552052
  34 N :   -0.264742
  35 C :    0.024011
  36 N :   -0.243783
  37 C :    0.129488
  38 C :   -0.008552
  39 C :    0.169952
  40 O :   -0.193432
  41 C :   -0.080938
  42 C :    0.000988
  43 C :    0.140042
  44 O :   -0.196925
  45 N :   -0.261948
  46 C :    0.097883
  47 C :    0.006317
  48 C :    0.143539
  49 C :   -0.030148
  50 C :    0.066431
  51 C :   -0.079308
  52 S :    0.070835
  53 C :   -0.082455
  54 N :   -0.022846
  55 N :   -0.023101
  56 C :    0.088067
  57 C :   -0.019639
  58 C :   -0.002791
  59 C :   -0.060327
  60 C :    0.312311
  61 C :   -0.349668
  62 C :   -0.182651
  63 N :    0.148010
  64 C :   -0.197524
  65 N :    0.160017
  66 C :    0.046702
  67 C :    0.001305
  68 C :    0.161251
  69 O :   -0.150036
  70 C :   -0.080442
  71 C :    0.099745
  72 C :    0.097509
  73 C :   -0.083493
  74 C :   -0.021475
  75 C :    0.036859
  76 C :    0.037428
  77 C :   -0.016876
  78 H :   -0.010606
  79 H :   -0.007502
  80 H :   -0.010382
  81 H :   -0.003757
  82 H :   -0.004738
  83 H :   -0.015988
  84 H :    0.040461
  85 H :    0.030778
  86 H :    0.032389
  87 H :    0.019419
  88 H :    0.034227
  89 H :    0.011878
  90 H :    0.045707
  91 H :    0.024744
  92 H :    0.030623
  93 H :    0.025598
  94 H :    0.014720
  95 H :   -0.013039
  96 H :    0.041470
  97 H :    0.048274
  98 H :    0.004357
  99 H :    0.017940
 100 H :   -0.009317
 101 H :   -0.007111
 102 H :   -0.007235
 103 H :   -0.004087
 104 H :   -0.003241
 105 H :   -0.014726
Sum of atomic charges:   -0.0000000

LOEWDIN ATOMIC CHARGES
----------------------
   0 C :    0.081228
   1 C :   -0.139879
   2 C :   -0.019884
   3 N :   -0.054955
   4 C :   -0.011493
   5 N :   -0.064024
   6 C :   -0.020562
   7 C :   -0.056860
   8 C :    0.033420
   9 C :   -0.008708
  10 C :   -0.005214
  11 C :    0.015552
  12 C :   -0.006599
  13 C :   -0.012985
  14 C :   -0.012669
  15 C :   -0.008934
  16 C :    0.084520
  17 O :   -0.133583
  18 C :   -0.070690
  19 C :    0.074460
  20 C :   -0.037849
  21 C :    0.018471
  22 C :    0.012012
  23 N :   -0.018194
  24 C :    0.063520
  25 C :    0.072651
  26 N :   -0.042272
  27 F :   -0.020085
  28 F :   -0.024722
  29 C :   -0.017146
  30 C :   -0.038130
  31 C :   -0.040947
  32 N :   -0.284159
  33 S :    0.683754
  34 N :   -0.266459
  35 C :    0.081780
  36 N :    0.015987
  37 C :    0.043171
  38 C :   -0.066297
  39 C :    0.084451
  40 O :   -0.181005
  41 C :   -0.115147
  42 C :   -0.099307
  43 C :    0.083948
  44 O :   -0.195368
  45 N :   -0.000486
  46 C :    0.036507
  47 C :   -0.060384
  48 C :    0.080225
  49 C :   -0.035756
  50 C :    0.011721
  51 C :   -0.138838
  52 S :    0.379095
  53 C :   -0.146611
  54 N :   -0.050198
  55 N :   -0.056031
  56 C :    0.026149
  57 C :   -0.042237
  58 C :    0.061969
  59 C :   -0.077182
  60 C :    0.075988
  61 C :   -0.135546
  62 C :   -0.016128
  63 N :   -0.050960
  64 C :   -0.025633
  65 N :   -0.048437
  66 C :   -0.027353
  67 C :   -0.056035
  68 C :    0.088332
  69 O :   -0.131080
  70 C :    0.034341
  71 C :   -0.007687
  72 C :   -0.005584
  73 C :    0.020161
  74 C :   -0.005235
  75 C :   -0.012232
  76 C :   -0.011025
  77 C :   -0.008880
  78 H :    0.039765
  79 H :    0.038076
  80 H :    0.034193
  81 H :    0.033397
  82 H :    0.032924
  83 H :    0.032221
  84 H :    0.052350
  85 H :    0.033414
  86 H :    0.027596
  87 H :    0.015627
  88 H :    0.028182
  89 H :    0.026683
  90 H :    0.038944
  91 H :    0.023369
  92 H :    0.033072
  93 H :    0.031772
  94 H :    0.021555
  95 H :    0.024585
  96 H :    0.053383
  97 H :    0.048088
  98 H :    0.028120
  99 H :    0.048436
 100 H :    0.040163
 101 H :    0.039225
 102 H :    0.035257
 103 H :    0.033615
 104 H :    0.033456
 105 H :    0.032785

  Mayer bond orders larger than 0.100000
B(  0-C ,  1-C ) :   1.6312 B(  0-C ,  6-C ) :   1.0127 B(  0-C , 18-C ) :   1.0279
B(  1-C ,  2-C ) :   1.1413 B(  1-C ,  4-C ) :   1.1779 B(  2-C ,  3-N ) :   2.9826
B(  4-C ,  5-N ) :   2.9681 B(  6-C ,  7-C ) :   1.2115 B(  6-C , 11-C ) :   1.4521
B(  7-C ,  8-C ) :   1.4733 B(  7-C , 16-C ) :   0.9214 B(  8-C ,  9-C ) :   1.1849
B(  8-C , 78-H ) :   1.0162 B(  9-C , 10-C ) :   1.2563 B(  9-C , 15-C ) :   1.2439
B( 10-C , 11-C ) :   1.2063 B( 10-C , 12-C ) :   1.2401 B( 11-C , 79-H ) :   0.9923
B( 12-C , 13-C ) :   1.4910 B( 12-C , 80-H ) :   0.9975 B( 13-C , 14-C ) :   1.2593
B( 13-C , 81-H ) :   0.9883 B( 14-C , 15-C ) :   1.4897 B( 14-C , 82-H ) :   0.9890
B( 15-C , 83-H ) :   0.9981 B( 16-C , 17-O ) :   2.2787 B( 16-C , 18-C ) :   0.9288
B( 18-C , 19-C ) :   1.6628 B( 19-C , 20-C ) :   1.0993 B( 19-C , 84-H ) :   0.9361
B( 20-C , 21-C ) :   1.3104 B( 20-C , 29-C ) :   0.1430 B( 20-C , 31-C ) :   1.1803
B( 21-C , 22-C ) :   1.1183 B( 21-C , 26-N ) :   1.4443 B( 22-C , 23-N ) :   1.4220
B( 22-C , 29-C ) :   1.3607 B( 23-N , 24-C ) :   1.6808 B( 24-C , 25-C ) :   1.0809
B( 24-C , 28-F ) :   1.1816 B( 25-C , 26-N ) :   1.6974 B( 25-C , 27-F ) :   1.1878
B( 29-C , 30-C ) :   1.2373 B( 29-C , 35-C ) :   1.0018 B( 30-C , 31-C ) :   1.0908
B( 30-C , 34-N ) :   1.5117 B( 31-C , 32-N ) :   1.5196 B( 32-N , 33-S ) :   1.2724
B( 32-N , 34-N ) :   0.1466 B( 33-S , 34-N ) :   1.2869 B( 35-C , 36-N ) :   1.2574
B( 35-C , 42-C ) :   1.3961 B( 36-N , 37-C ) :   0.9293 B( 36-N , 39-C ) :   1.0401
B( 37-C , 38-C ) :   1.1090 B( 37-C , 85-H ) :   0.9389 B( 37-C , 86-H ) :   0.9476
B( 38-C , 87-H ) :   0.9598 B( 38-C , 88-H ) :   0.9642 B( 38-C , 89-H ) :   0.9658
B( 39-C , 40-O ) :   2.0380 B( 39-C , 41-C ) :   0.9836 B( 41-C , 42-C ) :   1.2555
B( 41-C , 48-C ) :   1.3410 B( 42-C , 43-C ) :   0.9524 B( 43-C , 44-O ) :   2.1293
B( 43-C , 45-N ) :   1.0359 B( 45-N , 46-C ) :   0.9455 B( 45-N , 48-C ) :   1.1695
B( 46-C , 47-C ) :   1.1201 B( 46-C , 90-H ) :   0.9273 B( 46-C , 91-H ) :   0.9495
B( 47-C , 92-H ) :   0.9636 B( 47-C , 93-H ) :   0.9679 B( 47-C , 94-H ) :   0.9683
B( 48-C , 49-C ) :   1.1613 B( 49-C , 50-C ) :   1.5754 B( 49-C , 95-H ) :   0.9598
B( 50-C , 51-C ) :   1.1275 B( 50-C , 96-H ) :   0.9579 B( 51-C , 52-S ) :   1.0877
B( 51-C , 55-N ) :   1.6458 B( 52-S , 53-C ) :   1.0772 B( 53-C , 54-N ) :   1.6508
B( 53-C , 56-C ) :   1.1309 B( 54-N , 55-N ) :   1.2481 B( 56-C , 57-C ) :   1.6039
B( 56-C , 97-H ) :   0.9466 B( 57-C , 58-C ) :   1.2196 B( 57-C , 98-H ) :   0.9613
B( 58-C , 59-C ) :   1.5985 B( 58-C , 99-H ) :   0.9359 B( 59-C , 60-C ) :   1.0665
B( 59-C , 68-C ) :   0.9272 B( 60-C , 61-C ) :   1.6281 B( 60-C , 66-C ) :   0.9886
B( 61-C , 62-C ) :   1.1490 B( 61-C , 64-C ) :   1.1366 B( 62-C , 63-N ) :   2.9640
B( 64-C , 65-N ) :   2.9847 B( 66-C , 67-C ) :   1.2151 B( 66-C , 73-C ) :   1.4428
B( 67-C , 68-C ) :   0.9586 B( 67-C , 70-C ) :   1.4677 B( 68-C , 69-O ) :   2.1646
B( 70-C , 71-C ) :   1.1792 B( 70-C ,100-H ) :   1.0168 B( 71-C , 72-C ) :   1.2540
B( 71-C , 77-C ) :   1.2433 B( 72-C , 73-C ) :   1.2101 B( 72-C , 74-C ) :   1.2383
B( 73-C ,101-H ) :   0.9905 B( 74-C , 75-C ) :   1.4907 B( 74-C ,102-H ) :   0.9976
B( 75-C , 76-C ) :   1.2589 B( 75-C ,103-H ) :   0.9881 B( 76-C , 77-C ) :   1.4890
B( 76-C ,104-H ) :   0.9888 B( 77-C ,105-H ) :   0.9980

-----------------------------------------------------------------------------
         ABSORPTION SPECTRUM VIA TRANSITION ELECTRIC DIPOLE MOMENTS
-----------------------------------------------------------------------------
State   Energy  Wavelength   fosc         T2         TX        TY        TZ
        (cm-1)    (nm)                  (au**2)     (au)      (au)      (au)
-----------------------------------------------------------------------------
   0    9822.0   1018.1   0.620152945  20.78622   1.24110  -3.89730  -2.01419
   1   16690.4    599.1   0.497230778   9.80770  -1.11525   2.42528   1.63766
   2   20165.4    495.9   0.135084901   2.20534  -0.08072   1.25135   0.79558
   3   21515.1    464.8   0.262999065   4.02426  -0.59679   1.65788   0.95893
   4   22627.7    441.9   0.095387192   1.38780   0.61952  -0.83228  -0.55794
   5   22841.1    437.8   0.019947169   0.28750  -0.04670   0.17201   0.50570
   6   23142.7    432.1   0.226369882   3.22018  -1.10492   1.20899   0.73327
   7   23610.3    423.5   0.125166089   1.74526   0.25687  -0.93026  -0.90217
   8   24138.4    414.3   0.002913911   0.03974   0.09128  -0.08321  -0.15648
   9   24998.4    400.0   0.434005979   5.71555  -1.20835   2.00505   0.48497
  10   25109.9    398.2   0.007929016   0.10396  -0.09568   0.14562  -0.27128
  11   25793.4    387.7   0.000594246   0.00758  -0.07567  -0.00660  -0.04260
  12   26271.9    380.6   0.050740897   0.63583   0.43826  -0.66552  -0.02895
  13   26648.9    375.2   0.003755076   0.04639  -0.03213   0.20992   0.03594
  14   27854.6    359.0   0.183530847   2.16914   0.27414  -0.67646  -1.27922
  15   28001.2    357.1   0.022125945   0.26014   0.20132  -0.43524   0.17370
  16   28744.2    347.9   0.223478336   2.55954   0.56058   0.20142  -1.48483
  17   28798.9    347.2   0.007122470   0.08142   0.02606   0.22842  -0.16901
  18   29155.6    343.0   0.057910256   0.65390  -0.28663   0.22424   0.72212
  19   29474.8    339.3   0.012185813   0.13611   0.26684  -0.21550   0.13589
  20   29607.5    337.8   0.051770328   0.57565   0.09094  -0.67276   0.33878
  21   29951.7    333.9   0.120332208   1.32262   0.68654  -0.89638   0.21859
  22   30143.7    331.7   0.165629722   1.80891   0.70133  -0.80578   0.81717
  23   30536.3    327.5   0.056354289   0.60756   0.09845   0.09729   0.76707
  24   30722.6    325.5   0.002677125   0.02869  -0.05439  -0.01758   0.15943
  25   31086.4    321.7   0.037954826   0.40195  -0.45958   0.38753   0.20137
  26   31342.8    319.1   0.041025053   0.43091   0.21251  -0.05192  -0.61891
  27   31403.7    318.4   0.342612789   3.59169  -1.03004   1.31205   0.89958
  28   32054.4    312.0   0.003270713   0.03359   0.10080   0.13070   0.07968
  29   32103.1    311.5   0.289555720   2.96934  -0.62206   1.31476  -0.92401
  30   32319.2    309.4   0.005476456   0.05578   0.22208  -0.07095   0.03785
  31   32954.5    303.4   0.313153060   3.12837  -1.13743   1.19879  -0.63051
  32   33195.3    301.2   0.007220099   0.07160   0.07777   0.03132   0.25412
  33   33281.6    300.5   0.007206607   0.07129   0.03114  -0.24525  -0.10085
  34   33657.1    297.1   0.046461768   0.45446  -0.54111   0.39999  -0.04076
  35   33692.5    296.8   0.069518046   0.67927  -0.07013  -0.50561  -0.64708
  36   33944.9    294.6   0.015238409   0.14779   0.37983   0.00421   0.05918
  37   34059.9    293.6   0.001505704   0.01455  -0.07229   0.09648  -0.00429
  38   34305.6    291.5   0.049676304   0.47672  -0.38698   0.28439   0.49607
  39   35021.9    285.5   0.001907674   0.01793  -0.11489   0.04209   0.05442
  40   35825.4    279.1   0.249974020   2.29710   1.13462  -0.72980  -0.69075
  41   35905.0    278.5   0.266286592   2.44158   0.91268  -1.24536   0.24017
  42   36125.4    276.8   0.009954112   0.09071  -0.03084   0.29919  -0.01575
  43   36219.1    276.1   0.020828711   0.18932   0.09186   0.01193   0.42514
  44   36497.6    274.0   0.192040540   1.73223  -0.60024   0.98990  -0.62612
  45   36705.7    272.4   0.185354490   1.66244   0.85043  -0.88357  -0.39813
  46   36771.2    272.0   0.084275610   0.75452  -0.49329   0.63498   0.32861
  47   36908.3    270.9   0.010084099   0.08995  -0.01390   0.11595  -0.27624
  48   37143.2    269.2   0.056167357   0.49783   0.38394  -0.30514  -0.50726
  49   37714.1    265.2   0.000467524   0.00408   0.05551   0.02521  -0.01908
  50   37810.4    264.5   0.031448292   0.27382  -0.24167  -0.14144  -0.44205
  51   37898.5    263.9   0.036455762   0.31668  -0.47998   0.23623   0.17461
  52   38224.5    261.6   0.015445577   0.13303   0.24922  -0.25897   0.06201
  53   38625.6    258.9   0.042307712   0.36060  -0.22280   0.14322   0.53893
  54   38817.5    257.6   0.045955388   0.38975   0.17361  -0.17143   0.57465
  55   38907.5    257.0   0.081356596   0.68839  -0.03072   0.22700   0.79744
  56   39045.7    256.1   0.034331759   0.28947  -0.14881   0.05347  -0.51426
  57   39201.4    255.1   0.081243070   0.68228   0.11711  -0.31019  -0.75653
  58   39335.1    254.2   0.022105100   0.18501  -0.01553   0.06577   0.42478
  59   39463.3    253.4   0.045415168   0.37886   0.29781  -0.37757   0.38421
  60   39779.6    251.4   0.012562611   0.10397  -0.01677  -0.24610  -0.20765
  61   40030.5    249.8   0.007836616   0.06445  -0.13803  -0.04497   0.20827
  62   40062.4    249.6   0.035945385   0.29538  -0.00692  -0.06961   0.53897
  63   40136.7    249.1   0.008846688   0.07256   0.16728   0.17650  -0.11588
  64   40248.4    248.5   0.239990568   1.96300   0.06450  -0.21396   1.38314

FINAL SINGLE POINT ENERGY     -4176.476563166315

DIPOLE MOMENT
-------------
                                X             Y             Z
Electronic contribution:      8.25454     -40.95446      13.74089
Nuclear contribution   :     -6.57706      41.51406     -15.54361
                        -----------------------------------------
Total Dipole Moment    :      1.67747       0.55960      -1.80272
                        -----------------------------------------
Magnitude (a.u.)       :      2.52525
Magnitude (Debye)      :      6.41867

Rotational constants in cm-1:     0.002738     0.000183     0.000174
Rotational constants in MHz :    82.095368     5.473764     5.228199

                             ****ORCA TERMINATED NORMALLY****
TOTAL RUN TIME: 0 days 0 hours 12 minutes 44 seconds 710 msec
