                         Program Version 4.2.0 -  RELEASE  -
|  1> # ORCA input file
|  2> # SCF done       -210.664236848739          0.000984050809
|  3> ! CAM-B3LYP def2-SVP def2/J RIJCOSX Grid4 TightSCF
|  4> %maxcore 5000
|  5> %tddft
|  6>     Mode sTDDFT
|  7>     Ethresh 5.0
|  8>     maxcore 5000
|  9> end
| 10>
| 11> %pal
| 12>   nprocs 6
| 13>   end
| 14> * xyz 0 1
| 15>    C       -2.44979         8.57531        -3.15765
| 16>    C       -3.29941         7.58073        -3.54960
| 17>    C       -4.62976         7.80256        -3.96285
| 18>    N       -5.71890         7.92293        -4.30420
| 19>    C       -2.91798         6.23180        -3.69192
| 20>    N       -2.65238         5.13175        -3.88515
| 21>    C       -2.69907        10.00453        -3.24723
| 22>    C       -1.45267        10.69608        -3.17714
| 23>    C       -1.38096        12.05562        -3.28418
| 24>    C       -2.56995        12.79625        -3.46755
| 25>    C       -3.81954        12.11191        -3.52136
| 26>    C       -3.86508        10.70455        -3.40537
| 27>    C       -4.99846        12.86406        -3.70218
| 28>    C       -4.94858        14.22556        -3.82639
| 29>    C       -3.71837        14.89819        -3.77373
| 30>    C       -2.55513        14.19911        -3.59808
| 31>    C       -0.36868         9.72586        -2.97235
| 32>    O        0.82579         9.91069        -2.94926
| 33>    C       -1.05928         8.41675        -2.76202
| 34>    C       -0.41832         7.41787        -2.13325
| 35>    C       -0.97021         6.17802        -1.61442
| 36>    C       -2.10297         6.16913        -0.79970
| 37>    C       -2.94647         7.27572        -0.29694
| 38>    O       -2.86420         8.45779        -0.50250
| 39>    O       -3.91097         6.74494         0.48568
| 40>    C       -3.80040         5.33337         0.56640
| 41>    C       -2.60993         4.98802        -0.26617
| 42>    C       -2.01392         3.76992        -0.53408
| 43>    C       -0.89879         3.76013        -1.34831
| 44>    C       -0.36306         4.93266        -1.89866
| 45>    C        0.77005         4.91223        -2.79238
| 46>    C        1.27685         3.82934        -3.41597
| 47>    C        2.37559         3.80579        -4.32335
| 48>    N        3.36539         4.74988        -4.50862
| 49>    C        3.67575         5.89203        -3.67940
| 50>    C        3.12700         7.20152        -4.24357
| 51>    C        4.24219         4.38292        -5.55327
| 52>    O        5.16956         5.08285        -5.91335
| 53>    C        3.75878         3.09871        -5.99524
| 54>    C        2.61584         2.77856        -5.22234
| 55>    C        2.10141         1.51397        -5.69694
| 56>    O        1.17629         0.82444        -5.32549
| 57>    N        2.96141         1.16312        -6.76399
| 58>    C        2.81303        -0.12443        -7.40287
| 59>    C        3.97201        -1.06198        -7.08422
| 60>    C        3.94722         2.09931        -6.94347
| 61>    C        4.98289         2.16037        -7.92323
| 62>    C        5.00974         1.57034        -9.13287
| 63>    C        6.06572         1.71955       -10.11092
| 64>    C        6.36543         0.60319       -10.90475
| 65>    C        5.69142        -0.71238       -10.98579
| 66>    O        4.72333        -1.11369       -10.39961
| 67>    O        6.35312        -1.46719       -11.89340
| 68>    C        7.45627        -0.77023       -12.44603
| 69>    C        7.43788         0.57037       -11.78766
| 70>    C        8.27833         1.65933       -11.91840
| 71>    C        7.97359         2.78800       -11.18183
| 72>    C        6.86921         2.86932       -10.31788
| 73>    C        6.60853         4.18068        -9.76177
| 74>    C        5.41186         4.70050        -9.40987
| 75>    C        5.30622         6.02109        -8.90490
| 76>    C        4.18100         6.54987        -8.34774
| 77>    C        4.00351         7.91768        -7.89212
| 78>    C        4.94951         8.90799        -7.86374
| 79>    C        4.71068        10.21830        -7.39667
| 80>    N        4.59090        11.30038        -7.03237
| 81>    C        6.28838         8.78623        -8.29134
| 82>    N        7.38602         8.78833        -8.62931
| 83>    C        2.61454         8.06672        -7.46861
| 84>    C        1.97066         6.79958        -7.56208
| 85>    C        2.92236         5.80514        -8.09062
| 86>    O        2.70702         4.62208        -8.26243
| 87>    C        0.65423         6.63468        -7.23865
| 88>    C       -0.10867         7.76381        -6.86153
| 89>    C        0.52565         9.03679        -6.77806
| 90>    C        1.90419         9.16559        -7.06219
| 91>    C       -0.25530        10.16678        -6.46104
| 92>    C       -1.60710        10.05495        -6.28343
| 93>    C       -2.23193         8.80154        -6.37098
| 94>    C       -1.49588         7.67663        -6.62924
| 95>    H       -0.42833        12.56123        -3.23056
| 96>    H       -4.82429        10.21204        -3.43360
| 97>    H       -5.94253        12.34126        -3.74401
| 98>    H       -5.85690        14.79232        -3.96634
| 99>    H       -3.69754        15.97314        -3.87283
|100>    H       -1.60567        14.71213        -3.55554
|101>    H        0.63730         7.59374        -1.94589
|102>    H       -4.72458         4.88512         0.18455
|103>    H       -3.68326         5.04916         1.61798
|104>    H       -2.41007         2.85434        -0.12436
|105>    H       -0.41973         2.81919        -1.56573
|106>    H        1.18683         5.88024        -3.01513
|107>    H        0.79515         2.86559        -3.32368
|108>    H        4.76808         5.96241        -3.64299
|109>    H        3.30630         5.70050        -2.66953
|110>    H        3.69699         7.48110        -5.12448
|111>    H        3.21605         7.99874        -3.51044
|112>    H        2.08159         7.10843        -4.53305
|113>    H        2.70024        -0.00798        -8.48241
|114>    H        1.88158        -0.53795        -7.00401
|115>    H        4.91580        -0.64252        -7.42295
|116>    H        3.81874        -2.00771        -7.59462
|117>    H        4.03013        -1.24127        -6.01289
|118>    H        5.77149         2.84856        -7.64622
|119>    H        4.24855         0.85956        -9.41474
|120>    H        7.32742        -0.70947       -13.53254
|121>    H        8.37231        -1.33344       -12.23545
|122>    H        9.13172         1.63666       -12.57725
|123>    H        8.59494         3.66451       -11.29395
|124>    H        7.47669         4.82778        -9.69792
|125>    H        4.50662         4.11885        -9.47897
|126>    H        6.19767         6.63167        -8.96161
|127>    H        0.18883         5.66217        -7.30471
|128>    H        2.35534        10.14109        -6.97887
|129>    H        0.23220        11.12751        -6.38803
|130>    H       -2.20524        10.93155        -6.08263
|131>    H       -3.30286         8.73566        -6.24365
|132>    H       -1.97103         6.70796        -6.68721
|133> *
|134>
|135>                          ****END OF INPUT****

CARTESIAN COORDINATES (ANGSTROEM)
---------------------------------
  C     -2.449790    8.575310   -3.157650
  C     -3.299410    7.580730   -3.549600
  C     -4.629760    7.802560   -3.962850
  N     -5.718900    7.922930   -4.304200
  C     -2.917980    6.231800   -3.691920
  N     -2.652380    5.131750   -3.885150
  C     -2.699070   10.004530   -3.247230
  C     -1.452670   10.696080   -3.177140
  C     -1.380960   12.055620   -3.284180
  C     -2.569950   12.796250   -3.467550
  C     -3.819540   12.111910   -3.521360
  C     -3.865080   10.704550   -3.405370
  C     -4.998460   12.864060   -3.702180
  C     -4.948580   14.225560   -3.826390
  C     -3.718370   14.898190   -3.773730
  C     -2.555130   14.199110   -3.598080
  C     -0.368680    9.725860   -2.972350
  O      0.825790    9.910690   -2.949260
  C     -1.059280    8.416750   -2.762020
  C     -0.418320    7.417870   -2.133250
  C     -0.970210    6.178020   -1.614420
  C     -2.102970    6.169130   -0.799700
  C     -2.946470    7.275720   -0.296940
  O     -2.864200    8.457790   -0.502500
  O     -3.910970    6.744940    0.485680
  C     -3.800400    5.333370    0.566400
  C     -2.609930    4.988020   -0.266170
  C     -2.013920    3.769920   -0.534080
  C     -0.898790    3.760130   -1.348310
  C     -0.363060    4.932660   -1.898660
  C      0.770050    4.912230   -2.792380
  C      1.276850    3.829340   -3.415970
  C      2.375590    3.805790   -4.323350
  N      3.365390    4.749880   -4.508620
  C      3.675750    5.892030   -3.679400
  C      3.127000    7.201520   -4.243570
  C      4.242190    4.382920   -5.553270
  O      5.169560    5.082850   -5.913350
  C      3.758780    3.098710   -5.995240
  C      2.615840    2.778560   -5.222340
  C      2.101410    1.513970   -5.696940
  O      1.176290    0.824440   -5.325490
  N      2.961410    1.163120   -6.763990
  C      2.813030   -0.124430   -7.402870
  C      3.972010   -1.061980   -7.084220
  C      3.947220    2.099310   -6.943470
  C      4.982890    2.160370   -7.923230
  C      5.009740    1.570340   -9.132870
  C      6.065720    1.719550  -10.110920
  C      6.365430    0.603190  -10.904750
  C      5.691420   -0.712380  -10.985790
  O      4.723330   -1.113690  -10.399610
  O      6.353120   -1.467190  -11.893400
  C      7.456270   -0.770230  -12.446030
  C      7.437880    0.570370  -11.787660
  C      8.278330    1.659330  -11.918400
  C      7.973590    2.788000  -11.181830
  C      6.869210    2.869320  -10.317880
  C      6.608530    4.180680   -9.761770
  C      5.411860    4.700500   -9.409870
  C      5.306220    6.021090   -8.904900
  C      4.181000    6.549870   -8.347740
  C      4.003510    7.917680   -7.892120
  C      4.949510    8.907990   -7.863740
  C      4.710680   10.218300   -7.396670
  N      4.590900   11.300380   -7.032370
  C      6.288380    8.786230   -8.291340
  N      7.386020    8.788330   -8.629310
  C      2.614540    8.066720   -7.468610
  C      1.970660    6.799580   -7.562080
  C      2.922360    5.805140   -8.090620
  O      2.707020    4.622080   -8.262430
  C      0.654230    6.634680   -7.238650
  C     -0.108670    7.763810   -6.861530
  C      0.525650    9.036790   -6.778060
  C      1.904190    9.165590   -7.062190
  C     -0.255300   10.166780   -6.461040
  C     -1.607100   10.054950   -6.283430
  C     -2.231930    8.801540   -6.370980
  C     -1.495880    7.676630   -6.629240
  H     -0.428330   12.561230   -3.230560
  H     -4.824290   10.212040   -3.433600
  H     -5.942530   12.341260   -3.744010
  H     -5.856900   14.792320   -3.966340
  H     -3.697540   15.973140   -3.872830
  H     -1.605670   14.712130   -3.555540
  H      0.637300    7.593740   -1.945890
  H     -4.724580    4.885120    0.184550
  H     -3.683260    5.049160    1.617980
  H     -2.410070    2.854340   -0.124360
  H     -0.419730    2.819190   -1.565730
  H      1.186830    5.880240   -3.015130
  H      0.795150    2.865590   -3.323680
  H      4.768080    5.962410   -3.642990
  H      3.306300    5.700500   -2.669530
  H      3.696990    7.481100   -5.124480
  H      3.216050    7.998740   -3.510440
  H      2.081590    7.108430   -4.533050
  H      2.700240   -0.007980   -8.482410
  H      1.881580   -0.537950   -7.004010
  H      4.915800   -0.642520   -7.422950
  H      3.818740   -2.007710   -7.594620
  H      4.030130   -1.241270   -6.012890
  H      5.771490    2.848560   -7.646220
  H      4.248550    0.859560   -9.414740
  H      7.327420   -0.709470  -13.532540
  H      8.372310   -1.333440  -12.235450
  H      9.131720    1.636660  -12.577250
  H      8.594940    3.664510  -11.293950
  H      7.476690    4.827780   -9.697920
  H      4.506620    4.118850   -9.478970
  H      6.197670    6.631670   -8.961610
  H      0.188830    5.662170   -7.304710
  H      2.355340   10.141090   -6.978870
  H      0.232200   11.127510   -6.388030
  H     -2.205240   10.931550   -6.082630
  H     -3.302860    8.735660   -6.243650
  H     -1.971030    6.707960   -6.687210

 Total Charge           Charge          ....    0
 Multiplicity           Mult            ....    1
 Number of Electrons    NEL             ....  540
 Basis Dimension        Dim             .... 1310

ORBITAL ENERGIES
----------------

  NO   OCC          E(Eh)            E(eV)
   0   2.0000     -19.267494      -524.2952
   1   2.0000     -19.266616      -524.2713
   2   2.0000     -19.219156      -522.9798
   3   2.0000     -19.210672      -522.7490
   4   2.0000     -19.207937      -522.6745
   5   2.0000     -19.207039      -522.6501
   6   2.0000     -19.186111      -522.0806
   7   2.0000     -19.183485      -522.0092
   8   2.0000     -14.447163      -393.1273
   9   2.0000     -14.444152      -393.0454
  10   2.0000     -14.419397      -392.3717
  11   2.0000     -14.416299      -392.2875
  12   2.0000     -14.408836      -392.0843
  13   2.0000     -14.406981      -392.0339
  14   2.0000     -10.408157      -283.2204
  15   2.0000     -10.407639      -283.2062
  16   2.0000     -10.367968      -282.1267
  17   2.0000     -10.366988      -282.1001
  18   2.0000     -10.366243      -282.0798
  19   2.0000     -10.358919      -281.8805
  20   2.0000     -10.351191      -281.6702
  21   2.0000     -10.349576      -281.6263
  22   2.0000     -10.343083      -281.4496
  23   2.0000     -10.342453      -281.4325
  24   2.0000     -10.333372      -281.1853
  25   2.0000     -10.332703      -281.1672
  26   2.0000     -10.332150      -281.1521
  27   2.0000     -10.331656      -281.1386
  28   2.0000     -10.321425      -280.8603
  29   2.0000     -10.319060      -280.7959
  30   2.0000     -10.316186      -280.7177
  31   2.0000     -10.314524      -280.6725
  32   2.0000     -10.313869      -280.6546
  33   2.0000     -10.311936      -280.6020
  34   2.0000     -10.310084      -280.5517
  35   2.0000     -10.308205      -280.5005
  36   2.0000     -10.306161      -280.4449
  37   2.0000     -10.305939      -280.4389
  38   2.0000     -10.303634      -280.3761
  39   2.0000     -10.303448      -280.3711
  40   2.0000     -10.303152      -280.3630
  41   2.0000     -10.302212      -280.3374
  42   2.0000     -10.302080      -280.3338
  43   2.0000     -10.302029      -280.3325
  44   2.0000     -10.299893      -280.2743
  45   2.0000     -10.299392      -280.2607
  46   2.0000     -10.299370      -280.2601
  47   2.0000     -10.299126      -280.2535
  48   2.0000     -10.299036      -280.2510
  49   2.0000     -10.298171      -280.2275
  50   2.0000     -10.297661      -280.2136
  51   2.0000     -10.297594      -280.2118
  52   2.0000     -10.297228      -280.2018
  53   2.0000     -10.297199      -280.2010
  54   2.0000     -10.294970      -280.1404
  55   2.0000     -10.292500      -280.0732
  56   2.0000     -10.291666      -280.0505
  57   2.0000     -10.291532      -280.0468
  58   2.0000     -10.291289      -280.0402
  59   2.0000     -10.290893      -280.0294
  60   2.0000     -10.290586      -280.0211
  61   2.0000     -10.289547      -279.9928
  62   2.0000     -10.289157      -279.9822
  63   2.0000     -10.288213      -279.9565
  64   2.0000     -10.287940      -279.9491
  65   2.0000     -10.287495      -279.9370
  66   2.0000     -10.287481      -279.9366
  67   2.0000     -10.287043      -279.9247
  68   2.0000     -10.286837      -279.9191
  69   2.0000     -10.286341      -279.9056
  70   2.0000     -10.281042      -279.7614
  71   2.0000     -10.280722      -279.7527
  72   2.0000     -10.280432      -279.7448
  73   2.0000     -10.279833      -279.7285
  74   2.0000     -10.279590      -279.7219
  75   2.0000     -10.278980      -279.7053
  76   2.0000     -10.254000      -279.0255
  77   2.0000     -10.252779      -278.9923
  78   2.0000     -10.252268      -278.9784
  79   2.0000     -10.245803      -278.8025
  80   2.0000      -1.202685       -32.7267
  81   2.0000      -1.202044       -32.7093
  82   2.0000      -1.133036       -30.8315
  83   2.0000      -1.126932       -30.6654
  84   2.0000      -1.122902       -30.5557
  85   2.0000      -1.119011       -30.4498
  86   2.0000      -1.113544       -30.3011
  87   2.0000      -1.113050       -30.2876
  88   2.0000      -1.055073       -28.7100
  89   2.0000      -1.045736       -28.4559
  90   2.0000      -1.021073       -27.7848
  91   2.0000      -1.010234       -27.4899
  92   2.0000      -1.000033       -27.2123
  93   2.0000      -0.998247       -27.1637
  94   2.0000      -0.991167       -26.9710
  95   2.0000      -0.989459       -26.9246
  96   2.0000      -0.987494       -26.8711
  97   2.0000      -0.986256       -26.8374
  98   2.0000      -0.971975       -26.4488
  99   2.0000      -0.964320       -26.2405
 100   2.0000      -0.928664       -25.2702
 101   2.0000      -0.926924       -25.2229
 102   2.0000      -0.921304       -25.0700
 103   2.0000      -0.919030       -25.0081
 104   2.0000      -0.916277       -24.9332
 105   2.0000      -0.908249       -24.7147
 106   2.0000      -0.907326       -24.6896
 107   2.0000      -0.892926       -24.2977
 108   2.0000      -0.886786       -24.1307
 109   2.0000      -0.882047       -24.0017
 110   2.0000      -0.876377       -23.8474
 111   2.0000      -0.876022       -23.8378
 112   2.0000      -0.872909       -23.7531
 113   2.0000      -0.865768       -23.5587
 114   2.0000      -0.857620       -23.3370
 115   2.0000      -0.849557       -23.1176
 116   2.0000      -0.839913       -22.8552
 117   2.0000      -0.829492       -22.5716
 118   2.0000      -0.825933       -22.4748
 119   2.0000      -0.821639       -22.3579
 120   2.0000      -0.818491       -22.2723
 121   2.0000      -0.809815       -22.0362
 122   2.0000      -0.803584       -21.8666
 123   2.0000      -0.794734       -21.6258
 124   2.0000      -0.780802       -21.2467
 125   2.0000      -0.770336       -20.9619
 126   2.0000      -0.761590       -20.7239
 127   2.0000      -0.754108       -20.5203
 128   2.0000      -0.749418       -20.3927
 129   2.0000      -0.744270       -20.2526
 130   2.0000      -0.740739       -20.1565
 131   2.0000      -0.723204       -19.6794
 132   2.0000      -0.719320       -19.5737
 133   2.0000      -0.712754       -19.3950
 134   2.0000      -0.704636       -19.1741
 135   2.0000      -0.703819       -19.1519
 136   2.0000      -0.699789       -19.0422
 137   2.0000      -0.696837       -18.9619
 138   2.0000      -0.695285       -18.9197
 139   2.0000      -0.689137       -18.7524
 140   2.0000      -0.679368       -18.4865
 141   2.0000      -0.678598       -18.4656
 142   2.0000      -0.677315       -18.4307
 143   2.0000      -0.667914       -18.1749
 144   2.0000      -0.667155       -18.1542
 145   2.0000      -0.656091       -17.8531
 146   2.0000      -0.652222       -17.7479
 147   2.0000      -0.648112       -17.6360
 148   2.0000      -0.638313       -17.3694
 149   2.0000      -0.634987       -17.2789
 150   2.0000      -0.633178       -17.2297
 151   2.0000      -0.621665       -16.9164
 152   2.0000      -0.620257       -16.8781
 153   2.0000      -0.610083       -16.6012
 154   2.0000      -0.608485       -16.5577
 155   2.0000      -0.606499       -16.5037
 156   2.0000      -0.604150       -16.4398
 157   2.0000      -0.600235       -16.3332
 158   2.0000      -0.597890       -16.2694
 159   2.0000      -0.597736       -16.2652
 160   2.0000      -0.593327       -16.1453
 161   2.0000      -0.590263       -16.0619
 162   2.0000      -0.583818       -15.8865
 163   2.0000      -0.578952       -15.7541
 164   2.0000      -0.577320       -15.7097
 165   2.0000      -0.575227       -15.6527
 166   2.0000      -0.568410       -15.4672
 167   2.0000      -0.562904       -15.3174
 168   2.0000      -0.558911       -15.2087
 169   2.0000      -0.556110       -15.1325
 170   2.0000      -0.552570       -15.0362
 171   2.0000      -0.551492       -15.0069
 172   2.0000      -0.550470       -14.9790
 173   2.0000      -0.547361       -14.8944
 174   2.0000      -0.544001       -14.8030
 175   2.0000      -0.542918       -14.7735
 176   2.0000      -0.540367       -14.7041
 177   2.0000      -0.538972       -14.6662
 178   2.0000      -0.537766       -14.6334
 179   2.0000      -0.532003       -14.4765
 180   2.0000      -0.530545       -14.4369
 181   2.0000      -0.527424       -14.3519
 182   2.0000      -0.524588       -14.2748
 183   2.0000      -0.523195       -14.2369
 184   2.0000      -0.520638       -14.1673
 185   2.0000      -0.519386       -14.1332
 186   2.0000      -0.516545       -14.0559
 187   2.0000      -0.515647       -14.0315
 188   2.0000      -0.513542       -13.9742
 189   2.0000      -0.513061       -13.9611
 190   2.0000      -0.511482       -13.9181
 191   2.0000      -0.508479       -13.8364
 192   2.0000      -0.507865       -13.8197
 193   2.0000      -0.505970       -13.7681
 194   2.0000      -0.503428       -13.6990
 195   2.0000      -0.501930       -13.6582
 196   2.0000      -0.499711       -13.5978
 197   2.0000      -0.498729       -13.5711
 198   2.0000      -0.497319       -13.5327
 199   2.0000      -0.495851       -13.4928
 200   2.0000      -0.491306       -13.3691
 201   2.0000      -0.489822       -13.3287
 202   2.0000      -0.488376       -13.2894
 203   2.0000      -0.485759       -13.2182
 204   2.0000      -0.480915       -13.0864
 205   2.0000      -0.479833       -13.0569
 206   2.0000      -0.478779       -13.0282
 207   2.0000      -0.477882       -13.0038
 208   2.0000      -0.473623       -12.8879
 209   2.0000      -0.470654       -12.8071
 210   2.0000      -0.467488       -12.7210
 211   2.0000      -0.466303       -12.6887
 212   2.0000      -0.461656       -12.5623
 213   2.0000      -0.457450       -12.4478
 214   2.0000      -0.456986       -12.4352
 215   2.0000      -0.453467       -12.3395
 216   2.0000      -0.453147       -12.3308
 217   2.0000      -0.451610       -12.2889
 218   2.0000      -0.448760       -12.2114
 219   2.0000      -0.448127       -12.1942
 220   2.0000      -0.446621       -12.1532
 221   2.0000      -0.445306       -12.1174
 222   2.0000      -0.442834       -12.0501
 223   2.0000      -0.442170       -12.0321
 224   2.0000      -0.439786       -11.9672
 225   2.0000      -0.438485       -11.9318
 226   2.0000      -0.437159       -11.8957
 227   2.0000      -0.435977       -11.8635
 228   2.0000      -0.435587       -11.8529
 229   2.0000      -0.434062       -11.8114
 230   2.0000      -0.433060       -11.7842
 231   2.0000      -0.428926       -11.6717
 232   2.0000      -0.427251       -11.6261
 233   2.0000      -0.426757       -11.6126
 234   2.0000      -0.425447       -11.5770
 235   2.0000      -0.421291       -11.4639
 236   2.0000      -0.420639       -11.4462
 237   2.0000      -0.420065       -11.4305
 238   2.0000      -0.416727       -11.3397
 239   2.0000      -0.414350       -11.2750
 240   2.0000      -0.411741       -11.2040
 241   2.0000      -0.410674       -11.1750
 242   2.0000      -0.404643       -11.0109
 243   2.0000      -0.402673       -10.9573
 244   2.0000      -0.398579       -10.8459
 245   2.0000      -0.390465       -10.6251
 246   2.0000      -0.386784       -10.5249
 247   2.0000      -0.379297       -10.3212
 248   2.0000      -0.378938       -10.3114
 249   2.0000      -0.375428       -10.2159
 250   2.0000      -0.371606       -10.1119
 251   2.0000      -0.367755       -10.0071
 252   2.0000      -0.357531        -9.7289
 253   2.0000      -0.353842        -9.6285
 254   2.0000      -0.353116        -9.6088
 255   2.0000      -0.346181        -9.4201
 256   2.0000      -0.340271        -9.2592
 257   2.0000      -0.337882        -9.1942
 258   2.0000      -0.330689        -8.9985
 259   2.0000      -0.328788        -8.9468
 260   2.0000      -0.324905        -8.8411
 261   2.0000      -0.321852        -8.7580
 262   2.0000      -0.318427        -8.6648
 263   2.0000      -0.311132        -8.4663
 264   2.0000      -0.306561        -8.3419
 265   2.0000      -0.303530        -8.2595
 266   2.0000      -0.294843        -8.0231
 267   2.0000      -0.288848        -7.8600
 268   2.0000      -0.275733        -7.5031
 269   2.0000      -0.235024        -6.3953
 270   0.0000      -0.093592        -2.5468
 271   0.0000      -0.089267        -2.4291
 272   0.0000      -0.075546        -2.0557
 273   0.0000      -0.054835        -1.4921
 274   0.0000      -0.050070        -1.3625

MULLIKEN ATOMIC CHARGES
-----------------------
   0 C :    0.346498
   1 C :   -0.377505
   2 C :   -0.196456
   3 N :    0.168433
   4 C :   -0.193666
   5 N :    0.179040
   6 C :    0.040824
   7 C :    0.019356
   8 C :   -0.093357
   9 C :    0.094972
  10 C :    0.093876
  11 C :   -0.088487
  12 C :   -0.016968
  13 C :    0.037652
  14 C :    0.034163
  15 C :   -0.015121
  16 C :    0.143503
  17 O :   -0.140013
  18 C :   -0.057236
  19 C :   -0.047765
  20 C :   -0.029684
  21 C :   -0.070090
  22 C :    0.222027
  23 O :   -0.175056
  24 O :   -0.279200
  25 C :    0.327389
  26 C :   -0.092679
  27 C :   -0.005764
  28 C :   -0.013414
  29 C :    0.147248
  30 C :   -0.009927
  31 C :    0.000493
  32 C :    0.091876
  33 N :   -0.276118
  34 C :    0.107969
  35 C :   -0.001734
  36 C :    0.148642
  37 O :   -0.213977
  38 C :   -0.001554
  39 C :   -0.044177
  40 C :    0.155256
  41 O :   -0.189662
  42 N :   -0.265169
  43 C :    0.094679
  44 C :    0.010985
  45 C :    0.101405
  46 C :   -0.007933
  47 C :   -0.045757
  48 C :    0.063269
  49 C :   -0.076732
  50 C :    0.219691
  51 O :   -0.169250
  52 O :   -0.285059
  53 C :    0.330005
  54 C :   -0.099257
  55 C :   -0.027521
  56 C :    0.000435
  57 C :    0.066736
  58 C :   -0.036907
  59 C :    0.035012
  60 C :   -0.040463
  61 C :   -0.032327
  62 C :    0.342549
  63 C :   -0.353958
  64 C :   -0.189456
  65 N :    0.151011
  66 C :   -0.191940
  67 N :    0.143117
  68 C :    0.028796
  69 C :    0.001798
  70 C :    0.152188
  71 O :   -0.157928
  72 C :   -0.092599
  73 C :    0.094634
  74 C :    0.103659
  75 C :   -0.085599
  76 C :   -0.028576
  77 C :    0.047976
  78 C :    0.036791
  79 C :   -0.035881
  80 H :   -0.010623
  81 H :   -0.005727
  82 H :   -0.010209
  83 H :   -0.004196
  84 H :   -0.002028
  85 H :   -0.015871
  86 H :    0.042812
  87 H :    0.051817
  88 H :    0.046069
  89 H :   -0.016394
  90 H :   -0.002221
  91 H :   -0.041794
  92 H :    0.009649
  93 H :    0.032769
  94 H :    0.019895
  95 H :    0.029670
  96 H :    0.033715
  97 H :    0.031187
  98 H :    0.040543
  99 H :    0.040693
 100 H :    0.015803
 101 H :    0.028531
 102 H :    0.013507
 103 H :    0.023930
 104 H :    0.023628
 105 H :    0.048418
 106 H :    0.046453
 107 H :   -0.014734
 108 H :   -0.004669
 109 H :    0.012076
 110 H :    0.044994
 111 H :    0.004292
 112 H :   -0.008609
 113 H :   -0.010981
 114 H :   -0.014038
 115 H :   -0.007027
 116 H :    0.003900
 117 H :   -0.007262
Sum of atomic charges:   -0.0000000

LOEWDIN ATOMIC CHARGES
----------------------
   0 C :    0.089707
   1 C :   -0.139491
   2 C :   -0.019293
   3 N :   -0.052034
   4 C :   -0.020340
   5 N :   -0.050990
   6 C :   -0.012598
   7 C :   -0.050061
   8 C :    0.031181
   9 C :   -0.009829
  10 C :   -0.006471
  11 C :    0.020808
  12 C :   -0.005612
  13 C :   -0.012001
  14 C :   -0.011833
  15 C :   -0.008823
  16 C :    0.092487
  17 O :   -0.136170
  18 C :   -0.054130
  19 C :    0.058759
  20 C :   -0.005199
  21 C :   -0.073040
  22 C :    0.087508
  23 O :   -0.160050
  24 O :   -0.077977
  25 C :    0.103791
  26 C :   -0.015115
  27 C :   -0.010526
  28 C :    0.029570
  29 C :   -0.004588
  30 C :   -0.008906
  31 C :   -0.012308
  32 C :    0.070016
  33 N :   -0.006368
  34 C :    0.035741
  35 C :   -0.065883
  36 C :    0.078175
  37 O :   -0.206538
  38 C :   -0.113240
  39 C :   -0.111455
  40 C :    0.085102
  41 O :   -0.190688
  42 N :   -0.000389
  43 C :    0.037390
  44 C :   -0.059993
  45 C :    0.086906
  46 C :   -0.007364
  47 C :   -0.003899
  48 C :    0.016971
  49 C :   -0.070923
  50 C :    0.090379
  51 O :   -0.157027
  52 O :   -0.082564
  53 C :    0.102714
  54 C :   -0.017047
  55 C :   -0.025885
  56 C :    0.018813
  57 C :   -0.023397
  58 C :    0.019955
  59 C :   -0.013810
  60 C :    0.078614
  61 C :   -0.081104
  62 C :    0.078256
  63 C :   -0.138729
  64 C :   -0.016898
  65 N :   -0.057147
  66 C :   -0.017190
  67 N :   -0.057279
  68 C :   -0.026246
  69 C :   -0.055427
  70 C :    0.085602
  71 O :   -0.142298
  72 C :    0.030522
  73 C :   -0.011135
  74 C :   -0.006958
  75 C :    0.021143
  76 C :   -0.006776
  77 C :   -0.017012
  78 C :   -0.018244
  79 C :   -0.009960
  80 H :    0.039761
  81 H :    0.039594
  82 H :    0.034694
  83 H :    0.033572
  84 H :    0.033715
  85 H :    0.032666
  86 H :    0.048083
  87 H :    0.041028
  88 H :    0.038390
  89 H :    0.034980
  90 H :    0.037598
  91 H :    0.030183
  92 H :    0.044805
  93 H :    0.034898
  94 H :    0.022349
  95 H :    0.029345
  96 H :    0.034015
  97 H :    0.020606
  98 H :    0.025439
  99 H :    0.035986
 100 H :    0.020148
 101 H :    0.034249
 102 H :    0.024715
 103 H :    0.044374
 104 H :    0.036019
 105 H :    0.039155
 106 H :    0.038440
 107 H :    0.033821
 108 H :    0.036082
 109 H :    0.036661
 110 H :    0.035375
 111 H :    0.041446
 112 H :    0.041019
 113 H :    0.038987
 114 H :    0.033475
 115 H :    0.032394
 116 H :    0.033189
 117 H :    0.034887

  Mayer bond orders larger than 0.100000
B(  0-C ,  1-C ) :   1.6628 B(  0-C ,  6-C ) :   1.0131 B(  0-C , 18-C ) :   0.9903
B(  1-C ,  2-C ) :   1.1403 B(  1-C ,  4-C ) :   1.1818 B(  2-C ,  3-N ) :   2.9770
B(  4-C ,  5-N ) :   2.9852 B(  6-C ,  7-C ) :   1.2152 B(  6-C , 11-C ) :   1.4466
B(  7-C ,  8-C ) :   1.4610 B(  7-C , 16-C ) :   0.9258 B(  8-C ,  9-C ) :   1.1845
B(  8-C , 80-H ) :   1.0191 B(  9-C , 10-C ) :   1.2518 B(  9-C , 15-C ) :   1.2411
B( 10-C , 11-C ) :   1.2000 B( 10-C , 12-C ) :   1.2365 B( 11-C , 81-H ) :   0.9992
B( 12-C , 13-C ) :   1.4908 B( 12-C , 82-H ) :   0.9990 B( 13-C , 14-C ) :   1.2565
B( 13-C , 83-H ) :   0.9891 B( 14-C , 15-C ) :   1.4902 B( 14-C , 84-H ) :   0.9891
B( 15-C , 85-H ) :   0.9993 B( 16-C , 17-O ) :   2.2600 B( 16-C , 18-C ) :   0.9212
B( 18-C , 19-C ) :   1.8202 B( 19-C , 20-C ) :   0.9829 B( 19-C , 86-H ) :   0.9176
B( 20-C , 21-C ) :   1.3512 B( 20-C , 29-C ) :   1.3621 B( 21-C , 22-C ) :   0.9110
B( 21-C , 26-C ) :   1.4199 B( 22-C , 23-O ) :   2.1486 B( 22-C , 24-O ) :   1.1474
B( 24-O , 25-C ) :   0.9695 B( 25-C , 26-C ) :   1.0110 B( 25-C , 87-H ) :   0.9245
B( 25-C , 88-H ) :   0.9253 B( 26-C , 27-C ) :   1.3395 B( 27-C , 28-C ) :   1.3887
B( 27-C , 89-H ) :   1.0067 B( 28-C , 29-C ) :   1.3163 B( 28-C , 90-H ) :   0.9868
B( 29-C , 30-C ) :   1.0758 B( 30-C , 31-C ) :   1.6395 B( 30-C , 91-H ) :   0.9594
B( 31-C , 32-C ) :   1.1634 B( 31-C , 92-H ) :   0.9473 B( 32-C , 33-N ) :   1.1617
B( 32-C , 39-C ) :   1.3735 B( 33-N , 34-C ) :   0.9396 B( 33-N , 36-C ) :   1.0483
B( 34-C , 35-C ) :   1.1133 B( 34-C , 93-H ) :   0.9308 B( 34-C , 94-H ) :   0.9499
B( 35-C , 95-H ) :   0.9535 B( 35-C , 96-H ) :   0.9603 B( 35-C , 97-H ) :   0.9591
B( 36-C , 37-O ) :   2.0665 B( 36-C , 38-C ) :   0.9925 B( 38-C , 39-C ) :   1.2245
B( 38-C , 45-C ) :   1.3574 B( 39-C , 40-C ) :   0.9714 B( 40-C , 41-O ) :   2.1330
B( 40-C , 42-N ) :   1.0309 B( 42-N , 43-C ) :   0.9345 B( 42-N , 45-C ) :   1.1935
B( 43-C , 44-C ) :   1.1216 B( 43-C , 98-H ) :   0.9484 B( 43-C , 99-H ) :   0.9240
B( 44-C ,100-H ) :   0.9647 B( 44-C ,101-H ) :   0.9654 B( 44-C ,102-H ) :   0.9626
B( 45-C , 46-C ) :   1.1880 B( 46-C , 47-C ) :   1.6611 B( 46-C ,103-H ) :   0.9275
B( 47-C , 48-C ) :   1.0880 B( 47-C ,104-H ) :   0.9520 B( 48-C , 49-C ) :   1.3340
B( 48-C , 57-C ) :   1.3163 B( 49-C , 50-C ) :   0.9168 B( 49-C , 54-C ) :   1.4175
B( 50-C , 51-O ) :   2.1437 B( 50-C , 52-O ) :   1.1375 B( 52-O , 53-C ) :   0.9725
B( 53-C , 54-C ) :   1.0099 B( 53-C ,105-H ) :   0.9257 B( 53-C ,106-H ) :   0.9268
B( 54-C , 55-C ) :   1.3468 B( 55-C , 56-C ) :   1.3816 B( 55-C ,107-H ) :   1.0098
B( 56-C , 57-C ) :   1.3383 B( 56-C ,108-H ) :   0.9919 B( 57-C , 58-C ) :   1.0400
B( 58-C , 59-C ) :   1.6590 B( 58-C ,109-H ) :   0.9745 B( 59-C , 60-C ) :   1.1508
B( 59-C ,110-H ) :   0.9580 B( 60-C , 61-C ) :   1.5623 B( 60-C ,111-H ) :   0.9570
B( 61-C , 62-C ) :   1.0584 B( 61-C , 70-C ) :   0.9470 B( 62-C , 63-C ) :   1.6301
B( 62-C , 68-C ) :   0.9811 B( 63-C , 64-C ) :   1.1498 B( 63-C , 66-C ) :   1.1473
B( 64-C , 65-N ) :   2.9631 B( 66-C , 67-N ) :   2.9601 B( 68-C , 69-C ) :   1.2129
B( 68-C , 75-C ) :   1.4408 B( 69-C , 70-C ) :   0.9485 B( 69-C , 72-C ) :   1.4585
B( 70-C , 71-O ) :   2.1647 B( 72-C , 73-C ) :   1.1750 B( 72-C ,112-H ) :   1.0215
B( 73-C , 74-C ) :   1.2583 B( 73-C , 79-C ) :   1.2354 B( 74-C , 75-C ) :   1.2020
B( 74-C , 76-C ) :   1.2394 B( 75-C ,113-H ) :   0.9932 B( 76-C , 77-C ) :   1.4771
B( 76-C ,114-H ) :   1.0014 B( 77-C , 78-C ) :   1.2650 B( 77-C ,115-H ) :   0.9804
B( 78-C , 79-C ) :   1.4844 B( 78-C ,116-H ) :   0.9787 B( 79-C ,117-H ) :   0.9988

-----------------------------------------------------------------------------
         ABSORPTION SPECTRUM VIA TRANSITION ELECTRIC DIPOLE MOMENTS
-----------------------------------------------------------------------------
State   Energy  Wavelength   fosc         T2         TX        TY        TZ
        (cm-1)    (nm)                  (au**2)     (au)      (au)      (au)
-----------------------------------------------------------------------------
   0   14131.7    707.6   0.126201734   2.94000  -0.76470   0.31640   1.50171
   1   17477.7    572.2   0.275546567   5.19023   1.05761  -1.68821  -1.10528
   2   19327.2    517.4   0.259393405   4.41842   0.62894  -0.89329  -1.79580
   3   22379.5    446.8   0.000315188   0.00464  -0.05578   0.00104  -0.03903
   4   23249.7    430.1   0.540321673   7.65086   0.74114  -2.59083  -0.62384
   5   25363.6    394.3   0.052114278   0.67643   0.25027  -0.72812  -0.28919
   6   25710.5    388.9   0.002858844   0.03661   0.03805   0.18512   0.02984
   7   26119.9    382.9   0.163416353   2.05968  -0.56026   1.03574   0.82039
   8   26619.1    375.7   0.180635522   2.23401  -1.06533   0.91668   0.50870
   9   26915.3    371.5   0.197089090   2.41068  -0.83385   0.98311   0.86538
  10   27396.9    365.0   0.021607622   0.25965  -0.08535  -0.49579  -0.08094
  11   27648.0    361.7   0.007273954   0.08661   0.07557  -0.17486  -0.22434
  12   27734.0    360.6   0.040651396   0.48255   0.22078  -0.49568  -0.43370
  13   28659.9    348.9   0.045512701   0.52280   0.34932  -0.63301  -0.00856
  14   28927.9    345.7   0.031534090   0.35887   0.26357  -0.45130   0.29281
  15   28951.9    345.4   0.162609676   1.84903   0.56464  -1.17878   0.37508
  16   29248.3    341.9   0.022282715   0.25081   0.32476  -0.03754   0.37938
  17   29756.3    336.1   0.004530047   0.05012   0.07912  -0.08248  -0.19250
  18   30036.0    332.9   0.014720628   0.16135   0.17992  -0.33790  -0.12164
  19   30748.9    325.2   0.004257177   0.04558  -0.06310   0.08031   0.18748
  20   30825.8    324.4   0.083265776   0.88926   0.91368   0.22907  -0.04433
  21   31141.8    321.1   0.017825782   0.18844  -0.05446  -0.38494  -0.19314
  22   31236.9    320.1   0.191257168   2.01570  -1.36876   0.08417   0.36759
  23   31475.5    317.7   0.001597758   0.01671   0.11516  -0.05042  -0.03013
  24   31648.5    316.0   0.037064562   0.38555   0.41315  -0.46352  -0.00203
  25   31722.1    315.2   0.082624611   0.85748  -0.35944   0.53178   0.66746
  26   31926.4    313.2   0.075281404   0.77627  -0.47931   0.47873   0.56334
  27   32524.7    307.5   0.009695042   0.09813  -0.08024  -0.07364  -0.29372
  28   32681.9    306.0   0.114928116   1.15770   0.91444  -0.40602  -0.39578
  29   33084.9    302.3   0.076072547   0.75696   0.52465   0.25419  -0.64583
  30   33199.5    301.2   0.021832343   0.21649   0.36642   0.09097   0.27194
  31   33425.9    299.2   0.794885568   7.82883  -2.10841   1.39347   1.20070
  32   33534.9    298.2   0.095535592   0.93787  -0.60086   0.29572   0.69957
  33   33942.0    294.6   0.003887938   0.03771   0.11242   0.15742   0.01709
  34   33994.6    294.2   0.503803285   4.87896   1.73690  -1.02440  -0.90152
  35   34149.0    292.8   0.137829546   1.32874   0.25391   1.10553  -0.20512
  36   34278.1    291.7   0.223669765   2.14816   1.35772   0.17517  -0.52351
  37   34509.7    289.8   0.045404917   0.43315   0.42552   0.45652   0.20897
  38   34526.2    289.6   0.150369468   1.43379   0.23419   1.15477   0.21320
  39   34780.1    287.5   0.032091637   0.30376   0.47768  -0.23268  -0.14643
  40   35298.9    283.3   0.430775372   4.01759   1.53911   0.97754  -0.83256
  41   35550.7    281.3   0.168131842   1.55696   0.45870  -1.15432   0.11871
  42   35899.1    278.6   0.072140942   0.66157  -0.09676   0.62167  -0.51549
  43   35987.8    277.9   0.036108154   0.33031  -0.38247  -0.40562   0.13967
  44   36726.0    272.3   0.249865783   2.23980  -1.07649  -1.01390   0.23019
  45   36953.3    270.6   0.070708102   0.62993  -0.00085  -0.78389   0.12427
  46   37014.7    270.2   0.032229812   0.28665  -0.19616   0.49459   0.05958
  47   37250.0    268.5   0.100853865   0.89134  -0.38426  -0.56782   0.64905
  48   37334.1    267.9   0.150544639   1.32750  -0.71242   0.32458   0.84534
  49   37559.8    266.2   0.067550058   0.59208   0.30388  -0.70317   0.07268
  50   38235.6    261.5   0.043601628   0.37541  -0.32032   0.41006   0.32351
  51   38564.5    259.3   0.059533475   0.50822   0.19243   0.58938  -0.35188
  52   38654.8    258.7   0.056975354   0.48524  -0.18053   0.61500  -0.27281
  53   38760.9    258.0   0.019354570   0.16439  -0.10993   0.27239  -0.27948
  54   38870.9    257.3   0.017395136   0.14733   0.06169  -0.36868   0.08714
  55   39004.7    256.4   0.037804859   0.31908  -0.44908   0.29922   0.16697
  56   39274.5    254.6   0.014402147   0.12072   0.02323   0.34187   0.05752
  57   39484.3    253.3   0.267038521   2.22651  -0.51812   1.26207   0.60435
  58   39665.9    252.1   0.010299094   0.08548  -0.14148  -0.25565  -0.01028
  59   39714.3    251.8   0.130397351   1.08093   0.42265   0.94648   0.08040
  60   39764.9    251.5   0.018428634   0.15257  -0.15151  -0.25955   0.24949
  61   39952.0    250.3   0.039986734   0.32950   0.38877  -0.32283  -0.27229
  62   40033.9    249.8   0.080793602   0.66439   0.11342   0.71624   0.37219
  63   40099.9    249.4   0.014441137   0.11856   0.32848   0.07964  -0.06571
  64   40181.1    248.9   0.012288492   0.10068  -0.02741   0.28834  -0.12958

FINAL SINGLE POINT ENERGY     -3463.835571488979

DIPOLE MOMENT
-------------
                                X             Y             Z
Electronic contribution:     -7.41472      12.17956       3.19884
Nuclear contribution   :      7.49342     -12.52710      -3.13380
                        -----------------------------------------
Total Dipole Moment    :      0.07870      -0.34755       0.06504
                        -----------------------------------------
Magnitude (a.u.)       :      0.36224
Magnitude (Debye)      :      0.92073

Rotational constants in cm-1:     0.001595     0.000496     0.000420
Rotational constants in MHz :    47.827518    14.879839    12.577256

                             ****ORCA TERMINATED NORMALLY****
TOTAL RUN TIME: 0 days 0 hours 15 minutes 26 seconds 672 msec
