                         Program Version 4.2.0 -  RELEASE  -
|  1> # ORCA input file
|  2> # SCF done       -192.470561387381          0.001512765106
|  3> ! CAM-B3LYP def2-SVP def2/J RIJCOSX Grid4 TightSCF
|  4> %maxcore 5000
|  5> %tddft
|  6>     Mode sTDDFT
|  7>     Ethresh 5.0
|  8>     maxcore 5000
|  9> end
| 10>
| 11> %pal
| 12>   nprocs 6
| 13>   end
| 14> * xyz 0 1
| 15>    C        1.99772         5.54456        -3.13940
| 16>    C        1.60305         5.21382        -1.87333
| 17>    C        1.85487         3.95660        -1.28577
| 18>    N        2.06377         2.94978        -0.77695
| 19>    C        0.84157         6.07559        -1.05699
| 20>    N        0.17934         6.73526        -0.39136
| 21>    C        2.59952         4.65606        -4.12343
| 22>    C        2.45551         5.24149        -5.41662
| 23>    C        2.95498         4.63801        -6.53475
| 24>    C        3.66832         3.42712        -6.39702
| 25>    C        3.84118         2.85128        -5.10579
| 26>    C        3.26708         3.47014        -3.97286
| 27>    C        4.61180         1.67688        -4.98427
| 28>    C        5.19579         1.10518        -6.08095
| 29>    C        5.00506         1.65940        -7.35551
| 30>    C        4.24641         2.78724        -7.50988
| 31>    C        1.78204         6.54524        -5.29282
| 32>    O        1.39305         7.28523        -6.16160
| 33>    C        1.74370         6.80614        -3.81758
| 34>    C        1.70240         8.07514        -3.36976
| 35>    C        1.99389         8.57283        -2.04683
| 36>    C        1.29986         9.62178        -1.50580
| 37>    S        1.76286         9.97755         0.10158
| 38>    C        2.93624         8.74400         0.07305
| 39>    C        2.97080         8.07373        -1.11994
| 40>    C        3.96626         7.01621        -1.32256
| 41>    O        4.42049         6.33060        -0.44247
| 42>    O        4.36699         6.90503        -2.62225
| 43>    C        5.26537         5.92094        -2.91327
| 44>    C        5.66646         5.72852        -4.17692
| 45>    C        6.55947         4.73908        -4.68848
| 46>    N        7.37981         3.86893        -4.00914
| 47>    C        7.59963         3.73812        -2.58754
| 48>    C        6.61050         2.78146        -1.92823
| 49>    C        8.14263         3.07818        -4.89580
| 50>    O        8.94329         2.24453        -4.51993
| 51>    C        7.74980         3.51834        -6.21125
| 52>    C        6.76751         4.52830        -6.04491
| 53>    C        6.38834         5.00548        -7.35549
| 54>    O        5.58911         5.84292        -7.71781
| 55>    N        7.19925         4.26466        -8.23870
| 56>    C        7.19736         4.52008        -9.65981
| 57>    C        6.55234         3.40170       -10.47378
| 58>    C        8.02115         3.38643        -7.56940
| 59>    C        8.99997         2.58313        -8.20845
| 60>    C        9.83451         1.76169        -7.52540
| 61>    C       10.85954         1.02966        -8.18169
| 62>    S       12.08520         0.13155        -7.30220
| 63>    C       12.76203        -0.23716        -8.88155
| 64>    N       12.06440         0.28188        -9.85618
| 65>    N       11.03302         0.97243        -9.47761
| 66>    C       13.97122        -0.97140        -9.03398
| 67>    C       14.48411        -1.26912       -10.24929
| 68>    C       15.72242        -1.93105       -10.48637
| 69>    C       16.86715        -1.82463        -9.75636
| 70>    C       18.11210        -2.51920       -10.04973
| 71>    C       18.22934        -3.70012       -10.73198
| 72>    C       19.45534        -4.36160       -10.95458
| 73>    N       20.42287        -4.94142       -11.16785
| 74>    C       17.14148        -4.43180       -11.25476
| 75>    N       16.30318        -5.08760       -11.68426
| 76>    C       19.19476        -1.78790        -9.40790
| 77>    C       18.62882        -0.73596        -8.63283
| 78>    C       17.16061        -0.76368        -8.74875
| 79>    O       16.38243        -0.03870        -8.16948
| 80>    C       19.40401         0.12568        -7.91117
| 81>    C       20.80821        -0.02557        -7.93742
| 82>    C       21.38314        -1.06964        -8.71899
| 83>    C       20.55451        -1.94934        -9.45243
| 84>    C       22.78638        -1.20391        -8.74439
| 85>    C       23.58431        -0.35126        -8.03120
| 86>    C       23.01701         0.67415        -7.25975
| 87>    C       21.65856         0.83310        -7.21327
| 88>    H        2.84367         5.09684        -7.50479
| 89>    H        3.39308         3.00871        -3.00537
| 90>    H        4.73488         1.23920        -4.00485
| 91>    H        5.80105         0.21790        -5.97404
| 92>    H        5.45959         1.18438        -8.21237
| 93>    H        4.08053         3.21939        -8.48480
| 94>    H        1.44051         8.82647        -4.10723
| 95>    H        0.49862        10.16666        -1.96441
| 96>    H        3.57046         8.56581         0.91903
| 97>    H        5.56435         5.33486        -2.05567
| 98>    H        5.25449         6.37019        -4.94526
| 99>    H        7.57447         4.72660        -2.12457
|100>    H        8.60867         3.32704        -2.47971
|101>    H        5.58409         3.10859        -2.07219
|102>    H        6.81100         2.72543        -0.86187
|103>    H        6.72405         1.78831        -2.35548
|104>    H        8.22538         4.68717        -9.99649
|105>    H        6.63024         5.44590        -9.79324
|106>    H        7.04475         2.44930       -10.29447
|107>    H        6.62818         3.63739       -11.53189
|108>    H        5.50138         3.30219       -10.21882
|109>    H        9.11550         2.65483        -9.27972
|110>    H        9.76539         1.66741        -6.45082
|111>    H       14.45771        -1.28746        -8.12522
|112>    H       13.89183        -1.02338       -11.12145
|113>    H       15.76049        -2.51710       -11.39815
|114>    H       18.95094         0.91400        -7.32847
|115>    H       21.01751        -2.72559       -10.04111
|116>    H       23.21852        -1.99608        -9.33797
|117>    H       24.65797        -0.46240        -8.05737
|118>    H       23.66175         1.33773        -6.70317
|119>    H       21.21573         1.62092        -6.62158
|120> *
|121>
|122>                          ****END OF INPUT****

CARTESIAN COORDINATES (ANGSTROEM)
---------------------------------
  C      1.997720    5.544560   -3.139400
  C      1.603050    5.213820   -1.873330
  C      1.854870    3.956600   -1.285770
  N      2.063770    2.949780   -0.776950
  C      0.841570    6.075590   -1.056990
  N      0.179340    6.735260   -0.391360
  C      2.599520    4.656060   -4.123430
  C      2.455510    5.241490   -5.416620
  C      2.954980    4.638010   -6.534750
  C      3.668320    3.427120   -6.397020
  C      3.841180    2.851280   -5.105790
  C      3.267080    3.470140   -3.972860
  C      4.611800    1.676880   -4.984270
  C      5.195790    1.105180   -6.080950
  C      5.005060    1.659400   -7.355510
  C      4.246410    2.787240   -7.509880
  C      1.782040    6.545240   -5.292820
  O      1.393050    7.285230   -6.161600
  C      1.743700    6.806140   -3.817580
  C      1.702400    8.075140   -3.369760
  C      1.993890    8.572830   -2.046830
  C      1.299860    9.621780   -1.505800
  S      1.762860    9.977550    0.101580
  C      2.936240    8.744000    0.073050
  C      2.970800    8.073730   -1.119940
  C      3.966260    7.016210   -1.322560
  O      4.420490    6.330600   -0.442470
  O      4.366990    6.905030   -2.622250
  C      5.265370    5.920940   -2.913270
  C      5.666460    5.728520   -4.176920
  C      6.559470    4.739080   -4.688480
  N      7.379810    3.868930   -4.009140
  C      7.599630    3.738120   -2.587540
  C      6.610500    2.781460   -1.928230
  C      8.142630    3.078180   -4.895800
  O      8.943290    2.244530   -4.519930
  C      7.749800    3.518340   -6.211250
  C      6.767510    4.528300   -6.044910
  C      6.388340    5.005480   -7.355490
  O      5.589110    5.842920   -7.717810
  N      7.199250    4.264660   -8.238700
  C      7.197360    4.520080   -9.659810
  C      6.552340    3.401700  -10.473780
  C      8.021150    3.386430   -7.569400
  C      8.999970    2.583130   -8.208450
  C      9.834510    1.761690   -7.525400
  C     10.859540    1.029660   -8.181690
  S     12.085200    0.131550   -7.302200
  C     12.762030   -0.237160   -8.881550
  N     12.064400    0.281880   -9.856180
  N     11.033020    0.972430   -9.477610
  C     13.971220   -0.971400   -9.033980
  C     14.484110   -1.269120  -10.249290
  C     15.722420   -1.931050  -10.486370
  C     16.867150   -1.824630   -9.756360
  C     18.112100   -2.519200  -10.049730
  C     18.229340   -3.700120  -10.731980
  C     19.455340   -4.361600  -10.954580
  N     20.422870   -4.941420  -11.167850
  C     17.141480   -4.431800  -11.254760
  N     16.303180   -5.087600  -11.684260
  C     19.194760   -1.787900   -9.407900
  C     18.628820   -0.735960   -8.632830
  C     17.160610   -0.763680   -8.748750
  O     16.382430   -0.038700   -8.169480
  C     19.404010    0.125680   -7.911170
  C     20.808210   -0.025570   -7.937420
  C     21.383140   -1.069640   -8.718990
  C     20.554510   -1.949340   -9.452430
  C     22.786380   -1.203910   -8.744390
  C     23.584310   -0.351260   -8.031200
  C     23.017010    0.674150   -7.259750
  C     21.658560    0.833100   -7.213270
  H      2.843670    5.096840   -7.504790
  H      3.393080    3.008710   -3.005370
  H      4.734880    1.239200   -4.004850
  H      5.801050    0.217900   -5.974040
  H      5.459590    1.184380   -8.212370
  H      4.080530    3.219390   -8.484800
  H      1.440510    8.826470   -4.107230
  H      0.498620   10.166660   -1.964410
  H      3.570460    8.565810    0.919030
  H      5.564350    5.334860   -2.055670
  H      5.254490    6.370190   -4.945260
  H      7.574470    4.726600   -2.124570
  H      8.608670    3.327040   -2.479710
  H      5.584090    3.108590   -2.072190
  H      6.811000    2.725430   -0.861870
  H      6.724050    1.788310   -2.355480
  H      8.225380    4.687170   -9.996490
  H      6.630240    5.445900   -9.793240
  H      7.044750    2.449300  -10.294470
  H      6.628180    3.637390  -11.531890
  H      5.501380    3.302190  -10.218820
  H      9.115500    2.654830   -9.279720
  H      9.765390    1.667410   -6.450820
  H     14.457710   -1.287460   -8.125220
  H     13.891830   -1.023380  -11.121450
  H     15.760490   -2.517100  -11.398150
  H     18.950940    0.914000   -7.328470
  H     21.017510   -2.725590  -10.041110
  H     23.218520   -1.996080   -9.337970
  H     24.657970   -0.462400   -8.057370
  H     23.661750    1.337730   -6.703170
  H     21.215730    1.620920   -6.621580

 Total Charge           Charge          ....    0
 Multiplicity           Mult            ....    1
 Number of Electrons    NEL             ....  510
 Basis Dimension        Dim             .... 1190

ORBITAL ENERGIES
----------------

  NO   OCC          E(Eh)            E(eV)
   0   2.0000     -88.981928     -2421.3214
   1   2.0000     -88.980980     -2421.2956
   2   2.0000     -19.302349      -525.2436
   3   2.0000     -19.232768      -523.3502
   4   2.0000     -19.221599      -523.0463
   5   2.0000     -19.213651      -522.8300
   6   2.0000     -19.201656      -522.5036
   7   2.0000     -19.193607      -522.2846
   8   2.0000     -14.461939      -393.5294
   9   2.0000     -14.457927      -393.4202
  10   2.0000     -14.447317      -393.1315
  11   2.0000     -14.445916      -393.0934
  12   2.0000     -14.417419      -392.3179
  13   2.0000     -14.416779      -392.3005
  14   2.0000     -14.416261      -392.2864
  15   2.0000     -14.413690      -392.2164
  16   2.0000     -10.431560      -283.8572
  17   2.0000     -10.381836      -282.5041
  18   2.0000     -10.377480      -282.3856
  19   2.0000     -10.373297      -282.2718
  20   2.0000     -10.365064      -282.0477
  21   2.0000     -10.359310      -281.8912
  22   2.0000     -10.349314      -281.6192
  23   2.0000     -10.349051      -281.6120
  24   2.0000     -10.347505      -281.5699
  25   2.0000     -10.345537      -281.5164
  26   2.0000     -10.345417      -281.5131
  27   2.0000     -10.343769      -281.4683
  28   2.0000     -10.342929      -281.4454
  29   2.0000     -10.342432      -281.4319
  30   2.0000     -10.321345      -280.8581
  31   2.0000     -10.320401      -280.8324
  32   2.0000     -10.319847      -280.8173
  33   2.0000     -10.318951      -280.7929
  34   2.0000     -10.318750      -280.7875
  35   2.0000     -10.317047      -280.7411
  36   2.0000     -10.316000      -280.7126
  37   2.0000     -10.315987      -280.7123
  38   2.0000     -10.313669      -280.6492
  39   2.0000     -10.312829      -280.6263
  40   2.0000     -10.309154      -280.5263
  41   2.0000     -10.308337      -280.5041
  42   2.0000     -10.306391      -280.4512
  43   2.0000     -10.305826      -280.4358
  44   2.0000     -10.304814      -280.4082
  45   2.0000     -10.303087      -280.3613
  46   2.0000     -10.302020      -280.3322
  47   2.0000     -10.301149      -280.3085
  48   2.0000     -10.300890      -280.3015
  49   2.0000     -10.300657      -280.2951
  50   2.0000     -10.300032      -280.2781
  51   2.0000     -10.299898      -280.2745
  52   2.0000     -10.299244      -280.2567
  53   2.0000     -10.297765      -280.2164
  54   2.0000     -10.296964      -280.1946
  55   2.0000     -10.296597      -280.1846
  56   2.0000     -10.295445      -280.1533
  57   2.0000     -10.294913      -280.1388
  58   2.0000     -10.293750      -280.1072
  59   2.0000     -10.292218      -280.0655
  60   2.0000     -10.289540      -279.9926
  61   2.0000     -10.289000      -279.9779
  62   2.0000     -10.288656      -279.9686
  63   2.0000     -10.288150      -279.9548
  64   2.0000     -10.287009      -279.9237
  65   2.0000     -10.286767      -279.9172
  66   2.0000     -10.286153      -279.9005
  67   2.0000     -10.285417      -279.8804
  68   2.0000     -10.284902      -279.8664
  69   2.0000     -10.270779      -279.4821
  70   2.0000     -10.267605      -279.3957
  71   2.0000     -10.267232      -279.3856
  72   2.0000     -10.264602      -279.3140
  73   2.0000      -8.078150      -219.8176
  74   2.0000      -8.077284      -219.7941
  75   2.0000      -6.047213      -164.5530
  76   2.0000      -6.045811      -164.5149
  77   2.0000      -6.042732      -164.4311
  78   2.0000      -6.042508      -164.4250
  79   2.0000      -6.040960      -164.3829
  80   2.0000      -6.039840      -164.3524
  81   2.0000      -1.230532       -33.4845
  82   2.0000      -1.150592       -31.3092
  83   2.0000      -1.140829       -31.0435
  84   2.0000      -1.137312       -30.9478
  85   2.0000      -1.132510       -30.8172
  86   2.0000      -1.132113       -30.8064
  87   2.0000      -1.129959       -30.7477
  88   2.0000      -1.069412       -29.1002
  89   2.0000      -1.060391       -28.8547
  90   2.0000      -1.020477       -27.7686
  91   2.0000      -1.020265       -27.7628
  92   2.0000      -1.008375       -27.4393
  93   2.0000      -1.000886       -27.2355
  94   2.0000      -0.998014       -27.1573
  95   2.0000      -0.995256       -27.0823
  96   2.0000      -0.992996       -27.0208
  97   2.0000      -0.974884       -26.5279
  98   2.0000      -0.971650       -26.4399
  99   2.0000      -0.957264       -26.0485
 100   2.0000      -0.938993       -25.5513
 101   2.0000      -0.933027       -25.3889
 102   2.0000      -0.926981       -25.2244
 103   2.0000      -0.926825       -25.2202
 104   2.0000      -0.913798       -24.8657
 105   2.0000      -0.910516       -24.7764
 106   2.0000      -0.907012       -24.6811
 107   2.0000      -0.894639       -24.3444
 108   2.0000      -0.886506       -24.1230
 109   2.0000      -0.884040       -24.0559
 110   2.0000      -0.882649       -24.0181
 111   2.0000      -0.879913       -23.9436
 112   2.0000      -0.875875       -23.8338
 113   2.0000      -0.865152       -23.5420
 114   2.0000      -0.844698       -22.9854
 115   2.0000      -0.834858       -22.7176
 116   2.0000      -0.831181       -22.6176
 117   2.0000      -0.828271       -22.5384
 118   2.0000      -0.826903       -22.5012
 119   2.0000      -0.819529       -22.3005
 120   2.0000      -0.803165       -21.8552
 121   2.0000      -0.793109       -21.5816
 122   2.0000      -0.784812       -21.3558
 123   2.0000      -0.766791       -20.8654
 124   2.0000      -0.764144       -20.7934
 125   2.0000      -0.759513       -20.6674
 126   2.0000      -0.747751       -20.3473
 127   2.0000      -0.743825       -20.2405
 128   2.0000      -0.722320       -19.6553
 129   2.0000      -0.716139       -19.4871
 130   2.0000      -0.713821       -19.4241
 131   2.0000      -0.707181       -19.2434
 132   2.0000      -0.705337       -19.1932
 133   2.0000      -0.702768       -19.1233
 134   2.0000      -0.701617       -19.0920
 135   2.0000      -0.696345       -18.9485
 136   2.0000      -0.693285       -18.8652
 137   2.0000      -0.683203       -18.5909
 138   2.0000      -0.680239       -18.5102
 139   2.0000      -0.677520       -18.4362
 140   2.0000      -0.675225       -18.3738
 141   2.0000      -0.671365       -18.2688
 142   2.0000      -0.667910       -18.1748
 143   2.0000      -0.657036       -17.8789
 144   2.0000      -0.643447       -17.5091
 145   2.0000      -0.642363       -17.4796
 146   2.0000      -0.630812       -17.1653
 147   2.0000      -0.628658       -17.1067
 148   2.0000      -0.616772       -16.7832
 149   2.0000      -0.609898       -16.5962
 150   2.0000      -0.607614       -16.5340
 151   2.0000      -0.605309       -16.4713
 152   2.0000      -0.602189       -16.3864
 153   2.0000      -0.597417       -16.2565
 154   2.0000      -0.594656       -16.1814
 155   2.0000      -0.591489       -16.0952
 156   2.0000      -0.588277       -16.0078
 157   2.0000      -0.583404       -15.8752
 158   2.0000      -0.578556       -15.7433
 159   2.0000      -0.576348       -15.6832
 160   2.0000      -0.573487       -15.6054
 161   2.0000      -0.560821       -15.2607
 162   2.0000      -0.558710       -15.2033
 163   2.0000      -0.554622       -15.0920
 164   2.0000      -0.552583       -15.0366
 165   2.0000      -0.551073       -14.9955
 166   2.0000      -0.549604       -14.9555
 167   2.0000      -0.548172       -14.9165
 168   2.0000      -0.546899       -14.8819
 169   2.0000      -0.543769       -14.7967
 170   2.0000      -0.540982       -14.7209
 171   2.0000      -0.539476       -14.6799
 172   2.0000      -0.539092       -14.6694
 173   2.0000      -0.534749       -14.5513
 174   2.0000      -0.529615       -14.4115
 175   2.0000      -0.527187       -14.3455
 176   2.0000      -0.523898       -14.2560
 177   2.0000      -0.523660       -14.2495
 178   2.0000      -0.522707       -14.2236
 179   2.0000      -0.518864       -14.1190
 180   2.0000      -0.517194       -14.0736
 181   2.0000      -0.516209       -14.0467
 182   2.0000      -0.514427       -13.9983
 183   2.0000      -0.513122       -13.9628
 184   2.0000      -0.511844       -13.9280
 185   2.0000      -0.510386       -13.8883
 186   2.0000      -0.507745       -13.8164
 187   2.0000      -0.506421       -13.7804
 188   2.0000      -0.504952       -13.7404
 189   2.0000      -0.500815       -13.6279
 190   2.0000      -0.498469       -13.5640
 191   2.0000      -0.494665       -13.4605
 192   2.0000      -0.492801       -13.4098
 193   2.0000      -0.488171       -13.2838
 194   2.0000      -0.485850       -13.2206
 195   2.0000      -0.485268       -13.2048
 196   2.0000      -0.479307       -13.0426
 197   2.0000      -0.478620       -13.0239
 198   2.0000      -0.474976       -12.9248
 199   2.0000      -0.470666       -12.8075
 200   2.0000      -0.468767       -12.7558
 201   2.0000      -0.467048       -12.7090
 202   2.0000      -0.464641       -12.6435
 203   2.0000      -0.463860       -12.6223
 204   2.0000      -0.462938       -12.5972
 205   2.0000      -0.459235       -12.4964
 206   2.0000      -0.456365       -12.4183
 207   2.0000      -0.453077       -12.3288
 208   2.0000      -0.450316       -12.2537
 209   2.0000      -0.450133       -12.2487
 210   2.0000      -0.449497       -12.2314
 211   2.0000      -0.446272       -12.1437
 212   2.0000      -0.445731       -12.1290
 213   2.0000      -0.443440       -12.0666
 214   2.0000      -0.443234       -12.0610
 215   2.0000      -0.439385       -11.9563
 216   2.0000      -0.436585       -11.8801
 217   2.0000      -0.436176       -11.8690
 218   2.0000      -0.435086       -11.8393
 219   2.0000      -0.434858       -11.8331
 220   2.0000      -0.432090       -11.7578
 221   2.0000      -0.429179       -11.6786
 222   2.0000      -0.427353       -11.6289
 223   2.0000      -0.426093       -11.5946
 224   2.0000      -0.425454       -11.5772
 225   2.0000      -0.422732       -11.5031
 226   2.0000      -0.421071       -11.4579
 227   2.0000      -0.418564       -11.3897
 228   2.0000      -0.412839       -11.2339
 229   2.0000      -0.411658       -11.2018
 230   2.0000      -0.404617       -11.0102
 231   2.0000      -0.399046       -10.8586
 232   2.0000      -0.397702       -10.8220
 233   2.0000      -0.388071       -10.5599
 234   2.0000      -0.386599       -10.5199
 235   2.0000      -0.380397       -10.3511
 236   2.0000      -0.375123       -10.2076
 237   2.0000      -0.367107        -9.9895
 238   2.0000      -0.362512        -9.8645
 239   2.0000      -0.355640        -9.6775
 240   2.0000      -0.346861        -9.4386
 241   2.0000      -0.345967        -9.4142
 242   2.0000      -0.338116        -9.2006
 243   2.0000      -0.334684        -9.1072
 244   2.0000      -0.334484        -9.1018
 245   2.0000      -0.333173        -9.0661
 246   2.0000      -0.331283        -9.0147
 247   2.0000      -0.320946        -8.7334
 248   2.0000      -0.319898        -8.7049
 249   2.0000      -0.317377        -8.6363
 250   2.0000      -0.306913        -8.3515
 251   2.0000      -0.300671        -8.1817
 252   2.0000      -0.291803        -7.9404
 253   2.0000      -0.289130        -7.8676
 254   2.0000      -0.244978        -6.6662
 255   0.0000      -0.105507        -2.8710
 256   0.0000      -0.087313        -2.3759
 257   0.0000      -0.082694        -2.2502
 258   0.0000      -0.060730        -1.6526
 259   0.0000      -0.051410        -1.3989

MULLIKEN ATOMIC CHARGES
-----------------------
   0 C :    0.227935
   1 C :   -0.315506
   2 C :   -0.193883
   3 N :    0.165570
   4 C :   -0.194285
   5 N :    0.175333
   6 C :    0.054386
   7 C :   -0.008979
   8 C :   -0.055545
   9 C :    0.061169
  10 C :    0.116487
  11 C :   -0.115859
  12 C :   -0.029104
  13 C :    0.045294
  14 C :    0.037179
  15 C :    0.018226
  16 C :    0.143169
  17 O :   -0.132231
  18 C :   -0.113060
  19 C :    0.038391
  20 C :    0.085159
  21 C :   -0.100523
  22 S :    0.181107
  23 C :   -0.082319
  24 C :    0.016935
  25 C :    0.185450
  26 O :   -0.177201
  27 O :   -0.248438
  28 C :    0.135741
  29 C :    0.008211
  30 C :    0.087489
  31 N :   -0.266479
  32 C :    0.097678
  33 C :    0.011142
  34 C :    0.156195
  35 O :   -0.209252
  36 C :   -0.035291
  37 C :   -0.040523
  38 C :    0.154975
  39 O :   -0.200996
  40 N :   -0.270898
  41 C :    0.101373
  42 C :    0.002062
  43 C :    0.137097
  44 C :   -0.032308
  45 C :    0.073874
  46 C :   -0.113197
  47 S :    0.141934
  48 C :   -0.129278
  49 N :   -0.036563
  50 N :   -0.048356
  51 C :    0.146323
  52 C :   -0.005249
  53 C :    0.009583
  54 C :   -0.096645
  55 C :    0.281838
  56 C :   -0.331672
  57 C :   -0.179233
  58 N :    0.148968
  59 C :   -0.210942
  60 N :    0.168283
  61 C :    0.054118
  62 C :   -0.003041
  63 C :    0.148988
  64 O :   -0.148229
  65 C :   -0.078308
  66 C :    0.095566
  67 C :    0.095680
  68 C :   -0.083004
  69 C :   -0.017229
  70 C :    0.035219
  71 C :    0.036508
  72 C :   -0.016393
  73 H :   -0.005156
  74 H :   -0.000747
  75 H :   -0.017173
  76 H :   -0.004256
  77 H :   -0.009166
  78 H :   -0.020061
  79 H :    0.023974
  80 H :    0.037036
  81 H :    0.045430
  82 H :    0.037491
  83 H :    0.026397
  84 H :    0.025916
  85 H :    0.039005
  86 H :    0.007918
  87 H :    0.032042
  88 H :    0.029831
  89 H :    0.028188
  90 H :    0.044645
  91 H :    0.023043
  92 H :    0.027500
  93 H :    0.016147
  94 H :    0.005759
  95 H :    0.013461
  96 H :    0.010747
  97 H :    0.032383
  98 H :    0.039232
  99 H :   -0.012717
 100 H :   -0.005933
 101 H :   -0.008350
 102 H :   -0.002307
 103 H :   -0.003889
 104 H :   -0.017005
Sum of atomic charges:   -0.0000000

LOEWDIN ATOMIC CHARGES
----------------------
   0 C :    0.063805
   1 C :   -0.136997
   2 C :   -0.017265
   3 N :   -0.048014
   4 C :   -0.018792
   5 N :   -0.047268
   6 C :   -0.023774
   7 C :   -0.061532
   8 C :    0.046792
   9 C :   -0.007101
  10 C :   -0.005353
  11 C :    0.010683
  12 C :   -0.008841
  13 C :   -0.008913
  14 C :   -0.010774
  15 C :   -0.006340
  16 C :    0.086864
  17 O :   -0.132825
  18 C :   -0.074760
  19 C :    0.066019
  20 C :   -0.062156
  21 C :   -0.152933
  22 S :    0.504762
  23 C :   -0.130366
  24 C :   -0.106718
  25 C :    0.102394
  26 O :   -0.150933
  27 O :   -0.035907
  28 C :    0.082504
  29 C :   -0.059433
  30 C :    0.082616
  31 N :   -0.000079
  32 C :    0.035960
  33 C :   -0.060606
  34 C :    0.084271
  35 O :   -0.198305
  36 C :   -0.114748
  37 C :   -0.120916
  38 C :    0.078248
  39 O :   -0.201750
  40 N :   -0.001176
  41 C :    0.037678
  42 C :   -0.060580
  43 C :    0.070734
  44 C :   -0.012267
  45 C :   -0.013285
  46 C :   -0.149557
  47 S :    0.422067
  48 C :   -0.153379
  49 N :   -0.063443
  50 N :   -0.075246
  51 C :    0.013634
  52 C :   -0.013445
  53 C :    0.066329
  54 C :   -0.084150
  55 C :    0.073809
  56 C :   -0.134508
  57 C :   -0.017166
  58 N :   -0.050644
  59 C :   -0.026560
  60 N :   -0.046327
  61 C :   -0.026252
  62 C :   -0.055519
  63 C :    0.084000
  64 O :   -0.136676
  65 C :    0.032668
  66 C :   -0.008099
  67 C :   -0.005788
  68 C :    0.020003
  69 C :   -0.005066
  70 C :   -0.012595
  71 C :   -0.011517
  72 C :   -0.009464
  73 H :    0.042658
  74 H :    0.034977
  75 H :    0.031951
  76 H :    0.034268
  77 H :    0.030895
  78 H :    0.028862
  79 H :    0.049513
  80 H :    0.031610
  81 H :    0.036781
  82 H :    0.023526
  83 H :    0.053602
  84 H :    0.023877
  85 H :    0.037205
  86 H :    0.018109
  87 H :    0.036192
  88 H :    0.030649
  89 H :    0.025919
  90 H :    0.038104
  91 H :    0.023365
  92 H :    0.034634
  93 H :    0.025864
  94 H :    0.037644
  95 H :    0.037370
  96 H :    0.037097
  97 H :    0.044544
  98 H :    0.048573
  99 H :    0.038918
 100 H :    0.039348
 101 H :    0.035055
 102 H :    0.033902
 103 H :    0.033231
 104 H :    0.032022

  Mayer bond orders larger than 0.100000
B(  0-C ,  1-C ) :   1.6733 B(  0-C ,  6-C ) :   1.0154 B(  0-C , 18-C ) :   0.9914
B(  1-C ,  2-C ) :   1.1400 B(  1-C ,  4-C ) :   1.1587 B(  2-C ,  3-N ) :   2.9891
B(  4-C ,  5-N ) :   3.0180 B(  6-C ,  7-C ) :   1.2171 B(  6-C , 11-C ) :   1.4393
B(  7-C ,  8-C ) :   1.4562 B(  7-C , 16-C ) :   0.9151 B(  8-C ,  9-C ) :   1.1931
B(  8-C , 73-H ) :   1.0134 B(  9-C , 10-C ) :   1.2626 B(  9-C , 15-C ) :   1.2607
B( 10-C , 11-C ) :   1.1993 B( 10-C , 12-C ) :   1.2287 B( 11-C , 74-H ) :   0.9930
B( 12-C , 13-C ) :   1.4832 B( 12-C , 75-H ) :   0.9983 B( 13-C , 14-C ) :   1.2540
B( 13-C , 76-H ) :   0.9919 B( 14-C , 15-C ) :   1.4825 B( 14-C , 77-H ) :   0.9870
B( 15-C , 78-H ) :   0.9830 B( 16-C , 17-O ) :   2.2851 B( 16-C , 18-C ) :   0.9228
B( 18-C , 19-C ) :   1.7808 B( 19-C , 20-C ) :   1.0311 B( 19-C , 79-H ) :   0.9439
B( 20-C , 21-C ) :   1.5297 B( 20-C , 24-C ) :   1.2172 B( 21-C , 22-S ) :   1.1877
B( 21-C , 80-H ) :   0.9687 B( 22-S , 23-C ) :   1.2177 B( 23-C , 24-C ) :   1.5567
B( 23-C , 81-H ) :   0.9668 B( 24-C , 25-C ) :   0.9502 B( 25-C , 26-O ) :   2.1479
B( 25-C , 27-O ) :   1.0884 B( 27-O , 28-C ) :   1.0292 B( 28-C , 29-C ) :   1.6212
B( 28-C , 82-H ) :   0.9703 B( 29-C , 30-C ) :   1.1903 B( 29-C , 83-H ) :   0.9382
B( 30-C , 31-N ) :   1.1668 B( 30-C , 37-C ) :   1.3730 B( 31-N , 32-C ) :   0.9388
B( 31-N , 34-C ) :   1.0554 B( 32-C , 33-C ) :   1.1208 B( 32-C , 84-H ) :   0.9482
B( 32-C , 85-H ) :   0.9240 B( 33-C , 86-H ) :   0.9651 B( 33-C , 87-H ) :   0.9629
B( 33-C , 88-H ) :   0.9564 B( 34-C , 35-O ) :   2.0228 B( 34-C , 36-C ) :   0.9872
B( 35-O , 95-H ) :   0.1081 B( 36-C , 37-C ) :   1.2336 B( 36-C , 43-C ) :   1.3534
B( 37-C , 38-C ) :   0.9889 B( 38-C , 39-O ) :   2.0934 B( 38-C , 40-N ) :   1.0398
B( 40-N , 41-C ) :   0.9422 B( 40-N , 43-C ) :   1.1522 B( 41-C , 42-C ) :   1.1199
B( 41-C , 89-H ) :   0.9510 B( 41-C , 90-H ) :   0.9283 B( 42-C , 91-H ) :   0.9669
B( 42-C , 92-H ) :   0.9613 B( 42-C , 93-H ) :   0.9644 B( 43-C , 44-C ) :   1.1286
B( 44-C , 45-C ) :   1.6569 B( 44-C , 94-H ) :   0.9707 B( 45-C , 46-C ) :   1.1074
B( 45-C , 95-H ) :   0.9274 B( 46-C , 47-S ) :   1.1170 B( 46-C , 50-N ) :   1.6412
B( 47-S , 48-C ) :   1.0995 B( 48-C , 49-N ) :   1.6593 B( 48-C , 51-C ) :   1.1276
B( 49-N , 50-N ) :   1.2504 B( 51-C , 52-C ) :   1.7247 B( 51-C , 96-H ) :   0.9320
B( 52-C , 53-C ) :   1.1407 B( 52-C , 97-H ) :   0.9512 B( 53-C , 54-C ) :   1.6434
B( 53-C , 98-H ) :   0.9481 B( 54-C , 55-C ) :   1.0442 B( 54-C , 63-C ) :   0.9331
B( 55-C , 56-C ) :   1.6586 B( 55-C , 61-C ) :   0.9976 B( 56-C , 57-C ) :   1.1410
B( 56-C , 59-C ) :   1.1346 B( 57-C , 58-N ) :   2.9716 B( 59-C , 60-N ) :   3.0118
B( 61-C , 62-C ) :   1.2100 B( 61-C , 68-C ) :   1.4516 B( 62-C , 63-C ) :   0.9500
B( 62-C , 65-C ) :   1.4717 B( 63-C , 64-O ) :   2.2096 B( 65-C , 66-C ) :   1.1834
B( 65-C , 99-H ) :   1.0159 B( 66-C , 67-C ) :   1.2550 B( 66-C , 72-C ) :   1.2439
B( 67-C , 68-C ) :   1.2071 B( 67-C , 69-C ) :   1.2404 B( 68-C ,100-H ) :   0.9912
B( 69-C , 70-C ) :   1.4899 B( 69-C ,101-H ) :   0.9972 B( 70-C , 71-C ) :   1.2597
B( 70-C ,102-H ) :   0.9884 B( 71-C , 72-C ) :   1.4912 B( 71-C ,103-H ) :   0.9885
B( 72-C ,104-H ) :   0.9974

-----------------------------------------------------------------------------
         ABSORPTION SPECTRUM VIA TRANSITION ELECTRIC DIPOLE MOMENTS
-----------------------------------------------------------------------------
State   Energy  Wavelength   fosc         T2         TX        TY        TZ
        (cm-1)    (nm)                  (au**2)     (au)      (au)      (au)
-----------------------------------------------------------------------------
   0   16275.6    614.4   0.902953456  18.26432  -3.03317   1.87932   2.35210
   1   18271.8    547.3   0.086500380   1.55852   1.06788  -0.48844  -0.42378
   2   21958.6    455.4   0.236511367   3.54586   1.53227  -0.71568   0.82814
   3   23835.8    419.5   0.278531075   3.84698   1.50333  -0.93604  -0.84309
   4   24837.6    402.6   0.008381490   0.11109  -0.26623   0.00988  -0.20030
   5   25477.8    392.5   0.005302947   0.06852  -0.24669  -0.05912  -0.06459
   6   26329.0    379.8   0.089585322   1.12016   1.05232   0.11064   0.02321
   7   26894.6    371.8   0.001207207   0.01478  -0.04926   0.10726   0.02907
   8   27084.9    369.2   0.024593355   0.29893  -0.38214   0.24270   0.30658
   9   27272.5    366.7   0.104254427   1.25848   0.94150  -0.28240  -0.54066
  10   27926.6    358.1   0.154919180   1.82626   0.96577  -0.83653  -0.44018
  11   28246.5    354.0   0.203465484   2.37139   0.08233   1.51421   0.26788
  12   28869.1    346.4   0.236861369   2.70108   1.43888  -0.77503  -0.17330
  13   29325.4    341.0   0.040730769   0.45725   0.24680  -0.33698  -0.53178
  14   29544.1    338.5   0.202289913   2.25413  -1.44815  -0.03159  -0.39494
  15   29658.2    337.2   0.044389088   0.49273  -0.65784   0.22916  -0.08639
  16   30024.5    333.1   0.045240868   0.49606  -0.42699   0.55458  -0.07861
  17   30497.2    327.9   0.005370171   0.05797   0.01557   0.05058   0.23488
  18   31340.8    319.1   0.003139043   0.03297   0.14380   0.07988   0.07691
  19   31879.7    313.7   0.024450917   0.25250   0.38747  -0.02542   0.31893
  20   32369.5    308.9   0.006895044   0.07013   0.20310   0.11136   0.12836
  21   32800.9    304.9   0.295968905   2.97054  -1.41660  -0.78634  -0.58777
  22   32882.1    304.1   0.075421391   0.75511  -0.05449  -0.79293  -0.35128
  23   33414.0    299.3   0.406421357   4.00427   1.26015   1.23885   0.93891
  24   33529.7    298.2   0.009517240   0.09345   0.16356  -0.11795  -0.22974
  25   33621.3    297.4   0.152382505   1.49209  -0.37698   0.26977   1.13014
  26   33990.6    294.2   0.003929773   0.03806  -0.03261  -0.18794   0.04096
  27   34171.9    292.6   0.025657271   0.24718   0.01856   0.13537   0.47803
  28   34345.0    291.2   0.017421294   0.16699   0.27234   0.29821   0.06240
  29   34729.4    287.9   0.030424443   0.28840  -0.20972   0.15081   0.47083
  30   34759.8    287.7   0.481486825   4.56019   0.99131  -1.03320  -1.58429
  31   35087.0    285.0   0.073657275   0.69111   0.71234  -0.41102   0.12142
  32   35776.2    279.5   0.097704206   0.89907   0.24096   0.88655   0.23462
  33   36008.1    277.7   0.077151164   0.70537   0.05860  -0.69808  -0.46327
  34   36341.9    275.2   0.048792650   0.44200   0.65789   0.01092   0.09516
  35   36480.2    274.1   0.010164321   0.09173  -0.08557  -0.27436  -0.09555
  36   36861.5    271.3   0.295480683   2.63895  -0.47894   1.04775   1.14533
  37   37040.9    270.0   0.476678465   4.23663   0.46090  -1.36103  -1.47370
  38   37301.2    268.1   0.028545056   0.25193   0.43248   0.19306   0.16620
  39   37572.0    266.2   0.015299695   0.13406  -0.17701   0.05772   0.31527
  40   37660.1    265.5   0.136564088   1.19380   0.83598  -0.10360  -0.69585
  41   38201.8    261.8   0.008782763   0.07569  -0.13059  -0.20686  -0.12587
  42   38371.6    260.6   0.013110394   0.11248  -0.12127  -0.14390   0.27761
  43   38790.0    257.8   0.315420440   2.67698  -0.33296   1.08228   1.18101
  44   39297.8    254.5   0.008361034   0.07004  -0.10424   0.22605  -0.08989
  45   39663.0    252.1   0.033418316   0.27738   0.07009   0.21363   0.47627
  46   40039.8    249.8   0.003802682   0.03127  -0.03875  -0.17252   0.00078
  47   40072.9    249.5   0.077912210   0.64007  -0.19327   0.76514  -0.13144
  48   40296.2    248.2   0.030048511   0.24549  -0.15020   0.47008   0.04425

FINAL SINGLE POINT ENERGY     -3872.876448600538

DIPOLE MOMENT
-------------
                                X             Y             Z
Electronic contribution:    -10.79744       3.88706      11.31166
Nuclear contribution   :     12.76820      -1.46927     -10.65407
                        -----------------------------------------
Total Dipole Moment    :      1.97076       2.41779       0.65760
                        -----------------------------------------
Magnitude (a.u.)       :      3.18779
Magnitude (Debye)      :      8.10272

Rotational constants in cm-1:     0.002354     0.000254     0.000241
Rotational constants in MHz :    70.568856     7.600517     7.239728

                             ****ORCA TERMINATED NORMALLY****
TOTAL RUN TIME: 0 days 0 hours 11 minutes 7 seconds 977 msec
