                         Program Version 4.2.0 -  RELEASE  -
|  1> # ORCA input file
|  2> # SCF done       -207.621634120594          0.000409533080
|  3> ! CAM-B3LYP def2-SVP def2/J RIJCOSX Grid4 TightSCF
|  4> %maxcore 5000
|  5> %tddft
|  6>     Mode sTDDFT
|  7>     Ethresh 5.0
|  8>     maxcore 5000
|  9> end
| 10>
| 11> %pal
| 12>   nprocs 6
| 13>   end
| 14> * xyz 0 1
| 15>    C        3.45510         2.32282        -2.22388
| 16>    C        4.09723         3.52905        -2.14650
| 17>    C        4.83912         4.09472        -3.20467
| 18>    N        5.44908         4.60125        -4.03419
| 19>    C        4.18648         4.29027        -0.96226
| 20>    N        4.33230         4.90534        -0.00418
| 21>    C        3.60271         1.35843        -3.30858
| 22>    C        3.24388         0.06698        -2.82034
| 23>    C        3.33654        -1.04684        -3.60497
| 24>    C        3.78878        -0.91546        -4.93701
| 25>    C        4.12853         0.37561        -5.43654
| 26>    C        4.02877         1.51120        -4.60020
| 27>    C        4.57072         0.49249        -6.76995
| 28>    C        4.67706        -0.61118        -7.57169
| 29>    C        4.34414        -1.88183        -7.07865
| 30>    C        3.90955        -2.03070        -5.78963
| 31>    C        2.77811         0.18112        -1.42814
| 32>    O        2.43914        -0.69891        -0.67338
| 33>    C        2.74092         1.65130        -1.15384
| 34>    C        1.97883         2.11447        -0.12849
| 35>    C        1.50327         3.43347         0.06576
| 36>    O        1.60532         4.37039        -0.89052
| 37>    C        1.07484         5.52468        -0.42758
| 38>    C        0.58962         5.32915         0.85797
| 39>    C        0.85065         3.98692         1.17727
| 40>    C        0.53417         3.32300         2.37221
| 41>    N        0.25848         2.78683         3.34665
| 42>    C        1.15505         6.65296        -1.27959
| 43>    C        0.76331         7.91188        -0.95438
| 44>    C        0.94899         8.99654        -1.84415
| 45>    N        0.61326        10.29602        -1.55680
| 46>    C        0.07043        10.79618        -0.31674
| 47>    C        1.14990        10.94820         0.75210
| 48>    C        0.93824        11.17073        -2.61003
| 49>    O        0.72735        12.36522        -2.57465
| 50>    C        1.51169        10.31166        -3.62441
| 51>    C        1.49808         8.98907        -3.13131
| 52>    C        2.06492         8.12750        -4.14891
| 53>    O        2.25168         6.92658        -4.18507
| 54>    N        2.39729         8.99759        -5.19533
| 55>    C        2.98107         8.50083        -6.41858
| 56>    C        1.94149         8.35992        -7.52779
| 57>    C        2.07481        10.30562        -4.90774
| 58>    C        2.30955        11.38603        -5.78036
| 59>    C        2.01910        12.67892        -5.44434
| 60>    C        2.23778        13.79773        -6.27386
| 61>    C        2.01161        15.11541        -5.91050
| 62>    C        2.32770        15.96694        -6.99851
| 63>    C        2.77509        15.08108        -8.09201
| 64>    C        2.72829        13.79948        -7.64643
| 65>    C        3.21658        15.46188        -9.36478
| 66>    N        3.59565        15.72178       -10.41740
| 67>    C        2.24692        17.34463        -7.04587
| 68>    C        2.46991        18.19200        -8.16386
| 69>    C        2.29467        19.50926        -7.77790
| 70>    C        1.96063        19.51317        -6.36037
| 71>    C        1.91208        18.23143        -5.91508
| 72>    C        1.62135        17.85462        -4.59906
| 73>    N        1.37818        17.59355        -3.50720
| 74>    C        2.39535        20.69090        -8.54875
| 75>    C        2.57131        20.73429        -9.90082
| 76>    C        2.65606        21.96356       -10.58800
| 77>    C        2.74833        22.09847       -11.94630
| 78>    C        2.86123        23.33680       -12.69246
| 79>    C        2.95615        24.60536       -12.17722
| 80>    C        3.07270        25.77180       -12.96209
| 81>    N        3.16881        26.76113       -13.53682
| 82>    C        2.95920        24.94251       -10.80803
| 83>    N        2.97022        25.30407        -9.71764
| 84>    C        2.87408        23.00188       -14.11275
| 85>    C        2.78849        21.58700       -14.24881
| 86>    C        2.71041        20.96830       -12.91469
| 87>    O        2.61643        19.78481       -12.66989
| 88>    C        2.77665        20.97682       -15.46962
| 89>    C        2.85026        21.76979       -16.63647
| 90>    C        2.93541        23.18645       -16.51041
| 91>    C        2.94645        23.78940       -15.23164
| 92>    C        3.00646        23.96894       -17.68097
| 93>    C        2.99345        23.38214       -18.91703
| 94>    C        2.90906        21.98715       -19.03981
| 95>    C        2.83938        21.19807       -17.92377
| 96>    H        3.06856        -2.01703        -3.21390
| 97>    H        4.28129         2.47915        -5.00423
| 98>    H        4.82923         1.47226        -7.14377
| 99>    H        5.01936        -0.51156        -8.59083
|100>    H        4.43370        -2.74178        -7.72526
|101>    H        3.65185        -3.00631        -5.40436
|102>    H        1.62977         1.37826         0.58707
|103>    H        0.11263         6.05088         1.48863
|104>    H        1.60419         6.46202        -2.24594
|105>    H        0.31890         8.11106         0.00935
|106>    H       -0.72987        10.13401         0.02454
|107>    H       -0.35657        11.77633        -0.54669
|108>    H        1.63231         9.99566         0.96054
|109>    H        0.70821        11.32707         1.66938
|110>    H        1.90669        11.65225         0.41552
|111>    H        3.39741         7.51853        -6.17815
|112>    H        3.79657         9.16030        -6.72751
|113>    H        1.16603         7.66156        -7.22280
|114>    H        2.41476         7.98090        -8.42927
|115>    H        1.47465         9.31662        -7.75223
|116>    H        2.75026        11.16666        -6.74186
|117>    H        1.59353        12.88592        -4.47104
|118>    H        1.64491        15.43880        -4.95605
|119>    H        3.00256        12.93029        -8.21475
|120>    H        2.72896        17.84875        -9.14595
|121>    H        1.77716        20.39863        -5.77971
|122>    H        2.30294        21.62622        -8.00756
|123>    H        2.63392        19.82185       -10.47414
|124>    H        2.63979        22.85742        -9.97675
|125>    H        2.71097        19.90139       -15.54269
|126>    H        3.00977        24.86420       -15.17265
|127>    H        3.07146        25.04255       -17.58141
|128>    H        3.04806        23.99014       -19.80763
|129>    H        2.89947        21.54103       -20.02307
|130>    H        2.77434        20.12342       -18.01163
|131> *
|132>
|133>                          ****END OF INPUT****

CARTESIAN COORDINATES (ANGSTROEM)
---------------------------------
  C      3.455100    2.322820   -2.223880
  C      4.097230    3.529050   -2.146500
  C      4.839120    4.094720   -3.204670
  N      5.449080    4.601250   -4.034190
  C      4.186480    4.290270   -0.962260
  N      4.332300    4.905340   -0.004180
  C      3.602710    1.358430   -3.308580
  C      3.243880    0.066980   -2.820340
  C      3.336540   -1.046840   -3.604970
  C      3.788780   -0.915460   -4.937010
  C      4.128530    0.375610   -5.436540
  C      4.028770    1.511200   -4.600200
  C      4.570720    0.492490   -6.769950
  C      4.677060   -0.611180   -7.571690
  C      4.344140   -1.881830   -7.078650
  C      3.909550   -2.030700   -5.789630
  C      2.778110    0.181120   -1.428140
  O      2.439140   -0.698910   -0.673380
  C      2.740920    1.651300   -1.153840
  C      1.978830    2.114470   -0.128490
  C      1.503270    3.433470    0.065760
  O      1.605320    4.370390   -0.890520
  C      1.074840    5.524680   -0.427580
  C      0.589620    5.329150    0.857970
  C      0.850650    3.986920    1.177270
  C      0.534170    3.323000    2.372210
  N      0.258480    2.786830    3.346650
  C      1.155050    6.652960   -1.279590
  C      0.763310    7.911880   -0.954380
  C      0.948990    8.996540   -1.844150
  N      0.613260   10.296020   -1.556800
  C      0.070430   10.796180   -0.316740
  C      1.149900   10.948200    0.752100
  C      0.938240   11.170730   -2.610030
  O      0.727350   12.365220   -2.574650
  C      1.511690   10.311660   -3.624410
  C      1.498080    8.989070   -3.131310
  C      2.064920    8.127500   -4.148910
  O      2.251680    6.926580   -4.185070
  N      2.397290    8.997590   -5.195330
  C      2.981070    8.500830   -6.418580
  C      1.941490    8.359920   -7.527790
  C      2.074810   10.305620   -4.907740
  C      2.309550   11.386030   -5.780360
  C      2.019100   12.678920   -5.444340
  C      2.237780   13.797730   -6.273860
  C      2.011610   15.115410   -5.910500
  C      2.327700   15.966940   -6.998510
  C      2.775090   15.081080   -8.092010
  C      2.728290   13.799480   -7.646430
  C      3.216580   15.461880   -9.364780
  N      3.595650   15.721780  -10.417400
  C      2.246920   17.344630   -7.045870
  C      2.469910   18.192000   -8.163860
  C      2.294670   19.509260   -7.777900
  C      1.960630   19.513170   -6.360370
  C      1.912080   18.231430   -5.915080
  C      1.621350   17.854620   -4.599060
  N      1.378180   17.593550   -3.507200
  C      2.395350   20.690900   -8.548750
  C      2.571310   20.734290   -9.900820
  C      2.656060   21.963560  -10.588000
  C      2.748330   22.098470  -11.946300
  C      2.861230   23.336800  -12.692460
  C      2.956150   24.605360  -12.177220
  C      3.072700   25.771800  -12.962090
  N      3.168810   26.761130  -13.536820
  C      2.959200   24.942510  -10.808030
  N      2.970220   25.304070   -9.717640
  C      2.874080   23.001880  -14.112750
  C      2.788490   21.587000  -14.248810
  C      2.710410   20.968300  -12.914690
  O      2.616430   19.784810  -12.669890
  C      2.776650   20.976820  -15.469620
  C      2.850260   21.769790  -16.636470
  C      2.935410   23.186450  -16.510410
  C      2.946450   23.789400  -15.231640
  C      3.006460   23.968940  -17.680970
  C      2.993450   23.382140  -18.917030
  C      2.909060   21.987150  -19.039810
  C      2.839380   21.198070  -17.923770
  H      3.068560   -2.017030   -3.213900
  H      4.281290    2.479150   -5.004230
  H      4.829230    1.472260   -7.143770
  H      5.019360   -0.511560   -8.590830
  H      4.433700   -2.741780   -7.725260
  H      3.651850   -3.006310   -5.404360
  H      1.629770    1.378260    0.587070
  H      0.112630    6.050880    1.488630
  H      1.604190    6.462020   -2.245940
  H      0.318900    8.111060    0.009350
  H     -0.729870   10.134010    0.024540
  H     -0.356570   11.776330   -0.546690
  H      1.632310    9.995660    0.960540
  H      0.708210   11.327070    1.669380
  H      1.906690   11.652250    0.415520
  H      3.397410    7.518530   -6.178150
  H      3.796570    9.160300   -6.727510
  H      1.166030    7.661560   -7.222800
  H      2.414760    7.980900   -8.429270
  H      1.474650    9.316620   -7.752230
  H      2.750260   11.166660   -6.741860
  H      1.593530   12.885920   -4.471040
  H      1.644910   15.438800   -4.956050
  H      3.002560   12.930290   -8.214750
  H      2.728960   17.848750   -9.145950
  H      1.777160   20.398630   -5.779710
  H      2.302940   21.626220   -8.007560
  H      2.633920   19.821850  -10.474140
  H      2.639790   22.857420   -9.976750
  H      2.710970   19.901390  -15.542690
  H      3.009770   24.864200  -15.172650
  H      3.071460   25.042550  -17.581410
  H      3.048060   23.990140  -19.807630
  H      2.899470   21.541030  -20.023070
  H      2.774340   20.123420  -18.011630

 Total Charge           Charge          ....    0
 Multiplicity           Mult            ....    1
 Number of Electrons    NEL             ....  540
 Basis Dimension        Dim             .... 1309

ORBITAL ENERGIES
----------------

  NO   OCC          E(Eh)            E(eV)
   0   2.0000     -19.327122      -525.9177
   1   2.0000     -19.220515      -523.0168
   2   2.0000     -19.216000      -522.8939
   3   2.0000     -19.204367      -522.5774
   4   2.0000     -19.202509      -522.5268
   5   2.0000     -14.465805      -393.6346
   6   2.0000     -14.464406      -393.5965
   7   2.0000     -14.422765      -392.4634
   8   2.0000     -14.418716      -392.3532
   9   2.0000     -14.417471      -392.3193
  10   2.0000     -14.416944      -392.3050
  11   2.0000     -14.414539      -392.2395
  12   2.0000     -14.413764      -392.2185
  13   2.0000     -14.408617      -392.0784
  14   2.0000     -10.386225      -282.6235
  15   2.0000     -10.385126      -282.5936
  16   2.0000     -10.375760      -282.3388
  17   2.0000     -10.371791      -282.2308
  18   2.0000     -10.368787      -282.1490
  19   2.0000     -10.366495      -282.0867
  20   2.0000     -10.353266      -281.7267
  21   2.0000     -10.350275      -281.6453
  22   2.0000     -10.348549      -281.5983
  23   2.0000     -10.345004      -281.5019
  24   2.0000     -10.342585      -281.4361
  25   2.0000     -10.340834      -281.3884
  26   2.0000     -10.338742      -281.3315
  27   2.0000     -10.330255      -281.1005
  28   2.0000     -10.328972      -281.0656
  29   2.0000     -10.326979      -281.0114
  30   2.0000     -10.323875      -280.9269
  31   2.0000     -10.322694      -280.8948
  32   2.0000     -10.320456      -280.8339
  33   2.0000     -10.320234      -280.8278
  34   2.0000     -10.319953      -280.8202
  35   2.0000     -10.318054      -280.7685
  36   2.0000     -10.317452      -280.7521
  37   2.0000     -10.317344      -280.7492
  38   2.0000     -10.316959      -280.7387
  39   2.0000     -10.316578      -280.7284
  40   2.0000     -10.315622      -280.7023
  41   2.0000     -10.315056      -280.6869
  42   2.0000     -10.314422      -280.6697
  43   2.0000     -10.312029      -280.6046
  44   2.0000     -10.311972      -280.6030
  45   2.0000     -10.310455      -280.5617
  46   2.0000     -10.310035      -280.5503
  47   2.0000     -10.309795      -280.5438
  48   2.0000     -10.309361      -280.5320
  49   2.0000     -10.308790      -280.5164
  50   2.0000     -10.307903      -280.4923
  51   2.0000     -10.307506      -280.4815
  52   2.0000     -10.305705      -280.4325
  53   2.0000     -10.302883      -280.3557
  54   2.0000     -10.302352      -280.3412
  55   2.0000     -10.301397      -280.3153
  56   2.0000     -10.301117      -280.3076
  57   2.0000     -10.300902      -280.3018
  58   2.0000     -10.300761      -280.2979
  59   2.0000     -10.299719      -280.2696
  60   2.0000     -10.297204      -280.2012
  61   2.0000     -10.296949      -280.1942
  62   2.0000     -10.296121      -280.1717
  63   2.0000     -10.295600      -280.1575
  64   2.0000     -10.293672      -280.1051
  65   2.0000     -10.292977      -280.0862
  66   2.0000     -10.292852      -280.0827
  67   2.0000     -10.290002      -280.0052
  68   2.0000     -10.289619      -279.9948
  69   2.0000     -10.289314      -279.9865
  70   2.0000     -10.288994      -279.9778
  71   2.0000     -10.288611      -279.9673
  72   2.0000     -10.287463      -279.9361
  73   2.0000     -10.286177      -279.9011
  74   2.0000     -10.285617      -279.8859
  75   2.0000     -10.285444      -279.8812
  76   2.0000     -10.284995      -279.8689
  77   2.0000     -10.276665      -279.6423
  78   2.0000     -10.275204      -279.6025
  79   2.0000     -10.272862      -279.5388
  80   2.0000     -10.270951      -279.4868
  81   2.0000      -1.249959       -34.0131
  82   2.0000      -1.146233       -31.1906
  83   2.0000      -1.139334       -31.0028
  84   2.0000      -1.136084       -30.9144
  85   2.0000      -1.130824       -30.7713
  86   2.0000      -1.076299       -29.2876
  87   2.0000      -1.067682       -29.0531
  88   2.0000      -1.021459       -27.7953
  89   2.0000      -1.020752       -27.7761
  90   2.0000      -1.018379       -27.7115
  91   2.0000      -1.007869       -27.4255
  92   2.0000      -1.003934       -27.3184
  93   2.0000      -1.001851       -27.2618
  94   2.0000      -0.998500       -27.1706
  95   2.0000      -0.996136       -27.1062
  96   2.0000      -0.993992       -27.0479
  97   2.0000      -0.989444       -26.9241
  98   2.0000      -0.984631       -26.7932
  99   2.0000      -0.976428       -26.5700
 100   2.0000      -0.971263       -26.4294
 101   2.0000      -0.948482       -25.8095
 102   2.0000      -0.945598       -25.7310
 103   2.0000      -0.939407       -25.5626
 104   2.0000      -0.933008       -25.3884
 105   2.0000      -0.927248       -25.2317
 106   2.0000      -0.922667       -25.1070
 107   2.0000      -0.918352       -24.9896
 108   2.0000      -0.911468       -24.8023
 109   2.0000      -0.894452       -24.3393
 110   2.0000      -0.891286       -24.2531
 111   2.0000      -0.884631       -24.0720
 112   2.0000      -0.881897       -23.9976
 113   2.0000      -0.880561       -23.9613
 114   2.0000      -0.874433       -23.7945
 115   2.0000      -0.863686       -23.5021
 116   2.0000      -0.857178       -23.3250
 117   2.0000      -0.855231       -23.2720
 118   2.0000      -0.835007       -22.7217
 119   2.0000      -0.831830       -22.6352
 120   2.0000      -0.830585       -22.6014
 121   2.0000      -0.827696       -22.5227
 122   2.0000      -0.818306       -22.2672
 123   2.0000      -0.810950       -22.0671
 124   2.0000      -0.792122       -21.5547
 125   2.0000      -0.785504       -21.3746
 126   2.0000      -0.772697       -21.0262
 127   2.0000      -0.770362       -20.9626
 128   2.0000      -0.768734       -20.9183
 129   2.0000      -0.762820       -20.7574
 130   2.0000      -0.761412       -20.7191
 131   2.0000      -0.740212       -20.1422
 132   2.0000      -0.732794       -19.9403
 133   2.0000      -0.728435       -19.8217
 134   2.0000      -0.719863       -19.5885
 135   2.0000      -0.718664       -19.5558
 136   2.0000      -0.709958       -19.3189
 137   2.0000      -0.705578       -19.1997
 138   2.0000      -0.704251       -19.1636
 139   2.0000      -0.702918       -19.1274
 140   2.0000      -0.700517       -19.0620
 141   2.0000      -0.698348       -19.0030
 142   2.0000      -0.684702       -18.6317
 143   2.0000      -0.681090       -18.5334
 144   2.0000      -0.678119       -18.4525
 145   2.0000      -0.676704       -18.4141
 146   2.0000      -0.670657       -18.2495
 147   2.0000      -0.661094       -17.9893
 148   2.0000      -0.651645       -17.7322
 149   2.0000      -0.650462       -17.7000
 150   2.0000      -0.644665       -17.5422
 151   2.0000      -0.638994       -17.3879
 152   2.0000      -0.635394       -17.2900
 153   2.0000      -0.631480       -17.1835
 154   2.0000      -0.622808       -16.9475
 155   2.0000      -0.617437       -16.8013
 156   2.0000      -0.610912       -16.6238
 157   2.0000      -0.606819       -16.5124
 158   2.0000      -0.605629       -16.4800
 159   2.0000      -0.603124       -16.4118
 160   2.0000      -0.600846       -16.3498
 161   2.0000      -0.597778       -16.2664
 162   2.0000      -0.592746       -16.1294
 163   2.0000      -0.586893       -15.9702
 164   2.0000      -0.582724       -15.8567
 165   2.0000      -0.578100       -15.7309
 166   2.0000      -0.575999       -15.6737
 167   2.0000      -0.569650       -15.5010
 168   2.0000      -0.560267       -15.2456
 169   2.0000      -0.559028       -15.2119
 170   2.0000      -0.554895       -15.0995
 171   2.0000      -0.552065       -15.0225
 172   2.0000      -0.549724       -14.9588
 173   2.0000      -0.549087       -14.9414
 174   2.0000      -0.545837       -14.8530
 175   2.0000      -0.541765       -14.7422
 176   2.0000      -0.541156       -14.7256
 177   2.0000      -0.539435       -14.6788
 178   2.0000      -0.537237       -14.6190
 179   2.0000      -0.536870       -14.6090
 180   2.0000      -0.536056       -14.5868
 181   2.0000      -0.533666       -14.5218
 182   2.0000      -0.532827       -14.4990
 183   2.0000      -0.529900       -14.4193
 184   2.0000      -0.526884       -14.3372
 185   2.0000      -0.525668       -14.3042
 186   2.0000      -0.522716       -14.2238
 187   2.0000      -0.522006       -14.2045
 188   2.0000      -0.520131       -14.1535
 189   2.0000      -0.517373       -14.0784
 190   2.0000      -0.516203       -14.0466
 191   2.0000      -0.515164       -14.0183
 192   2.0000      -0.513676       -13.9778
 193   2.0000      -0.512203       -13.9378
 194   2.0000      -0.507073       -13.7982
 195   2.0000      -0.506370       -13.7790
 196   2.0000      -0.505882       -13.7658
 197   2.0000      -0.502000       -13.6601
 198   2.0000      -0.496993       -13.5239
 199   2.0000      -0.496183       -13.5018
 200   2.0000      -0.495703       -13.4888
 201   2.0000      -0.494454       -13.4548
 202   2.0000      -0.492011       -13.3883
 203   2.0000      -0.487482       -13.2651
 204   2.0000      -0.486024       -13.2254
 205   2.0000      -0.485197       -13.2029
 206   2.0000      -0.481738       -13.1088
 207   2.0000      -0.478386       -13.0175
 208   2.0000      -0.477256       -12.9868
 209   2.0000      -0.475876       -12.9492
 210   2.0000      -0.472804       -12.8656
 211   2.0000      -0.469339       -12.7714
 212   2.0000      -0.469082       -12.7644
 213   2.0000      -0.466159       -12.6848
 214   2.0000      -0.464692       -12.6449
 215   2.0000      -0.461646       -12.5620
 216   2.0000      -0.458925       -12.4880
 217   2.0000      -0.455834       -12.4039
 218   2.0000      -0.453089       -12.3292
 219   2.0000      -0.452287       -12.3073
 220   2.0000      -0.450130       -12.2487
 221   2.0000      -0.449684       -12.2365
 222   2.0000      -0.449447       -12.2301
 223   2.0000      -0.447439       -12.1754
 224   2.0000      -0.446913       -12.1611
 225   2.0000      -0.444665       -12.0999
 226   2.0000      -0.443627       -12.0717
 227   2.0000      -0.441675       -12.0186
 228   2.0000      -0.439812       -11.9679
 229   2.0000      -0.439436       -11.9576
 230   2.0000      -0.437692       -11.9102
 231   2.0000      -0.437647       -11.9090
 232   2.0000      -0.435530       -11.8514
 233   2.0000      -0.433654       -11.8003
 234   2.0000      -0.433556       -11.7976
 235   2.0000      -0.432423       -11.7668
 236   2.0000      -0.430617       -11.7177
 237   2.0000      -0.428138       -11.6502
 238   2.0000      -0.427181       -11.6242
 239   2.0000      -0.425266       -11.5721
 240   2.0000      -0.422684       -11.5018
 241   2.0000      -0.420581       -11.4446
 242   2.0000      -0.419575       -11.4172
 243   2.0000      -0.419293       -11.4096
 244   2.0000      -0.418981       -11.4011
 245   2.0000      -0.409927       -11.1547
 246   2.0000      -0.406221       -11.0538
 247   2.0000      -0.400332       -10.8936
 248   2.0000      -0.396861       -10.7991
 249   2.0000      -0.392614       -10.6836
 250   2.0000      -0.383485       -10.4352
 251   2.0000      -0.379312       -10.3216
 252   2.0000      -0.374988       -10.2039
 253   2.0000      -0.370629       -10.0853
 254   2.0000      -0.360027        -9.7968
 255   2.0000      -0.356689        -9.7060
 256   2.0000      -0.344202        -9.3662
 257   2.0000      -0.342671        -9.3246
 258   2.0000      -0.341138        -9.2828
 259   2.0000      -0.334855        -9.1119
 260   2.0000      -0.328004        -8.9254
 261   2.0000      -0.326680        -8.8894
 262   2.0000      -0.320142        -8.7115
 263   2.0000      -0.316086        -8.6011
 264   2.0000      -0.309520        -8.4225
 265   2.0000      -0.301808        -8.2126
 266   2.0000      -0.295443        -8.0394
 267   2.0000      -0.293129        -7.9765
 268   2.0000      -0.278885        -7.5888
 269   2.0000      -0.241942        -6.5836
 270   0.0000      -0.142186        -3.8691
 271   0.0000      -0.109836        -2.9888
 272   0.0000      -0.088679        -2.4131
 273   0.0000      -0.077070        -2.0972
 274   0.0000      -0.058916        -1.6032

MULLIKEN ATOMIC CHARGES
-----------------------
   0 C :    0.267544
   1 C :   -0.304152
   2 C :   -0.164937
   3 N :    0.154242
   4 C :   -0.195884
   5 N :    0.154114
   6 C :    0.039493
   7 C :    0.008701
   8 C :   -0.080603
   9 C :    0.095011
  10 C :    0.096739
  11 C :   -0.082062
  12 C :   -0.018392
  13 C :    0.039231
  14 C :    0.034466
  15 C :   -0.014935
  16 C :    0.137891
  17 O :   -0.134645
  18 C :   -0.105460
  19 C :   -0.015414
  20 C :    0.145627
  21 O :   -0.178019
  22 C :    0.209888
  23 C :   -0.046493
  24 C :   -0.047723
  25 C :   -0.189703
  26 N :    0.175314
  27 C :    0.025543
  28 C :   -0.015981
  29 C :    0.130894
  30 N :   -0.255566
  31 C :    0.096148
  32 C :    0.001754
  33 C :    0.166318
  34 O :   -0.195802
  35 C :   -0.058807
  36 C :   -0.066521
  37 C :    0.174242
  38 O :   -0.210698
  39 N :   -0.255580
  40 C :    0.096978
  41 C :    0.003387
  42 C :    0.145085
  43 C :   -0.021970
  44 C :    0.008390
  45 C :    0.110594
  46 C :   -0.104568
  47 C :    0.126578
  48 C :   -0.099316
  49 C :   -0.009321
  50 C :   -0.175074
  51 N :    0.147618
  52 C :    0.106994
  53 C :   -0.102145
  54 C :    0.114134
  55 C :   -0.005505
  56 C :   -0.091420
  57 C :   -0.179393
  58 N :    0.141514
  59 C :    0.018816
  60 C :    0.010787
  61 C :   -0.041299
  62 C :   -0.066027
  63 C :    0.336284
  64 C :   -0.347442
  65 C :   -0.185025
  66 N :    0.150306
  67 C :   -0.191793
  68 N :    0.145964
  69 C :    0.045178
  70 C :   -0.003440
  71 C :    0.148306
  72 O :   -0.142278
  73 C :   -0.079820
  74 C :    0.098561
  75 C :    0.097123
  76 C :   -0.084025
  77 C :   -0.021495
  78 C :    0.035695
  79 C :    0.037197
  80 C :   -0.017407
  81 H :   -0.009836
  82 H :   -0.001906
  83 H :   -0.012064
  84 H :   -0.004385
  85 H :   -0.003571
  86 H :   -0.016218
  87 H :    0.038901
  88 H :    0.004143
  89 H :    0.027444
  90 H :   -0.023763
  91 H :    0.022968
  92 H :    0.049020
  93 H :    0.017544
  94 H :    0.027817
  95 H :    0.035400
  96 H :    0.052457
  97 H :    0.026085
  98 H :    0.030585
  99 H :    0.026541
 100 H :    0.012601
 101 H :   -0.029415
 102 H :    0.018545
 103 H :    0.019205
 104 H :   -0.000535
 105 H :    0.016102
 106 H :    0.001090
 107 H :    0.003054
 108 H :    0.040416
 109 H :    0.011179
 110 H :   -0.010083
 111 H :   -0.008400
 112 H :   -0.007727
 113 H :   -0.004597
 114 H :   -0.005806
 115 H :   -0.015299
Sum of atomic charges:    0.0000000

LOEWDIN ATOMIC CHARGES
----------------------
   0 C :    0.065808
   1 C :   -0.121356
   2 C :   -0.014359
   3 N :   -0.046758
   4 C :   -0.022373
   5 N :   -0.055300
   6 C :   -0.020758
   7 C :   -0.058525
   8 C :    0.034697
   9 C :   -0.009088
  10 C :   -0.004172
  11 C :    0.016240
  12 C :   -0.006693
  13 C :   -0.011788
  14 C :   -0.012714
  15 C :   -0.008160
  16 C :    0.083519
  17 O :   -0.134494
  18 C :   -0.062999
  19 C :    0.038323
  20 C :    0.048710
  21 O :    0.052759
  22 C :    0.052963
  23 C :   -0.015318
  24 C :   -0.071440
  25 C :   -0.033186
  26 N :   -0.029545
  27 C :    0.015166
  28 C :   -0.028198
  29 C :    0.076417
  30 N :    0.002800
  31 C :    0.036652
  32 C :   -0.060003
  33 C :    0.081692
  34 O :   -0.185501
  35 C :   -0.108547
  36 C :   -0.115145
  37 C :    0.081605
  38 O :   -0.197164
  39 N :    0.003042
  40 C :    0.037624
  41 C :   -0.060968
  42 C :    0.072015
  43 C :   -0.035138
  44 C :    0.033424
  45 C :   -0.015280
  46 C :   -0.012380
  47 C :    0.041996
  48 C :   -0.074089
  49 C :    0.052036
  50 C :   -0.034426
  51 N :   -0.053091
  52 C :    0.032773
  53 C :   -0.003330
  54 C :   -0.025320
  55 C :    0.052175
  56 C :   -0.081957
  57 C :   -0.033123
  58 N :   -0.058006
  59 C :    0.023900
  60 C :   -0.002357
  61 C :    0.062848
  62 C :   -0.082950
  63 C :    0.074676
  64 C :   -0.137198
  65 C :   -0.017118
  66 N :   -0.052979
  67 C :   -0.020101
  68 N :   -0.053126
  69 C :   -0.025883
  70 C :   -0.055429
  71 C :    0.083668
  72 O :   -0.137945
  73 C :    0.032955
  74 C :   -0.007837
  75 C :   -0.006034
  76 C :    0.019146
  77 C :   -0.005590
  78 C :   -0.013412
  79 C :   -0.011980
  80 C :   -0.009512
  81 H :    0.040156
  82 H :    0.039686
  83 H :    0.033947
  84 H :    0.033359
  85 H :    0.033259
  86 H :    0.032325
  87 H :    0.060098
  88 H :    0.041664
  89 H :    0.046463
  90 H :    0.030734
  91 H :    0.022843
  92 H :    0.040236
  93 H :    0.022528
  94 H :    0.032609
  95 H :    0.034766
  96 H :    0.041670
  97 H :    0.024163
  98 H :    0.032744
  99 H :    0.031904
 100 H :    0.020721
 101 H :    0.028200
 102 H :    0.043457
 103 H :    0.041304
 104 H :    0.035030
 105 H :    0.037856
 106 H :    0.038403
 107 H :    0.037713
 108 H :    0.038397
 109 H :    0.042146
 110 H :    0.039964
 111 H :    0.038954
 112 H :    0.034974
 113 H :    0.033215
 114 H :    0.032666
 115 H :    0.032362

  Mayer bond orders larger than 0.100000
B(  0-C ,  1-C ) :   1.6816 B(  0-C ,  6-C ) :   1.0047 B(  0-C , 18-C ) :   1.0172
B(  1-C ,  2-C ) :   1.1328 B(  1-C ,  4-C ) :   1.1621 B(  2-C ,  3-N ) :   2.9818
B(  4-C ,  5-N ) :   2.9891 B(  6-C ,  7-C ) :   1.2115 B(  6-C , 11-C ) :   1.4595
B(  7-C ,  8-C ) :   1.4732 B(  7-C , 16-C ) :   0.9223 B(  8-C ,  9-C ) :   1.1874
B(  8-C , 81-H ) :   1.0165 B(  9-C , 10-C ) :   1.2549 B(  9-C , 15-C ) :   1.2444
B( 10-C , 11-C ) :   1.2045 B( 10-C , 12-C ) :   1.2409 B( 11-C , 82-H ) :   0.9932
B( 12-C , 13-C ) :   1.4905 B( 12-C , 83-H ) :   0.9976 B( 13-C , 14-C ) :   1.2588
B( 13-C , 84-H ) :   0.9883 B( 14-C , 15-C ) :   1.4898 B( 14-C , 85-H ) :   0.9895
B( 15-C , 86-H ) :   0.9981 B( 16-C , 17-O ) :   2.2753 B( 16-C , 18-C ) :   0.9274
B( 18-C , 19-C ) :   1.6498 B( 19-C , 20-C ) :   1.1481 B( 19-C , 87-H ) :   0.9424
B( 20-C , 21-O ) :   1.1630 B( 20-C , 24-C ) :   1.3848 B( 21-O , 22-C ) :   1.1196
B( 22-C , 23-C ) :   1.4210 B( 22-C , 27-C ) :   1.1246 B( 23-C , 24-C ) :   1.2951
B( 23-C , 88-H ) :   1.0127 B( 24-C , 25-C ) :   1.1053 B( 25-C , 26-N ) :   3.0376
B( 27-C , 28-C ) :   1.5888 B( 27-C , 89-H ) :   0.9264 B( 28-C , 29-C ) :   1.1806
B( 28-C , 90-H ) :   0.9644 B( 29-C , 30-N ) :   1.1678 B( 29-C , 36-C ) :   1.3132
B( 30-N , 31-C ) :   0.9429 B( 30-N , 33-C ) :   1.0538 B( 31-C , 32-C ) :   1.1205
B( 31-C , 91-H ) :   0.9502 B( 31-C , 92-H ) :   0.9278 B( 32-C , 93-H ) :   0.9686
B( 32-C , 94-H ) :   0.9680 B( 32-C , 95-H ) :   0.9637 B( 33-C , 34-O ) :   2.0366
B( 33-C , 35-C ) :   0.9818 B( 34-O ,102-H ) :   0.1090 B( 35-C , 36-C ) :   1.2817
B( 35-C , 42-C ) :   1.3145 B( 36-C , 37-C ) :   0.9847 B( 37-C , 38-O ) :   2.0147
B( 37-C , 39-N ) :   1.0681 B( 38-O , 89-H ) :   0.1160 B( 39-N , 40-C ) :   0.9425
B( 39-N , 42-C ) :   1.1558 B( 40-C , 41-C ) :   1.1200 B( 40-C , 96-H ) :   0.9278
B( 40-C , 97-H ) :   0.9501 B( 41-C , 98-H ) :   0.9638 B( 41-C , 99-H ) :   0.9684
B( 41-C ,100-H ) :   0.9684 B( 42-C , 43-C ) :   1.1806 B( 43-C , 44-C ) :   1.5255
B( 43-C ,101-H ) :   0.9625 B( 44-C , 45-C ) :   1.1471 B( 44-C ,102-H ) :   0.9567
B( 45-C , 46-C ) :   1.4815 B( 45-C , 49-C ) :   1.0284 B( 46-C , 47-C ) :   1.1324
B( 46-C ,103-H ) :   1.0111 B( 47-C , 48-C ) :   1.0986 B( 47-C , 52-C ) :   1.3782
B( 48-C , 49-C ) :   1.6983 B( 48-C , 50-C ) :   1.0846 B( 49-C ,104-H ) :   1.0146
B( 50-C , 51-N ) :   2.9802 B( 52-C , 53-C ) :   1.1388 B( 52-C , 56-C ) :   1.1090
B( 53-C , 54-C ) :   1.5218 B( 53-C ,105-H ) :   0.9979 B( 54-C , 55-C ) :   1.0361
B( 54-C , 59-C ) :   1.0875 B( 55-C , 56-C ) :   1.6652 B( 55-C ,106-H ) :   1.0252
B( 56-C , 57-C ) :   1.0857 B( 57-C , 58-N ) :   2.9744 B( 59-C , 60-C ) :   1.5618
B( 59-C ,107-H ) :   0.9865 B( 60-C , 61-C ) :   1.1574 B( 60-C ,108-H ) :   0.9797
B( 61-C , 62-C ) :   1.5383 B( 61-C ,109-H ) :   0.9634 B( 62-C , 63-C ) :   1.0624
B( 62-C , 71-C ) :   0.9371 B( 63-C , 64-C ) :   1.6240 B( 63-C , 69-C ) :   0.9909
B( 64-C , 65-C ) :   1.1453 B( 64-C , 67-C ) :   1.1482 B( 65-C , 66-N ) :   2.9620
B( 67-C , 68-N ) :   2.9582 B( 69-C , 70-C ) :   1.2149 B( 69-C , 76-C ) :   1.4482
B( 70-C , 71-C ) :   0.9441 B( 70-C , 73-C ) :   1.4739 B( 71-C , 72-O ) :   2.2075
B( 73-C , 74-C ) :   1.1784 B( 73-C ,110-H ) :   1.0161 B( 74-C , 75-C ) :   1.2547
B( 74-C , 80-C ) :   1.2447 B( 75-C , 76-C ) :   1.2087 B( 75-C , 77-C ) :   1.2387
B( 76-C ,111-H ) :   0.9886 B( 77-C , 78-C ) :   1.4899 B( 77-C ,112-H ) :   0.9972
B( 78-C , 79-C ) :   1.2593 B( 78-C ,113-H ) :   0.9888 B( 79-C , 80-C ) :   1.4874
B( 79-C ,114-H ) :   0.9897 B( 80-C ,115-H ) :   0.9979

-----------------------------------------------------------------------------
         ABSORPTION SPECTRUM VIA TRANSITION ELECTRIC DIPOLE MOMENTS
-----------------------------------------------------------------------------
State   Energy  Wavelength   fosc         T2         TX        TY        TZ
        (cm-1)    (nm)                  (au**2)     (au)      (au)      (au)
-----------------------------------------------------------------------------
   0    8562.6   1167.9   0.963398291  37.04041  -0.29211  -5.32128   2.93923
   1   14546.2    687.5   0.010107991   0.22877  -0.34762  -0.07274   0.32037
   2   14697.2    680.4   0.206246077   4.61983   0.37172  -1.98802   0.72763
   3   18318.6    545.9   0.035445421   0.63701   0.33421  -0.04487  -0.72339
   4   20812.2    480.5   0.217831488   3.44571  -0.72646  -0.66344   1.57411
   5   21298.9    469.5   0.085028991   1.31427   0.08967   1.08522  -0.35850
   6   21777.1    459.2   0.224665449   3.39635  -1.17705   1.27106   0.62873
   7   22764.3    439.3   0.973520762  14.07881   0.22603   2.83257  -2.45036
   8   23667.6    422.5   0.044647708   0.62104  -0.29538   0.37622   0.62631
   9   23908.5    418.3   0.006595226   0.09081  -0.02210   0.28458  -0.09663
  10   23983.7    417.0   0.126057749   1.73033  -0.25691   1.18182   0.51732
  11   24564.3    407.1   0.004837960   0.06484   0.04320  -0.15874  -0.19435
  12   25678.1    389.4   0.097712514   1.25274   0.82596   0.08811  -0.75018
  13   25833.3    387.1   0.077658590   0.98966  -0.11617   0.72119  -0.67531
  14   26261.5    380.8   0.001874895   0.02350  -0.07804   0.03287   0.12780
  15   26492.9    377.5   0.009883865   0.12282   0.04807  -0.33152  -0.10297
  16   26974.2    370.7   0.044700851   0.54556   0.25257   0.30417  -0.62390
  17   27260.7    366.8   0.184797395   2.23169  -0.29708   1.39732   0.43695
  18   27859.0    359.0   0.040741276   0.48144  -0.31974  -0.33748   0.51509
  19   28271.9    353.7   0.044213059   0.51484   0.10344   0.35883  -0.61268
  20   28367.0    352.5   0.232194744   2.69472  -0.30028   1.40584   0.79258
  21   28966.1    345.2   0.003365699   0.03825   0.09398   0.03122  -0.16866
  22   29659.0    337.2   0.001741078   0.01933   0.01544   0.08267  -0.11069
  23   29760.9    336.0   0.018591960   0.20566  -0.01567  -0.13159  -0.43370
  24   29775.1    335.9   0.174331618   1.92752  -0.07486  -0.17932   1.37469
  25   30293.9    330.1   0.405537637   4.40708   0.06601  -0.76974  -1.95198
  26   31178.4    320.7   0.064335780   0.67932   0.12944   0.78191  -0.22622
  27   31375.2    318.7   0.022076562   0.23164   0.01100  -0.48027  -0.02944
  28   31437.2    318.1   0.065547862   0.68642   0.08492   0.77554   0.27884
  29   31655.9    315.9   0.164694478   1.71277  -0.03553  -1.29893   0.15585
  30   31886.7    313.6   0.009833347   0.10152   0.02706   0.02361  -0.31660
  31   32661.8    306.2   0.001093100   0.01102  -0.02490  -0.01755   0.10045
  32   33277.5    300.5   0.615872706   6.09279  -0.01536   1.99652   1.45136
  33   33448.5    299.0   0.001365516   0.01344   0.00667   0.00970  -0.11533
  34   33621.0    297.4   0.070647873   0.69177   0.05315   0.36881  -0.74359
  35   34144.6    292.9   0.002310214   0.02227   0.02662   0.08638   0.11876
  36   34260.7    291.9   0.316761630   3.04377  -0.14025   0.58049   1.63925
  37   34342.1    291.2   0.012786929   0.12258  -0.20155  -0.24479  -0.14844
  38   34600.9    289.0   0.185992538   1.76963  -0.26499  -0.20537   1.28734
  39   34835.4    287.1   0.091642609   0.86607  -0.27508  -0.19748   0.86684
  40   34966.2    286.0   0.263387881   2.47984  -0.07210  -0.83751  -1.33162
  41   35343.1    282.9   0.019186730   0.17872  -0.30725   0.28276  -0.06604
  42   35425.5    282.3   0.057121919   0.53084   0.04606   0.24769   0.68364
  43   35456.4    282.0   0.061674532   0.57265  -0.30698   0.36372   0.58831
  44   35894.9    278.6   0.240282732   2.20376  -0.27150   0.57306   1.34226
  45   36093.8    277.1   0.006064582   0.05532  -0.05961   0.04774   0.22245
  46   36192.0    276.3   0.000606645   0.00552  -0.04932  -0.05441   0.01119
  47   36428.8    274.5   0.072074480   0.65135   0.01002   0.13180   0.79616
  48   36702.7    272.5   0.010795861   0.09684   0.02227   0.29943   0.08175
  49   36855.5    271.3   0.110635757   0.98825   0.21567  -0.54651  -0.80192
  50   37073.3    269.7   0.072902737   0.64738   0.01593   0.79096   0.14668
  51   37170.6    269.0   0.082806314   0.73340  -0.04584  -0.85471   0.02781
  52   37596.4    266.0   0.028543596   0.24994  -0.00091  -0.46116   0.19307
  53   38133.8    262.2   0.082522248   0.71242   0.09625   0.82805  -0.13224
  54   38347.0    260.8   0.062828554   0.53939  -0.36328  -0.59099   0.24114
  55   38714.1    258.3   0.178040847   1.51400   0.10716   1.17364   0.35368
  56   39150.1    255.4   0.055159464   0.46383   0.33615   0.20159  -0.55696
  57   39327.2    254.3   0.003633528   0.03042  -0.13623  -0.00443   0.10880
  58   39332.6    254.2   0.009312516   0.07795   0.12285  -0.09996  -0.22991
  59   39541.2    252.9   0.084444662   0.70307   0.15382   0.48459  -0.66677
  60   39625.2    252.4   0.102805790   0.85413   0.00666  -0.74321  -0.54929
  61   40247.8    248.5   0.203484029   1.66442  -0.14866  -1.20462  -0.43729

FINAL SINGLE POINT ENERGY     -3438.572753091269

DIPOLE MOMENT
-------------
                                X             Y             Z
Electronic contribution:      3.88804       5.99644      15.42084
Nuclear contribution   :     -4.90438      -8.65863     -18.66026
                        -----------------------------------------
Total Dipole Moment    :     -1.01634      -2.66220      -3.23942
                        -----------------------------------------
Magnitude (a.u.)       :      4.31440
Magnitude (Debye)      :     10.96635

Rotational constants in cm-1:     0.001488     0.000171     0.000155
Rotational constants in MHz :    44.614396     5.127070     4.654337

                             ****ORCA TERMINATED NORMALLY****
TOTAL RUN TIME: 0 days 0 hours 14 minutes 49 seconds 377 msec
