                         Program Version 4.2.0 -  RELEASE  -
|  1> # ORCA input file
|  2> # SCF done       -191.643807674264          0.000863118875
|  3> ! CAM-B3LYP def2-SVP def2/J RIJCOSX Grid4 TightSCF
|  4> %maxcore 5000
|  5> %tddft
|  6>     Mode sTDDFT
|  7>     Ethresh 5.0
|  8>     maxcore 5000
|  9> end
| 10>
| 11> %pal
| 12>   nprocs 6
| 13>   end
| 14> * xyz 0 1
| 15>    C        2.62049         5.24444         0.66062
| 16>    C        1.81133         5.99338        -0.14979
| 17>    C        2.20372         7.22092        -0.72172
| 18>    N        2.49122         8.21717        -1.21248
| 19>    C        0.45761         5.67044        -0.38145
| 20>    N       -0.66175         5.46325        -0.52452
| 21>    C        3.89146         5.68473         1.22417
| 22>    C        4.11971         4.96703         2.43623
| 23>    C        5.21331         5.21080         3.21740
| 24>    C        6.14651         6.18954         2.80894
| 25>    C        5.93243         6.89641         1.58939
| 26>    C        4.78769         6.62904         0.80367
| 27>    C        6.87567         7.86547         1.19193
| 28>    C        7.97620         8.12809         1.96162
| 29>    C        8.18555         7.43303         3.16230
| 30>    C        7.29025         6.48490         3.57715
| 31>    C        3.03755         3.99155         2.63810
| 32>    O        2.85720         3.24092         3.56741
| 33>    C        2.22683         4.04899         1.37904
| 34>    C        1.44001         2.98346         1.08532
| 35>    C        0.91716         2.53098        -0.15316
| 36>    S        1.36633         3.18876        -1.69608
| 37>    C        0.26449         2.14513        -2.50650
| 38>    C        0.17428         2.23316        -3.96868
| 39>    O        0.85986         2.96493        -4.63839
| 40>    O       -0.74781         1.39926        -4.45777
| 41>    C       -0.92450         1.43521        -5.86784
| 42>    C       -0.41532         1.32901        -1.64103
| 43>    C       -0.01483         1.49983        -0.30445
| 44>    C       -0.57155         0.69041         0.75985
| 45>    N        0.15647        -0.06261         1.64166
| 46>    C        1.55737        -0.40600         1.54638
| 47>    C        1.82872        -1.30097         0.34040
| 48>    C       -0.69150        -0.75226         2.55043
| 49>    O       -0.28301        -1.50344         3.40892
| 50>    C       -2.01970        -0.34107         2.16735
| 51>    C       -1.91359         0.52360         1.05176
| 52>    C       -3.25654         0.93231         0.68246
| 53>    O       -3.67770         1.60845        -0.22457
| 54>    N       -4.08818         0.30138         1.64048
| 55>    C       -5.51790         0.50633         1.58225
| 56>    C       -5.96467         1.63774         2.50481
| 57>    C       -3.36384        -0.45430         2.52750
| 58>    C       -3.77203        -1.24009         3.63173
| 59>    C       -4.99482        -1.32015         4.22655
| 60>    C       -5.29299        -2.18401         5.30683
| 61>    C       -6.53244        -2.77496         5.53110
| 62>    N       -7.74729        -2.53155         4.86725
| 63>    O       -7.77494        -1.69984         3.97036
| 64>    O       -8.71959        -3.16804         5.23182
| 65>    C       -6.39002        -3.81266         6.51354
| 66>    C       -5.09231        -3.87577         6.90417
| 67>    C       -4.35891        -2.80940         6.27426
| 68>    C       -3.12822        -2.30389         6.62754
| 69>    C       -2.62538        -0.98941         6.28991
| 70>    C       -1.33617        -0.89706         6.67191
| 71>    C       -0.93639        -2.16335         7.24915
| 72>    N        0.34921        -2.31861         7.81217
| 73>    O        0.77006        -3.43707         8.04813
| 74>    O        0.96598        -1.29487         8.04387
| 75>    C       -2.02379        -3.01134         7.31400
| 76>    C       -2.12702        -4.29609         7.93432
| 77>    C       -1.23130        -5.30303         7.87032
| 78>    C       -1.45465        -6.51945         8.58106
| 79>    S       -0.28725        -7.83141         8.59806
| 80>    C       -1.43967        -8.66879         9.62551
| 81>    N       -2.51138        -7.96695         9.84746
| 82>    N       -2.52165        -6.79466         9.27734
| 83>    C       -1.18769        -9.98628        10.14144
| 84>    C       -2.05597       -10.63228        10.91558
| 85>    H        5.36388         4.66479         4.13675
| 86>    H        4.65150         7.16996        -0.11993
| 87>    H        6.70833         8.40070         0.26895
| 88>    H        8.69162         8.87400         1.64968
| 89>    H        9.05962         7.65269         3.75669
| 90>    H        7.44586         5.94689         4.50068
| 91>    H        1.23923         2.34102         1.93805
| 92>    H       -1.71793         0.72698        -6.09011
| 93>    H        0.00069         1.15018        -6.37307
| 94>    H       -1.20460         2.44042        -6.18810
| 95>    H       -1.15698         0.62019        -1.95968
| 96>    H        1.79315        -0.93949         2.47137
| 97>    H        2.17435         0.49286         1.49171
| 98>    H        1.22316        -2.20268         0.39549
| 99>    H        2.87643        -1.58699         0.32674
|100>    H        1.59749        -0.78047        -0.58705
|101>    H       -6.03544        -0.42632         1.81382
|102>    H       -5.74020         0.78190         0.54712
|103>    H       -5.64672         1.46164         3.53012
|104>    H       -7.04764         1.71544         2.48508
|105>    H       -5.53878         2.57994         2.16856
|106>    H       -2.96201        -1.84344         4.02224
|107>    H       -5.84403        -0.79182         3.82081
|108>    H       -7.20379        -4.42881         6.84621
|109>    H       -4.70735        -4.55692         7.63358
|110>    H       -3.21821        -0.20756         5.85949
|111>    H       -0.67525        -0.05622         6.58982
|112>    H       -3.01114        -4.47199         8.53125
|113>    H       -0.33475        -5.23978         7.27566
|114>    H       -0.24059       -10.42595         9.86154
|115>    H       -2.99534       -10.17970        11.18350
|116>    H       -1.84836       -11.61792        11.29335
|117> *
|118>
|119>                          ****END OF INPUT****

CARTESIAN COORDINATES (ANGSTROEM)
---------------------------------
  C      2.620490    5.244440    0.660620
  C      1.811330    5.993380   -0.149790
  C      2.203720    7.220920   -0.721720
  N      2.491220    8.217170   -1.212480
  C      0.457610    5.670440   -0.381450
  N     -0.661750    5.463250   -0.524520
  C      3.891460    5.684730    1.224170
  C      4.119710    4.967030    2.436230
  C      5.213310    5.210800    3.217400
  C      6.146510    6.189540    2.808940
  C      5.932430    6.896410    1.589390
  C      4.787690    6.629040    0.803670
  C      6.875670    7.865470    1.191930
  C      7.976200    8.128090    1.961620
  C      8.185550    7.433030    3.162300
  C      7.290250    6.484900    3.577150
  C      3.037550    3.991550    2.638100
  O      2.857200    3.240920    3.567410
  C      2.226830    4.048990    1.379040
  C      1.440010    2.983460    1.085320
  C      0.917160    2.530980   -0.153160
  S      1.366330    3.188760   -1.696080
  C      0.264490    2.145130   -2.506500
  C      0.174280    2.233160   -3.968680
  O      0.859860    2.964930   -4.638390
  O     -0.747810    1.399260   -4.457770
  C     -0.924500    1.435210   -5.867840
  C     -0.415320    1.329010   -1.641030
  C     -0.014830    1.499830   -0.304450
  C     -0.571550    0.690410    0.759850
  N      0.156470   -0.062610    1.641660
  C      1.557370   -0.406000    1.546380
  C      1.828720   -1.300970    0.340400
  C     -0.691500   -0.752260    2.550430
  O     -0.283010   -1.503440    3.408920
  C     -2.019700   -0.341070    2.167350
  C     -1.913590    0.523600    1.051760
  C     -3.256540    0.932310    0.682460
  O     -3.677700    1.608450   -0.224570
  N     -4.088180    0.301380    1.640480
  C     -5.517900    0.506330    1.582250
  C     -5.964670    1.637740    2.504810
  C     -3.363840   -0.454300    2.527500
  C     -3.772030   -1.240090    3.631730
  C     -4.994820   -1.320150    4.226550
  C     -5.292990   -2.184010    5.306830
  C     -6.532440   -2.774960    5.531100
  N     -7.747290   -2.531550    4.867250
  O     -7.774940   -1.699840    3.970360
  O     -8.719590   -3.168040    5.231820
  C     -6.390020   -3.812660    6.513540
  C     -5.092310   -3.875770    6.904170
  C     -4.358910   -2.809400    6.274260
  C     -3.128220   -2.303890    6.627540
  C     -2.625380   -0.989410    6.289910
  C     -1.336170   -0.897060    6.671910
  C     -0.936390   -2.163350    7.249150
  N      0.349210   -2.318610    7.812170
  O      0.770060   -3.437070    8.048130
  O      0.965980   -1.294870    8.043870
  C     -2.023790   -3.011340    7.314000
  C     -2.127020   -4.296090    7.934320
  C     -1.231300   -5.303030    7.870320
  C     -1.454650   -6.519450    8.581060
  S     -0.287250   -7.831410    8.598060
  C     -1.439670   -8.668790    9.625510
  N     -2.511380   -7.966950    9.847460
  N     -2.521650   -6.794660    9.277340
  C     -1.187690   -9.986280   10.141440
  C     -2.055970  -10.632280   10.915580
  H      5.363880    4.664790    4.136750
  H      4.651500    7.169960   -0.119930
  H      6.708330    8.400700    0.268950
  H      8.691620    8.874000    1.649680
  H      9.059620    7.652690    3.756690
  H      7.445860    5.946890    4.500680
  H      1.239230    2.341020    1.938050
  H     -1.717930    0.726980   -6.090110
  H      0.000690    1.150180   -6.373070
  H     -1.204600    2.440420   -6.188100
  H     -1.156980    0.620190   -1.959680
  H      1.793150   -0.939490    2.471370
  H      2.174350    0.492860    1.491710
  H      1.223160   -2.202680    0.395490
  H      2.876430   -1.586990    0.326740
  H      1.597490   -0.780470   -0.587050
  H     -6.035440   -0.426320    1.813820
  H     -5.740200    0.781900    0.547120
  H     -5.646720    1.461640    3.530120
  H     -7.047640    1.715440    2.485080
  H     -5.538780    2.579940    2.168560
  H     -2.962010   -1.843440    4.022240
  H     -5.844030   -0.791820    3.820810
  H     -7.203790   -4.428810    6.846210
  H     -4.707350   -4.556920    7.633580
  H     -3.218210   -0.207560    5.859490
  H     -0.675250   -0.056220    6.589820
  H     -3.011140   -4.471990    8.531250
  H     -0.334750   -5.239780    7.275660
  H     -0.240590  -10.425950    9.861540
  H     -2.995340  -10.179700   11.183500
  H     -1.848360  -11.617920   11.293350

 Total Charge           Charge          ....    0
 Multiplicity           Mult            ....    1
 Number of Electrons    NEL             ....  498
 Basis Dimension        Dim             .... 1148

ORBITAL ENERGIES
----------------

  NO   OCC          E(Eh)            E(eV)
   0   2.0000     -88.984431     -2421.3895
   1   2.0000     -88.973643     -2421.0959
   2   2.0000     -19.269437      -524.3480
   3   2.0000     -19.241327      -523.5831
   4   2.0000     -19.240161      -523.5514
   5   2.0000     -19.237552      -523.4804
   6   2.0000     -19.236860      -523.4616
   7   2.0000     -19.221165      -523.0345
   8   2.0000     -19.213416      -522.8236
   9   2.0000     -19.204252      -522.5743
  10   2.0000     -19.195109      -522.3255
  11   2.0000     -14.649777      -398.6407
  12   2.0000     -14.645517      -398.5248
  13   2.0000     -14.466692      -393.6587
  14   2.0000     -14.459674      -393.4677
  15   2.0000     -14.438411      -392.8891
  16   2.0000     -14.435016      -392.7968
  17   2.0000     -14.419630      -392.3781
  18   2.0000     -14.416511      -392.2932
  19   2.0000     -10.414519      -283.3935
  20   2.0000     -10.386250      -282.6242
  21   2.0000     -10.380852      -282.4773
  22   2.0000     -10.372530      -282.2509
  23   2.0000     -10.355694      -281.7928
  24   2.0000     -10.350054      -281.6393
  25   2.0000     -10.350004      -281.6379
  26   2.0000     -10.346539      -281.5436
  27   2.0000     -10.340914      -281.3906
  28   2.0000     -10.340700      -281.3848
  29   2.0000     -10.335352      -281.2392
  30   2.0000     -10.332014      -281.1484
  31   2.0000     -10.331817      -281.1430
  32   2.0000     -10.331547      -281.1357
  33   2.0000     -10.330720      -281.1132
  34   2.0000     -10.328567      -281.0546
  35   2.0000     -10.327545      -281.0268
  36   2.0000     -10.325813      -280.9797
  37   2.0000     -10.324617      -280.9471
  38   2.0000     -10.321242      -280.8553
  39   2.0000     -10.321139      -280.8525
  40   2.0000     -10.319373      -280.8044
  41   2.0000     -10.317454      -280.7522
  42   2.0000     -10.314140      -280.6620
  43   2.0000     -10.308747      -280.5153
  44   2.0000     -10.308456      -280.5074
  45   2.0000     -10.308367      -280.5049
  46   2.0000     -10.306785      -280.4619
  47   2.0000     -10.305136      -280.4170
  48   2.0000     -10.303216      -280.3647
  49   2.0000     -10.301763      -280.3252
  50   2.0000     -10.301633      -280.3217
  51   2.0000     -10.301014      -280.3049
  52   2.0000     -10.300577      -280.2930
  53   2.0000     -10.299602      -280.2664
  54   2.0000     -10.298764      -280.2436
  55   2.0000     -10.294712      -280.1333
  56   2.0000     -10.294550      -280.1289
  57   2.0000     -10.291944      -280.0580
  58   2.0000     -10.290677      -280.0236
  59   2.0000     -10.289487      -279.9912
  60   2.0000     -10.289061      -279.9796
  61   2.0000     -10.288782      -279.9720
  62   2.0000     -10.288403      -279.9617
  63   2.0000     -10.288224      -279.9568
  64   2.0000     -10.282557      -279.8026
  65   2.0000     -10.280909      -279.7578
  66   2.0000     -10.274077      -279.5718
  67   2.0000     -10.272357      -279.5250
  68   2.0000     -10.269808      -279.4557
  69   2.0000     -10.260929      -279.2141
  70   2.0000      -8.078968      -219.8399
  71   2.0000      -8.070083      -219.5981
  72   2.0000      -6.048191      -164.5796
  73   2.0000      -6.043803      -164.4603
  74   2.0000      -6.041492      -164.3974
  75   2.0000      -6.038652      -164.3201
  76   2.0000      -6.035339      -164.2299
  77   2.0000      -6.032605      -164.1555
  78   2.0000      -1.319329       -35.9008
  79   2.0000      -1.317270       -35.8447
  80   2.0000      -1.201531       -32.6953
  81   2.0000      -1.143713       -31.1220
  82   2.0000      -1.141075       -31.0502
  83   2.0000      -1.137012       -30.9397
  84   2.0000      -1.136374       -30.9223
  85   2.0000      -1.134833       -30.8804
  86   2.0000      -1.134385       -30.8682
  87   2.0000      -1.107997       -30.1501
  88   2.0000      -1.075558       -29.2674
  89   2.0000      -1.063236       -28.9321
  90   2.0000      -1.024172       -27.8691
  91   2.0000      -1.017992       -27.7010
  92   2.0000      -1.011586       -27.5267
  93   2.0000      -1.001881       -27.2626
  94   2.0000      -0.997528       -27.1441
  95   2.0000      -0.995746       -27.0956
  96   2.0000      -0.975345       -26.5405
  97   2.0000      -0.946799       -25.7637
  98   2.0000      -0.937108       -25.5000
  99   2.0000      -0.929756       -25.3000
 100   2.0000      -0.924063       -25.1450
 101   2.0000      -0.920639       -25.0519
 102   2.0000      -0.914588       -24.8872
 103   2.0000      -0.910848       -24.7854
 104   2.0000      -0.894389       -24.3376
 105   2.0000      -0.887210       -24.1422
 106   2.0000      -0.885982       -24.1088
 107   2.0000      -0.883970       -24.0541
 108   2.0000      -0.879613       -23.9355
 109   2.0000      -0.874432       -23.7945
 110   2.0000      -0.853278       -23.2189
 111   2.0000      -0.852666       -23.2022
 112   2.0000      -0.847624       -23.0650
 113   2.0000      -0.832054       -22.6413
 114   2.0000      -0.825996       -22.4765
 115   2.0000      -0.824478       -22.4352
 116   2.0000      -0.821385       -22.3510
 117   2.0000      -0.803834       -21.8734
 118   2.0000      -0.795820       -21.6554
 119   2.0000      -0.783892       -21.3308
 120   2.0000      -0.766194       -20.8492
 121   2.0000      -0.765458       -20.8292
 122   2.0000      -0.763110       -20.7653
 123   2.0000      -0.734005       -19.9733
 124   2.0000      -0.732371       -19.9288
 125   2.0000      -0.726840       -19.7783
 126   2.0000      -0.725816       -19.7505
 127   2.0000      -0.716882       -19.5074
 128   2.0000      -0.711072       -19.3493
 129   2.0000      -0.706094       -19.2138
 130   2.0000      -0.704132       -19.1604
 131   2.0000      -0.698909       -19.0183
 132   2.0000      -0.685418       -18.6512
 133   2.0000      -0.683982       -18.6121
 134   2.0000      -0.681094       -18.5335
 135   2.0000      -0.672126       -18.2895
 136   2.0000      -0.668477       -18.1902
 137   2.0000      -0.657785       -17.8992
 138   2.0000      -0.650677       -17.7058
 139   2.0000      -0.650183       -17.6924
 140   2.0000      -0.643145       -17.5009
 141   2.0000      -0.638472       -17.3737
 142   2.0000      -0.634630       -17.2692
 143   2.0000      -0.630914       -17.1680
 144   2.0000      -0.629375       -17.1262
 145   2.0000      -0.626052       -17.0357
 146   2.0000      -0.622802       -16.9473
 147   2.0000      -0.618236       -16.8230
 148   2.0000      -0.611266       -16.6334
 149   2.0000      -0.610972       -16.6254
 150   2.0000      -0.597783       -16.2665
 151   2.0000      -0.593283       -16.1440
 152   2.0000      -0.591038       -16.0830
 153   2.0000      -0.588849       -16.0234
 154   2.0000      -0.585940       -15.9442
 155   2.0000      -0.582590       -15.8531
 156   2.0000      -0.581606       -15.8263
 157   2.0000      -0.579524       -15.7696
 158   2.0000      -0.575314       -15.6551
 159   2.0000      -0.572387       -15.5754
 160   2.0000      -0.568630       -15.4732
 161   2.0000      -0.560535       -15.2529
 162   2.0000      -0.559672       -15.2295
 163   2.0000      -0.555151       -15.1064
 164   2.0000      -0.550788       -14.9877
 165   2.0000      -0.548692       -14.9307
 166   2.0000      -0.546895       -14.8818
 167   2.0000      -0.540584       -14.7100
 168   2.0000      -0.540036       -14.6951
 169   2.0000      -0.538845       -14.6627
 170   2.0000      -0.537421       -14.6240
 171   2.0000      -0.535304       -14.5664
 172   2.0000      -0.532203       -14.4820
 173   2.0000      -0.530447       -14.4342
 174   2.0000      -0.525353       -14.2956
 175   2.0000      -0.523373       -14.2417
 176   2.0000      -0.522781       -14.2256
 177   2.0000      -0.519122       -14.1260
 178   2.0000      -0.516348       -14.0505
 179   2.0000      -0.515539       -14.0285
 180   2.0000      -0.512378       -13.9425
 181   2.0000      -0.510214       -13.8836
 182   2.0000      -0.506683       -13.7876
 183   2.0000      -0.505994       -13.7688
 184   2.0000      -0.504271       -13.7219
 185   2.0000      -0.501324       -13.6417
 186   2.0000      -0.499976       -13.6050
 187   2.0000      -0.499432       -13.5902
 188   2.0000      -0.494291       -13.4503
 189   2.0000      -0.489647       -13.3240
 190   2.0000      -0.486313       -13.2333
 191   2.0000      -0.485312       -13.2060
 192   2.0000      -0.482334       -13.1250
 193   2.0000      -0.480366       -13.0714
 194   2.0000      -0.476355       -12.9623
 195   2.0000      -0.475371       -12.9355
 196   2.0000      -0.471612       -12.8332
 197   2.0000      -0.468646       -12.7525
 198   2.0000      -0.468005       -12.7351
 199   2.0000      -0.464988       -12.6530
 200   2.0000      -0.463846       -12.6219
 201   2.0000      -0.458935       -12.4883
 202   2.0000      -0.454567       -12.3694
 203   2.0000      -0.453304       -12.3350
 204   2.0000      -0.451094       -12.2749
 205   2.0000      -0.445862       -12.1325
 206   2.0000      -0.445018       -12.1096
 207   2.0000      -0.442291       -12.0354
 208   2.0000      -0.441182       -12.0052
 209   2.0000      -0.440425       -11.9846
 210   2.0000      -0.438859       -11.9420
 211   2.0000      -0.435971       -11.8634
 212   2.0000      -0.435564       -11.8523
 213   2.0000      -0.433774       -11.8036
 214   2.0000      -0.428731       -11.6664
 215   2.0000      -0.427644       -11.6368
 216   2.0000      -0.423437       -11.5223
 217   2.0000      -0.422680       -11.5017
 218   2.0000      -0.416645       -11.3375
 219   2.0000      -0.412604       -11.2275
 220   2.0000      -0.404743       -11.0136
 221   2.0000      -0.391566       -10.6551
 222   2.0000      -0.390699       -10.6315
 223   2.0000      -0.388788       -10.5795
 224   2.0000      -0.386679       -10.5221
 225   2.0000      -0.383203       -10.4275
 226   2.0000      -0.382913       -10.4196
 227   2.0000      -0.381722       -10.3872
 228   2.0000      -0.375926       -10.2295
 229   2.0000      -0.374299       -10.1852
 230   2.0000      -0.369556       -10.0561
 231   2.0000      -0.367809       -10.0086
 232   2.0000      -0.365581        -9.9480
 233   2.0000      -0.365166        -9.9367
 234   2.0000      -0.358143        -9.7456
 235   2.0000      -0.356281        -9.6949
 236   2.0000      -0.343737        -9.3536
 237   2.0000      -0.342221        -9.3123
 238   2.0000      -0.339747        -9.2450
 239   2.0000      -0.336358        -9.1528
 240   2.0000      -0.326464        -8.8836
 241   2.0000      -0.325641        -8.8612
 242   2.0000      -0.320978        -8.7343
 243   2.0000      -0.320887        -8.7318
 244   2.0000      -0.306476        -8.3396
 245   2.0000      -0.304130        -8.2758
 246   2.0000      -0.295696        -8.0463
 247   2.0000      -0.280197        -7.6245
 248   2.0000      -0.251856        -6.8534
 249   0.0000      -0.132051        -3.5933
 250   0.0000      -0.104895        -2.8543
 251   0.0000      -0.080006        -2.1771
 252   0.0000      -0.060833        -1.6553
 253   0.0000      -0.048918        -1.3311

MULLIKEN ATOMIC CHARGES
-----------------------
   0 C :    0.239923
   1 C :   -0.301323
   2 C :   -0.169934
   3 N :    0.160636
   4 C :   -0.212854
   5 N :    0.187432
   6 C :    0.035286
   7 C :    0.013976
   8 C :   -0.078650
   9 C :    0.091842
  10 C :    0.094909
  11 C :   -0.076431
  12 C :   -0.015280
  13 C :    0.035178
  14 C :    0.037121
  15 C :   -0.013886
  16 C :    0.137723
  17 O :   -0.140550
  18 C :   -0.128692
  19 C :    0.011764
  20 C :   -0.095528
  21 S :    0.214542
  22 C :   -0.136114
  23 C :    0.213301
  24 O :   -0.196647
  25 O :   -0.295827
  26 C :    0.189174
  27 C :    0.052801
  28 C :    0.057302
  29 C :    0.040291
  30 N :   -0.264540
  31 C :    0.105652
  32 C :   -0.003337
  33 C :    0.160055
  34 O :   -0.186265
  35 C :   -0.060963
  36 C :    0.006042
  37 C :    0.135080
  38 O :   -0.170178
  39 N :   -0.270248
  40 C :    0.096915
  41 C :    0.004250
  42 C :    0.119322
  43 C :   -0.040413
  44 C :   -0.038061
  45 C :    0.021634
  46 C :    0.088680
  47 N :    0.273214
  48 O :   -0.259147
  49 O :   -0.241111
  50 C :    0.018123
  51 C :   -0.001205
  52 C :    0.043006
  53 C :    0.034015
  54 C :   -0.016563
  55 C :    0.052879
  56 C :    0.074739
  57 N :    0.263687
  58 O :   -0.248005
  59 O :   -0.241142
  60 C :    0.074194
  61 C :   -0.092464
  62 C :    0.124360
  63 C :   -0.120847
  64 S :    0.113839
  65 C :   -0.111324
  66 N :   -0.043749
  67 N :   -0.062432
  68 C :    0.032481
  69 C :    0.025398
  70 H :   -0.008984
  71 H :   -0.003404
  72 H :   -0.009852
  73 H :   -0.002746
  74 H :   -0.003893
  75 H :   -0.016205
  76 H :    0.035256
  77 H :    0.039525
  78 H :    0.034876
  79 H :    0.040794
  80 H :    0.011378
  81 H :    0.050828
  82 H :    0.024905
  83 H :    0.025573
  84 H :    0.027070
  85 H :    0.024576
  86 H :    0.037604
  87 H :    0.041799
  88 H :    0.013693
  89 H :    0.032229
  90 H :    0.031736
  91 H :    0.036948
  92 H :    0.026880
  93 H :    0.009969
  94 H :   -0.004982
  95 H :    0.006577
  96 H :    0.008617
  97 H :    0.051864
  98 H :    0.014074
  99 H :   -0.004203
 100 H :    0.048875
 101 H :    0.031574
Sum of atomic charges:   -0.0000000

LOEWDIN ATOMIC CHARGES
----------------------
   0 C :    0.057901
   1 C :   -0.130822
   2 C :   -0.018287
   3 N :   -0.042578
   4 C :   -0.042421
   5 N :   -0.033773
   6 C :   -0.021541
   7 C :   -0.059116
   8 C :    0.035726
   9 C :   -0.009346
  10 C :   -0.003937
  11 C :    0.016597
  12 C :   -0.005946
  13 C :   -0.010832
  14 C :   -0.011873
  15 C :   -0.007874
  16 C :    0.085007
  17 O :   -0.139658
  18 C :   -0.079677
  19 C :    0.038535
  20 C :   -0.166650
  21 S :    0.537508
  22 C :   -0.196753
  23 C :    0.063435
  24 O :   -0.173134
  25 O :   -0.085645
  26 C :    0.085656
  27 C :   -0.000367
  28 C :   -0.043712
  29 C :    0.079247
  30 N :   -0.001648
  31 C :    0.036383
  32 C :   -0.060603
  33 C :    0.082229
  34 O :   -0.185928
  35 C :   -0.109127
  36 C :   -0.118480
  37 C :    0.082757
  38 O :   -0.175996
  39 N :   -0.004539
  40 C :    0.036172
  41 C :   -0.061165
  42 C :    0.071161
  43 C :   -0.002865
  44 C :   -0.010936
  45 C :    0.016205
  46 C :   -0.045587
  47 N :    0.286720
  48 O :   -0.224430
  49 O :   -0.205399
  50 C :    0.018528
  51 C :   -0.034426
  52 C :    0.034711
  53 C :    0.047130
  54 C :   -0.039223
  55 C :    0.019484
  56 C :   -0.023500
  57 N :    0.284603
  58 O :   -0.205034
  59 O :   -0.204665
  60 C :    0.006717
  61 C :   -0.011897
  62 C :   -0.009492
  63 C :   -0.153490
  64 S :    0.400804
  65 C :   -0.145690
  66 N :   -0.076237
  67 N :   -0.077452
  68 C :   -0.061784
  69 C :    0.011875
  70 H :    0.040615
  71 H :    0.039410
  72 H :    0.034799
  73 H :    0.033912
  74 H :    0.033366
  75 H :    0.032475
  76 H :    0.049575
  77 H :    0.028446
  78 H :    0.024760
  79 H :    0.027364
  80 H :    0.045684
  81 H :    0.039803
  82 H :    0.023927
  83 H :    0.029733
  84 H :    0.033045
  85 H :    0.024571
  86 H :    0.027891
  87 H :    0.037919
  88 H :    0.019329
  89 H :    0.035510
  90 H :    0.033383
  91 H :    0.048654
  92 H :    0.036106
  93 H :    0.040559
  94 H :    0.034372
  95 H :    0.031574
  96 H :    0.039872
  97 H :    0.039388
  98 H :    0.034732
  99 H :    0.031810
 100 H :    0.035614
 101 H :    0.030250

  Mayer bond orders larger than 0.100000
B(  0-C ,  1-C ) :   1.6813 B(  0-C ,  6-C ) :   1.0023 B(  0-C , 18-C ) :   1.0061
B(  1-C ,  2-C ) :   1.1330 B(  1-C ,  4-C ) :   1.1469 B(  2-C ,  3-N ) :   2.9959
B(  4-C ,  5-N ) :   3.0294 B(  6-C ,  7-C ) :   1.2122 B(  6-C , 11-C ) :   1.4598
B(  7-C ,  8-C ) :   1.4732 B(  7-C , 16-C ) :   0.9272 B(  8-C ,  9-C ) :   1.1884
B(  8-C , 70-H ) :   1.0161 B(  9-C , 10-C ) :   1.2548 B(  9-C , 15-C ) :   1.2441
B( 10-C , 11-C ) :   1.2049 B( 10-C , 12-C ) :   1.2409 B( 11-C , 71-H ) :   0.9955
B( 12-C , 13-C ) :   1.4892 B( 12-C , 72-H ) :   0.9982 B( 13-C , 14-C ) :   1.2590
B( 13-C , 73-H ) :   0.9895 B( 14-C , 15-C ) :   1.4912 B( 14-C , 74-H ) :   0.9891
B( 15-C , 75-H ) :   0.9977 B( 16-C , 17-O ) :   2.2523 B( 16-C , 18-C ) :   0.9324
B( 18-C , 19-C ) :   1.7048 B( 19-C , 20-C ) :   1.1480 B( 19-C , 76-H ) :   0.9187
B( 20-C , 21-S ) :   1.1344 B( 20-C , 28-C ) :   1.4267 B( 21-S , 22-C ) :   1.1679
B( 22-C , 23-C ) :   0.9529 B( 22-C , 27-C ) :   1.4852 B( 23-C , 24-O ) :   2.1462
B( 23-C , 25-O ) :   1.2606 B( 25-O , 26-C ) :   0.9141 B( 26-C , 77-H ) :   0.9812
B( 26-C , 78-H ) :   0.9765 B( 26-C , 79-H ) :   0.9762 B( 27-C , 28-C ) :   1.2789
B( 27-C , 80-H ) :   1.0096 B( 28-C , 29-C ) :   0.9747 B( 29-C , 30-N ) :   1.2165
B( 29-C , 36-C ) :   1.4566 B( 30-N , 31-C ) :   0.9399 B( 30-N , 33-C ) :   1.0101
B( 31-C , 32-C ) :   1.1179 B( 31-C , 81-H ) :   0.9289 B( 31-C , 82-H ) :   0.9452
B( 32-C , 83-H ) :   0.9651 B( 32-C , 84-H ) :   0.9666 B( 32-C , 85-H ) :   0.9691
B( 33-C , 34-O ) :   2.1126 B( 33-C , 35-C ) :   0.9898 B( 35-C , 36-C ) :   1.2020
B( 35-C , 42-C ) :   1.3495 B( 36-C , 37-C ) :   0.9463 B( 37-C , 38-O ) :   2.1756
B( 37-C , 39-N ) :   1.0237 B( 39-N , 40-C ) :   0.9320 B( 39-N , 42-C ) :   1.1787
B( 40-C , 41-C ) :   1.1177 B( 40-C , 86-H ) :   0.9509 B( 40-C , 87-H ) :   0.9250
B( 41-C , 88-H ) :   0.9677 B( 41-C , 89-H ) :   0.9685 B( 41-C , 90-H ) :   0.9614
B( 42-C , 43-C ) :   1.2122 B( 43-C , 44-C ) :   1.5317 B( 43-C , 91-H ) :   0.9308
B( 44-C , 45-C ) :   1.1755 B( 44-C , 92-H ) :   0.9473 B( 45-C , 46-C ) :   1.5152
B( 45-C , 52-C ) :   1.0039 B( 46-C , 47-N ) :   0.9518 B( 46-C , 50-C ) :   1.1304
B( 47-N , 48-O ) :   1.4810 B( 47-N , 49-O ) :   1.5402 B( 48-O , 49-O ) :   0.2570
B( 50-C , 51-C ) :   1.5832 B( 50-C , 93-H ) :   1.0109 B( 51-C , 52-C ) :   1.1010
B( 51-C , 94-H ) :   1.0127 B( 52-C , 53-C ) :   1.5465 B( 53-C , 54-C ) :   1.0962
B( 53-C , 60-C ) :   1.0402 B( 54-C , 55-C ) :   1.6253 B( 54-C , 95-H ) :   0.9899
B( 55-C , 56-C ) :   1.0965 B( 55-C , 96-H ) :   1.0110 B( 56-C , 57-N ) :   0.9349
B( 56-C , 60-C ) :   1.6047 B( 57-N , 58-O ) :   1.5083 B( 57-N , 59-O ) :   1.5425
B( 58-O , 59-O ) :   0.2635 B( 60-C , 61-C ) :   1.0486 B( 61-C , 62-C ) :   1.7715
B( 61-C , 97-H ) :   0.9411 B( 62-C , 63-C ) :   1.0953 B( 62-C , 98-H ) :   0.9418
B( 63-C , 64-S ) :   1.1001 B( 63-C , 67-N ) :   1.6773 B( 64-S , 65-C ) :   1.1042
B( 65-C , 66-N ) :   1.6915 B( 65-C , 68-C ) :   1.0818 B( 66-N , 67-N ) :   1.2251
B( 68-C , 69-C ) :   1.9631 B( 68-C , 99-H ) :   0.9477 B( 69-C ,100-H ) :   0.9502
B( 69-C ,101-H ) :   0.9458

-----------------------------------------------------------------------------
         ABSORPTION SPECTRUM VIA TRANSITION ELECTRIC DIPOLE MOMENTS
-----------------------------------------------------------------------------
State   Energy  Wavelength   fosc         T2         TX        TY        TZ
        (cm-1)    (nm)                  (au**2)     (au)      (au)      (au)
-----------------------------------------------------------------------------
   0    9301.6   1075.1   0.193864447   6.86144  -1.26088  -1.41879   1.80517
   1   13806.6    724.3   0.042078255   1.00334  -0.54298   0.80588  -0.24301
   2   16259.6    615.0   0.187842994   3.80330  -1.60536  -1.09651   0.15424
   3   19177.6    521.4   0.023274977   0.39955  -0.56965  -0.25313  -0.10475
   4   21218.4    471.3   0.239963895   3.72314  -1.81913  -0.09253   0.63667
   5   23438.4    426.7   0.156969196   2.20476  -0.41561  -1.34885   0.46113
   6   23754.4    421.0   0.137739797   1.90893  -0.10826  -1.21541  -0.64806
   7   24413.9    409.6   0.004163946   0.05615  -0.10912  -0.07457  -0.19668
   8   25217.4    396.6   0.077130314   1.00693   0.78937   0.59926   0.15723
   9   25320.5    394.9   0.041855404   0.54420  -0.44879  -0.54011   0.22597
  10   25743.8    388.4   0.068200563   0.87215   0.73209   0.29491   0.49923
  11   26033.3    384.1   0.023349136   0.29527   0.43185   0.32957  -0.01247
  12   26127.9    382.7   0.155367205   1.95763  -0.31668  -1.19515  -0.65495
  13   27037.7    369.9   0.235008872   2.86148  -1.35158   0.65416  -0.77897
  14   27295.2    366.4   0.034494649   0.41604  -0.50690  -0.17480  -0.35854
  15   27804.6    359.7   0.001923983   0.02278   0.02844  -0.13415   0.06305
  16   28135.1    355.4   0.038763308   0.45357  -0.14233  -0.65065   0.09989
  17   28177.4    354.9   0.133452888   1.55920   0.56186  -0.57368   0.95625
  18   28512.7    350.7   0.086506241   0.99881   0.67891   0.31294   0.66330
  19   29070.0    344.0   0.018575712   0.21037  -0.44436  -0.02557  -0.11070
  20   29278.8    341.5   0.019484434   0.21908   0.45242  -0.10199   0.06320
  21   29632.2    337.5   0.015966869   0.17739  -0.29677   0.26424   0.13962
  22   29752.1    336.1   0.035278974   0.39037   0.01906   0.59727  -0.18242
  23   30482.2    328.1   0.059543486   0.64308   0.64177   0.38262  -0.29123
  24   31002.4    322.6   0.146031560   1.55070  -1.21105  -0.20007   0.20981
  25   31651.2    315.9   0.077148665   0.80244   0.35113   0.54669  -0.61667
  26   31872.7    313.7   0.064179792   0.66291   0.67116  -0.01651   0.46063
  27   31947.0    313.0   0.016052256   0.16542  -0.10937  -0.36733   0.13610
  28   32050.9    312.0   0.232489575   2.38802  -1.22878  -0.93693  -0.01744
  29   32431.1    308.3   0.065275177   0.66262   0.19662   0.77795  -0.13692
  30   32804.3    304.8   0.085390722   0.85695   0.83709   0.38912  -0.06944
  31   32870.8    304.2   0.007837285   0.07849  -0.27012  -0.07081  -0.02265
  32   33057.1    302.5   0.029074399   0.28955  -0.42383  -0.05160  -0.32750
  33   33184.1    301.3   0.535062996   5.30823   2.09524   0.95450   0.08443
  34   33273.4    300.5   0.374503043   3.70539   1.44991   0.13055   1.25941
  35   33590.7    297.7   0.036559505   0.35831   0.58982  -0.08492  -0.05662
  36   33698.4    296.8   0.011192857   0.10935  -0.08338   0.16238   0.27573
  37   33905.4    294.9   0.313343993   3.04248   0.92768   1.44225  -0.31908
  38   34052.2    293.7   0.272290785   2.63247  -1.49105  -0.43344  -0.47051
  39   34312.1    291.4   0.022424268   0.21515   0.04930  -0.02842   0.46034
  40   34402.4    290.7   0.007464174   0.07143   0.15340   0.21844   0.01348
  41   34576.5    289.2   0.054520287   0.51910   0.10733   0.47859  -0.52776
  42   34758.3    287.7   0.086811638   0.82223   0.74862   0.23081   0.45664
  43   34984.3    285.8   0.142489383   1.34087   0.55952   0.25539   0.98111
  44   35296.8    283.3   0.001650512   0.01539   0.01232  -0.10605   0.06321
  45   35456.7    282.0   0.086312306   0.80140   0.33438  -0.68505   0.46937
  46   35696.0    280.1   0.011362387   0.10479  -0.12692  -0.15079  -0.25680
  47   36101.7    277.0   0.002482822   0.02264  -0.07133   0.03591  -0.12753
  48   36387.9    274.8   0.001408645   0.01274  -0.01640  -0.09759   0.05433
  49   36431.5    274.5   0.006429135   0.05810   0.16877   0.14517   0.09240
  50   36829.6    271.5   0.277433249   2.47992  -0.62435   1.17258  -0.84568
  51   37441.3    267.1   0.055300070   0.48624   0.50736   0.00485   0.47833
  52   37796.2    264.6   0.009912350   0.08634  -0.22167   0.10356  -0.16271
  53   37961.7    263.4   0.087623470   0.75989  -0.24961  -0.82275   0.14376
  54   38410.7    260.3   0.038698142   0.33168   0.30617  -0.20469   0.44276
  55   38593.8    259.1   0.015489113   0.13213   0.14598  -0.08193   0.32265
  56   38958.2    256.7   0.031216859   0.26379  -0.21963   0.19356  -0.42201
  57   39256.1    254.7   0.005881356   0.04932  -0.05541   0.08864   0.19595
  58   39383.6    253.9   0.005249782   0.04388  -0.18863   0.06189  -0.06687
  59   39482.1    253.3   0.005057373   0.04217  -0.06078   0.15207  -0.12390
  60   39648.3    252.2   0.016763572   0.13919   0.25176  -0.11067   0.25211
  61   39885.2    250.7   0.023645184   0.19517  -0.18602   0.10737  -0.38605
  62   40278.3    248.3   0.073017534   0.59680  -0.68511  -0.15518  -0.32148

FINAL SINGLE POINT ENERGY     -3869.716198794010

DIPOLE MOMENT
-------------
                                X             Y             Z
Electronic contribution:      2.20362       7.84137       6.19869
Nuclear contribution   :      0.46361      -9.35222      -6.53803
                        -----------------------------------------
Total Dipole Moment    :      2.66724      -1.51084      -0.33934
                        -----------------------------------------
Magnitude (a.u.)       :      3.08415
Magnitude (Debye)      :      7.83928

Rotational constants in cm-1:     0.001281     0.000437     0.000366
Rotational constants in MHz :    38.409115    13.086905    10.970809

                             ****ORCA TERMINATED NORMALLY****
TOTAL RUN TIME: 0 days 0 hours 31 minutes 12 seconds 355 msec
