                         Program Version 4.2.0 -  RELEASE  -
|  1> # ORCA input file
|  2> # SCF done       -159.722950592822          0.000475820271
|  3> ! CAM-B3LYP def2-SVP def2/J RIJCOSX Grid4 TightSCF
|  4> %maxcore 5000
|  5> %tddft
|  6>     Mode sTDDFT
|  7>     Ethresh 5.0
|  8>     maxcore 5000
|  9> end
| 10>
| 11> %pal
| 12>   nprocs 6
| 13>   end
| 14> * xyz 0 1
| 15>    C        8.01490         4.02122         2.45711
| 16>    S        6.34576         4.23147         2.09632
| 17>    C        6.20600         2.57301         1.61247
| 18>    C        4.92074         2.05606         1.06036
| 19>    C        4.85690         2.26402        -0.45463
| 20>    C        7.40226         1.92402         1.71543
| 21>    C        8.45199         2.76126         2.20648
| 22>    C        9.84173         2.28137         2.48579
| 23>    C        9.87386         1.40094         3.73564
| 24>    C        7.59156         0.50930         1.35682
| 25>    C        6.96044        -0.48919         2.10866
| 26>    C        7.11371        -1.82594         1.80876
| 27>    C        7.91921        -2.17303         0.73078
| 28>    C        8.55423        -1.16306        -0.02096
| 29>    C        8.39927         0.17693         0.27561
| 30>    O        9.30062        -1.68447        -1.03348
| 31>    C        9.15996        -3.03599        -0.95291
| 32>    C        8.31699        -3.40656         0.11622
| 33>    C        8.05322        -4.75276         0.34230
| 34>    C        8.63121        -5.68826        -0.48421
| 35>    C        9.48056        -5.32425        -1.54598
| 36>    C        9.74083        -3.96927        -1.78303
| 37>    C       10.09666        -6.29438        -2.42074
| 38>    C       10.07157        -7.63357        -2.25976
| 39>    C       10.66595        -8.61448        -3.10452
| 40>    S       10.95197       -10.18061        -2.41689
| 41>    C       11.66794       -10.80897        -3.85398
| 42>    C       11.69602        -9.83347        -4.84790
| 43>    C       11.10002        -8.58806        -4.43407
| 44>    C       10.96890        -7.54863        -5.37430
| 45>    C       11.49550        -7.68952        -6.63464
| 46>    C       11.35704        -6.64625        -7.57635
| 47>    N       11.23449        -5.78597        -8.32437
| 48>    C       12.19731        -8.88304        -7.00219
| 49>    C       12.79129        -8.97386        -8.28075
| 50>    N       13.27763        -9.06599        -9.31477
| 51>    C       12.28148        -9.93527        -6.12669
| 52>    C       12.11350       -12.18467        -3.88835
| 53>    C       11.94892       -12.96553        -5.04545
| 54>    C       12.33871       -14.28612        -5.08669
| 55>    C       12.90423       -14.85331        -3.95074
| 56>    C       13.05419       -14.06966        -2.78471
| 57>    C       12.66322       -12.75008        -2.73489
| 58>    O       13.60682       -14.78159        -1.76880
| 59>    C       13.81575       -16.03892        -2.25451
| 60>    C       13.40401       -16.14985        -3.59921
| 61>    C       13.54166       -17.36965        -4.25431
| 62>    C       14.06596       -18.43636        -3.56193
| 63>    C       14.47040       -18.33141        -2.21749
| 64>    C       14.34951       -17.10186        -1.56082
| 65>    C       15.00722       -19.44626        -1.47348
| 66>    C       15.04818       -20.73403        -1.86248
| 67>    C       15.57815       -21.79579        -1.07107
| 68>    S       16.24670       -21.49684         0.51711
| 69>    C       16.62194       -23.17550         0.73319
| 70>    C       17.27207       -23.61821         2.00117
| 71>    C       17.49350       -25.12410         2.07216
| 72>    C       16.24695       -23.90046        -0.35565
| 73>    C       15.65077       -23.13563        -1.38333
| 74>    C       15.20149       -23.73681        -2.67903
| 75>    C       16.28039       -23.59034        -3.75445
| 76>    H        8.57722         4.85168         2.83591
| 77>    H        4.08572         2.57686         1.53313
| 78>    H        4.83470         0.98977         1.27948
| 79>    H        4.94467         3.32112        -0.69494
| 80>    H        3.91245         1.89496        -0.84660
| 81>    H        5.66922         1.72837        -0.94082
| 82>    H       10.49678         3.14298         2.62807
| 83>    H       10.21186         1.70549         1.63531
| 84>    H        9.49911         1.95136         4.59579
| 85>    H       10.89142         1.07962         3.94520
| 86>    H        9.25440         0.51832         3.59295
| 87>    H        6.35057        -0.19325         2.95002
| 88>    H        6.62423        -2.58791         2.39581
| 89>    H        8.87730         0.93789        -0.32098
| 90>    H        7.40424        -5.05378         1.15030
| 91>    H        8.41673        -6.73130        -0.31462
| 92>    H       10.38293        -3.65920        -2.59266
| 93>    H       10.65101        -5.86910        -3.24470
| 94>    H        9.60601        -8.04844        -1.37540
| 95>    H       10.43464        -6.64676        -5.12314
| 96>    H       12.81325       -10.83057        -6.40932
| 97>    H       11.46378       -12.53059        -5.90547
| 98>    H       12.19609       -14.87421        -5.97996
| 99>    H       12.78920       -12.16746        -1.83577
|100>    H       13.24011       -17.47237        -5.28560
|101>    H       14.17769       -19.38106        -4.07034
|102>    H       14.65560       -16.99049        -0.53261
|103>    H       15.39484       -19.20207        -0.49163
|104>    H       14.65665       -21.03000        -2.82519
|105>    H       16.65130       -23.29953         2.84454
|106>    H       18.23263       -23.10260         2.10289
|107>    H       16.54705       -25.65452         2.00020
|108>    H       17.96211       -25.38397         3.01820
|109>    H       18.14288       -25.45527         1.26545
|110>    H       16.38339       -24.96404        -0.43584
|111>    H       14.28042       -23.25802        -3.01763
|112>    H       14.99063       -24.79661        -2.52332
|113>    H       16.50445       -22.54043        -3.92933
|114>    H       15.94747       -24.03698        -4.68860
|115>    H       17.19609       -24.08594        -3.44007
|116> *
|117>
|118>                          ****END OF INPUT****

CARTESIAN COORDINATES (ANGSTROEM)
---------------------------------
  C      8.014900    4.021220    2.457110
  S      6.345760    4.231470    2.096320
  C      6.206000    2.573010    1.612470
  C      4.920740    2.056060    1.060360
  C      4.856900    2.264020   -0.454630
  C      7.402260    1.924020    1.715430
  C      8.451990    2.761260    2.206480
  C      9.841730    2.281370    2.485790
  C      9.873860    1.400940    3.735640
  C      7.591560    0.509300    1.356820
  C      6.960440   -0.489190    2.108660
  C      7.113710   -1.825940    1.808760
  C      7.919210   -2.173030    0.730780
  C      8.554230   -1.163060   -0.020960
  C      8.399270    0.176930    0.275610
  O      9.300620   -1.684470   -1.033480
  C      9.159960   -3.035990   -0.952910
  C      8.316990   -3.406560    0.116220
  C      8.053220   -4.752760    0.342300
  C      8.631210   -5.688260   -0.484210
  C      9.480560   -5.324250   -1.545980
  C      9.740830   -3.969270   -1.783030
  C     10.096660   -6.294380   -2.420740
  C     10.071570   -7.633570   -2.259760
  C     10.665950   -8.614480   -3.104520
  S     10.951970  -10.180610   -2.416890
  C     11.667940  -10.808970   -3.853980
  C     11.696020   -9.833470   -4.847900
  C     11.100020   -8.588060   -4.434070
  C     10.968900   -7.548630   -5.374300
  C     11.495500   -7.689520   -6.634640
  C     11.357040   -6.646250   -7.576350
  N     11.234490   -5.785970   -8.324370
  C     12.197310   -8.883040   -7.002190
  C     12.791290   -8.973860   -8.280750
  N     13.277630   -9.065990   -9.314770
  C     12.281480   -9.935270   -6.126690
  C     12.113500  -12.184670   -3.888350
  C     11.948920  -12.965530   -5.045450
  C     12.338710  -14.286120   -5.086690
  C     12.904230  -14.853310   -3.950740
  C     13.054190  -14.069660   -2.784710
  C     12.663220  -12.750080   -2.734890
  O     13.606820  -14.781590   -1.768800
  C     13.815750  -16.038920   -2.254510
  C     13.404010  -16.149850   -3.599210
  C     13.541660  -17.369650   -4.254310
  C     14.065960  -18.436360   -3.561930
  C     14.470400  -18.331410   -2.217490
  C     14.349510  -17.101860   -1.560820
  C     15.007220  -19.446260   -1.473480
  C     15.048180  -20.734030   -1.862480
  C     15.578150  -21.795790   -1.071070
  S     16.246700  -21.496840    0.517110
  C     16.621940  -23.175500    0.733190
  C     17.272070  -23.618210    2.001170
  C     17.493500  -25.124100    2.072160
  C     16.246950  -23.900460   -0.355650
  C     15.650770  -23.135630   -1.383330
  C     15.201490  -23.736810   -2.679030
  C     16.280390  -23.590340   -3.754450
  H      8.577220    4.851680    2.835910
  H      4.085720    2.576860    1.533130
  H      4.834700    0.989770    1.279480
  H      4.944670    3.321120   -0.694940
  H      3.912450    1.894960   -0.846600
  H      5.669220    1.728370   -0.940820
  H     10.496780    3.142980    2.628070
  H     10.211860    1.705490    1.635310
  H      9.499110    1.951360    4.595790
  H     10.891420    1.079620    3.945200
  H      9.254400    0.518320    3.592950
  H      6.350570   -0.193250    2.950020
  H      6.624230   -2.587910    2.395810
  H      8.877300    0.937890   -0.320980
  H      7.404240   -5.053780    1.150300
  H      8.416730   -6.731300   -0.314620
  H     10.382930   -3.659200   -2.592660
  H     10.651010   -5.869100   -3.244700
  H      9.606010   -8.048440   -1.375400
  H     10.434640   -6.646760   -5.123140
  H     12.813250  -10.830570   -6.409320
  H     11.463780  -12.530590   -5.905470
  H     12.196090  -14.874210   -5.979960
  H     12.789200  -12.167460   -1.835770
  H     13.240110  -17.472370   -5.285600
  H     14.177690  -19.381060   -4.070340
  H     14.655600  -16.990490   -0.532610
  H     15.394840  -19.202070   -0.491630
  H     14.656650  -21.030000   -2.825190
  H     16.651300  -23.299530    2.844540
  H     18.232630  -23.102600    2.102890
  H     16.547050  -25.654520    2.000200
  H     17.962110  -25.383970    3.018200
  H     18.142880  -25.455270    1.265450
  H     16.383390  -24.964040   -0.435840
  H     14.280420  -23.258020   -3.017630
  H     14.990630  -24.796610   -2.523320
  H     16.504450  -22.540430   -3.929330
  H     15.947470  -24.036980   -4.688600
  H     17.196090  -24.085940   -3.440070

 Total Charge           Charge          ....    0
 Multiplicity           Mult            ....    1
 Number of Electrons    NEL             ....  442
 Basis Dimension        Dim             .... 1066

ORBITAL ENERGIES
----------------

  NO   OCC          E(Eh)            E(eV)
   0   2.0000     -88.982216     -2421.3292
   1   2.0000     -88.938527     -2420.1403
   2   2.0000     -88.936342     -2420.0809
   3   2.0000     -19.283495      -524.7306
   4   2.0000     -19.280258      -524.6425
   5   2.0000     -14.403294      -391.9336
   6   2.0000     -14.403230      -391.9318
   7   2.0000     -10.338724      -281.3310
   8   2.0000     -10.333240      -281.1818
   9   2.0000     -10.333186      -281.1803
  10   2.0000     -10.331821      -281.1431
  11   2.0000     -10.324770      -280.9513
  12   2.0000     -10.324427      -280.9419
  13   2.0000     -10.321213      -280.8545
  14   2.0000     -10.320974      -280.8480
  15   2.0000     -10.308820      -280.5173
  16   2.0000     -10.308478      -280.5079
  17   2.0000     -10.302727      -280.3515
  18   2.0000     -10.302509      -280.3455
  19   2.0000     -10.302108      -280.3346
  20   2.0000     -10.302007      -280.3319
  21   2.0000     -10.301845      -280.3275
  22   2.0000     -10.293553      -280.1018
  23   2.0000     -10.291097      -280.0350
  24   2.0000     -10.289377      -279.9882
  25   2.0000     -10.289214      -279.9837
  26   2.0000     -10.287071      -279.9254
  27   2.0000     -10.286740      -279.9164
  28   2.0000     -10.285800      -279.8909
  29   2.0000     -10.285120      -279.8723
  30   2.0000     -10.284276      -279.8494
  31   2.0000     -10.282710      -279.8068
  32   2.0000     -10.282664      -279.8055
  33   2.0000     -10.282578      -279.8032
  34   2.0000     -10.282200      -279.7929
  35   2.0000     -10.280961      -279.7592
  36   2.0000     -10.280727      -279.7528
  37   2.0000     -10.280681      -279.7516
  38   2.0000     -10.279136      -279.7095
  39   2.0000     -10.278915      -279.7035
  40   2.0000     -10.277962      -279.6776
  41   2.0000     -10.277904      -279.6760
  42   2.0000     -10.275799      -279.6187
  43   2.0000     -10.275793      -279.6185
  44   2.0000     -10.275168      -279.6015
  45   2.0000     -10.274865      -279.5933
  46   2.0000     -10.271210      -279.4938
  47   2.0000     -10.270976      -279.4875
  48   2.0000     -10.269327      -279.4426
  49   2.0000     -10.269095      -279.4363
  50   2.0000     -10.268642      -279.4240
  51   2.0000     -10.268264      -279.4137
  52   2.0000     -10.267369      -279.3893
  53   2.0000     -10.261319      -279.2247
  54   2.0000     -10.260107      -279.1917
  55   2.0000     -10.260100      -279.1915
  56   2.0000     -10.259270      -279.1689
  57   2.0000     -10.258211      -279.1401
  58   2.0000     -10.256317      -279.0886
  59   2.0000     -10.250730      -278.9365
  60   2.0000     -10.246733      -278.8278
  61   2.0000      -8.077423      -219.7979
  62   2.0000      -8.034481      -218.6293
  63   2.0000      -8.032541      -218.5765
  64   2.0000      -6.046234      -164.5264
  65   2.0000      -6.042111      -164.4142
  66   2.0000      -6.040555      -164.3719
  67   2.0000      -6.003742      -163.3701
  68   2.0000      -6.001776      -163.3166
  69   2.0000      -5.999679      -163.2596
  70   2.0000      -5.997543      -163.2014
  71   2.0000      -5.996582      -163.1753
  72   2.0000      -5.994854      -163.1283
  73   2.0000      -1.202932       -32.7334
  74   2.0000      -1.199379       -32.6368
  75   2.0000      -1.019605       -27.7449
  76   2.0000      -0.996761       -27.1232
  77   2.0000      -0.983761       -26.7695
  78   2.0000      -0.974411       -26.5151
  79   2.0000      -0.974394       -26.5146
  80   2.0000      -0.967650       -26.3311
  81   2.0000      -0.963268       -26.2119
  82   2.0000      -0.958764       -26.0893
  83   2.0000      -0.953918       -25.9574
  84   2.0000      -0.950651       -25.8685
  85   2.0000      -0.917317       -24.9615
  86   2.0000      -0.903057       -24.5734
  87   2.0000      -0.894040       -24.3281
  88   2.0000      -0.885577       -24.0978
  89   2.0000      -0.877296       -23.8724
  90   2.0000      -0.874193       -23.7880
  91   2.0000      -0.873233       -23.7619
  92   2.0000      -0.867208       -23.5979
  93   2.0000      -0.858233       -23.3537
  94   2.0000      -0.855721       -23.2854
  95   2.0000      -0.853028       -23.2121
  96   2.0000      -0.849966       -23.1287
  97   2.0000      -0.840090       -22.8600
  98   2.0000      -0.831072       -22.6146
  99   2.0000      -0.828209       -22.5367
 100   2.0000      -0.826291       -22.4845
 101   2.0000      -0.806431       -21.9441
 102   2.0000      -0.798207       -21.7203
 103   2.0000      -0.786305       -21.3965
 104   2.0000      -0.776306       -21.1244
 105   2.0000      -0.773427       -21.0460
 106   2.0000      -0.753772       -20.5112
 107   2.0000      -0.747428       -20.3386
 108   2.0000      -0.744205       -20.2508
 109   2.0000      -0.727635       -19.8000
 110   2.0000      -0.720985       -19.6190
 111   2.0000      -0.719054       -19.5665
 112   2.0000      -0.716412       -19.4946
 113   2.0000      -0.710065       -19.3218
 114   2.0000      -0.707257       -19.2455
 115   2.0000      -0.703702       -19.1487
 116   2.0000      -0.686109       -18.6700
 117   2.0000      -0.683008       -18.5856
 118   2.0000      -0.682333       -18.5672
 119   2.0000      -0.673181       -18.3182
 120   2.0000      -0.670079       -18.2338
 121   2.0000      -0.665119       -18.0988
 122   2.0000      -0.654711       -17.8156
 123   2.0000      -0.630396       -17.1539
 124   2.0000      -0.624882       -17.0039
 125   2.0000      -0.621435       -16.9101
 126   2.0000      -0.617235       -16.7958
 127   2.0000      -0.615853       -16.7582
 128   2.0000      -0.611296       -16.6342
 129   2.0000      -0.608523       -16.5588
 130   2.0000      -0.604492       -16.4491
 131   2.0000      -0.600328       -16.3358
 132   2.0000      -0.587894       -15.9974
 133   2.0000      -0.581595       -15.8260
 134   2.0000      -0.578727       -15.7480
 135   2.0000      -0.574207       -15.6250
 136   2.0000      -0.560514       -15.2524
 137   2.0000      -0.558464       -15.1966
 138   2.0000      -0.556374       -15.1397
 139   2.0000      -0.555218       -15.1083
 140   2.0000      -0.552835       -15.0434
 141   2.0000      -0.549202       -14.9445
 142   2.0000      -0.545429       -14.8419
 143   2.0000      -0.542782       -14.7698
 144   2.0000      -0.537946       -14.6383
 145   2.0000      -0.534702       -14.5500
 146   2.0000      -0.533068       -14.5055
 147   2.0000      -0.532888       -14.5006
 148   2.0000      -0.529277       -14.4024
 149   2.0000      -0.525174       -14.2907
 150   2.0000      -0.524385       -14.2692
 151   2.0000      -0.522658       -14.2223
 152   2.0000      -0.521199       -14.1825
 153   2.0000      -0.520041       -14.1510
 154   2.0000      -0.515941       -14.0395
 155   2.0000      -0.510558       -13.8930
 156   2.0000      -0.506888       -13.7931
 157   2.0000      -0.503812       -13.7094
 158   2.0000      -0.502038       -13.6612
 159   2.0000      -0.495370       -13.4797
 160   2.0000      -0.494581       -13.4582
 161   2.0000      -0.492044       -13.3892
 162   2.0000      -0.487747       -13.2723
 163   2.0000      -0.483667       -13.1613
 164   2.0000      -0.475796       -12.9471
 165   2.0000      -0.472593       -12.8599
 166   2.0000      -0.471336       -12.8257
 167   2.0000      -0.467568       -12.7232
 168   2.0000      -0.465717       -12.6728
 169   2.0000      -0.465274       -12.6608
 170   2.0000      -0.462393       -12.5824
 171   2.0000      -0.458351       -12.4724
 172   2.0000      -0.457803       -12.4575
 173   2.0000      -0.454649       -12.3716
 174   2.0000      -0.452216       -12.3054
 175   2.0000      -0.448187       -12.1958
 176   2.0000      -0.447429       -12.1752
 177   2.0000      -0.445250       -12.1159
 178   2.0000      -0.444520       -12.0960
 179   2.0000      -0.442827       -12.0499
 180   2.0000      -0.440878       -11.9969
 181   2.0000      -0.440765       -11.9938
 182   2.0000      -0.440252       -11.9799
 183   2.0000      -0.438700       -11.9376
 184   2.0000      -0.431348       -11.7376
 185   2.0000      -0.430607       -11.7174
 186   2.0000      -0.428778       -11.6676
 187   2.0000      -0.428321       -11.6552
 188   2.0000      -0.424561       -11.5529
 189   2.0000      -0.423979       -11.5371
 190   2.0000      -0.422939       -11.5088
 191   2.0000      -0.421717       -11.4755
 192   2.0000      -0.416849       -11.3430
 193   2.0000      -0.416287       -11.3277
 194   2.0000      -0.413729       -11.2581
 195   2.0000      -0.413270       -11.2457
 196   2.0000      -0.410672       -11.1749
 197   2.0000      -0.409197       -11.1348
 198   2.0000      -0.409031       -11.1303
 199   2.0000      -0.405484       -11.0338
 200   2.0000      -0.402767       -10.9598
 201   2.0000      -0.400099       -10.8872
 202   2.0000      -0.399936       -10.8828
 203   2.0000      -0.391379       -10.6500
 204   2.0000      -0.390495       -10.6259
 205   2.0000      -0.387444       -10.5429
 206   2.0000      -0.375315       -10.2128
 207   2.0000      -0.350462        -9.5366
 208   2.0000      -0.341170        -9.2837
 209   2.0000      -0.339592        -9.2408
 210   2.0000      -0.335549        -9.1308
 211   2.0000      -0.327319        -8.9068
 212   2.0000      -0.310378        -8.4458
 213   2.0000      -0.304380        -8.2826
 214   2.0000      -0.300527        -8.1778
 215   2.0000      -0.299161        -8.1406
 216   2.0000      -0.296682        -8.0731
 217   2.0000      -0.285318        -7.7639
 218   2.0000      -0.277649        -7.5552
 219   2.0000      -0.252412        -6.8685
 220   2.0000      -0.238375        -6.4865
 221   0.0000      -0.075547        -2.0557
 222   0.0000      -0.038690        -1.0528
 223   0.0000      -0.028660        -0.7799
 224   0.0000      -0.009795        -0.2665
 225   0.0000       0.004993         0.1359

MULLIKEN ATOMIC CHARGES
-----------------------
   0 C :   -0.153263
   1 S :    0.094814
   2 C :   -0.288606
   3 C :    0.111681
   4 C :    0.023959
   5 C :    0.090468
   6 C :   -0.038812
   7 C :    0.117300
   8 C :    0.011448
   9 C :   -0.051416
  10 C :    0.041565
  11 C :   -0.053438
  12 C :    0.069882
  13 C :    0.219701
  14 C :   -0.089964
  15 O :   -0.213153
  16 C :    0.228450
  17 C :    0.064509
  18 C :   -0.035212
  19 C :   -0.011538
  20 C :    0.107703
  21 C :   -0.146255
  22 C :   -0.019570
  23 C :    0.069099
  24 C :   -0.135187
  25 S :    0.185914
  26 C :   -0.141395
  27 C :    0.138734
  28 C :    0.115237
  29 C :   -0.061000
  30 C :   -0.072957
  31 C :   -0.177658
  32 N :    0.169229
  33 C :   -0.074742
  34 C :   -0.175460
  35 N :    0.170015
  36 C :   -0.065609
  37 C :    0.084741
  38 C :   -0.013728
  39 C :   -0.048204
  40 C :    0.068084
  41 C :    0.230039
  42 C :   -0.142638
  43 O :   -0.212965
  44 C :    0.229292
  45 C :    0.060602
  46 C :   -0.032658
  47 C :   -0.016229
  48 C :    0.126457
  49 C :   -0.148124
  50 C :   -0.021600
  51 C :    0.030027
  52 C :   -0.102607
  53 S :    0.084488
  54 C :   -0.178606
  55 C :    0.097763
  56 C :    0.000009
  57 C :   -0.021990
  58 C :   -0.041005
  59 C :    0.074478
  60 C :    0.027129
  61 H :    0.006231
  62 H :    0.003081
  63 H :    0.006796
  64 H :    0.008634
  65 H :    0.013046
  66 H :    0.016383
  67 H :   -0.007715
  68 H :   -0.000806
  69 H :    0.008746
  70 H :    0.010084
  71 H :    0.018155
  72 H :   -0.017168
  73 H :   -0.028824
  74 H :   -0.016396
  75 H :   -0.027730
  76 H :   -0.026773
  77 H :   -0.019798
  78 H :   -0.014350
  79 H :   -0.016217
  80 H :   -0.005332
  81 H :   -0.000298
  82 H :   -0.011421
  83 H :   -0.020616
  84 H :   -0.017038
  85 H :   -0.028628
  86 H :   -0.030180
  87 H :   -0.025289
  88 H :   -0.019823
  89 H :   -0.021509
  90 H :    0.020733
  91 H :    0.022832
  92 H :    0.020581
  93 H :    0.015394
  94 H :    0.020818
  95 H :   -0.034908
  96 H :    0.007594
  97 H :   -0.000863
  98 H :    0.011509
  99 H :    0.013524
 100 H :    0.010311
Sum of atomic charges:   -0.0000000

LOEWDIN ATOMIC CHARGES
----------------------
   0 C :   -0.204400
   1 S :    0.414214
   2 C :   -0.165834
   3 C :   -0.045115
   4 C :   -0.049016
   5 C :   -0.075322
   6 C :   -0.053918
   7 C :   -0.027413
   8 C :   -0.051076
   9 C :   -0.008157
  10 C :   -0.030193
  11 C :   -0.012637
  12 C :   -0.050567
  13 C :    0.060393
  14 C :   -0.038120
  15 O :   -0.021375
  16 C :    0.058485
  17 C :   -0.042161
  18 C :   -0.010261
  19 C :   -0.025170
  20 C :   -0.023610
  21 C :   -0.035133
  22 C :   -0.008329
  23 C :   -0.050517
  24 C :   -0.167654
  25 S :    0.509005
  26 C :   -0.162129
  27 C :   -0.047354
  28 C :   -0.047593
  29 C :    0.031551
  30 C :   -0.058493
  31 C :   -0.032689
  32 N :   -0.041636
  33 C :   -0.060186
  34 C :   -0.032249
  35 N :   -0.041313
  36 C :    0.033189
  37 C :   -0.042854
  38 C :   -0.029772
  39 C :   -0.008956
  40 C :   -0.039294
  41 C :    0.061188
  42 C :   -0.045521
  43 O :   -0.020771
  44 C :    0.061470
  45 C :   -0.053674
  46 C :   -0.008286
  47 C :   -0.027170
  48 C :   -0.009976
  49 C :   -0.042036
  50 C :   -0.038501
  51 C :   -0.026552
  52 C :   -0.183488
  53 S :    0.407238
  54 C :   -0.159260
  55 C :   -0.046101
  56 C :   -0.051543
  57 C :   -0.082444
  58 C :   -0.046780
  59 C :   -0.029150
  60 C :   -0.048815
  61 H :    0.017742
  62 H :    0.026603
  63 H :    0.032038
  64 H :    0.021642
  65 H :    0.022606
  66 H :    0.025137
  67 H :    0.026585
  68 H :    0.026724
  69 H :    0.022756
  70 H :    0.022238
  71 H :    0.024408
  72 H :    0.029798
  73 H :    0.029585
  74 H :    0.036914
  75 H :    0.030690
  76 H :    0.025203
  77 H :    0.035735
  78 H :    0.028441
  79 H :    0.026686
  80 H :    0.041392
  81 H :    0.043918
  82 H :    0.030671
  83 H :    0.033150
  84 H :    0.030392
  85 H :    0.030274
  86 H :    0.025606
  87 H :    0.034537
  88 H :    0.019503
  89 H :    0.028001
  90 H :    0.033587
  91 H :    0.034514
  92 H :    0.025552
  93 H :    0.027827
  94 H :    0.025201
  95 H :    0.023514
  96 H :    0.026154
  97 H :    0.028644
  98 H :    0.022590
  99 H :    0.022511
 100 H :    0.024760

  Mayer bond orders larger than 0.100000
B(  0-C ,  1-S ) :   1.1379 B(  0-C ,  6-C ) :   1.5943 B(  0-C , 61-H ) :   0.9661
B(  1-S ,  2-C ) :   1.1517 B(  2-C ,  3-C ) :   1.0702 B(  2-C ,  5-C ) :   1.6026
B(  3-C ,  4-C ) :   1.1044 B(  3-C , 62-H ) :   0.9178 B(  3-C , 63-H ) :   0.9180
B(  4-C , 64-H ) :   0.9672 B(  4-C , 65-H ) :   0.9681 B(  4-C , 66-H ) :   0.9724
B(  5-C ,  6-C ) :   1.2679 B(  5-C ,  9-C ) :   0.9441 B(  6-C ,  7-C ) :   1.0742
B(  7-C ,  8-C ) :   1.0990 B(  7-C , 67-H ) :   0.9217 B(  7-C , 68-H ) :   0.9137
B(  8-C , 69-H ) :   0.9668 B(  8-C , 70-H ) :   0.9655 B(  8-C , 71-H ) :   0.9730
B(  9-C , 10-C ) :   1.3658 B(  9-C , 14-C ) :   1.3686 B( 10-C , 11-C ) :   1.3905
B( 10-C , 72-H ) :   0.9846 B( 11-C , 12-C ) :   1.3150 B( 11-C , 73-H ) :   1.0023
B( 12-C , 13-C ) :   1.2911 B( 12-C , 17-C ) :   1.0558 B( 13-C , 14-C ) :   1.3252
B( 13-C , 15-O ) :   1.0925 B( 14-C , 74-H ) :   1.0114 B( 15-O , 16-C ) :   1.0991
B( 16-C , 17-C ) :   1.2899 B( 16-C , 21-C ) :   1.3332 B( 17-C , 18-C ) :   1.3094
B( 18-C , 19-C ) :   1.4341 B( 18-C , 75-H ) :   0.9967 B( 19-C , 20-C ) :   1.3157
B( 19-C , 76-H ) :   0.9828 B( 20-C , 21-C ) :   1.2996 B( 20-C , 22-C ) :   1.0938
B( 21-C , 77-H ) :   1.0211 B( 22-C , 23-C ) :   1.6825 B( 22-C , 78-H ) :   0.9825
B( 23-C , 24-C ) :   1.1289 B( 23-C , 79-H ) :   0.9403 B( 24-C , 25-S ) :   1.1657
B( 24-C , 26-C ) :   0.1106 B( 24-C , 28-C ) :   1.3497 B( 25-S , 26-C ) :   1.1867
B( 26-C , 27-C ) :   1.3851 B( 26-C , 37-C ) :   1.0334 B( 27-C , 28-C ) :   1.1821
B( 27-C , 36-C ) :   1.1778 B( 28-C , 29-C ) :   1.1856 B( 29-C , 30-C ) :   1.5750
B( 29-C , 80-H ) :   0.9944 B( 30-C , 31-C ) :   1.0774 B( 30-C , 33-C ) :   1.2267
B( 31-C , 32-N ) :   3.0437 B( 33-C , 34-C ) :   1.0789 B( 33-C , 36-C ) :   1.5737
B( 34-C , 35-N ) :   3.0438 B( 36-C , 81-H ) :   0.9964 B( 37-C , 38-C ) :   1.3336
B( 37-C , 42-C ) :   1.3074 B( 38-C , 39-C ) :   1.4097 B( 38-C , 82-H ) :   0.9882
B( 39-C , 40-C ) :   1.3218 B( 39-C , 83-H ) :   0.9995 B( 40-C , 41-C ) :   1.2754
B( 40-C , 45-C ) :   1.0585 B( 41-C , 42-C ) :   1.3569 B( 41-C , 43-O ) :   1.1065
B( 42-C , 84-H ) :   1.0061 B( 43-O , 44-C ) :   1.0863 B( 44-C , 45-C ) :   1.2930
B( 44-C , 49-C ) :   1.3293 B( 45-C , 46-C ) :   1.3041 B( 46-C , 47-C ) :   1.4380
B( 46-C , 85-H ) :   0.9961 B( 47-C , 48-C ) :   1.3140 B( 47-C , 86-H ) :   0.9854
B( 48-C , 49-C ) :   1.3059 B( 48-C , 50-C ) :   1.0829 B( 49-C , 87-H ) :   1.0220
B( 50-C , 51-C ) :   1.6940 B( 50-C , 88-H ) :   0.9798 B( 51-C , 52-C ) :   1.1496
B( 51-C , 89-H ) :   0.9599 B( 52-C , 53-S ) :   1.0824 B( 52-C , 58-C ) :   1.5411
B( 53-S , 54-C ) :   1.1436 B( 54-C , 55-C ) :   1.0194 B( 54-C , 57-C ) :   1.5996
B( 55-C , 56-C ) :   1.1422 B( 55-C , 90-H ) :   0.9237 B( 55-C , 91-H ) :   0.9230
B( 56-C , 92-H ) :   0.9667 B( 56-C , 93-H ) :   0.9642 B( 56-C , 94-H ) :   0.9652
B( 57-C , 58-C ) :   1.2140 B( 57-C , 95-H ) :   0.9970 B( 58-C , 59-C ) :   1.0673
B( 59-C , 60-C ) :   1.1021 B( 59-C , 96-H ) :   0.9233 B( 59-C , 97-H ) :   0.9247
B( 60-C , 98-H ) :   0.9715 B( 60-C , 99-H ) :   0.9677 B( 60-C ,100-H ) :   0.9677

-----------------------------------------------------------------------------
         ABSORPTION SPECTRUM VIA TRANSITION ELECTRIC DIPOLE MOMENTS
-----------------------------------------------------------------------------
State   Energy  Wavelength   fosc         T2         TX        TY        TZ
        (cm-1)    (nm)                  (au**2)     (au)      (au)      (au)
-----------------------------------------------------------------------------
   0   20665.0    483.9   1.367118586  21.77944   1.66352  -4.24838  -0.98152
   1   26279.0    380.5   0.325182337   4.07375  -0.20104   1.15877  -1.64030
   2   28992.6    344.9   0.515478722   5.85328  -0.19592   1.40313  -1.96115
   3   30068.2    332.6   1.412199398  15.46192  -1.46042   3.61751   0.49263
   4   31906.9    313.4   0.048209495   0.49742   0.18114  -0.04856  -0.67989
   5   32918.3    303.8   0.085224161   0.85232  -0.31003   0.30511  -0.81431
   6   32991.0    303.1   0.036172970   0.36096  -0.08503   0.32943  -0.49519
   7   33768.3    296.1   0.023256636   0.22673   0.21749   0.37385  -0.19916
   8   35400.3    282.5   0.043493190   0.40447  -0.10320   0.31651  -0.54189
   9   35951.9    278.1   0.208647646   1.91059  -0.33534   0.88238   1.00972
  10   36690.5    272.6   0.126752927   1.13731   0.08385  -1.01655   0.31132
  11   37596.1    266.0   0.073630552   0.64475   0.32398  -0.72843  -0.09576
  12   38177.7    261.9   0.037733338   0.32538   0.13653  -0.36844  -0.41351
  13   38916.2    257.0   0.045989334   0.38905   0.16164  -0.00499  -0.60241
  14   39506.6    253.1   0.072872186   0.60725  -0.38133   0.03365   0.67875
  15   40076.9    249.5   0.022795356   0.18725   0.17087   0.11242  -0.38134

FINAL SINGLE POINT ENERGY     -3533.004297458606

DIPOLE MOMENT
-------------
                                X             Y             Z
Electronic contribution:     -9.01952      36.47567     -35.09854
Nuclear contribution   :      8.52327     -39.20165      38.34993
                        -----------------------------------------
Total Dipole Moment    :     -0.49625      -2.72598       3.25138
                        -----------------------------------------
Magnitude (a.u.)       :      4.27185
Magnitude (Debye)      :     10.85818

Rotational constants in cm-1:     0.002125     0.000223     0.000205
Rotational constants in MHz :    63.691523     6.681295     6.156315

                             ****ORCA TERMINATED NORMALLY****
TOTAL RUN TIME: 0 days 0 hours 7 minutes 27 seconds 142 msec
