                         Program Version 4.2.0 -  RELEASE  -
|  1> # ORCA input file
|  2> # SCF done       -167.492644671739          0.000802386503
|  3> ! CAM-B3LYP def2-SVP def2/J RIJCOSX Grid4 TightSCF
|  4> %maxcore 5000
|  5> %tddft
|  6>     Mode sTDDFT
|  7>     Ethresh 5.0
|  8>     maxcore 5000
|  9> end
| 10>
| 11> %pal
| 12>   nprocs 6
| 13>   end
| 14> * xyz 0 1
| 15>    C        1.67318         0.88694        -0.77220
| 16>    C        1.92964         2.22146        -0.90751
| 17>    C        2.53587         2.78722        -2.04895
| 18>    N        3.02108         3.28697        -2.96055
| 19>    C        1.72818         3.16089         0.12665
| 20>    N        1.66239         3.93721         0.96903
| 21>    C        2.12430        -0.16842        -1.67127
| 22>    C        2.11738        -1.40708        -0.96214
| 23>    C        2.53798        -2.56942        -1.54379
| 24>    C        2.97976        -2.54798        -2.88498
| 25>    C        2.97002        -1.31747        -3.60515
| 26>    C        2.53694        -0.12782        -2.97620
| 27>    C        3.40419        -1.31339        -4.94647
| 28>    C        3.83095        -2.46603        -5.54773
| 29>    C        3.84277        -3.67598        -4.83717
| 30>    C        3.42658        -3.71609        -3.53431
| 31>    C        1.59153        -1.19405         0.39463
| 32>    O        1.48577        -1.98842         1.29811
| 33>    C        1.13493         0.23286         0.40862
| 34>    C        0.23719         0.63114         1.33650
| 35>    C       -0.57614         1.79849         1.30458
| 36>    S       -1.43731         2.35993         2.72825
| 37>    C       -2.07423         3.61995         1.68449
| 38>    N       -1.64763         3.51454         0.45820
| 39>    N       -0.82934         2.52589         0.25342
| 40>    C       -2.96134         4.62263         2.17735
| 41>    C       -3.37263         5.66125         1.42744
| 42>    C       -4.25968         6.71029         1.87724
| 43>    C       -4.34868         7.89555         1.14731
| 44>    C       -5.16165         8.93396         1.57122
| 45>    N       -5.24522        10.10382         0.73159
| 46>    O       -4.36026        10.27293        -0.07823
| 47>    O       -6.20015        10.83728         0.87629
| 48>    C       -5.92853         8.83940         2.74393
| 49>    C       -5.86141         7.62792         3.44264
| 50>    C       -5.05492         6.59439         3.02647
| 51>    C       -6.70313         9.93703         3.28698
| 52>    C       -7.89726         9.77151         3.88043
| 53>    C       -8.58309        10.83830         4.53651
| 54>    S      -10.22066        10.65988         5.14798
| 55>    C      -10.02115        12.29839         5.77249
| 56>    N       -8.85322        12.79582         5.48308
| 57>    N       -8.07354        12.00522         4.81009
| 58>    C      -11.03352        12.94026         6.53581
| 59>    C      -10.83226        14.11161         7.18664
| 60>    C      -11.85258        14.69185         7.98382
| 61>    C      -11.70160        15.79766         8.76468
| 62>    C      -12.71014        16.40478         9.61921
| 63>    C      -14.02860        16.04429         9.71924
| 64>    C      -14.96048        16.67818        10.56910
| 65>    N      -15.76984        17.14557        11.23562
| 66>    C      -14.65893        15.00799         8.99863
| 67>    N      -15.25040        14.18633         8.45635
| 68>    C      -12.07366        17.49042        10.35580
| 69>    C      -10.71373        17.58752         9.94441
| 70>    C      -10.42876        16.55787         8.93121
| 71>    O       -9.37382        16.36967         8.36739
| 72>    C       -9.86322        18.51633        10.47140
| 73>    C      -10.34131        19.40713        11.45771
| 74>    C      -11.70042        19.31672        11.87678
| 75>    C      -12.55823        18.34685        11.31021
| 76>    C      -12.16665        20.20796        12.86502
| 77>    C      -11.33196        21.14254        13.41442
| 78>    C       -9.99392        21.23016        13.00124
| 79>    C       -9.50929        20.38150        12.04322
| 80>    H        2.53243        -3.49456        -0.98677
| 81>    H        2.53054         0.78878        -3.54515
| 82>    H        3.39657        -0.37932        -5.48850
| 83>    H        4.16276        -2.45210        -6.57499
| 84>    H        4.18279        -4.57575        -5.32753
| 85>    H        3.43302        -4.64432        -2.98199
| 86>    H        0.06174        -0.05080         2.16107
| 87>    H       -3.26277         4.50953         3.20837
| 88>    H       -2.99131         5.74351         0.41927
| 89>    H       -3.77980         8.02440         0.23796
| 90>    H       -6.43704         7.52502         4.34962
| 91>    H       -5.04340         5.67806         3.59507
| 92>    H       -6.28885        10.93410         3.23599
| 93>    H       -8.40008         8.81441         3.87377
| 94>    H      -11.98393        12.42698         6.60726
| 95>    H       -9.87181        14.60069         7.12020
| 96>    H      -12.80920        14.18398         7.97540
| 97>    H       -8.83645        18.56698        10.14070
| 98>    H      -13.58005        18.30402        11.65193
| 99>    H      -13.19746        20.13680        13.17977
|100>    H      -11.69809        21.81990        14.17128
|101>    H       -9.34928        21.97333        13.44614
|102>    H       -8.48024        20.44391        11.72092
|103> *
|104>
|105>                          ****END OF INPUT****

CARTESIAN COORDINATES (ANGSTROEM)
---------------------------------
  C      1.673180    0.886940   -0.772200
  C      1.929640    2.221460   -0.907510
  C      2.535870    2.787220   -2.048950
  N      3.021080    3.286970   -2.960550
  C      1.728180    3.160890    0.126650
  N      1.662390    3.937210    0.969030
  C      2.124300   -0.168420   -1.671270
  C      2.117380   -1.407080   -0.962140
  C      2.537980   -2.569420   -1.543790
  C      2.979760   -2.547980   -2.884980
  C      2.970020   -1.317470   -3.605150
  C      2.536940   -0.127820   -2.976200
  C      3.404190   -1.313390   -4.946470
  C      3.830950   -2.466030   -5.547730
  C      3.842770   -3.675980   -4.837170
  C      3.426580   -3.716090   -3.534310
  C      1.591530   -1.194050    0.394630
  O      1.485770   -1.988420    1.298110
  C      1.134930    0.232860    0.408620
  C      0.237190    0.631140    1.336500
  C     -0.576140    1.798490    1.304580
  S     -1.437310    2.359930    2.728250
  C     -2.074230    3.619950    1.684490
  N     -1.647630    3.514540    0.458200
  N     -0.829340    2.525890    0.253420
  C     -2.961340    4.622630    2.177350
  C     -3.372630    5.661250    1.427440
  C     -4.259680    6.710290    1.877240
  C     -4.348680    7.895550    1.147310
  C     -5.161650    8.933960    1.571220
  N     -5.245220   10.103820    0.731590
  O     -4.360260   10.272930   -0.078230
  O     -6.200150   10.837280    0.876290
  C     -5.928530    8.839400    2.743930
  C     -5.861410    7.627920    3.442640
  C     -5.054920    6.594390    3.026470
  C     -6.703130    9.937030    3.286980
  C     -7.897260    9.771510    3.880430
  C     -8.583090   10.838300    4.536510
  S    -10.220660   10.659880    5.147980
  C    -10.021150   12.298390    5.772490
  N     -8.853220   12.795820    5.483080
  N     -8.073540   12.005220    4.810090
  C    -11.033520   12.940260    6.535810
  C    -10.832260   14.111610    7.186640
  C    -11.852580   14.691850    7.983820
  C    -11.701600   15.797660    8.764680
  C    -12.710140   16.404780    9.619210
  C    -14.028600   16.044290    9.719240
  C    -14.960480   16.678180   10.569100
  N    -15.769840   17.145570   11.235620
  C    -14.658930   15.007990    8.998630
  N    -15.250400   14.186330    8.456350
  C    -12.073660   17.490420   10.355800
  C    -10.713730   17.587520    9.944410
  C    -10.428760   16.557870    8.931210
  O     -9.373820   16.369670    8.367390
  C     -9.863220   18.516330   10.471400
  C    -10.341310   19.407130   11.457710
  C    -11.700420   19.316720   11.876780
  C    -12.558230   18.346850   11.310210
  C    -12.166650   20.207960   12.865020
  C    -11.331960   21.142540   13.414420
  C     -9.993920   21.230160   13.001240
  C     -9.509290   20.381500   12.043220
  H      2.532430   -3.494560   -0.986770
  H      2.530540    0.788780   -3.545150
  H      3.396570   -0.379320   -5.488500
  H      4.162760   -2.452100   -6.574990
  H      4.182790   -4.575750   -5.327530
  H      3.433020   -4.644320   -2.981990
  H      0.061740   -0.050800    2.161070
  H     -3.262770    4.509530    3.208370
  H     -2.991310    5.743510    0.419270
  H     -3.779800    8.024400    0.237960
  H     -6.437040    7.525020    4.349620
  H     -5.043400    5.678060    3.595070
  H     -6.288850   10.934100    3.235990
  H     -8.400080    8.814410    3.873770
  H    -11.983930   12.426980    6.607260
  H     -9.871810   14.600690    7.120200
  H    -12.809200   14.183980    7.975400
  H     -8.836450   18.566980   10.140700
  H    -13.580050   18.304020   11.651930
  H    -13.197460   20.136800   13.179770
  H    -11.698090   21.819900   14.171280
  H     -9.349280   21.973330   13.446140
  H     -8.480240   20.443910   11.720920

 Total Charge           Charge          ....    0
 Multiplicity           Mult            ....    1
 Number of Electrons    NEL             ....  450
 Basis Dimension        Dim             .... 1033

ORBITAL ENERGIES
----------------

  NO   OCC          E(Eh)            E(eV)
   0   2.0000     -88.986195     -2421.4375
   1   2.0000     -88.979275     -2421.2492
   2   2.0000     -19.250180      -523.8240
   3   2.0000     -19.248252      -523.7716
   4   2.0000     -19.222571      -523.0727
   5   2.0000     -19.215924      -522.8919
   6   2.0000     -14.654959      -398.7817
   7   2.0000     -14.454983      -393.3401
   8   2.0000     -14.448077      -393.1522
   9   2.0000     -14.444690      -393.0600
  10   2.0000     -14.441614      -392.9763
  11   2.0000     -14.418230      -392.3400
  12   2.0000     -14.417461      -392.3191
  13   2.0000     -14.415528      -392.2664
  14   2.0000     -14.413347      -392.2071
  15   2.0000     -10.373135      -282.2674
  16   2.0000     -10.366653      -282.0910
  17   2.0000     -10.356688      -281.8198
  18   2.0000     -10.354657      -281.7645
  19   2.0000     -10.349374      -281.6208
  20   2.0000     -10.346853      -281.5522
  21   2.0000     -10.346819      -281.5513
  22   2.0000     -10.343667      -281.4655
  23   2.0000     -10.342039      -281.4212
  24   2.0000     -10.341708      -281.4122
  25   2.0000     -10.341576      -281.4086
  26   2.0000     -10.327173      -281.0167
  27   2.0000     -10.322740      -280.8960
  28   2.0000     -10.320988      -280.8484
  29   2.0000     -10.318931      -280.7924
  30   2.0000     -10.318321      -280.7758
  31   2.0000     -10.316030      -280.7134
  32   2.0000     -10.315611      -280.7020
  33   2.0000     -10.312670      -280.6220
  34   2.0000     -10.312025      -280.6045
  35   2.0000     -10.311773      -280.5976
  36   2.0000     -10.309309      -280.5306
  37   2.0000     -10.308231      -280.5012
  38   2.0000     -10.307029      -280.4685
  39   2.0000     -10.306966      -280.4668
  40   2.0000     -10.306158      -280.4448
  41   2.0000     -10.305206      -280.4189
  42   2.0000     -10.303262      -280.3660
  43   2.0000     -10.303020      -280.3594
  44   2.0000     -10.301460      -280.3170
  45   2.0000     -10.301198      -280.3099
  46   2.0000     -10.300836      -280.3000
  47   2.0000     -10.300306      -280.2856
  48   2.0000     -10.300217      -280.2831
  49   2.0000     -10.298775      -280.2439
  50   2.0000     -10.297711      -280.2150
  51   2.0000     -10.297471      -280.2084
  52   2.0000     -10.296810      -280.1905
  53   2.0000     -10.295989      -280.1681
  54   2.0000     -10.293613      -280.1035
  55   2.0000     -10.291530      -280.0468
  56   2.0000     -10.289027      -279.9787
  57   2.0000     -10.288520      -279.9649
  58   2.0000     -10.288218      -279.9566
  59   2.0000     -10.287871      -279.9472
  60   2.0000     -10.287468      -279.9362
  61   2.0000     -10.286573      -279.9119
  62   2.0000     -10.285941      -279.8947
  63   2.0000     -10.285776      -279.8902
  64   2.0000     -10.285331      -279.8781
  65   2.0000      -8.082671      -219.9407
  66   2.0000      -8.075798      -219.7536
  67   2.0000      -6.051237      -164.6625
  68   2.0000      -6.047933      -164.5726
  69   2.0000      -6.045144      -164.4967
  70   2.0000      -6.044335      -164.4747
  71   2.0000      -6.041131      -164.3875
  72   2.0000      -6.038239      -164.3088
  73   2.0000      -1.330994       -36.2182
  74   2.0000      -1.156751       -31.4768
  75   2.0000      -1.149916       -31.2908
  76   2.0000      -1.148804       -31.2606
  77   2.0000      -1.137969       -30.9657
  78   2.0000      -1.131101       -30.7788
  79   2.0000      -1.019969       -27.7548
  80   2.0000      -1.019177       -27.7332
  81   2.0000      -1.002893       -27.2901
  82   2.0000      -1.000488       -27.2247
  83   2.0000      -0.999059       -27.1858
  84   2.0000      -0.994923       -27.0732
  85   2.0000      -0.993984       -27.0477
  86   2.0000      -0.976262       -26.5654
  87   2.0000      -0.971874       -26.4460
  88   2.0000      -0.960065       -26.1247
  89   2.0000      -0.955721       -26.0065
  90   2.0000      -0.942628       -25.6502
  91   2.0000      -0.936814       -25.4920
  92   2.0000      -0.924639       -25.1607
  93   2.0000      -0.923433       -25.1279
  94   2.0000      -0.921797       -25.0834
  95   2.0000      -0.909177       -24.7400
  96   2.0000      -0.903863       -24.5954
  97   2.0000      -0.898142       -24.4397
  98   2.0000      -0.885864       -24.1056
  99   2.0000      -0.883899       -24.0521
 100   2.0000      -0.880605       -23.9625
 101   2.0000      -0.875798       -23.8317
 102   2.0000      -0.861271       -23.4364
 103   2.0000      -0.847363       -23.0579
 104   2.0000      -0.836807       -22.7707
 105   2.0000      -0.831063       -22.6144
 106   2.0000      -0.828149       -22.5351
 107   2.0000      -0.803062       -21.8524
 108   2.0000      -0.801233       -21.8027
 109   2.0000      -0.793779       -21.5998
 110   2.0000      -0.771187       -20.9851
 111   2.0000      -0.763848       -20.7854
 112   2.0000      -0.762000       -20.7351
 113   2.0000      -0.739936       -20.1347
 114   2.0000      -0.736069       -20.0294
 115   2.0000      -0.730244       -19.8710
 116   2.0000      -0.716406       -19.4944
 117   2.0000      -0.713186       -19.4068
 118   2.0000      -0.704912       -19.1816
 119   2.0000      -0.704454       -19.1692
 120   2.0000      -0.701569       -19.0907
 121   2.0000      -0.696377       -18.9494
 122   2.0000      -0.690807       -18.7978
 123   2.0000      -0.684036       -18.6136
 124   2.0000      -0.677758       -18.4427
 125   2.0000      -0.674198       -18.3459
 126   2.0000      -0.670203       -18.2371
 127   2.0000      -0.653786       -17.7904
 128   2.0000      -0.642400       -17.4806
 129   2.0000      -0.640880       -17.4392
 130   2.0000      -0.637938       -17.3592
 131   2.0000      -0.632832       -17.2202
 132   2.0000      -0.625199       -17.0125
 133   2.0000      -0.620163       -16.8755
 134   2.0000      -0.613212       -16.6863
 135   2.0000      -0.610243       -16.6056
 136   2.0000      -0.606675       -16.5085
 137   2.0000      -0.603424       -16.4200
 138   2.0000      -0.600751       -16.3473
 139   2.0000      -0.591586       -16.0979
 140   2.0000      -0.591345       -16.0913
 141   2.0000      -0.588930       -16.0256
 142   2.0000      -0.580985       -15.8094
 143   2.0000      -0.568730       -15.4759
 144   2.0000      -0.564617       -15.3640
 145   2.0000      -0.559546       -15.2260
 146   2.0000      -0.556326       -15.1384
 147   2.0000      -0.553037       -15.0489
 148   2.0000      -0.549010       -14.9393
 149   2.0000      -0.547838       -14.9074
 150   2.0000      -0.546731       -14.8773
 151   2.0000      -0.545123       -14.8335
 152   2.0000      -0.542621       -14.7655
 153   2.0000      -0.541083       -14.7236
 154   2.0000      -0.537243       -14.6191
 155   2.0000      -0.536952       -14.6112
 156   2.0000      -0.534364       -14.5408
 157   2.0000      -0.526005       -14.3133
 158   2.0000      -0.523149       -14.2356
 159   2.0000      -0.520932       -14.1753
 160   2.0000      -0.519409       -14.1338
 161   2.0000      -0.515075       -14.0159
 162   2.0000      -0.514602       -14.0030
 163   2.0000      -0.512672       -13.9505
 164   2.0000      -0.509873       -13.8744
 165   2.0000      -0.505865       -13.7653
 166   2.0000      -0.502054       -13.6616
 167   2.0000      -0.498619       -13.5681
 168   2.0000      -0.497578       -13.5398
 169   2.0000      -0.495511       -13.4835
 170   2.0000      -0.493939       -13.4408
 171   2.0000      -0.490722       -13.3532
 172   2.0000      -0.488685       -13.2978
 173   2.0000      -0.486957       -13.2508
 174   2.0000      -0.486353       -13.2343
 175   2.0000      -0.482070       -13.1178
 176   2.0000      -0.474642       -12.9157
 177   2.0000      -0.468549       -12.7499
 178   2.0000      -0.464522       -12.6403
 179   2.0000      -0.463016       -12.5993
 180   2.0000      -0.453667       -12.3449
 181   2.0000      -0.452273       -12.3070
 182   2.0000      -0.450416       -12.2564
 183   2.0000      -0.447469       -12.1762
 184   2.0000      -0.445427       -12.1207
 185   2.0000      -0.445050       -12.1104
 186   2.0000      -0.443973       -12.0811
 187   2.0000      -0.442071       -12.0294
 188   2.0000      -0.440187       -11.9781
 189   2.0000      -0.434782       -11.8310
 190   2.0000      -0.434111       -11.8128
 191   2.0000      -0.432857       -11.7786
 192   2.0000      -0.432451       -11.7676
 193   2.0000      -0.428733       -11.6664
 194   2.0000      -0.427934       -11.6447
 195   2.0000      -0.422384       -11.4937
 196   2.0000      -0.420214       -11.4346
 197   2.0000      -0.419060       -11.4032
 198   2.0000      -0.410267       -11.1639
 199   2.0000      -0.407146       -11.0790
 200   2.0000      -0.405493       -11.0340
 201   2.0000      -0.400204       -10.8901
 202   2.0000      -0.396218       -10.7816
 203   2.0000      -0.395400       -10.7594
 204   2.0000      -0.388982       -10.5847
 205   2.0000      -0.387406       -10.5419
 206   2.0000      -0.386944       -10.5293
 207   2.0000      -0.382654       -10.4126
 208   2.0000      -0.378177       -10.2907
 209   2.0000      -0.377479       -10.2717
 210   2.0000      -0.371385       -10.1059
 211   2.0000      -0.366440        -9.9713
 212   2.0000      -0.358398        -9.7525
 213   2.0000      -0.348522        -9.4838
 214   2.0000      -0.341582        -9.2949
 215   2.0000      -0.336935        -9.1685
 216   2.0000      -0.335118        -9.1190
 217   2.0000      -0.327757        -8.9187
 218   2.0000      -0.326901        -8.8954
 219   2.0000      -0.317676        -8.6444
 220   2.0000      -0.316052        -8.6002
 221   2.0000      -0.300531        -8.1779
 222   2.0000      -0.295721        -8.0470
 223   2.0000      -0.291446        -7.9306
 224   2.0000      -0.278068        -7.5666
 225   0.0000      -0.105402        -2.8681
 226   0.0000      -0.100664        -2.7392
 227   0.0000      -0.072612        -1.9759
 228   0.0000      -0.059556        -1.6206
 229   0.0000      -0.057248        -1.5578

MULLIKEN ATOMIC CHARGES
-----------------------
   0 C :    0.269310
   1 C :   -0.282137
   2 C :   -0.185448
   3 N :    0.158056
   4 C :   -0.186208
   5 N :    0.163953
   6 C :    0.042064
   7 C :    0.007561
   8 C :   -0.079886
   9 C :    0.095296
  10 C :    0.097574
  11 C :   -0.081780
  12 C :   -0.019808
  13 C :    0.039742
  14 C :    0.036956
  15 C :   -0.015480
  16 C :    0.135661
  17 O :   -0.134673
  18 C :   -0.100773
  19 C :    0.096483
  20 C :   -0.112583
  21 S :    0.125502
  22 C :   -0.089600
  23 N :   -0.043499
  24 N :   -0.044557
  25 C :    0.070444
  26 C :    0.024027
  27 C :    0.102309
  28 C :   -0.068384
  29 C :    0.157947
  30 N :    0.242598
  31 O :   -0.226471
  32 O :   -0.223911
  33 C :    0.033952
  34 C :   -0.019161
  35 C :    0.024294
  36 C :    0.044945
  37 C :    0.041897
  38 C :   -0.098667
  39 S :    0.105010
  40 C :   -0.109724
  41 N :   -0.026625
  42 N :   -0.044064
  43 C :    0.087421
  44 C :    0.014962
  45 C :   -0.052207
  46 C :   -0.054715
  47 C :    0.335527
  48 C :   -0.351284
  49 C :   -0.183584
  50 N :    0.150324
  51 C :   -0.191037
  52 N :    0.147090
  53 C :    0.048047
  54 C :   -0.008793
  55 C :    0.148201
  56 O :   -0.136592
  57 C :   -0.076973
  58 C :    0.096231
  59 C :    0.095422
  60 C :   -0.081810
  61 C :   -0.018099
  62 C :    0.036036
  63 C :    0.035441
  64 C :   -0.014459
  65 H :   -0.010825
  66 H :   -0.002560
  67 H :   -0.009177
  68 H :   -0.003191
  69 H :   -0.004857
  70 H :   -0.016808
  71 H :    0.023197
  72 H :   -0.009409
  73 H :    0.025125
  74 H :    0.012337
  75 H :   -0.007838
  76 H :   -0.009783
  77 H :    0.045349
  78 H :   -0.003032
  79 H :    0.010378
  80 H :    0.054974
  81 H :    0.013097
  82 H :   -0.011211
  83 H :   -0.009243
  84 H :   -0.008709
  85 H :   -0.004501
  86 H :   -0.004101
  87 H :   -0.016496
Sum of atomic charges:   -0.0000000

LOEWDIN ATOMIC CHARGES
----------------------
   0 C :    0.066904
   1 C :   -0.108324
   2 C :   -0.015793
   3 N :   -0.044233
   4 C :   -0.016051
   5 N :   -0.049673
   6 C :   -0.019742
   7 C :   -0.060287
   8 C :    0.035328
   9 C :   -0.009532
  10 C :   -0.003256
  11 C :    0.016924
  12 C :   -0.005932
  13 C :   -0.010703
  14 C :   -0.012503
  15 C :   -0.008409
  16 C :    0.084701
  17 O :   -0.135325
  18 C :   -0.049665
  19 C :    0.024014
  20 C :   -0.159044
  21 S :    0.413721
  22 C :   -0.132024
  23 N :   -0.070243
  24 N :   -0.047407
  25 C :   -0.055207
  26 C :    0.034800
  27 C :   -0.025491
  28 C :    0.017775
  29 C :   -0.023511
  30 N :    0.283645
  31 O :   -0.194476
  32 O :   -0.183651
  33 C :   -0.003403
  34 C :   -0.004350
  35 C :    0.014259
  36 C :    0.035367
  37 C :   -0.059300
  38 C :   -0.139477
  39 S :    0.391041
  40 C :   -0.155368
  41 N :   -0.054520
  42 N :   -0.070493
  43 C :   -0.010636
  44 C :    0.008406
  45 C :    0.062817
  46 C :   -0.080655
  47 C :    0.075471
  48 C :   -0.136195
  49 C :   -0.016808
  50 N :   -0.052173
  51 C :   -0.019977
  52 N :   -0.052544
  53 C :   -0.026415
  54 C :   -0.055806
  55 C :    0.083739
  56 O :   -0.132503
  57 C :    0.033400
  58 C :   -0.007517
  59 C :   -0.006106
  60 C :    0.019867
  61 C :   -0.005266
  62 C :   -0.013136
  63 C :   -0.011603
  64 C :   -0.009097
  65 H :    0.039802
  66 H :    0.039824
  67 H :    0.035016
  68 H :    0.033850
  69 H :    0.033038
  70 H :    0.032123
  71 H :    0.048323
  72 H :    0.029659
  73 H :    0.044556
  74 H :    0.045170
  75 H :    0.035800
  76 H :    0.033223
  77 H :    0.044445
  78 H :    0.030710
  79 H :    0.037701
  80 H :    0.044394
  81 H :    0.041709
  82 H :    0.039793
  83 H :    0.038858
  84 H :    0.034849
  85 H :    0.033351
  86 H :    0.033127
  87 H :    0.032329

  Mayer bond orders larger than 0.100000
B(  0-C ,  1-C ) :   1.7031 B(  0-C ,  6-C ) :   1.0018 B(  0-C , 18-C ) :   1.0098
B(  1-C ,  2-C ) :   1.1381 B(  1-C ,  4-C ) :   1.1512 B(  2-C ,  3-N ) :   2.9876
B(  4-C ,  5-N ) :   3.0103 B(  6-C ,  7-C ) :   1.2132 B(  6-C , 11-C ) :   1.4542
B(  7-C ,  8-C ) :   1.4664 B(  7-C , 16-C ) :   0.9245 B(  8-C ,  9-C ) :   1.1886
B(  8-C , 65-H ) :   1.0169 B(  9-C , 10-C ) :   1.2557 B(  9-C , 15-C ) :   1.2428
B( 10-C , 11-C ) :   1.2063 B( 10-C , 12-C ) :   1.2387 B( 11-C , 66-H ) :   0.9945
B( 12-C , 13-C ) :   1.4910 B( 12-C , 67-H ) :   0.9983 B( 13-C , 14-C ) :   1.2590
B( 13-C , 68-H ) :   0.9883 B( 14-C , 15-C ) :   1.4905 B( 14-C , 69-H ) :   0.9888
B( 15-C , 70-H ) :   0.9981 B( 16-C , 17-O ) :   2.2800 B( 16-C , 18-C ) :   0.9208
B( 18-C , 19-C ) :   1.7453 B( 19-C , 20-C ) :   1.0722 B( 19-C , 71-H ) :   0.9309
B( 20-C , 21-S ) :   1.0922 B( 20-C , 24-N ) :   1.6245 B( 21-S , 22-C ) :   1.1156
B( 21-S , 24-N ) :   0.1041 B( 22-C , 23-N ) :   1.6669 B( 22-C , 25-C ) :   1.0954
B( 23-N , 24-N ) :   1.2570 B( 25-C , 26-C ) :   1.7421 B( 25-C , 72-H ) :   0.9415
B( 26-C , 27-C ) :   1.0471 B( 26-C , 73-H ) :   0.9852 B( 27-C , 28-C ) :   1.2904
B( 27-C , 35-C ) :   1.3246 B( 28-C , 29-C ) :   1.3667 B( 28-C , 74-H ) :   1.0018
B( 29-C , 30-N ) :   0.8801 B( 29-C , 33-C ) :   1.3510 B( 30-N , 31-O ) :   1.5613
B( 30-N , 32-O ) :   1.5319 B( 31-O , 32-O ) :   0.2691 B( 33-C , 34-C ) :   1.3523
B( 33-C , 36-C ) :   1.0308 B( 34-C , 35-C ) :   1.4073 B( 34-C , 75-H ) :   0.9881
B( 35-C , 76-H ) :   0.9888 B( 36-C , 37-C ) :   1.7838 B( 36-C , 77-H ) :   0.9464
B( 37-C , 38-C ) :   1.0925 B( 37-C , 78-H ) :   0.9497 B( 38-C , 39-S ) :   1.1042
B( 38-C , 42-N ) :   1.6783 B( 39-S , 40-C ) :   1.0848 B( 40-C , 41-N ) :   1.6789
B( 40-C , 43-C ) :   1.0832 B( 41-N , 42-N ) :   1.2394 B( 43-C , 44-C ) :   1.6395
B( 43-C , 79-H ) :   0.9585 B( 44-C , 45-C ) :   1.1208 B( 44-C , 80-H ) :   0.9845
B( 45-C , 46-C ) :   1.5752 B( 45-C , 81-H ) :   0.9596 B( 46-C , 47-C ) :   1.0555
B( 46-C , 55-C ) :   0.9310 B( 47-C , 48-C ) :   1.6306 B( 47-C , 53-C ) :   0.9917
B( 48-C , 49-C ) :   1.1454 B( 48-C , 51-C ) :   1.1463 B( 49-C , 50-N ) :   2.9637
B( 51-C , 52-N ) :   2.9627 B( 53-C , 54-C ) :   1.2125 B( 53-C , 60-C ) :   1.4458
B( 54-C , 55-C ) :   0.9412 B( 54-C , 57-C ) :   1.4732 B( 55-C , 56-O ) :   2.2240
B( 57-C , 58-C ) :   1.1810 B( 57-C , 82-H ) :   1.0154 B( 58-C , 59-C ) :   1.2516
B( 58-C , 64-C ) :   1.2450 B( 59-C , 60-C ) :   1.2115 B( 59-C , 61-C ) :   1.2382
B( 60-C , 83-H ) :   0.9880 B( 61-C , 62-C ) :   1.4907 B( 61-C , 84-H ) :   0.9969
B( 62-C , 63-C ) :   1.2575 B( 62-C , 85-H ) :   0.9892 B( 63-C , 64-C ) :   1.4893
B( 63-C , 86-H ) :   0.9891 B( 64-C , 87-H ) :   0.9972

-----------------------------------------------------------------------------
         ABSORPTION SPECTRUM VIA TRANSITION ELECTRIC DIPOLE MOMENTS
-----------------------------------------------------------------------------
State   Energy  Wavelength   fosc         T2         TX        TY        TZ
        (cm-1)    (nm)                  (au**2)     (au)      (au)      (au)
-----------------------------------------------------------------------------
   0   22517.2    444.1   2.432129144  35.55891   3.47432  -3.81867  -2.98426
   1   24063.7    415.6   0.046060784   0.63015  -0.64999  -0.12016  -0.43958
   2   25361.6    394.3   0.245418785   3.18571  -0.89446   1.39783   0.65706
   3   25752.0    388.3   0.087667192   1.12073  -0.19257  -0.74181  -0.73033
   4   26261.5    380.8   0.009723800   0.12190  -0.08335   0.21435   0.26269
   5   26740.0    374.0   0.013313943   0.16392   0.01864   0.19851   0.35237
   6   27115.6    368.8   0.000380894   0.00462   0.00469  -0.01134   0.06689
   7   28155.4    355.2   0.022323771   0.26102  -0.02516  -0.50358  -0.08244
   8   28662.0    348.9   0.026362166   0.30280  -0.33521  -0.36627  -0.23722
   9   29090.9    343.8   0.066315549   0.75047   0.37729  -0.72694  -0.28228
  10   29541.2    338.5   0.017431647   0.19426  -0.07363   0.23335   0.36659
  11   30898.6    323.6   0.024157595   0.25739  -0.33314   0.34853   0.15791
  12   31802.2    314.4   0.243456293   2.52023  -0.79994  -1.36317  -0.14861
  13   32435.7    308.3   0.224316714   2.27674  -1.24443  -0.09029  -0.84852
  14   33335.2    300.0   1.557088866  15.37750   0.96531  -3.38264  -1.73305
  15   33499.3    298.5   0.047191163   0.46377   0.00418   0.59247   0.33575
  16   34002.6    294.1   0.276559567   2.67764  -0.70938  -1.10832  -0.97266
  17   34160.6    292.7   0.180438034   1.73891   0.75182   0.94998   0.52079
  18   34903.3    286.5   0.055842863   0.52672  -0.02758   0.24607   0.68221
  19   35088.4    285.0   0.099790093   0.93627  -0.93538   0.19160   0.15691
  20   35444.5    282.1   0.009690345   0.09000   0.23951   0.03502   0.17725
  21   35804.9    279.3   0.060281972   0.55427  -0.12921  -0.17934  -0.71092
  22   35923.3    278.4   0.069720489   0.63894   0.11610   0.78782   0.06928
  23   36354.5    275.1   0.018477283   0.16732   0.15442  -0.10047   0.36522
  24   36522.7    273.8   0.096832735   0.87284  -0.91623  -0.07182   0.16796
  25   36863.6    271.3   0.037829613   0.33784  -0.41250   0.13386   0.38699
  26   37413.2    267.3   0.053530842   0.47104   0.33389   0.19448   0.56722
  27   38321.8    260.9   0.094117899   0.80854  -0.51553  -0.73537  -0.04473
  28   38359.6    260.7   0.022658893   0.19446  -0.09735  -0.28764   0.31977
  29   39275.4    254.6   0.072236767   0.60550  -0.75516   0.11379   0.14928
  30   39521.1    253.0   0.133459555   1.11172  -0.55435  -0.67957   0.58533
  31   39906.0    250.6   0.105867894   0.87338  -0.41839   0.82604  -0.12646
  32   40134.8    249.2   0.136738333   1.12162   0.82141  -0.59988  -0.29502

FINAL SINGLE POINT ENERGY     -3505.320857824682

DIPOLE MOMENT
-------------
                                X             Y             Z
Electronic contribution:     -2.78522      -7.15472      -4.02723
Nuclear contribution   :      3.53263       4.33642       4.91267
                        -----------------------------------------
Total Dipole Moment    :      0.74741      -2.81829       0.88544
                        -----------------------------------------
Magnitude (a.u.)       :      3.04720
Magnitude (Debye)      :      7.74536

Rotational constants in cm-1:     0.003631     0.000168     0.000167
Rotational constants in MHz :   108.843216     5.046025     5.013776

                             ****ORCA TERMINATED NORMALLY****
TOTAL RUN TIME: 0 days 0 hours 6 minutes 52 seconds 377 msec
