                         Program Version 4.2.0 -  RELEASE  -
|  1> # ORCA input file
|  2> # SCF done       -210.180166070853          0.000371177456
|  3> ! CAM-B3LYP def2-SVP def2/J RIJCOSX Grid4 TightSCF
|  4> %maxcore 5000
|  5> %tddft
|  6>     Mode sTDDFT
|  7>     Ethresh 5.0
|  8>     maxcore 5000
|  9> end
| 10>
| 11> %pal
| 12>   nprocs 6
| 13>   end
| 14> * xyz 0 1
| 15>    C        0.06474         1.20419         2.28179
| 16>    C       -1.28732         1.27525         2.07242
| 17>    C       -2.24773         0.76779         2.97043
| 18>    N       -3.07196         0.39693         3.67812
| 19>    C       -1.87550         1.84718         0.92817
| 20>    N       -2.40221         2.30839         0.01740
| 21>    C        0.72250         0.47771         3.35951
| 22>    C        2.08367         0.25570         2.99545
| 23>    C        2.94597        -0.41189         3.81657
| 24>    C        2.48162        -0.88488         5.06489
| 25>    C        1.12595        -0.65442         5.44015
| 26>    C        0.25260         0.03194         4.56551
| 27>    C        0.68000        -1.12098         6.69346
| 28>    C        1.52951        -1.78406         7.53668
| 29>    C        2.86340        -2.01119         7.16609
| 30>    C        3.32877        -1.57251         5.95608
| 31>    C        2.34502         0.87336         1.68317
| 32>    O        3.35448         0.83385         1.02260
| 33>    C        1.09826         1.63927         1.36648
| 34>    C        1.14404         2.62723         0.43912
| 35>    C        0.24250         3.72050         0.26185
| 36>    C        0.13839         4.35462        -0.99879
| 37>    C       -0.71754         5.49240        -1.22713
| 38>    N       -0.72636         6.09066        -2.43036
| 39>    C        0.00857         5.59558        -3.39600
| 40>    C        0.82558         4.43740        -3.18003
| 41>    N        0.87686         3.86155        -2.00695
| 42>    C        1.60379         3.91768        -4.24661
| 43>    N        2.21737         3.53363        -5.13365
| 44>    C       -0.01069         6.22656        -4.66559
| 45>    N       -0.01315         6.71322        -5.70229
| 46>    C       -1.48548         6.04654        -0.18200
| 47>    C       -1.39218         5.40721         1.06676
| 48>    C       -0.52229         4.28243         1.30136
| 49>    N       -0.55099         3.90507         2.58385
| 50>    S       -1.59391         4.83218         3.37524
| 51>    N       -2.07291         5.74673         2.16373
| 52>    C       -2.19421         7.29448        -0.22240
| 53>    N       -3.02278         7.78805        -1.18151
| 54>    C       -3.55160         7.07908        -2.32324
| 55>    C       -4.37751         5.86761        -1.90409
| 56>    C       -3.49892         9.08028        -0.83881
| 57>    O       -4.27715         9.71043        -1.51822
| 58>    C       -2.85164         9.37381         0.42206
| 59>    C       -2.08103         8.25020         0.78706
| 60>    C       -1.37965         8.57243         2.00976
| 61>    O       -0.58164         7.95911         2.68782
| 62>    N       -1.81786         9.87617         2.33132
| 63>    C       -1.29095        10.50869         3.51710
| 64>    C       -0.13216        11.45089         3.19701
| 65>    C       -2.68208        10.37465         1.38154
| 66>    C       -3.32760        11.63375         1.30010
| 67>    C       -3.21488        12.69983         2.13370
| 68>    C       -3.88839        13.93788         1.97551
| 69>    S       -3.56125        15.19248         3.14191
| 70>    C       -4.63930        16.29429         2.35133
| 71>    C       -5.21895        15.68491         1.23020
| 72>    C       -4.79538        14.36678         1.02355
| 73>    C       -6.13854        16.35253         0.40011
| 74>    N       -6.88677        16.89953        -0.27429
| 75>    C       -4.84940        17.60835         2.82593
| 76>    C       -4.21783        18.09646         3.92816
| 77>    C       -4.40557        19.40630         4.41956
| 78>    C       -3.76745        19.90143         5.52285
| 79>    C       -3.90106        21.23205         6.08989
| 80>    C       -4.70739        22.24382         5.63629
| 81>    C       -4.79045        23.51793         6.23744
| 82>    N       -4.90666        24.57241         6.67600
| 83>    C       -5.56814        22.17551         4.52072
| 84>    N       -6.29341        22.20190         3.63077
| 85>    C       -3.01890        21.31389         7.24967
| 86>    C       -2.35628        20.06355         7.40729
| 87>    C       -2.79192        19.13873         6.35065
| 88>    O       -2.42105        17.99220         6.19993
| 89>    C       -1.46300        19.83825         8.41498
| 90>    C       -1.18387        20.87504         9.33211
| 91>    C       -1.84141        22.13040         9.18267
| 92>    C       -2.76190        22.33325         8.12868
| 93>    C       -1.55550        23.15910        10.10334
| 94>    C       -0.66412        22.95901        11.12218
| 95>    C       -0.01757        21.72244        11.26798
| 96>    C       -0.27195        20.70240        10.39184
| 97>    H        3.97195        -0.57369         3.52112
| 98>    H       -0.76561         0.20436         4.87781
| 99>    H       -0.34854        -0.94634         6.97323
|100>    H        1.17818        -2.13752         8.49445
|101>    H        3.52037        -2.53479         7.84424
|102>    H        4.35480        -1.74445         5.66567
|103>    H        2.00226         2.61458        -0.22499
|104>    H       -2.72609         6.77504        -2.97168
|105>    H       -4.17735         7.80097        -2.85515
|106>    H       -3.76471         5.13703        -1.37978
|107>    H       -4.79946         5.39331        -2.78558
|108>    H       -5.19156         6.17053        -1.24925
|109>    H       -0.92047         9.69263         4.14546
|110>    H       -2.09562        11.01582         4.05392
|111>    H        0.69518        10.88221         2.78012
|112>    H        0.20695        11.94060         4.10570
|113>    H       -0.42286        12.21004         2.47445
|114>    H       -3.97517        11.71033         0.43653
|115>    H       -2.56608        12.66407         2.99376
|116>    H       -5.14191        13.75736         0.20849
|117>    H       -5.54326        18.22452         2.26674
|118>    H       -3.53002        17.45669         4.46511
|119>    H       -5.09583        20.03740         3.87500
|120>    H       -0.97556        18.87917         8.50957
|121>    H       -3.24063        23.29574         8.04548
|122>    H       -2.05536        24.10952         9.98763
|123>    H       -0.45201        23.75320        11.82208
|124>    H        0.68282        21.58226        12.07768
|125>    H        0.22252        19.74791        10.49846
|126> *
|127>
|128>                          ****END OF INPUT****

CARTESIAN COORDINATES (ANGSTROEM)
---------------------------------
  C      0.064740    1.204190    2.281790
  C     -1.287320    1.275250    2.072420
  C     -2.247730    0.767790    2.970430
  N     -3.071960    0.396930    3.678120
  C     -1.875500    1.847180    0.928170
  N     -2.402210    2.308390    0.017400
  C      0.722500    0.477710    3.359510
  C      2.083670    0.255700    2.995450
  C      2.945970   -0.411890    3.816570
  C      2.481620   -0.884880    5.064890
  C      1.125950   -0.654420    5.440150
  C      0.252600    0.031940    4.565510
  C      0.680000   -1.120980    6.693460
  C      1.529510   -1.784060    7.536680
  C      2.863400   -2.011190    7.166090
  C      3.328770   -1.572510    5.956080
  C      2.345020    0.873360    1.683170
  O      3.354480    0.833850    1.022600
  C      1.098260    1.639270    1.366480
  C      1.144040    2.627230    0.439120
  C      0.242500    3.720500    0.261850
  C      0.138390    4.354620   -0.998790
  C     -0.717540    5.492400   -1.227130
  N     -0.726360    6.090660   -2.430360
  C      0.008570    5.595580   -3.396000
  C      0.825580    4.437400   -3.180030
  N      0.876860    3.861550   -2.006950
  C      1.603790    3.917680   -4.246610
  N      2.217370    3.533630   -5.133650
  C     -0.010690    6.226560   -4.665590
  N     -0.013150    6.713220   -5.702290
  C     -1.485480    6.046540   -0.182000
  C     -1.392180    5.407210    1.066760
  C     -0.522290    4.282430    1.301360
  N     -0.550990    3.905070    2.583850
  S     -1.593910    4.832180    3.375240
  N     -2.072910    5.746730    2.163730
  C     -2.194210    7.294480   -0.222400
  N     -3.022780    7.788050   -1.181510
  C     -3.551600    7.079080   -2.323240
  C     -4.377510    5.867610   -1.904090
  C     -3.498920    9.080280   -0.838810
  O     -4.277150    9.710430   -1.518220
  C     -2.851640    9.373810    0.422060
  C     -2.081030    8.250200    0.787060
  C     -1.379650    8.572430    2.009760
  O     -0.581640    7.959110    2.687820
  N     -1.817860    9.876170    2.331320
  C     -1.290950   10.508690    3.517100
  C     -0.132160   11.450890    3.197010
  C     -2.682080   10.374650    1.381540
  C     -3.327600   11.633750    1.300100
  C     -3.214880   12.699830    2.133700
  C     -3.888390   13.937880    1.975510
  S     -3.561250   15.192480    3.141910
  C     -4.639300   16.294290    2.351330
  C     -5.218950   15.684910    1.230200
  C     -4.795380   14.366780    1.023550
  C     -6.138540   16.352530    0.400110
  N     -6.886770   16.899530   -0.274290
  C     -4.849400   17.608350    2.825930
  C     -4.217830   18.096460    3.928160
  C     -4.405570   19.406300    4.419560
  C     -3.767450   19.901430    5.522850
  C     -3.901060   21.232050    6.089890
  C     -4.707390   22.243820    5.636290
  C     -4.790450   23.517930    6.237440
  N     -4.906660   24.572410    6.676000
  C     -5.568140   22.175510    4.520720
  N     -6.293410   22.201900    3.630770
  C     -3.018900   21.313890    7.249670
  C     -2.356280   20.063550    7.407290
  C     -2.791920   19.138730    6.350650
  O     -2.421050   17.992200    6.199930
  C     -1.463000   19.838250    8.414980
  C     -1.183870   20.875040    9.332110
  C     -1.841410   22.130400    9.182670
  C     -2.761900   22.333250    8.128680
  C     -1.555500   23.159100   10.103340
  C     -0.664120   22.959010   11.122180
  C     -0.017570   21.722440   11.267980
  C     -0.271950   20.702400   10.391840
  H      3.971950   -0.573690    3.521120
  H     -0.765610    0.204360    4.877810
  H     -0.348540   -0.946340    6.973230
  H      1.178180   -2.137520    8.494450
  H      3.520370   -2.534790    7.844240
  H      4.354800   -1.744450    5.665670
  H      2.002260    2.614580   -0.224990
  H     -2.726090    6.775040   -2.971680
  H     -4.177350    7.800970   -2.855150
  H     -3.764710    5.137030   -1.379780
  H     -4.799460    5.393310   -2.785580
  H     -5.191560    6.170530   -1.249250
  H     -0.920470    9.692630    4.145460
  H     -2.095620   11.015820    4.053920
  H      0.695180   10.882210    2.780120
  H      0.206950   11.940600    4.105700
  H     -0.422860   12.210040    2.474450
  H     -3.975170   11.710330    0.436530
  H     -2.566080   12.664070    2.993760
  H     -5.141910   13.757360    0.208490
  H     -5.543260   18.224520    2.266740
  H     -3.530020   17.456690    4.465110
  H     -5.095830   20.037400    3.875000
  H     -0.975560   18.879170    8.509570
  H     -3.240630   23.295740    8.045480
  H     -2.055360   24.109520    9.987630
  H     -0.452010   23.753200   11.822080
  H      0.682820   21.582260   12.077680
  H      0.222520   19.747910   10.498460

 Total Charge           Charge          ....    0
 Multiplicity           Mult            ....    1
 Number of Electrons    NEL             ....  562
 Basis Dimension        Dim             .... 1301

ORBITAL ENERGIES
----------------

  NO   OCC          E(Eh)            E(eV)
   0   2.0000     -89.057025     -2423.3649
   1   2.0000     -88.993393     -2421.6333
   2   2.0000     -19.224986      -523.1385
   3   2.0000     -19.220909      -523.0275
   4   2.0000     -19.209871      -522.7272
   5   2.0000     -19.204786      -522.5888
   6   2.0000     -14.475463      -393.8974
   7   2.0000     -14.472053      -393.8046
   8   2.0000     -14.471572      -393.7915
   9   2.0000     -14.467227      -393.6732
  10   2.0000     -14.461468      -393.5166
  11   2.0000     -14.458084      -393.4245
  12   2.0000     -14.437671      -392.8690
  13   2.0000     -14.436711      -392.8429
  14   2.0000     -14.426752      -392.5719
  15   2.0000     -14.421921      -392.4404
  16   2.0000     -14.421361      -392.4252
  17   2.0000     -14.420702      -392.4072
  18   2.0000     -14.419387      -392.3715
  19   2.0000     -10.393636      -282.8252
  20   2.0000     -10.392546      -282.7955
  21   2.0000     -10.392145      -282.7846
  22   2.0000     -10.388261      -282.6789
  23   2.0000     -10.375391      -282.3287
  24   2.0000     -10.371528      -282.2236
  25   2.0000     -10.365782      -282.0673
  26   2.0000     -10.363790      -282.0131
  27   2.0000     -10.361249      -281.9439
  28   2.0000     -10.360902      -281.9345
  29   2.0000     -10.353083      -281.7217
  30   2.0000     -10.352630      -281.7094
  31   2.0000     -10.348239      -281.5899
  32   2.0000     -10.347469      -281.5689
  33   2.0000     -10.346172      -281.5337
  34   2.0000     -10.346127      -281.5324
  35   2.0000     -10.345777      -281.5229
  36   2.0000     -10.341312      -281.4014
  37   2.0000     -10.340160      -281.3700
  38   2.0000     -10.338912      -281.3361
  39   2.0000     -10.330514      -281.1076
  40   2.0000     -10.329237      -281.0728
  41   2.0000     -10.328609      -281.0557
  42   2.0000     -10.328306      -281.0475
  43   2.0000     -10.324924      -280.9555
  44   2.0000     -10.324558      -280.9455
  45   2.0000     -10.323810      -280.9251
  46   2.0000     -10.323595      -280.9193
  47   2.0000     -10.323096      -280.9057
  48   2.0000     -10.322879      -280.8998
  49   2.0000     -10.322004      -280.8760
  50   2.0000     -10.320970      -280.8479
  51   2.0000     -10.319778      -280.8154
  52   2.0000     -10.316627      -280.7297
  53   2.0000     -10.315340      -280.6947
  54   2.0000     -10.308395      -280.5057
  55   2.0000     -10.308371      -280.5050
  56   2.0000     -10.308368      -280.5050
  57   2.0000     -10.308214      -280.5008
  58   2.0000     -10.303074      -280.3609
  59   2.0000     -10.302811      -280.3537
  60   2.0000     -10.302731      -280.3516
  61   2.0000     -10.302401      -280.3426
  62   2.0000     -10.302273      -280.3391
  63   2.0000     -10.302267      -280.3389
  64   2.0000     -10.301812      -280.3266
  65   2.0000     -10.301703      -280.3236
  66   2.0000     -10.301683      -280.3230
  67   2.0000     -10.301416      -280.3158
  68   2.0000     -10.294301      -280.1222
  69   2.0000     -10.294009      -280.1142
  70   2.0000     -10.291777      -280.0535
  71   2.0000     -10.291234      -280.0387
  72   2.0000     -10.290838      -280.0279
  73   2.0000     -10.290744      -280.0254
  74   2.0000     -10.290556      -280.0203
  75   2.0000     -10.290250      -280.0119
  76   2.0000     -10.290199      -280.0105
  77   2.0000     -10.289933      -280.0033
  78   2.0000     -10.283941      -279.8403
  79   2.0000     -10.279817      -279.7280
  80   2.0000     -10.277967      -279.6777
  81   2.0000     -10.262889      -279.2674
  82   2.0000      -8.147642      -221.7086
  83   2.0000      -8.088793      -220.1072
  84   2.0000      -6.118477      -166.4922
  85   2.0000      -6.111001      -166.2888
  86   2.0000      -6.110718      -166.2811
  87   2.0000      -6.057851      -164.8425
  88   2.0000      -6.053860      -164.7339
  89   2.0000      -6.051175      -164.6608
  90   2.0000      -1.154318       -31.4106
  91   2.0000      -1.148708       -31.2579
  92   2.0000      -1.142055       -31.0769
  93   2.0000      -1.139271       -31.0011
  94   2.0000      -1.136396       -30.9229
  95   2.0000      -1.132677       -30.8217
  96   2.0000      -1.080454       -29.4006
  97   2.0000      -1.071784       -29.1647
  98   2.0000      -1.058140       -28.7934
  99   2.0000      -1.030867       -28.0513
 100   2.0000      -1.027539       -27.9607
 101   2.0000      -1.023297       -27.8453
 102   2.0000      -1.021714       -27.8022
 103   2.0000      -1.011384       -27.5212
 104   2.0000      -1.005786       -27.3688
 105   2.0000      -1.005618       -27.3643
 106   2.0000      -1.003913       -27.3179
 107   2.0000      -1.001220       -27.2446
 108   2.0000      -0.999875       -27.2080
 109   2.0000      -0.998540       -27.1716
 110   2.0000      -0.990454       -26.9516
 111   2.0000      -0.977168       -26.5901
 112   2.0000      -0.975532       -26.5456
 113   2.0000      -0.948611       -25.8130
 114   2.0000      -0.943555       -25.6754
 115   2.0000      -0.932482       -25.3741
 116   2.0000      -0.931096       -25.3364
 117   2.0000      -0.923525       -25.1304
 118   2.0000      -0.921317       -25.0703
 119   2.0000      -0.918729       -24.9999
 120   2.0000      -0.900470       -24.5030
 121   2.0000      -0.897482       -24.4217
 122   2.0000      -0.889761       -24.2116
 123   2.0000      -0.886458       -24.1218
 124   2.0000      -0.886098       -24.1119
 125   2.0000      -0.881721       -23.9929
 126   2.0000      -0.875612       -23.8266
 127   2.0000      -0.865984       -23.5646
 128   2.0000      -0.844749       -22.9868
 129   2.0000      -0.843306       -22.9475
 130   2.0000      -0.833541       -22.6818
 131   2.0000      -0.833226       -22.6732
 132   2.0000      -0.831441       -22.6247
 133   2.0000      -0.829038       -22.5593
 134   2.0000      -0.813206       -22.1285
 135   2.0000      -0.810225       -22.0473
 136   2.0000      -0.790083       -21.4993
 137   2.0000      -0.780178       -21.2297
 138   2.0000      -0.771241       -20.9865
 139   2.0000      -0.767578       -20.8869
 140   2.0000      -0.765198       -20.8221
 141   2.0000      -0.751772       -20.4567
 142   2.0000      -0.744015       -20.2457
 143   2.0000      -0.739619       -20.1260
 144   2.0000      -0.732058       -19.9203
 145   2.0000      -0.719633       -19.5822
 146   2.0000      -0.716218       -19.4893
 147   2.0000      -0.711681       -19.3658
 148   2.0000      -0.710140       -19.3239
 149   2.0000      -0.707704       -19.2576
 150   2.0000      -0.706455       -19.2236
 151   2.0000      -0.699517       -19.0348
 152   2.0000      -0.698378       -19.0038
 153   2.0000      -0.695808       -18.9339
 154   2.0000      -0.683741       -18.6055
 155   2.0000      -0.682515       -18.5722
 156   2.0000      -0.679141       -18.4804
 157   2.0000      -0.671207       -18.2645
 158   2.0000      -0.663886       -18.0653
 159   2.0000      -0.661848       -18.0098
 160   2.0000      -0.659859       -17.9557
 161   2.0000      -0.649288       -17.6680
 162   2.0000      -0.643465       -17.5096
 163   2.0000      -0.637963       -17.3598
 164   2.0000      -0.637837       -17.3564
 165   2.0000      -0.626822       -17.0567
 166   2.0000      -0.622588       -16.9415
 167   2.0000      -0.612929       -16.6786
 168   2.0000      -0.611985       -16.6530
 169   2.0000      -0.610687       -16.6176
 170   2.0000      -0.605865       -16.4864
 171   2.0000      -0.600688       -16.3456
 172   2.0000      -0.596974       -16.2445
 173   2.0000      -0.596160       -16.2223
 174   2.0000      -0.592627       -16.1262
 175   2.0000      -0.587710       -15.9924
 176   2.0000      -0.583371       -15.8743
 177   2.0000      -0.578197       -15.7335
 178   2.0000      -0.571622       -15.5546
 179   2.0000      -0.569050       -15.4846
 180   2.0000      -0.564382       -15.3576
 181   2.0000      -0.560000       -15.2384
 182   2.0000      -0.557481       -15.1698
 183   2.0000      -0.555409       -15.1134
 184   2.0000      -0.551673       -15.0118
 185   2.0000      -0.551114       -14.9966
 186   2.0000      -0.545612       -14.8468
 187   2.0000      -0.544277       -14.8105
 188   2.0000      -0.543732       -14.7957
 189   2.0000      -0.543595       -14.7920
 190   2.0000      -0.541682       -14.7399
 191   2.0000      -0.536515       -14.5993
 192   2.0000      -0.533684       -14.5223
 193   2.0000      -0.531224       -14.4554
 194   2.0000      -0.530018       -14.4225
 195   2.0000      -0.527796       -14.3621
 196   2.0000      -0.526926       -14.3384
 197   2.0000      -0.525845       -14.3090
 198   2.0000      -0.523275       -14.2390
 199   2.0000      -0.520686       -14.1686
 200   2.0000      -0.519304       -14.1310
 201   2.0000      -0.516894       -14.0654
 202   2.0000      -0.516578       -14.0568
 203   2.0000      -0.513988       -13.9863
 204   2.0000      -0.510137       -13.8815
 205   2.0000      -0.504252       -13.7214
 206   2.0000      -0.503760       -13.7080
 207   2.0000      -0.502295       -13.6682
 208   2.0000      -0.499995       -13.6056
 209   2.0000      -0.495190       -13.4748
 210   2.0000      -0.494614       -13.4591
 211   2.0000      -0.492648       -13.4056
 212   2.0000      -0.490937       -13.3591
 213   2.0000      -0.490284       -13.3413
 214   2.0000      -0.486727       -13.2445
 215   2.0000      -0.485462       -13.2101
 216   2.0000      -0.484496       -13.1838
 217   2.0000      -0.482242       -13.1225
 218   2.0000      -0.476181       -12.9575
 219   2.0000      -0.472095       -12.8464
 220   2.0000      -0.470553       -12.8044
 221   2.0000      -0.470120       -12.7926
 222   2.0000      -0.469110       -12.7651
 223   2.0000      -0.464793       -12.6477
 224   2.0000      -0.462334       -12.5808
 225   2.0000      -0.461673       -12.5628
 226   2.0000      -0.459916       -12.5150
 227   2.0000      -0.458011       -12.4631
 228   2.0000      -0.456446       -12.4205
 229   2.0000      -0.454076       -12.3560
 230   2.0000      -0.452279       -12.3071
 231   2.0000      -0.451309       -12.2807
 232   2.0000      -0.450708       -12.2644
 233   2.0000      -0.450358       -12.2549
 234   2.0000      -0.448987       -12.2176
 235   2.0000      -0.447055       -12.1650
 236   2.0000      -0.445410       -12.1202
 237   2.0000      -0.445392       -12.1197
 238   2.0000      -0.444562       -12.0972
 239   2.0000      -0.443172       -12.0593
 240   2.0000      -0.442000       -12.0274
 241   2.0000      -0.440084       -11.9753
 242   2.0000      -0.438437       -11.9305
 243   2.0000      -0.438392       -11.9292
 244   2.0000      -0.437620       -11.9082
 245   2.0000      -0.435011       -11.8372
 246   2.0000      -0.434336       -11.8189
 247   2.0000      -0.431813       -11.7502
 248   2.0000      -0.430720       -11.7205
 249   2.0000      -0.426982       -11.6188
 250   2.0000      -0.424671       -11.5559
 251   2.0000      -0.423774       -11.5315
 252   2.0000      -0.423669       -11.5286
 253   2.0000      -0.420410       -11.4399
 254   2.0000      -0.414104       -11.2683
 255   2.0000      -0.412654       -11.2289
 256   2.0000      -0.411290       -11.1918
 257   2.0000      -0.410926       -11.1819
 258   2.0000      -0.407837       -11.0978
 259   2.0000      -0.405279       -11.0282
 260   2.0000      -0.387909       -10.5555
 261   2.0000      -0.385501       -10.4900
 262   2.0000      -0.379386       -10.3236
 263   2.0000      -0.375781       -10.2255
 264   2.0000      -0.372231       -10.1289
 265   2.0000      -0.363794        -9.8993
 266   2.0000      -0.356255        -9.6942
 267   2.0000      -0.354021        -9.6334
 268   2.0000      -0.353553        -9.6207
 269   2.0000      -0.347491        -9.4557
 270   2.0000      -0.343464        -9.3461
 271   2.0000      -0.342948        -9.3321
 272   2.0000      -0.339403        -9.2356
 273   2.0000      -0.329924        -8.9777
 274   2.0000      -0.322287        -8.7699
 275   2.0000      -0.318617        -8.6700
 276   2.0000      -0.308819        -8.4034
 277   2.0000      -0.301787        -8.2120
 278   2.0000      -0.298575        -8.1247
 279   2.0000      -0.288948        -7.8627
 280   2.0000      -0.251727        -6.8498
 281   0.0000      -0.143790        -3.9127
 282   0.0000      -0.116136        -3.1602
 283   0.0000      -0.086755        -2.3607
 284   0.0000      -0.083377        -2.2688
 285   0.0000      -0.065267        -1.7760

MULLIKEN ATOMIC CHARGES
-----------------------
   0 C :    0.337715
   1 C :   -0.340166
   2 C :   -0.195829
   3 N :    0.156157
   4 C :   -0.178979
   5 N :    0.151057
   6 C :    0.034482
   7 C :    0.017112
   8 C :   -0.081545
   9 C :    0.095815
  10 C :    0.095544
  11 C :   -0.085712
  12 C :   -0.018348
  13 C :    0.037381
  14 C :    0.035426
  15 C :   -0.015052
  16 C :    0.133900
  17 O :   -0.129856
  18 C :   -0.107381
  19 C :   -0.030960
  20 C :    0.071672
  21 C :   -0.037917
  22 C :   -0.021310
  23 N :    0.042132
  24 C :   -0.121690
  25 C :   -0.124906
  26 N :    0.066853
  27 C :   -0.205312
  28 N :    0.246248
  29 C :   -0.211152
  30 N :    0.248561
  31 C :    0.065330
  32 C :    0.027973
  33 C :   -0.011453
  34 N :   -0.291104
  35 S :    0.585281
  36 N :   -0.235390
  37 C :    0.019196
  38 N :   -0.239366
  39 C :    0.105746
  40 C :   -0.014692
  41 C :    0.161875
  42 O :   -0.177524
  43 C :   -0.073674
  44 C :    0.004654
  45 C :    0.130740
  46 O :   -0.200556
  47 N :   -0.273027
  48 C :    0.096637
  49 C :    0.005069
  50 C :    0.129357
  51 C :   -0.034418
  52 C :    0.083249
  53 C :   -0.074476
  54 S :    0.158942
  55 C :   -0.048521
  56 C :   -0.047695
  57 C :    0.027904
  58 C :   -0.188717
  59 N :    0.150732
  60 C :    0.031629
  61 C :   -0.017526
  62 C :   -0.031872
  63 C :   -0.070559
  64 C :    0.333669
  65 C :   -0.346974
  66 C :   -0.183040
  67 N :    0.151825
  68 C :   -0.192489
  69 N :    0.153880
  70 C :    0.046958
  71 C :   -0.001231
  72 C :    0.151466
  73 O :   -0.156092
  74 C :   -0.077392
  75 C :    0.096706
  76 C :    0.094358
  77 C :   -0.080654
  78 C :   -0.016023
  79 C :    0.035951
  80 C :    0.035802
  81 C :   -0.015296
  82 H :   -0.009887
  83 H :   -0.009079
  84 H :   -0.011135
  85 H :   -0.004565
  86 H :   -0.002874
  87 H :   -0.015834
  88 H :    0.037401
  89 H :    0.038298
  90 H :    0.044973
  91 H :    0.032654
  92 H :    0.028964
  93 H :    0.023900
  94 H :    0.042725
  95 H :    0.027257
  96 H :    0.031418
  97 H :    0.025435
  98 H :    0.021519
  99 H :    0.013905
 100 H :   -0.013204
 101 H :    0.017262
 102 H :    0.034274
 103 H :    0.036796
 104 H :    0.016063
 105 H :   -0.015366
 106 H :   -0.008084
 107 H :   -0.008006
 108 H :   -0.002588
 109 H :   -0.003185
 110 H :   -0.018149
Sum of atomic charges:   -0.0000000

LOEWDIN ATOMIC CHARGES
----------------------
   0 C :    0.080555
   1 C :   -0.139392
   2 C :   -0.021109
   3 N :   -0.053029
   4 C :   -0.011652
   5 N :   -0.063100
   6 C :   -0.019944
   7 C :   -0.056601
   8 C :    0.034477
   9 C :   -0.008399
  10 C :   -0.004947
  11 C :    0.016306
  12 C :   -0.006859
  13 C :   -0.011757
  14 C :   -0.012112
  15 C :   -0.008227
  16 C :    0.085712
  17 O :   -0.130437
  18 C :   -0.061079
  19 C :    0.067587
  20 C :   -0.030997
  21 C :    0.015972
  22 C :    0.000662
  23 N :    0.003994
  24 C :   -0.024438
  25 C :   -0.017425
  26 N :    0.003704
  27 C :   -0.035469
  28 N :    0.005913
  29 C :   -0.039107
  30 N :    0.003467
  31 C :   -0.013011
  32 C :   -0.026814
  33 C :   -0.033262
  34 N :   -0.285980
  35 S :    0.719308
  36 N :   -0.251409
  37 C :    0.084604
  38 N :    0.013583
  39 C :    0.031761
  40 C :   -0.061347
  41 C :    0.084419
  42 O :   -0.179241
  43 C :   -0.111468
  44 C :   -0.095400
  45 C :    0.085757
  46 O :   -0.196081
  47 N :   -0.003863
  48 C :    0.033714
  49 C :   -0.062706
  50 C :    0.081181
  51 C :   -0.019020
  52 C :   -0.020549
  53 C :   -0.156376
  54 S :    0.486118
  55 C :   -0.144166
  56 C :   -0.084705
  57 C :   -0.012719
  58 C :   -0.034597
  59 N :   -0.035096
  60 C :    0.008825
  61 C :   -0.024804
  62 C :    0.063905
  63 C :   -0.082049
  64 C :    0.072692
  65 C :   -0.133344
  66 C :   -0.016789
  67 N :   -0.049860
  68 C :   -0.021489
  69 N :   -0.045988
  70 C :   -0.025321
  71 C :   -0.056726
  72 C :    0.086629
  73 O :   -0.148586
  74 C :    0.033009
  75 C :   -0.008254
  76 C :   -0.005385
  77 C :    0.020282
  78 C :   -0.004424
  79 C :   -0.012068
  80 C :   -0.011209
  81 C :   -0.009705
  82 H :    0.040235
  83 H :    0.037960
  84 H :    0.034054
  85 H :    0.033414
  86 H :    0.033465
  87 H :    0.032564
  88 H :    0.051751
  89 H :    0.021403
  90 H :    0.036393
  91 H :    0.024806
  92 H :    0.034639
  93 H :    0.029042
  94 H :    0.037910
  95 H :    0.021684
  96 H :    0.034706
  97 H :    0.032328
  98 H :    0.021857
  99 H :    0.048631
 100 H :    0.030241
 101 H :    0.046368
 102 H :    0.049760
 103 H :    0.025732
 104 H :    0.044507
 105 H :    0.038322
 106 H :    0.039395
 107 H :    0.035400
 108 H :    0.034055
 109 H :    0.033411
 110 H :    0.031723

  Mayer bond orders larger than 0.100000
B(  0-C ,  1-C ) :   1.6381 B(  0-C ,  6-C ) :   1.0090 B(  0-C , 18-C ) :   1.0281
B(  1-C ,  2-C ) :   1.1462 B(  1-C ,  4-C ) :   1.1699 B(  2-C ,  3-N ) :   2.9870
B(  4-C ,  5-N ) :   2.9790 B(  6-C ,  7-C ) :   1.2114 B(  6-C , 11-C ) :   1.4535
B(  7-C ,  8-C ) :   1.4708 B(  7-C , 16-C ) :   0.9196 B(  8-C ,  9-C ) :   1.1849
B(  8-C , 82-H ) :   1.0161 B(  9-C , 10-C ) :   1.2581 B(  9-C , 15-C ) :   1.2441
B( 10-C , 11-C ) :   1.2038 B( 10-C , 12-C ) :   1.2402 B( 11-C , 83-H ) :   0.9947
B( 12-C , 13-C ) :   1.4896 B( 12-C , 84-H ) :   0.9977 B( 13-C , 14-C ) :   1.2615
B( 13-C , 85-H ) :   0.9884 B( 14-C , 15-C ) :   1.4892 B( 14-C , 86-H ) :   0.9884
B( 15-C , 87-H ) :   0.9979 B( 16-C , 17-O ) :   2.2827 B( 16-C , 18-C ) :   0.9244
B( 18-C , 19-C ) :   1.6713 B( 19-C , 20-C ) :   1.1071 B( 19-C , 88-H ) :   0.9401
B( 20-C , 21-C ) :   1.2554 B( 20-C , 31-C ) :   0.1435 B( 20-C , 33-C ) :   1.1994
B( 21-C , 22-C ) :   1.1219 B( 21-C , 26-N ) :   1.4743 B( 22-C , 23-N ) :   1.4567
B( 22-C , 31-C ) :   1.2622 B( 23-N , 24-C ) :   1.7011 B( 24-C , 25-C ) :   1.2106
B( 24-C , 29-C ) :   1.1472 B( 25-C , 26-N ) :   1.7365 B( 25-C , 27-C ) :   1.1529
B( 27-C , 28-N ) :   3.0465 B( 29-C , 30-N ) :   3.0470 B( 31-C , 32-C ) :   1.2856
B( 31-C , 37-C ) :   1.0043 B( 32-C , 33-C ) :   1.0978 B( 32-C , 36-N ) :   1.5104
B( 33-C , 34-N ) :   1.4950 B( 34-N , 35-S ) :   1.2808 B( 34-N , 36-N ) :   0.1440
B( 35-S , 36-N ) :   1.3245 B( 37-C , 38-N ) :   1.2619 B( 37-C , 44-C ) :   1.4012
B( 38-N , 39-C ) :   0.9342 B( 38-N , 41-C ) :   1.0083 B( 39-C , 40-C ) :   1.1151
B( 39-C , 89-H ) :   0.9332 B( 39-C , 90-H ) :   0.9275 B( 40-C , 91-H ) :   0.9635
B( 40-C , 92-H ) :   0.9668 B( 40-C , 93-H ) :   0.9655 B( 41-C , 42-O ) :   2.1426
B( 41-C , 43-C ) :   0.9792 B( 43-C , 44-C ) :   1.2497 B( 43-C , 50-C ) :   1.3290
B( 44-C , 45-C ) :   0.9555 B( 45-C , 46-O ) :   2.1162 B( 45-C , 47-N ) :   1.0435
B( 47-N , 48-C ) :   0.9428 B( 47-N , 50-C ) :   1.1659 B( 48-C , 49-C ) :   1.1151
B( 48-C , 94-H ) :   0.9218 B( 48-C , 95-H ) :   0.9509 B( 49-C , 96-H ) :   0.9599
B( 49-C , 97-H ) :   0.9684 B( 49-C , 98-H ) :   0.9685 B( 50-C , 51-C ) :   1.2043
B( 51-C , 52-C ) :   1.5943 B( 51-C , 99-H ) :   0.9493 B( 52-C , 53-C ) :   1.1254
B( 52-C ,100-H ) :   0.9548 B( 53-C , 54-S ) :   1.1319 B( 53-C , 57-C ) :   1.4548
B( 54-S , 55-C ) :   1.1345 B( 55-C , 56-C ) :   1.4116 B( 55-C , 60-C ) :   1.1745
B( 56-C , 57-C ) :   1.3141 B( 56-C , 58-C ) :   1.1030 B( 57-C ,101-H ) :   0.9989
B( 58-C , 59-N ) :   3.0256 B( 60-C , 61-C ) :   1.5493 B( 60-C ,102-H ) :   0.9758
B( 61-C , 62-C ) :   1.1600 B( 61-C ,103-H ) :   0.9692 B( 62-C , 63-C ) :   1.5541
B( 62-C ,104-H ) :   0.9647 B( 63-C , 64-C ) :   1.0547 B( 63-C , 72-C ) :   0.9398
B( 64-C , 65-C ) :   1.6333 B( 64-C , 70-C ) :   0.9886 B( 65-C , 66-C ) :   1.1466
B( 65-C , 68-C ) :   1.1454 B( 66-C , 67-N ) :   2.9611 B( 68-C , 69-N ) :   2.9604
B( 70-C , 71-C ) :   1.2145 B( 70-C , 77-C ) :   1.4497 B( 71-C , 72-C ) :   0.9524
B( 71-C , 74-C ) :   1.4674 B( 72-C , 73-O ) :   2.1824 B( 74-C , 75-C ) :   1.1810
B( 74-C ,105-H ) :   1.0158 B( 75-C , 76-C ) :   1.2553 B( 75-C , 81-C ) :   1.2425
B( 76-C , 77-C ) :   1.2069 B( 76-C , 78-C ) :   1.2404 B( 77-C ,106-H ) :   0.9880
B( 78-C , 79-C ) :   1.4895 B( 78-C ,107-H ) :   0.9968 B( 79-C , 80-C ) :   1.2598
B( 79-C ,108-H ) :   0.9881 B( 80-C , 81-C ) :   1.4897 B( 80-C ,109-H ) :   0.9888
B( 81-C ,110-H ) :   0.9973

-----------------------------------------------------------------------------
         ABSORPTION SPECTRUM VIA TRANSITION ELECTRIC DIPOLE MOMENTS
-----------------------------------------------------------------------------
State   Energy  Wavelength   fosc         T2         TX        TY        TZ
        (cm-1)    (nm)                  (au**2)     (au)      (au)      (au)
-----------------------------------------------------------------------------
   0    8107.1   1233.5   0.533693282  21.67223  -1.22933   4.39198   0.93352
   1   16583.0    603.0   1.014882179  20.14783  -0.09166   3.92325   2.17888
   2   18131.4    551.5   0.030635691   0.55625   0.05583   0.27902  -0.68941
   3   19396.4    515.6   0.241435733   4.09786  -0.82961   1.34860  -1.26130
   4   20333.9    491.8   0.297892444   4.82297   0.17496  -2.00880  -0.87011
   5   21553.7    464.0   0.069098540   1.05541  -0.11526  -0.17242   1.00618
   6   21641.6    462.1   0.057695761   0.87767   0.08982  -0.80895   0.46390
   7   22553.0    443.4   0.012039734   0.17575   0.20601   0.36205  -0.04716
   8   22793.7    438.7   0.012678554   0.18312   0.40536  -0.12641   0.05313
   9   23874.8    418.9   0.007026936   0.09690   0.12607  -0.14177   0.24679
  10   24405.7    409.7   0.010640179   0.14353   0.10393   0.35014  -0.10062
  11   24895.5    401.7   0.016074684   0.21257   0.00410  -0.31162  -0.33977
  12   25087.1    398.6   0.282034882   3.70107   0.44664   1.40196   1.23939
  13   25975.5    385.0   0.000040541   0.00051  -0.01026  -0.01833  -0.00850
  14   26433.4    378.3   0.055528289   0.69157  -0.07164  -0.06371  -0.82606
  15   26575.2    376.3   0.039991107   0.49541  -0.27375   0.31379   0.56746
  16   27337.5    365.8   0.009565133   0.11519   0.32915   0.08266   0.00435
  17   27482.3    363.9   0.026192916   0.31377   0.10738   0.23891   0.49513
  18   28093.2    356.0   0.050323457   0.58972  -0.25793  -0.01756   0.72311
  19   28529.3    350.5   0.046710467   0.53901  -0.28625  -0.15101  -0.65899
  20   28760.1    347.7   0.081464888   0.93251  -0.16662   0.02537  -0.95085
  21   28978.1    345.1   0.017557950   0.19947   0.09866   0.20233  -0.38575
  22   29172.6    342.8   0.107093103   1.20854   0.79893   0.03092   0.75452
  23   29355.0    340.7   0.020263179   0.22725   0.13684  -0.35384  -0.28865
  24   29845.8    335.1   0.009144455   0.10087   0.04619  -0.30514  -0.07497
  25   29940.5    334.0   0.254446035   2.79777  -0.77332   0.68403  -1.31600
  26   30180.3    331.3   0.065967231   0.71958   0.39194  -0.71988   0.21848
  27   30285.8    330.2   0.058877094   0.64001  -0.07512   0.05297   0.79471
  28   30725.4    325.5   0.310344767   3.32523   0.59092   0.22046  -1.71098
  29   31218.2    320.3   0.023292821   0.24563  -0.08788   0.28822  -0.39350
  30   31439.6    318.1   0.084880505   0.88881  -0.41381   0.09578  -0.84166
  31   31764.7    314.8   0.140457889   1.45572  -0.67661  -0.61863   0.78435
  32   32133.3    311.2   0.006451147   0.06609  -0.10131   0.05310   0.23024
  33   32483.5    307.8   0.223077716   2.26084   0.86230   0.06872   1.22986
  34   32536.2    307.4   0.036506401   0.36938  -0.15526   0.19084  -0.55575
  35   33238.7    300.9   0.023315119   0.23092  -0.26796   0.39878  -0.00968
  36   33376.5    299.6   0.568713531   5.60955   1.60323  -0.80575   1.54596
  37   33507.8    298.4   0.002137343   0.02100   0.08791  -0.07406   0.08824
  38   33759.4    296.2   0.092287365   0.89996   0.54763   0.21429   0.74441
  39   33834.0    295.6   0.104212239   1.01401  -0.75331   0.62120  -0.24624
  40   34235.7    292.1   0.124464173   1.19685  -0.90437   0.34587  -0.50926
  41   35194.7    284.1   0.066794131   0.62479  -0.44876   0.00446  -0.65068
  42   35366.0    282.8   0.140023926   1.30344  -0.75230  -0.02932  -0.85827
  43   35617.0    280.8   0.691473220   6.39137   1.67947  -0.97657   1.61774
  44   35862.1    278.8   0.002557666   0.02348  -0.07748   0.01794  -0.13098
  45   36010.2    277.7   0.116099165   1.06140   0.59057  -0.27535  -0.79801
  46   36147.8    276.6   0.008450815   0.07696   0.04194  -0.05972  -0.26766
  47   36339.5    275.2   0.006845783   0.06202  -0.05691  -0.06094  -0.23466
  48   36519.6    273.8   0.157762761   1.42218  -0.47291   0.21220  -1.07401
  49   36598.4    273.2   0.051444700   0.46276   0.51074  -0.05774  -0.44561
  50   36943.2    270.7   0.017594739   0.15679   0.11237   0.00138  -0.37969
  51   36965.7    270.5   0.167755271   1.49401   0.61237  -0.40274   0.97817
  52   37174.6    269.0   0.028377274   0.25130   0.40391  -0.29686   0.00562
  53   37510.2    266.6   0.013642786   0.11974   0.34150  -0.04260   0.03610
  54   37643.6    265.6   0.107987841   0.94441  -0.13937  -0.18480   0.94384
  55   37820.8    264.4   0.059700860   0.51967  -0.20540  -0.25632   0.64170
  56   37937.8    263.6   0.006024039   0.05227  -0.13306   0.08854  -0.16349
  57   38169.0    262.0   0.005008065   0.04320   0.12031  -0.14661   0.08500
  58   38557.1    259.4   0.175422457   1.49781  -0.62512   1.04717  -0.10231
  59   38676.6    258.6   0.009433021   0.08029  -0.20965   0.00078  -0.19063
  60   38829.7    257.5   0.031629863   0.26817  -0.25733   0.23662  -0.38205
  61   39113.7    255.7   0.021661335   0.18232   0.03054   0.27483  -0.32535
  62   39216.3    255.0   0.027768875   0.23311  -0.06704  -0.47814  -0.00089
  63   39398.4    253.8   0.007346749   0.06139  -0.05990  -0.23622  -0.04472
  64   39544.0    252.9   0.087432930   0.72790   0.29329  -0.46305   0.65381
  65   39843.1    251.0   0.062898188   0.51971  -0.33482  -0.04242   0.63703
  66   39984.0    250.1   0.105273961   0.86678  -0.72586   0.22142   0.53934
  67   40186.1    248.8   0.050656505   0.41499   0.31072   0.55085   0.12250

FINAL SINGLE POINT ENERGY     -4222.518487526753

DIPOLE MOMENT
-------------
                                X             Y             Z
Electronic contribution:     -3.56734     -20.70761     -31.40287
Nuclear contribution   :      6.14484      19.70545      37.37104
                        -----------------------------------------
Total Dipole Moment    :      2.57750      -1.00217       5.96817
                        -----------------------------------------
Magnitude (a.u.)       :      6.57776
Magnitude (Debye)      :     16.71934

Rotational constants in cm-1:     0.001124     0.000212     0.000188
Rotational constants in MHz :    33.695017     6.355120     5.642175

                             ****ORCA TERMINATED NORMALLY****
TOTAL RUN TIME: 0 days 0 hours 13 minutes 36 seconds 541 msec
