                         Program Version 4.2.0 -  RELEASE  -
|  1> # ORCA input file
|  2> # SCF done       -203.153131682760          0.000976863571
|  3> ! CAM-B3LYP def2-SVP def2/J RIJCOSX Grid4 TightSCF
|  4> %maxcore 5000
|  5> %tddft
|  6>     Mode sTDDFT
|  7>     Ethresh 5.0
|  8>     maxcore 5000
|  9> end
| 10>
| 11> %pal
| 12>   nprocs 6
| 13>   end
| 14> * xyz 0 1
| 15>    C        0.19125         4.42874         3.53067
| 16>    C       -0.89509         5.23271         3.31012
| 17>    C       -1.10823         6.45700         3.97628
| 18>    N       -1.31251         7.47151         4.47288
| 19>    C       -1.96320         4.87901         2.45900
| 20>    N       -2.86984         4.62028         1.80446
| 21>    C        1.17302         4.60645         4.59433
| 22>    C        1.80556         3.35172         4.83731
| 23>    C        2.74185         3.19992         5.81905
| 24>    C        3.10158         4.31647         6.60709
| 25>    C        2.48701         5.57761         6.35564
| 26>    C        1.51530         5.70443         5.33636
| 27>    C        2.85988         6.68408         7.14540
| 28>    C        3.79144         6.55274         8.13901
| 29>    C        4.39457         5.31064         8.38712
| 30>    C        4.05691         4.21646         7.63767
| 31>    C        1.29168         2.35028         3.88485
| 32>    O        1.55385         1.17392         3.82398
| 33>    C        0.41303         3.12174         2.95023
| 34>    C        0.08812         2.58565         1.74460
| 35>    C       -0.34249         3.23835         0.56437
| 36>    O       -0.26725         4.57746         0.41107
| 37>    C       -0.64539         4.87572        -0.85455
| 38>    C       -0.98230         3.71453        -1.53485
| 39>    C       -0.78329         2.66175        -0.63401
| 40>    C       -0.98787         1.22374        -0.88153
| 41>    O       -0.75755         0.34853        -0.08331
| 42>    O       -1.45558         1.00889        -2.11100
| 43>    C       -1.69292        -0.34671        -2.46055
| 44>    C       -0.65149         6.19715        -1.37320
| 45>    N       -0.37066         7.35492        -0.69210
| 46>    C       -0.05318         7.49533         0.70722
| 47>    C        1.39880         7.14668         1.02002
| 48>    C       -0.48247         8.49112        -1.52730
| 49>    O       -0.28593         9.62469        -1.14680
| 50>    C       -0.85931         7.94801        -2.81059
| 51>    C       -0.95351         6.54077        -2.68793
| 52>    C       -1.34543         6.01988        -3.97644
| 53>    O       -1.54490         4.89023        -4.37366
| 54>    N       -1.48286         7.16151        -4.79648
| 55>    C       -1.81112         6.98619        -6.19118
| 56>    C       -0.60035         7.19819        -7.09650
| 57>    C       -1.19335         8.31906        -4.10964
| 58>    C       -1.22956         9.68028        -4.52608
| 59>    C       -1.64166        10.20829        -5.69927
| 60>    C       -1.67420        11.61381        -6.02070
| 61>    C       -2.21310        11.99946        -7.25027
| 62>    C       -2.28385        13.32998        -7.62125
| 63>    N       -2.79549        13.61088        -8.93885
| 64>    O       -3.49838        12.76636        -9.45247
| 65>    O       -2.48309        14.65868        -9.46460
| 66>    C       -1.82233        14.35647        -6.77492
| 67>    C       -1.26533        13.95337        -5.55134
| 68>    C       -1.19003        12.63131        -5.18218
| 69>    C       -1.96388        15.75635        -7.09390
| 70>    C       -1.10517        16.71784        -6.68742
| 71>    C       -1.31684        18.08296        -7.02059
| 72>    C       -0.46984        19.10012        -6.70278
| 73>    C       -0.63754        20.50612        -7.03666
| 74>    C       -1.77456        21.10426        -7.51044
| 75>    C       -1.88023        22.48147        -7.80072
| 76>    N       -2.02910        23.58947        -8.06137
| 77>    C       -3.00827        20.45569        -7.73298
| 78>    N       -4.04889        20.00859        -7.92133
| 79>    C        0.60943        21.18910        -6.71503
| 80>    C        1.49608        20.25712        -6.10298
| 81>    C        0.84967        18.93657        -6.03049
| 82>    O        1.30726        17.93072        -5.53014
| 83>    C        2.74431        20.61800        -5.68313
| 84>    C        3.17383        21.95142        -5.86392
| 85>    C        2.29534        22.88841        -6.48131
| 86>    C        1.00774        22.48661        -6.90342
| 87>    C        2.73495        24.21614        -6.65956
| 88>    C        3.98149        24.60178        -6.24790
| 89>    C        4.84575        23.67842        -5.64040
| 90>    C        4.45063        22.38175        -5.45237
| 91>    H        3.20216         2.23897         5.99408
| 92>    H        1.06933         6.67162         5.16273
| 93>    H        2.38994         7.63753         6.95370
| 94>    H        4.06819         7.40568         8.74028
| 95>    H        5.12781         5.22507         9.17495
| 96>    H        4.51749         3.25747         7.82431
| 97>    H        0.25840         1.52015         1.62647
| 98>    H       -1.31748         3.64979        -2.55105
| 99>    H       -2.09821        -0.33123        -3.46882
|100>    H       -2.40330        -0.79890        -1.76513
|101>    H       -0.76084        -0.91528        -2.42858
|102>    H       -0.73582         6.87224         1.28877
|103>    H       -0.23718         8.54543         0.95266
|104>    H        1.61245         6.10702         0.78386
|105>    H        1.59041         7.30957         2.07746
|106>    H        2.06677         7.78238         0.44392
|107>    H       -2.64022         7.64359        -6.46414
|108>    H       -2.15260         5.95027        -6.28140
|109>    H       -0.17880         8.19265        -6.96907
|110>    H       -0.89188         7.07019        -8.13530
|111>    H        0.16815         6.46643        -6.86013
|112>    H       -0.89520        10.34033        -3.73627
|113>    H       -2.00516         9.57048        -6.48952
|114>    H       -2.57958        11.25760        -7.94557
|115>    H       -0.91401        14.71422        -4.87214
|116>    H       -0.75385        12.37920        -4.22877
|117>    H       -2.80578        16.04448        -7.71046
|118>    H       -0.21333        16.47089        -6.13081
|119>    H       -2.21292        18.30244        -7.58727
|120>    H        3.39713        19.89297        -5.21997
|121>    H        0.36900        23.21820        -7.37209
|122>    H        2.06554        24.92329        -7.12695
|123>    H        4.30883        25.62103        -6.38816
|124>    H        5.82625        23.99991        -5.32245
|125>    H        5.11192        21.66656        -4.98538
|126> *
|127>
|128>                          ****END OF INPUT****

CARTESIAN COORDINATES (ANGSTROEM)
---------------------------------
  C      0.191250    4.428740    3.530670
  C     -0.895090    5.232710    3.310120
  C     -1.108230    6.457000    3.976280
  N     -1.312510    7.471510    4.472880
  C     -1.963200    4.879010    2.459000
  N     -2.869840    4.620280    1.804460
  C      1.173020    4.606450    4.594330
  C      1.805560    3.351720    4.837310
  C      2.741850    3.199920    5.819050
  C      3.101580    4.316470    6.607090
  C      2.487010    5.577610    6.355640
  C      1.515300    5.704430    5.336360
  C      2.859880    6.684080    7.145400
  C      3.791440    6.552740    8.139010
  C      4.394570    5.310640    8.387120
  C      4.056910    4.216460    7.637670
  C      1.291680    2.350280    3.884850
  O      1.553850    1.173920    3.823980
  C      0.413030    3.121740    2.950230
  C      0.088120    2.585650    1.744600
  C     -0.342490    3.238350    0.564370
  O     -0.267250    4.577460    0.411070
  C     -0.645390    4.875720   -0.854550
  C     -0.982300    3.714530   -1.534850
  C     -0.783290    2.661750   -0.634010
  C     -0.987870    1.223740   -0.881530
  O     -0.757550    0.348530   -0.083310
  O     -1.455580    1.008890   -2.111000
  C     -1.692920   -0.346710   -2.460550
  C     -0.651490    6.197150   -1.373200
  N     -0.370660    7.354920   -0.692100
  C     -0.053180    7.495330    0.707220
  C      1.398800    7.146680    1.020020
  C     -0.482470    8.491120   -1.527300
  O     -0.285930    9.624690   -1.146800
  C     -0.859310    7.948010   -2.810590
  C     -0.953510    6.540770   -2.687930
  C     -1.345430    6.019880   -3.976440
  O     -1.544900    4.890230   -4.373660
  N     -1.482860    7.161510   -4.796480
  C     -1.811120    6.986190   -6.191180
  C     -0.600350    7.198190   -7.096500
  C     -1.193350    8.319060   -4.109640
  C     -1.229560    9.680280   -4.526080
  C     -1.641660   10.208290   -5.699270
  C     -1.674200   11.613810   -6.020700
  C     -2.213100   11.999460   -7.250270
  C     -2.283850   13.329980   -7.621250
  N     -2.795490   13.610880   -8.938850
  O     -3.498380   12.766360   -9.452470
  O     -2.483090   14.658680   -9.464600
  C     -1.822330   14.356470   -6.774920
  C     -1.265330   13.953370   -5.551340
  C     -1.190030   12.631310   -5.182180
  C     -1.963880   15.756350   -7.093900
  C     -1.105170   16.717840   -6.687420
  C     -1.316840   18.082960   -7.020590
  C     -0.469840   19.100120   -6.702780
  C     -0.637540   20.506120   -7.036660
  C     -1.774560   21.104260   -7.510440
  C     -1.880230   22.481470   -7.800720
  N     -2.029100   23.589470   -8.061370
  C     -3.008270   20.455690   -7.732980
  N     -4.048890   20.008590   -7.921330
  C      0.609430   21.189100   -6.715030
  C      1.496080   20.257120   -6.102980
  C      0.849670   18.936570   -6.030490
  O      1.307260   17.930720   -5.530140
  C      2.744310   20.618000   -5.683130
  C      3.173830   21.951420   -5.863920
  C      2.295340   22.888410   -6.481310
  C      1.007740   22.486610   -6.903420
  C      2.734950   24.216140   -6.659560
  C      3.981490   24.601780   -6.247900
  C      4.845750   23.678420   -5.640400
  C      4.450630   22.381750   -5.452370
  H      3.202160    2.238970    5.994080
  H      1.069330    6.671620    5.162730
  H      2.389940    7.637530    6.953700
  H      4.068190    7.405680    8.740280
  H      5.127810    5.225070    9.174950
  H      4.517490    3.257470    7.824310
  H      0.258400    1.520150    1.626470
  H     -1.317480    3.649790   -2.551050
  H     -2.098210   -0.331230   -3.468820
  H     -2.403300   -0.798900   -1.765130
  H     -0.760840   -0.915280   -2.428580
  H     -0.735820    6.872240    1.288770
  H     -0.237180    8.545430    0.952660
  H      1.612450    6.107020    0.783860
  H      1.590410    7.309570    2.077460
  H      2.066770    7.782380    0.443920
  H     -2.640220    7.643590   -6.464140
  H     -2.152600    5.950270   -6.281400
  H     -0.178800    8.192650   -6.969070
  H     -0.891880    7.070190   -8.135300
  H      0.168150    6.466430   -6.860130
  H     -0.895200   10.340330   -3.736270
  H     -2.005160    9.570480   -6.489520
  H     -2.579580   11.257600   -7.945570
  H     -0.914010   14.714220   -4.872140
  H     -0.753850   12.379200   -4.228770
  H     -2.805780   16.044480   -7.710460
  H     -0.213330   16.470890   -6.130810
  H     -2.212920   18.302440   -7.587270
  H      3.397130   19.892970   -5.219970
  H      0.369000   23.218200   -7.372090
  H      2.065540   24.923290   -7.126950
  H      4.308830   25.621030   -6.388160
  H      5.826250   23.999910   -5.322450
  H      5.111920   21.666560   -4.985380

 Total Charge           Charge          ....    0
 Multiplicity           Mult            ....    1
 Number of Electrons    NEL             ....  516
 Basis Dimension        Dim             .... 1239

ORBITAL ENERGIES
----------------

  NO   OCC          E(Eh)            E(eV)
   0   2.0000     -19.325714      -525.8794
   1   2.0000     -19.270300      -524.3715
   2   2.0000     -19.253084      -523.9030
   3   2.0000     -19.250920      -523.8442
   4   2.0000     -19.218360      -522.9582
   5   2.0000     -19.217808      -522.9431
   6   2.0000     -19.215909      -522.8915
   7   2.0000     -19.200595      -522.4748
   8   2.0000     -19.198278      -522.4117
   9   2.0000     -14.657680      -398.8558
  10   2.0000     -14.463870      -393.5819
  11   2.0000     -14.462318      -393.5397
  12   2.0000     -14.422027      -392.4433
  13   2.0000     -14.418479      -392.3468
  14   2.0000     -14.415362      -392.2619
  15   2.0000     -14.414401      -392.2358
  16   2.0000     -10.415691      -283.4254
  17   2.0000     -10.383582      -282.5516
  18   2.0000     -10.382041      -282.5097
  19   2.0000     -10.369156      -282.1591
  20   2.0000     -10.369020      -282.1554
  21   2.0000     -10.368352      -282.1372
  22   2.0000     -10.365733      -282.0659
  23   2.0000     -10.358909      -281.8802
  24   2.0000     -10.348870      -281.6071
  25   2.0000     -10.347712      -281.5756
  26   2.0000     -10.345643      -281.5192
  27   2.0000     -10.343185      -281.4524
  28   2.0000     -10.342365      -281.4301
  29   2.0000     -10.340224      -281.3718
  30   2.0000     -10.327258      -281.0190
  31   2.0000     -10.323915      -280.9280
  32   2.0000     -10.321966      -280.8750
  33   2.0000     -10.320901      -280.8460
  34   2.0000     -10.320600      -280.8378
  35   2.0000     -10.317815      -280.7620
  36   2.0000     -10.317086      -280.7422
  37   2.0000     -10.315593      -280.7016
  38   2.0000     -10.313989      -280.6579
  39   2.0000     -10.312761      -280.6245
  40   2.0000     -10.309163      -280.5266
  41   2.0000     -10.308541      -280.5097
  42   2.0000     -10.308055      -280.4964
  43   2.0000     -10.307830      -280.4903
  44   2.0000     -10.307694      -280.4866
  45   2.0000     -10.307013      -280.4681
  46   2.0000     -10.306233      -280.4468
  47   2.0000     -10.304966      -280.4124
  48   2.0000     -10.303431      -280.3706
  49   2.0000     -10.303306      -280.3672
  50   2.0000     -10.303205      -280.3645
  51   2.0000     -10.301418      -280.3158
  52   2.0000     -10.300943      -280.3029
  53   2.0000     -10.300819      -280.2995
  54   2.0000     -10.300277      -280.2848
  55   2.0000     -10.299655      -280.2679
  56   2.0000     -10.298428      -280.2345
  57   2.0000     -10.298133      -280.2264
  58   2.0000     -10.297458      -280.2081
  59   2.0000     -10.297151      -280.1997
  60   2.0000     -10.296986      -280.1952
  61   2.0000     -10.292917      -280.0845
  62   2.0000     -10.289445      -279.9900
  63   2.0000     -10.289129      -279.9814
  64   2.0000     -10.289043      -279.9791
  65   2.0000     -10.289019      -279.9784
  66   2.0000     -10.288801      -279.9725
  67   2.0000     -10.288382      -279.9611
  68   2.0000     -10.287368      -279.9335
  69   2.0000     -10.286813      -279.9184
  70   2.0000     -10.286421      -279.9077
  71   2.0000     -10.285894      -279.8934
  72   2.0000     -10.273266      -279.5498
  73   2.0000     -10.270866      -279.4845
  74   2.0000     -10.269993      -279.4607
  75   2.0000     -10.263820      -279.2927
  76   2.0000      -1.333267       -36.2800
  77   2.0000      -1.243825       -33.8462
  78   2.0000      -1.203646       -32.7529
  79   2.0000      -1.151861       -31.3437
  80   2.0000      -1.142340       -31.0847
  81   2.0000      -1.135374       -30.8951
  82   2.0000      -1.133720       -30.8501
  83   2.0000      -1.132726       -30.8231
  84   2.0000      -1.108978       -30.1768
  85   2.0000      -1.072342       -29.1799
  86   2.0000      -1.063039       -28.9268
  87   2.0000      -1.023055       -27.8387
  88   2.0000      -1.017728       -27.6938
  89   2.0000      -1.002522       -27.2800
  90   2.0000      -1.002033       -27.2667
  91   2.0000      -0.998773       -27.1780
  92   2.0000      -0.998467       -27.1697
  93   2.0000      -0.993214       -27.0267
  94   2.0000      -0.975723       -26.5508
  95   2.0000      -0.971899       -26.4467
  96   2.0000      -0.941881       -25.6299
  97   2.0000      -0.940723       -25.5984
  98   2.0000      -0.936236       -25.4763
  99   2.0000      -0.930498       -25.3201
 100   2.0000      -0.928220       -25.2582
 101   2.0000      -0.920326       -25.0433
 102   2.0000      -0.918292       -24.9880
 103   2.0000      -0.902099       -24.5474
 104   2.0000      -0.897579       -24.4244
 105   2.0000      -0.892422       -24.2840
 106   2.0000      -0.884944       -24.0806
 107   2.0000      -0.882265       -24.0076
 108   2.0000      -0.880237       -23.9525
 109   2.0000      -0.872329       -23.7373
 110   2.0000      -0.863528       -23.4978
 111   2.0000      -0.843643       -22.9567
 112   2.0000      -0.831961       -22.6388
 113   2.0000      -0.831448       -22.6248
 114   2.0000      -0.828797       -22.5527
 115   2.0000      -0.826615       -22.4933
 116   2.0000      -0.820200       -22.3188
 117   2.0000      -0.807486       -21.9728
 118   2.0000      -0.802669       -21.8417
 119   2.0000      -0.780215       -21.2307
 120   2.0000      -0.772702       -21.0263
 121   2.0000      -0.766881       -20.8679
 122   2.0000      -0.762704       -20.7542
 123   2.0000      -0.761887       -20.7320
 124   2.0000      -0.745571       -20.2880
 125   2.0000      -0.736282       -20.0352
 126   2.0000      -0.724971       -19.7275
 127   2.0000      -0.719645       -19.5825
 128   2.0000      -0.713619       -19.4186
 129   2.0000      -0.709759       -19.3135
 130   2.0000      -0.707140       -19.2422
 131   2.0000      -0.704101       -19.1596
 132   2.0000      -0.702956       -19.1284
 133   2.0000      -0.694412       -18.8959
 134   2.0000      -0.690511       -18.7897
 135   2.0000      -0.685334       -18.6489
 136   2.0000      -0.679614       -18.4932
 137   2.0000      -0.678509       -18.4632
 138   2.0000      -0.669032       -18.2053
 139   2.0000      -0.666776       -18.1439
 140   2.0000      -0.662650       -18.0316
 141   2.0000      -0.652349       -17.7513
 142   2.0000      -0.645302       -17.5596
 143   2.0000      -0.643418       -17.5083
 144   2.0000      -0.640282       -17.4230
 145   2.0000      -0.636971       -17.3329
 146   2.0000      -0.631786       -17.1918
 147   2.0000      -0.624831       -17.0025
 148   2.0000      -0.619198       -16.8492
 149   2.0000      -0.612620       -16.6702
 150   2.0000      -0.610741       -16.6191
 151   2.0000      -0.607256       -16.5243
 152   2.0000      -0.601795       -16.3757
 153   2.0000      -0.599336       -16.3088
 154   2.0000      -0.597496       -16.2587
 155   2.0000      -0.594418       -16.1749
 156   2.0000      -0.590224       -16.0608
 157   2.0000      -0.585016       -15.9191
 158   2.0000      -0.583486       -15.8775
 159   2.0000      -0.575284       -15.6543
 160   2.0000      -0.572355       -15.5746
 161   2.0000      -0.568387       -15.4666
 162   2.0000      -0.566484       -15.4148
 163   2.0000      -0.561088       -15.2680
 164   2.0000      -0.560158       -15.2427
 165   2.0000      -0.557639       -15.1741
 166   2.0000      -0.555153       -15.1065
 167   2.0000      -0.550781       -14.9875
 168   2.0000      -0.549794       -14.9607
 169   2.0000      -0.547428       -14.8963
 170   2.0000      -0.546029       -14.8582
 171   2.0000      -0.543905       -14.8004
 172   2.0000      -0.541452       -14.7337
 173   2.0000      -0.537715       -14.6320
 174   2.0000      -0.536734       -14.6053
 175   2.0000      -0.536183       -14.5903
 176   2.0000      -0.535118       -14.5613
 177   2.0000      -0.530101       -14.4248
 178   2.0000      -0.527329       -14.3494
 179   2.0000      -0.522421       -14.2158
 180   2.0000      -0.520936       -14.1754
 181   2.0000      -0.520420       -14.1613
 182   2.0000      -0.517602       -14.0847
 183   2.0000      -0.515125       -14.0173
 184   2.0000      -0.514659       -14.0046
 185   2.0000      -0.513950       -13.9853
 186   2.0000      -0.510868       -13.9014
 187   2.0000      -0.507560       -13.8114
 188   2.0000      -0.505490       -13.7551
 189   2.0000      -0.499828       -13.6010
 190   2.0000      -0.498333       -13.5603
 191   2.0000      -0.497577       -13.5397
 192   2.0000      -0.496486       -13.5101
 193   2.0000      -0.496095       -13.4994
 194   2.0000      -0.491677       -13.3792
 195   2.0000      -0.488297       -13.2872
 196   2.0000      -0.487035       -13.2529
 197   2.0000      -0.485855       -13.2208
 198   2.0000      -0.485038       -13.1985
 199   2.0000      -0.481783       -13.1100
 200   2.0000      -0.479075       -13.0363
 201   2.0000      -0.475591       -12.9415
 202   2.0000      -0.469582       -12.7780
 203   2.0000      -0.468973       -12.7614
 204   2.0000      -0.468496       -12.7484
 205   2.0000      -0.464393       -12.6368
 206   2.0000      -0.461486       -12.5577
 207   2.0000      -0.459316       -12.4986
 208   2.0000      -0.456254       -12.4153
 209   2.0000      -0.453872       -12.3505
 210   2.0000      -0.451629       -12.2894
 211   2.0000      -0.448422       -12.2022
 212   2.0000      -0.447963       -12.1897
 213   2.0000      -0.446581       -12.1521
 214   2.0000      -0.444249       -12.0886
 215   2.0000      -0.444078       -12.0840
 216   2.0000      -0.441146       -12.0042
 217   2.0000      -0.440290       -11.9809
 218   2.0000      -0.439731       -11.9657
 219   2.0000      -0.435809       -11.8590
 220   2.0000      -0.435611       -11.8536
 221   2.0000      -0.434643       -11.8272
 222   2.0000      -0.433356       -11.7922
 223   2.0000      -0.432239       -11.7618
 224   2.0000      -0.431509       -11.7420
 225   2.0000      -0.428418       -11.6579
 226   2.0000      -0.425859       -11.5882
 227   2.0000      -0.424541       -11.5524
 228   2.0000      -0.422515       -11.4972
 229   2.0000      -0.419360       -11.4114
 230   2.0000      -0.415455       -11.3051
 231   2.0000      -0.407201       -11.0805
 232   2.0000      -0.405910       -11.0454
 233   2.0000      -0.404648       -11.0110
 234   2.0000      -0.394551       -10.7363
 235   2.0000      -0.389562       -10.6005
 236   2.0000      -0.387661       -10.5488
 237   2.0000      -0.386457       -10.5160
 238   2.0000      -0.383067       -10.4238
 239   2.0000      -0.379614       -10.3298
 240   2.0000      -0.378301       -10.2941
 241   2.0000      -0.371037       -10.0964
 242   2.0000      -0.368877       -10.0377
 243   2.0000      -0.363523        -9.8920
 244   2.0000      -0.356997        -9.7144
 245   2.0000      -0.356515        -9.7013
 246   2.0000      -0.341165        -9.2836
 247   2.0000      -0.339190        -9.2298
 248   2.0000      -0.337559        -9.1854
 249   2.0000      -0.334375        -9.0988
 250   2.0000      -0.324517        -8.8305
 251   2.0000      -0.321023        -8.7355
 252   2.0000      -0.317892        -8.6503
 253   2.0000      -0.308103        -8.3839
 254   2.0000      -0.300325        -8.1723
 255   2.0000      -0.296859        -8.0779
 256   2.0000      -0.288863        -7.8604
 257   2.0000      -0.245583        -6.6827
 258   0.0000      -0.113961        -3.1010
 259   0.0000      -0.098932        -2.6921
 260   0.0000      -0.075786        -2.0622
 261   0.0000      -0.061006        -1.6600
 262   0.0000      -0.056539        -1.5385

MULLIKEN ATOMIC CHARGES
-----------------------
   0 C :    0.277093
   1 C :   -0.337225
   2 C :   -0.191051
   3 N :    0.166387
   4 C :   -0.211422
   5 N :    0.177660
   6 C :    0.040583
   7 C :    0.009381
   8 C :   -0.077830
   9 C :    0.092277
  10 C :    0.092863
  11 C :   -0.082002
  12 C :   -0.015698
  13 C :    0.036108
  14 C :    0.033812
  15 C :   -0.013308
  16 C :    0.137617
  17 O :   -0.129350
  18 C :   -0.097133
  19 C :   -0.005884
  20 C :    0.123693
  21 O :   -0.205935
  22 C :    0.098266
  23 C :   -0.040485
  24 C :    0.048018
  25 C :    0.171844
  26 O :   -0.197447
  27 O :   -0.284983
  28 C :    0.189724
  29 C :    0.194134
  30 N :   -0.263180
  31 C :    0.118077
  32 C :    0.002489
  33 C :    0.150744
  34 O :   -0.188433
  35 C :   -0.039569
  36 C :   -0.078652
  37 C :    0.153135
  38 O :   -0.203598
  39 N :   -0.271940
  40 C :    0.098705
  41 C :    0.000014
  42 C :    0.113674
  43 C :   -0.006869
  44 C :    0.014656
  45 C :    0.108972
  46 C :   -0.077541
  47 C :    0.159899
  48 N :    0.244269
  49 O :   -0.228687
  50 O :   -0.228944
  51 C :    0.050446
  52 C :   -0.019132
  53 C :    0.019378
  54 C :    0.031792
  55 C :   -0.006071
  56 C :   -0.041983
  57 C :   -0.064350
  58 C :    0.325586
  59 C :   -0.344033
  60 C :   -0.182317
  61 N :    0.150609
  62 C :   -0.201980
  63 N :    0.158016
  64 C :    0.047667
  65 C :   -0.001181
  66 C :    0.149326
  67 O :   -0.151593
  68 C :   -0.080775
  69 C :    0.098031
  70 C :    0.095997
  71 C :   -0.084381
  72 C :   -0.018518
  73 C :    0.036991
  74 C :    0.038305
  75 C :   -0.017613
  76 H :   -0.010229
  77 H :   -0.007315
  78 H :   -0.010929
  79 H :   -0.003462
  80 H :   -0.002754
  81 H :   -0.016619
  82 H :    0.049149
  83 H :    0.017650
  84 H :    0.041783
  85 H :    0.038926
  86 H :    0.035350
  87 H :    0.026460
  88 H :    0.047434
  89 H :    0.016645
  90 H :    0.018633
  91 H :    0.025016
  92 H :    0.028712
  93 H :    0.046794
  94 H :    0.021107
  95 H :    0.025006
  96 H :    0.027688
  97 H :    0.006752
  98 H :   -0.025016
  99 H :    0.004578
 100 H :    0.003747
 101 H :    0.005184
 102 H :    0.028224
 103 H :    0.032102
 104 H :    0.021096
 105 H :   -0.013849
 106 H :   -0.007457
 107 H :   -0.008132
 108 H :   -0.004507
 109 H :   -0.005643
 110 H :   -0.017276
Sum of atomic charges:   -0.0000000

LOEWDIN ATOMIC CHARGES
----------------------
   0 C :    0.069680
   1 C :   -0.136534
   2 C :   -0.022385
   3 N :   -0.048200
   4 C :   -0.027999
   5 N :   -0.049039
   6 C :   -0.023004
   7 C :   -0.057134
   8 C :    0.034301
   9 C :   -0.008563
  10 C :   -0.005138
  11 C :    0.014545
  12 C :   -0.006355
  13 C :   -0.011890
  14 C :   -0.012035
  15 C :   -0.008389
  16 C :    0.083197
  17 O :   -0.130714
  18 C :   -0.071367
  19 C :    0.047522
  20 C :    0.053775
  21 O :    0.040018
  22 C :    0.034303
  23 C :    0.012636
  24 C :   -0.068772
  25 C :    0.088777
  26 O :   -0.167103
  27 O :   -0.075954
  28 C :    0.084704
  29 C :    0.070282
  30 N :    0.003664
  31 C :    0.035965
  32 C :   -0.062830
  33 C :    0.082196
  34 O :   -0.190167
  35 C :   -0.110846
  36 C :   -0.118055
  37 C :    0.085026
  38 O :   -0.193098
  39 N :   -0.003127
  40 C :    0.034769
  41 C :   -0.062728
  42 C :    0.072644
  43 C :   -0.020916
  44 C :   -0.003279
  45 C :   -0.019686
  46 C :    0.009918
  47 C :   -0.021805
  48 N :    0.284881
  49 O :   -0.197034
  50 O :   -0.188170
  51 C :   -0.008744
  52 C :    0.006912
  53 C :    0.017729
  54 C :    0.034867
  55 C :   -0.024272
  56 C :    0.073015
  57 C :   -0.086791
  58 C :    0.075119
  59 C :   -0.135070
  60 C :   -0.016754
  61 N :   -0.052132
  62 C :   -0.022423
  63 N :   -0.048041
  64 C :   -0.025312
  65 C :   -0.056024
  66 C :    0.086306
  67 O :   -0.145514
  68 C :    0.032506
  69 C :   -0.008232
  70 C :   -0.005742
  71 C :    0.019783
  72 C :   -0.005020
  73 C :   -0.012844
  74 C :   -0.011895
  75 C :   -0.009718
  76 H :    0.040156
  77 H :    0.037690
  78 H :    0.034367
  79 H :    0.033712
  80 H :    0.033429
  81 H :    0.032338
  82 H :    0.059764
  83 H :    0.043625
  84 H :    0.029629
  85 H :    0.026709
  86 H :    0.025515
  87 H :    0.024594
  88 H :    0.039989
  89 H :    0.017994
  90 H :    0.029096
  91 H :    0.029917
  92 H :    0.021088
  93 H :    0.038793
  94 H :    0.021850
  95 H :    0.032024
  96 H :    0.032602
  97 H :    0.044708
  98 H :    0.030236
  99 H :    0.040384
 100 H :    0.041706
 101 H :    0.039950
 102 H :    0.037007
 103 H :    0.033165
 104 H :    0.044782
 105 H :    0.038691
 106 H :    0.039236
 107 H :    0.035102
 108 H :    0.033372
 109 H :    0.032729
 110 H :    0.031855

  Mayer bond orders larger than 0.100000
B(  0-C ,  1-C ) :   1.6633 B(  0-C ,  6-C ) :   1.0021 B(  0-C , 18-C ) :   1.0343
B(  1-C ,  2-C ) :   1.1378 B(  1-C ,  4-C ) :   1.1587 B(  2-C ,  3-N ) :   2.9783
B(  4-C ,  5-N ) :   2.9939 B(  6-C ,  7-C ) :   1.2121 B(  6-C , 11-C ) :   1.4529
B(  7-C ,  8-C ) :   1.4750 B(  7-C , 16-C ) :   0.9214 B(  8-C ,  9-C ) :   1.1852
B(  8-C , 76-H ) :   1.0159 B(  9-C , 10-C ) :   1.2559 B(  9-C , 15-C ) :   1.2451
B( 10-C , 11-C ) :   1.2069 B( 10-C , 12-C ) :   1.2403 B( 11-C , 77-H ) :   0.9937
B( 12-C , 13-C ) :   1.4897 B( 12-C , 78-H ) :   0.9977 B( 13-C , 14-C ) :   1.2601
B( 13-C , 79-H ) :   0.9886 B( 14-C , 15-C ) :   1.4892 B( 14-C , 80-H ) :   0.9894
B( 15-C , 81-H ) :   0.9977 B( 16-C , 17-O ) :   2.2798 B( 16-C , 18-C ) :   0.9252
B( 18-C , 19-C ) :   1.6095 B( 19-C , 20-C ) :   1.1485 B( 19-C , 82-H ) :   0.9282
B( 20-C , 21-O ) :   1.1352 B( 20-C , 22-C ) :   0.1084 B( 20-C , 24-C ) :   1.3978
B( 21-O , 22-C ) :   1.1198 B( 22-C , 23-C ) :   1.4460 B( 22-C , 29-C ) :   1.0717
B( 23-C , 24-C ) :   1.2320 B( 23-C , 83-H ) :   0.9869 B( 24-C , 25-C ) :   0.9111
B( 25-C , 26-O ) :   2.0835 B( 25-C , 27-O ) :   1.2816 B( 27-O , 28-C ) :   0.9153
B( 28-C , 84-H ) :   0.9810 B( 28-C , 85-H ) :   0.9752 B( 28-C , 86-H ) :   0.9766
B( 29-C , 30-N ) :   1.2028 B( 29-C , 36-C ) :   1.3820 B( 30-N , 31-C ) :   0.9312
B( 30-N , 33-C ) :   1.0203 B( 31-C , 32-C ) :   1.1194 B( 31-C , 87-H ) :   0.9514
B( 31-C , 88-H ) :   0.9228 B( 32-C , 89-H ) :   0.9670 B( 32-C , 90-H ) :   0.9673
B( 32-C , 91-H ) :   0.9621 B( 33-C , 34-O ) :   2.1293 B( 33-C , 35-C ) :   0.9778
B( 35-C , 36-C ) :   1.2344 B( 35-C , 42-C ) :   1.3492 B( 36-C , 37-C ) :   0.9768
B( 37-C , 38-O ) :   2.0497 B( 37-C , 39-N ) :   1.0533 B( 39-N , 40-C ) :   0.9409
B( 39-N , 42-C ) :   1.1647 B( 40-C , 41-C ) :   1.1157 B( 40-C , 92-H ) :   0.9507
B( 40-C , 93-H ) :   0.9220 B( 41-C , 94-H ) :   0.9687 B( 41-C , 95-H ) :   0.9682
B( 41-C , 96-H ) :   0.9614 B( 42-C , 43-C ) :   1.1752 B( 43-C , 44-C ) :   1.5942
B( 43-C , 97-H ) :   0.9412 B( 44-C , 45-C ) :   1.0794 B( 44-C , 98-H ) :   0.9894
B( 45-C , 46-C ) :   1.2773 B( 45-C , 53-C ) :   1.3142 B( 46-C , 47-C ) :   1.3737
B( 46-C , 99-H ) :   0.9980 B( 47-C , 48-N ) :   0.8800 B( 47-C , 51-C ) :   1.3449
B( 48-N , 49-O ) :   1.5561 B( 48-N , 50-O ) :   1.5244 B( 49-O , 50-O ) :   0.2672
B( 51-C , 52-C ) :   1.3366 B( 51-C , 54-C ) :   1.0379 B( 52-C , 53-C ) :   1.4236
B( 52-C ,100-H ) :   0.9879 B( 53-C ,101-H ) :   0.9893 B( 54-C , 55-C ) :   1.6515
B( 54-C ,102-H ) :   0.9564 B( 55-C , 56-C ) :   1.1383 B( 55-C ,103-H ) :   0.9747
B( 56-C , 57-C ) :   1.5813 B( 56-C ,104-H ) :   0.9632 B( 57-C , 58-C ) :   1.0468
B( 57-C , 66-C ) :   0.9376 B( 58-C , 59-C ) :   1.6424 B( 58-C , 64-C ) :   0.9902
B( 59-C , 60-C ) :   1.1437 B( 59-C , 62-C ) :   1.1437 B( 60-C , 61-N ) :   2.9669
B( 62-C , 63-N ) :   2.9811 B( 64-C , 65-C ) :   1.2159 B( 64-C , 71-C ) :   1.4500
B( 65-C , 66-C ) :   0.9456 B( 65-C , 68-C ) :   1.4683 B( 66-C , 67-O ) :   2.2010
B( 68-C , 69-C ) :   1.1831 B( 68-C ,105-H ) :   1.0152 B( 69-C , 70-C ) :   1.2550
B( 69-C , 75-C ) :   1.2428 B( 70-C , 71-C ) :   1.2076 B( 70-C , 72-C ) :   1.2405
B( 71-C ,106-H ) :   0.9883 B( 72-C , 73-C ) :   1.4900 B( 72-C ,107-H ) :   0.9966
B( 73-C , 74-C ) :   1.2590 B( 73-C ,108-H ) :   0.9886 B( 74-C , 75-C ) :   1.4911
B( 74-C ,109-H ) :   0.9882 B( 75-C ,110-H ) :   0.9969

-----------------------------------------------------------------------------
         ABSORPTION SPECTRUM VIA TRANSITION ELECTRIC DIPOLE MOMENTS
-----------------------------------------------------------------------------
State   Energy  Wavelength   fosc         T2         TX        TY        TZ
        (cm-1)    (nm)                  (au**2)     (au)      (au)      (au)
-----------------------------------------------------------------------------
   0   13836.2    722.7   0.910491401  21.66376   0.64683  -2.62677   3.78754
   1   19306.0    518.0   0.461401827   7.86798   0.06291   2.74577  -0.56989
   2   23411.4    427.1   0.178123273   2.50478  -0.53305  -0.94780  -1.14992
   3   24239.9    412.5   0.037272812   0.50622  -0.57692   0.05199   0.41314
   4   25198.2    396.9   0.403919519   5.27717  -0.02874  -2.29696  -0.01831
   5   25467.1    392.7   0.201457542   2.60423   0.38258  -0.39248   1.51784
   6   26220.8    381.4   0.025796522   0.32388   0.19900   0.42856  -0.31720
   7   26823.9    372.8   0.357333495   4.38559  -0.68901  -1.97598  -0.07975
   8   26933.3    371.3   0.203156943   2.48324   0.20743   1.47673  -0.50939
   9   27625.5    362.0   0.037342446   0.44501  -0.12103   0.53886  -0.37415
  10   27769.4    360.1   0.074117135   0.87868  -0.52624   0.03495  -0.77493
  11   27929.3    358.0   0.032029249   0.37754   0.34878   0.26015   0.43383
  12   28725.6    348.1   0.082279671   0.94297   0.65273  -0.00851   0.71891
  13   29025.1    344.5   0.001771957   0.02010  -0.09940  -0.03638   0.09431
  14   29054.6    344.2   0.023580543   0.26719  -0.32272  -0.36568  -0.17121
  15   30056.7    332.7   0.011257571   0.12330   0.20062   0.23157  -0.17156
  16   31254.0    320.0   0.223436986   2.35356   1.13150   0.99119   0.30134
  17   32309.2    309.5   0.152830548   1.55725   0.63393  -0.95663   0.49014
  18   32481.2    307.9   0.026664534   0.27026  -0.36989   0.33556  -0.14437
  19   32518.6    307.5   0.067851460   0.68691  -0.66263   0.41107  -0.28083
  20   33138.5    301.8   0.506680928   5.03359  -1.98726  -0.43122  -0.94787
  21   33192.7    301.3   0.288863806   2.86501   0.98233   0.00209   1.37842
  22   33648.3    297.2   0.457659601   4.47770  -1.65600  -1.24844  -0.42043
  23   33808.7    295.8   0.032763143   0.31903   0.51941  -0.10118   0.19749
  24   34000.1    294.1   0.058782980   0.56918   0.51123   0.55182   0.05758
  25   34317.2    291.4   0.009516542   0.09129  -0.04257   0.20468   0.21815
  26   34501.8    289.8   0.030166696   0.28785   0.18083  -0.34066   0.37296
  27   34759.8    287.7   0.079163644   0.74976  -0.69631  -0.38829  -0.33787
  28   34874.5    286.7   0.039396431   0.37190   0.23037   0.41509   0.38279
  29   35217.2    284.0   0.073966647   0.69144   0.06482   0.82828  -0.03454
  30   35627.8    280.7   0.038321174   0.35410  -0.29967   0.51047  -0.06098
  31   35721.3    279.9   0.112090097   1.03304   0.95913  -0.17359   0.28805
  32   36243.1    275.9   0.044543087   0.40460   0.31277   0.50047   0.23730
  33   36791.1    271.8   0.032405003   0.28996   0.23997   0.38837   0.28556
  34   37078.0    269.7   0.391591110   3.47690   1.22064  -0.22564   1.39141
  35   37628.4    265.8   0.024309006   0.21268  -0.43657  -0.08692  -0.12055
  36   37941.7    263.6   0.102061811   0.88557   0.64965  -0.58417   0.34967
  37   38217.7    261.7   0.093366874   0.80427  -0.72573  -0.40117  -0.34154
  38   38257.9    261.4   0.118214064   1.01724  -0.85223  -0.44730  -0.30144
  39   38447.8    260.1   0.083881628   0.71824  -0.45028  -0.03705  -0.71702
  40   38964.0    256.6   0.009572990   0.08088   0.21200  -0.01632  -0.18887
  41   39384.3    253.9   0.082741983   0.69164   0.14149   0.81915   0.02476
  42   39469.9    253.4   0.068566645   0.57190   0.48167  -0.47545   0.33742
  43   39637.1    252.3   0.165126730   1.37149  -0.61800   0.97049  -0.21845
  44   39962.2    250.2   0.085016365   0.70037   0.08747  -0.77637   0.29995
  45   40077.6    249.5   0.070503817   0.57914   0.28772  -0.67667   0.19617
  46   40249.3    248.5   0.005845988   0.04782   0.12054  -0.14527   0.11039

FINAL SINGLE POINT ENERGY     -3363.422149572088

DIPOLE MOMENT
-------------
                                X             Y             Z
Electronic contribution:    -19.22946      12.57099      -0.69168
Nuclear contribution   :     23.34613     -13.56235       2.03288
                        -----------------------------------------
Total Dipole Moment    :      4.11668      -0.99136       1.34121
                        -----------------------------------------
Magnitude (a.u.)       :      4.44170
Magnitude (Debye)      :     11.28989

Rotational constants in cm-1:     0.001205     0.000240     0.000207
Rotational constants in MHz :    36.137850     7.188518     6.219180

                             ****ORCA TERMINATED NORMALLY****
TOTAL RUN TIME: 0 days 0 hours 12 minutes 12 seconds 518 msec
