                         Program Version 4.2.0 -  RELEASE  -
|  1> # ORCA input file
|  2> # SCF done       -211.168164112954          0.000662350819
|  3> ! CAM-B3LYP def2-SVP def2/J RIJCOSX Grid4 TightSCF
|  4> %maxcore 5000
|  5> %tddft
|  6>     Mode sTDDFT
|  7>     Ethresh 5.0
|  8>     maxcore 5000
|  9> end
| 10>
| 11> %pal
| 12>   nprocs 6
| 13>   end
| 14> * xyz 0 1
| 15>    C        3.30311         0.73787        -2.75781
| 16>    C        4.59791         1.16274        -2.88434
| 17>    C        5.72421         0.32464        -2.74056
| 18>    N        6.67703        -0.30622        -2.63650
| 19>    C        4.97038         2.48091        -3.22133
| 20>    N        5.31827         3.53473        -3.51650
| 21>    C        2.86228        -0.62320        -2.48890
| 22>    C        1.44286        -0.68616        -2.61354
| 23>    C        0.75305        -1.84710        -2.41371
| 24>    C        1.46223        -3.01894        -2.06901
| 25>    C        2.88110        -2.96451        -1.94081
| 26>    C        3.56922        -1.74943        -2.15542
| 27>    C        3.57761        -4.14199        -1.59863
| 28>    C        2.90739        -5.31683        -1.39269
| 29>    C        1.51073        -5.36898        -1.51801
| 30>    C        0.80378        -4.24484        -1.84875
| 31>    C        0.92526         0.63871        -2.97998
| 32>    O       -0.18659         0.92976        -3.35520
| 33>    C        2.10738         1.55427        -2.89801
| 34>    C        2.00672         2.89988        -2.88865
| 35>    C        0.76785         3.62589        -2.84659
| 36>    C       -0.29105         3.49499        -1.96974
| 37>    N       -0.44289         2.58620        -0.90479
| 38>    O       -1.46608         2.66460        -0.25040
| 39>    O        0.45613         1.79362        -0.66875
| 40>    C       -1.26332         4.52992        -2.23458
| 41>    C       -0.79230         5.32060        -3.22603
| 42>    C        0.48735         4.81419        -3.65633
| 43>    C        1.25099         5.25449        -4.71564
| 44>    C        2.17386         4.47208        -5.47356
| 45>    C        2.48979         5.13783        -6.62040
| 46>    C        1.83794         6.41160        -6.61727
| 47>    N        2.03519         7.36287        -7.62034
| 48>    O        1.52846         8.48181        -7.49872
| 49>    O        2.70549         7.04128        -8.58445
| 50>    C        1.10464         6.54166        -5.42738
| 51>    C        0.51345         7.73904        -5.02122
| 52>    C        0.21381         8.20136        -3.76363
| 53>    C       -0.21087         9.52070        -3.57741
| 54>    S       -0.77276        10.06612        -2.01128
| 55>    C       -1.13228        11.68113        -2.55528
| 56>    C       -0.78557        11.80918        -3.90899
| 57>    C       -0.27263        10.60234        -4.47217
| 58>    N        0.07291        10.84638        -5.75956
| 59>    C       -0.20085        12.16606        -6.03518
| 60>    C        0.04581        12.73915        -7.29370
| 61>    N        0.22968        13.23698        -8.30938
| 62>    C       -0.73673        12.78868        -4.92588
| 63>    C       -1.68950        12.59254        -1.63425
| 64>    C       -2.11141        13.84706        -1.93431
| 65>    C       -2.68330        14.78538        -1.01084
| 66>    C       -3.16092        16.00683        -1.49709
| 67>    C       -3.73577        16.94293        -0.65839
| 68>    N       -4.25669        18.13387        -1.28797
| 69>    O       -3.76018        18.45870        -2.34472
| 70>    O       -5.16309        18.72258        -0.73972
| 71>    C       -3.84781        16.72402         0.73043
| 72>    C       -3.35335        15.49646         1.20519
| 73>    C       -2.80014        14.55713         0.37173
| 74>    C       -4.37007        17.70782         1.64332
| 75>    C       -4.89001        17.41057         2.85707
| 76>    C       -5.36421        18.41859         3.73825
| 77>    C       -5.86095        18.17309         4.98254
| 78>    C       -6.37715        19.15195         5.92795
| 79>    C       -6.30980        20.51496         5.81490
| 80>    C       -6.82771        21.41354         6.77279
| 81>    N       -7.22938        22.19631         7.50963
| 82>    C       -5.69320        21.22326         4.76105
| 83>    N       -5.19371        21.87191         3.95628
| 84>    C       -6.94510        18.42289         7.05564
| 85>    C       -6.72394        17.02957         6.85777
| 86>    C       -6.01776        16.81848         5.58613
| 87>    O       -5.64082        15.75720         5.13362
| 88>    C       -7.13676        16.09583         7.76500
| 89>    C       -7.80612        16.51972         8.93384
| 90>    C       -8.03701        17.91141         9.13743
| 91>    C       -7.59707        18.85474         8.18114
| 92>    C       -8.70669        18.32411        10.30748
| 93>    C       -9.12744        17.40813        11.23290
| 94>    C       -8.89945        16.03838        11.03131
| 95>    C       -8.25302        15.60345         9.90622
| 96>    H       -0.32200        -1.86913        -2.51153
| 97>    H        4.64217        -1.73742        -2.04420
| 98>    H        4.65262        -4.09704        -1.50373
| 99>    H        3.44963        -6.21321        -1.13157
|100>    H        0.99818        -6.30448        -1.35090
|101>    H       -0.27134        -4.27894        -1.94635
|102>    H        2.89995         3.51326        -2.89298
|103>    H       -2.19552         4.60835        -1.70906
|104>    H       -1.31593         6.12560        -3.70280
|105>    H        2.47361         3.47316        -5.22606
|106>    H        3.12334         4.79671        -7.41747
|107>    H        0.37645         8.43716        -5.83020
|108>    H        0.33598         7.58355        -2.88628
|109>    H        0.53133        10.22616        -6.41595
|110>    H       -1.02904        13.81740        -4.87920
|111>    H       -1.78761        12.21577        -0.62564
|112>    H       -2.03678        14.18918        -2.95549
|113>    H       -3.10474        16.23371        -2.55220
|114>    H       -3.39098        15.30076         2.26493
|115>    H       -2.43784        13.63486         0.79679
|116>    H       -4.35714        18.74330         1.32904
|117>    H       -4.98362        16.38702         3.18767
|118>    H       -5.32598        19.43658         3.37246
|119>    H       -6.95399        15.04569         7.59129
|120>    H       -7.79067        19.89950         8.36464
|121>    H       -8.87928        19.37950        10.45882
|122>    H       -9.63855        17.73412        12.12621
|123>    H       -9.23857        15.32979        11.77197
|124>    H       -8.07456        14.55030         9.74552
|125> *
|126>
|127>                          ****END OF INPUT****

CARTESIAN COORDINATES (ANGSTROEM)
---------------------------------
  C      3.303110    0.737870   -2.757810
  C      4.597910    1.162740   -2.884340
  C      5.724210    0.324640   -2.740560
  N      6.677030   -0.306220   -2.636500
  C      4.970380    2.480910   -3.221330
  N      5.318270    3.534730   -3.516500
  C      2.862280   -0.623200   -2.488900
  C      1.442860   -0.686160   -2.613540
  C      0.753050   -1.847100   -2.413710
  C      1.462230   -3.018940   -2.069010
  C      2.881100   -2.964510   -1.940810
  C      3.569220   -1.749430   -2.155420
  C      3.577610   -4.141990   -1.598630
  C      2.907390   -5.316830   -1.392690
  C      1.510730   -5.368980   -1.518010
  C      0.803780   -4.244840   -1.848750
  C      0.925260    0.638710   -2.979980
  O     -0.186590    0.929760   -3.355200
  C      2.107380    1.554270   -2.898010
  C      2.006720    2.899880   -2.888650
  C      0.767850    3.625890   -2.846590
  C     -0.291050    3.494990   -1.969740
  N     -0.442890    2.586200   -0.904790
  O     -1.466080    2.664600   -0.250400
  O      0.456130    1.793620   -0.668750
  C     -1.263320    4.529920   -2.234580
  C     -0.792300    5.320600   -3.226030
  C      0.487350    4.814190   -3.656330
  C      1.250990    5.254490   -4.715640
  C      2.173860    4.472080   -5.473560
  C      2.489790    5.137830   -6.620400
  C      1.837940    6.411600   -6.617270
  N      2.035190    7.362870   -7.620340
  O      1.528460    8.481810   -7.498720
  O      2.705490    7.041280   -8.584450
  C      1.104640    6.541660   -5.427380
  C      0.513450    7.739040   -5.021220
  C      0.213810    8.201360   -3.763630
  C     -0.210870    9.520700   -3.577410
  S     -0.772760   10.066120   -2.011280
  C     -1.132280   11.681130   -2.555280
  C     -0.785570   11.809180   -3.908990
  C     -0.272630   10.602340   -4.472170
  N      0.072910   10.846380   -5.759560
  C     -0.200850   12.166060   -6.035180
  C      0.045810   12.739150   -7.293700
  N      0.229680   13.236980   -8.309380
  C     -0.736730   12.788680   -4.925880
  C     -1.689500   12.592540   -1.634250
  C     -2.111410   13.847060   -1.934310
  C     -2.683300   14.785380   -1.010840
  C     -3.160920   16.006830   -1.497090
  C     -3.735770   16.942930   -0.658390
  N     -4.256690   18.133870   -1.287970
  O     -3.760180   18.458700   -2.344720
  O     -5.163090   18.722580   -0.739720
  C     -3.847810   16.724020    0.730430
  C     -3.353350   15.496460    1.205190
  C     -2.800140   14.557130    0.371730
  C     -4.370070   17.707820    1.643320
  C     -4.890010   17.410570    2.857070
  C     -5.364210   18.418590    3.738250
  C     -5.860950   18.173090    4.982540
  C     -6.377150   19.151950    5.927950
  C     -6.309800   20.514960    5.814900
  C     -6.827710   21.413540    6.772790
  N     -7.229380   22.196310    7.509630
  C     -5.693200   21.223260    4.761050
  N     -5.193710   21.871910    3.956280
  C     -6.945100   18.422890    7.055640
  C     -6.723940   17.029570    6.857770
  C     -6.017760   16.818480    5.586130
  O     -5.640820   15.757200    5.133620
  C     -7.136760   16.095830    7.765000
  C     -7.806120   16.519720    8.933840
  C     -8.037010   17.911410    9.137430
  C     -7.597070   18.854740    8.181140
  C     -8.706690   18.324110   10.307480
  C     -9.127440   17.408130   11.232900
  C     -8.899450   16.038380   11.031310
  C     -8.253020   15.603450    9.906220
  H     -0.322000   -1.869130   -2.511530
  H      4.642170   -1.737420   -2.044200
  H      4.652620   -4.097040   -1.503730
  H      3.449630   -6.213210   -1.131570
  H      0.998180   -6.304480   -1.350900
  H     -0.271340   -4.278940   -1.946350
  H      2.899950    3.513260   -2.892980
  H     -2.195520    4.608350   -1.709060
  H     -1.315930    6.125600   -3.702800
  H      2.473610    3.473160   -5.226060
  H      3.123340    4.796710   -7.417470
  H      0.376450    8.437160   -5.830200
  H      0.335980    7.583550   -2.886280
  H      0.531330   10.226160   -6.415950
  H     -1.029040   13.817400   -4.879200
  H     -1.787610   12.215770   -0.625640
  H     -2.036780   14.189180   -2.955490
  H     -3.104740   16.233710   -2.552200
  H     -3.390980   15.300760    2.264930
  H     -2.437840   13.634860    0.796790
  H     -4.357140   18.743300    1.329040
  H     -4.983620   16.387020    3.187670
  H     -5.325980   19.436580    3.372460
  H     -6.953990   15.045690    7.591290
  H     -7.790670   19.899500    8.364640
  H     -8.879280   19.379500   10.458820
  H     -9.638550   17.734120   12.126210
  H     -9.238570   15.329790   11.771970
  H     -8.074560   14.550300    9.745520

 Total Charge           Charge          ....    0
 Multiplicity           Mult            ....    1
 Number of Electrons    NEL             ....  550
 Basis Dimension        Dim             .... 1283

ORBITAL ENERGIES
----------------

  NO   OCC          E(Eh)            E(eV)
   0   2.0000     -88.995462     -2421.6896
   1   2.0000     -19.258545      -524.0516
   2   2.0000     -19.256606      -523.9989
   3   2.0000     -19.246597      -523.7265
   4   2.0000     -19.243120      -523.6319
   5   2.0000     -19.239086      -523.5222
   6   2.0000     -19.238405      -523.5036
   7   2.0000     -19.224484      -523.1248
   8   2.0000     -19.218565      -522.9637
   9   2.0000     -14.663235      -399.0069
  10   2.0000     -14.652691      -398.7200
  11   2.0000     -14.648835      -398.6151
  12   2.0000     -14.500724      -394.5847
  13   2.0000     -14.427233      -392.5850
  14   2.0000     -14.424408      -392.5081
  15   2.0000     -14.420979      -392.4148
  16   2.0000     -14.420362      -392.3980
  17   2.0000     -14.418970      -392.3601
  18   2.0000     -10.374912      -282.3157
  19   2.0000     -10.371488      -282.2225
  20   2.0000     -10.366714      -282.0926
  21   2.0000     -10.353290      -281.7273
  22   2.0000     -10.350811      -281.6599
  23   2.0000     -10.350776      -281.6589
  24   2.0000     -10.350172      -281.6425
  25   2.0000     -10.347772      -281.5772
  26   2.0000     -10.347740      -281.5763
  27   2.0000     -10.345371      -281.5118
  28   2.0000     -10.339243      -281.3451
  29   2.0000     -10.338049      -281.3126
  30   2.0000     -10.336563      -281.2722
  31   2.0000     -10.332021      -281.1486
  32   2.0000     -10.329573      -281.0820
  33   2.0000     -10.328912      -281.0640
  34   2.0000     -10.327398      -281.0228
  35   2.0000     -10.326595      -281.0009
  36   2.0000     -10.325554      -280.9726
  37   2.0000     -10.324912      -280.9551
  38   2.0000     -10.323392      -280.9138
  39   2.0000     -10.323248      -280.9099
  40   2.0000     -10.322618      -280.8927
  41   2.0000     -10.322133      -280.8795
  42   2.0000     -10.321925      -280.8739
  43   2.0000     -10.321558      -280.8639
  44   2.0000     -10.320856      -280.8448
  45   2.0000     -10.320271      -280.8288
  46   2.0000     -10.317416      -280.7512
  47   2.0000     -10.316362      -280.7225
  48   2.0000     -10.314057      -280.6598
  49   2.0000     -10.313774      -280.6521
  50   2.0000     -10.312578      -280.6195
  51   2.0000     -10.311298      -280.5847
  52   2.0000     -10.311179      -280.5815
  53   2.0000     -10.308624      -280.5119
  54   2.0000     -10.308025      -280.4956
  55   2.0000     -10.307698      -280.4867
  56   2.0000     -10.306765      -280.4613
  57   2.0000     -10.306197      -280.4459
  58   2.0000     -10.303921      -280.3839
  59   2.0000     -10.302787      -280.3531
  60   2.0000     -10.302540      -280.3464
  61   2.0000     -10.302289      -280.3395
  62   2.0000     -10.301505      -280.3182
  63   2.0000     -10.301400      -280.3153
  64   2.0000     -10.301132      -280.3081
  65   2.0000     -10.300968      -280.3036
  66   2.0000     -10.299694      -280.2689
  67   2.0000     -10.298057      -280.2244
  68   2.0000     -10.295483      -280.1543
  69   2.0000     -10.293922      -280.1119
  70   2.0000     -10.292264      -280.0667
  71   2.0000     -10.292105      -280.0624
  72   2.0000     -10.291307      -280.0407
  73   2.0000     -10.290827      -280.0276
  74   2.0000     -10.290476      -280.0181
  75   2.0000     -10.289962      -280.0041
  76   2.0000     -10.289593      -279.9941
  77   2.0000     -10.288972      -279.9772
  78   2.0000     -10.288774      -279.9718
  79   2.0000     -10.288415      -279.9620
  80   2.0000     -10.285927      -279.8943
  81   2.0000      -8.090421      -220.1515
  82   2.0000      -6.059698      -164.8928
  83   2.0000      -6.055610      -164.7815
  84   2.0000      -6.052620      -164.7002
  85   2.0000      -1.339333       -36.4451
  86   2.0000      -1.323611       -36.0173
  87   2.0000      -1.314901       -35.7803
  88   2.0000      -1.158253       -31.5177
  89   2.0000      -1.142403       -31.0864
  90   2.0000      -1.138766       -30.9874
  91   2.0000      -1.133657       -30.8484
  92   2.0000      -1.131419       -30.7875
  93   2.0000      -1.123664       -30.5764
  94   2.0000      -1.025343       -27.9010
  95   2.0000      -1.022619       -27.8269
  96   2.0000      -1.021882       -27.8068
  97   2.0000      -1.015471       -27.6324
  98   2.0000      -1.009208       -27.4619
  99   2.0000      -1.004762       -27.3410
 100   2.0000      -1.004044       -27.3214
 101   2.0000      -1.003273       -27.3004
 102   2.0000      -1.001714       -27.2580
 103   2.0000      -1.000074       -27.2134
 104   2.0000      -0.998008       -27.1572
 105   2.0000      -0.976455       -26.5707
 106   2.0000      -0.975314       -26.5396
 107   2.0000      -0.954041       -25.9608
 108   2.0000      -0.941249       -25.6127
 109   2.0000      -0.932410       -25.3722
 110   2.0000      -0.929299       -25.2875
 111   2.0000      -0.923566       -25.1315
 112   2.0000      -0.915934       -24.9238
 113   2.0000      -0.911341       -24.7989
 114   2.0000      -0.908069       -24.7098
 115   2.0000      -0.905043       -24.6275
 116   2.0000      -0.898862       -24.4593
 117   2.0000      -0.887310       -24.1449
 118   2.0000      -0.886377       -24.1195
 119   2.0000      -0.884778       -24.0760
 120   2.0000      -0.882366       -24.0104
 121   2.0000      -0.879487       -23.9321
 122   2.0000      -0.871012       -23.7015
 123   2.0000      -0.856048       -23.2942
 124   2.0000      -0.842734       -22.9320
 125   2.0000      -0.834684       -22.7129
 126   2.0000      -0.833206       -22.6727
 127   2.0000      -0.831917       -22.6376
 128   2.0000      -0.814786       -22.1714
 129   2.0000      -0.812442       -22.1077
 130   2.0000      -0.799526       -21.7562
 131   2.0000      -0.781619       -21.2689
 132   2.0000      -0.776623       -21.1330
 133   2.0000      -0.766965       -20.8702
 134   2.0000      -0.766261       -20.8510
 135   2.0000      -0.764327       -20.7984
 136   2.0000      -0.754507       -20.5312
 137   2.0000      -0.734412       -19.9844
 138   2.0000      -0.732797       -19.9404
 139   2.0000      -0.730492       -19.8777
 140   2.0000      -0.718300       -19.5459
 141   2.0000      -0.717859       -19.5339
 142   2.0000      -0.716947       -19.5091
 143   2.0000      -0.708860       -19.2891
 144   2.0000      -0.707297       -19.2465
 145   2.0000      -0.700388       -19.0585
 146   2.0000      -0.699483       -19.0339
 147   2.0000      -0.686938       -18.6925
 148   2.0000      -0.683921       -18.6104
 149   2.0000      -0.682627       -18.5752
 150   2.0000      -0.676979       -18.4215
 151   2.0000      -0.670708       -18.2509
 152   2.0000      -0.663242       -18.0477
 153   2.0000      -0.654202       -17.8017
 154   2.0000      -0.652225       -17.7479
 155   2.0000      -0.648721       -17.6526
 156   2.0000      -0.645942       -17.5770
 157   2.0000      -0.643322       -17.5057
 158   2.0000      -0.638274       -17.3683
 159   2.0000      -0.637346       -17.3431
 160   2.0000      -0.635085       -17.2815
 161   2.0000      -0.633883       -17.2488
 162   2.0000      -0.631198       -17.1758
 163   2.0000      -0.627913       -17.0864
 164   2.0000      -0.624504       -16.9936
 165   2.0000      -0.623242       -16.9593
 166   2.0000      -0.613253       -16.6875
 167   2.0000      -0.611687       -16.6449
 168   2.0000      -0.611104       -16.6290
 169   2.0000      -0.609628       -16.5888
 170   2.0000      -0.601709       -16.3733
 171   2.0000      -0.598691       -16.2912
 172   2.0000      -0.595462       -16.2034
 173   2.0000      -0.591369       -16.0920
 174   2.0000      -0.585947       -15.9444
 175   2.0000      -0.583285       -15.8720
 176   2.0000      -0.578332       -15.7372
 177   2.0000      -0.576439       -15.6857
 178   2.0000      -0.568711       -15.4754
 179   2.0000      -0.565298       -15.3825
 180   2.0000      -0.560200       -15.2438
 181   2.0000      -0.558437       -15.1958
 182   2.0000      -0.552988       -15.0476
 183   2.0000      -0.552437       -15.0326
 184   2.0000      -0.551012       -14.9938
 185   2.0000      -0.550263       -14.9734
 186   2.0000      -0.549877       -14.9629
 187   2.0000      -0.545566       -14.8456
 188   2.0000      -0.543741       -14.7959
 189   2.0000      -0.541513       -14.7353
 190   2.0000      -0.541208       -14.7270
 191   2.0000      -0.538347       -14.6492
 192   2.0000      -0.535685       -14.5767
 193   2.0000      -0.532899       -14.5009
 194   2.0000      -0.527544       -14.3552
 195   2.0000      -0.525911       -14.3108
 196   2.0000      -0.522904       -14.2289
 197   2.0000      -0.521992       -14.2041
 198   2.0000      -0.519338       -14.1319
 199   2.0000      -0.515838       -14.0367
 200   2.0000      -0.511791       -13.9265
 201   2.0000      -0.511026       -13.9057
 202   2.0000      -0.510670       -13.8960
 203   2.0000      -0.508782       -13.8447
 204   2.0000      -0.503214       -13.6931
 205   2.0000      -0.501928       -13.6582
 206   2.0000      -0.501554       -13.6480
 207   2.0000      -0.499645       -13.5960
 208   2.0000      -0.495974       -13.4961
 209   2.0000      -0.495841       -13.4925
 210   2.0000      -0.492227       -13.3942
 211   2.0000      -0.491986       -13.3876
 212   2.0000      -0.491606       -13.3773
 213   2.0000      -0.488012       -13.2795
 214   2.0000      -0.485882       -13.2215
 215   2.0000      -0.479631       -13.0514
 216   2.0000      -0.479041       -13.0354
 217   2.0000      -0.473906       -12.8956
 218   2.0000      -0.469658       -12.7800
 219   2.0000      -0.468235       -12.7413
 220   2.0000      -0.467005       -12.7079
 221   2.0000      -0.457640       -12.4530
 222   2.0000      -0.457293       -12.4436
 223   2.0000      -0.457002       -12.4357
 224   2.0000      -0.455993       -12.4082
 225   2.0000      -0.455613       -12.3979
 226   2.0000      -0.452467       -12.3122
 227   2.0000      -0.450398       -12.2559
 228   2.0000      -0.449866       -12.2415
 229   2.0000      -0.448420       -12.2021
 230   2.0000      -0.444564       -12.0972
 231   2.0000      -0.444017       -12.0823
 232   2.0000      -0.442441       -12.0394
 233   2.0000      -0.438509       -11.9324
 234   2.0000      -0.438185       -11.9236
 235   2.0000      -0.437536       -11.9060
 236   2.0000      -0.437408       -11.9025
 237   2.0000      -0.434491       -11.8231
 238   2.0000      -0.433122       -11.7859
 239   2.0000      -0.432745       -11.7756
 240   2.0000      -0.430042       -11.7020
 241   2.0000      -0.425449       -11.5771
 242   2.0000      -0.424081       -11.5398
 243   2.0000      -0.414920       -11.2905
 244   2.0000      -0.413938       -11.2638
 245   2.0000      -0.410540       -11.1714
 246   2.0000      -0.409618       -11.1463
 247   2.0000      -0.400343       -10.8939
 248   2.0000      -0.394910       -10.7461
 249   2.0000      -0.392006       -10.6670
 250   2.0000      -0.390970       -10.6388
 251   2.0000      -0.387989       -10.5577
 252   2.0000      -0.385982       -10.5031
 253   2.0000      -0.383743       -10.4422
 254   2.0000      -0.382315       -10.4033
 255   2.0000      -0.378875       -10.3097
 256   2.0000      -0.377226       -10.2648
 257   2.0000      -0.374822       -10.1994
 258   2.0000      -0.371427       -10.1070
 259   2.0000      -0.365055        -9.9336
 260   2.0000      -0.363257        -9.8847
 261   2.0000      -0.355236        -9.6665
 262   2.0000      -0.351417        -9.5625
 263   2.0000      -0.346868        -9.4388
 264   2.0000      -0.342240        -9.3128
 265   2.0000      -0.338540        -9.2122
 266   2.0000      -0.331958        -9.0330
 267   2.0000      -0.323184        -8.7943
 268   2.0000      -0.320762        -8.7284
 269   2.0000      -0.315598        -8.5879
 270   2.0000      -0.304340        -8.2815
 271   2.0000      -0.301021        -8.1912
 272   2.0000      -0.296152        -8.0587
 273   2.0000      -0.292579        -7.9615
 274   2.0000      -0.253075        -6.8865
 275   0.0000      -0.143540        -3.9059
 276   0.0000      -0.110721        -3.0129
 277   0.0000      -0.096534        -2.6268
 278   0.0000      -0.082191        -2.2365
 279   0.0000      -0.066049        -1.7973

MULLIKEN ATOMIC CHARGES
-----------------------
   0 C :    0.309749
   1 C :   -0.346218
   2 C :   -0.182885
   3 N :    0.155371
   4 C :   -0.196140
   5 N :    0.162407
   6 C :    0.056885
   7 C :    0.005789
   8 C :   -0.073871
   9 C :    0.097809
  10 C :    0.099995
  11 C :   -0.089302
  12 C :   -0.020919
  13 C :    0.037464
  14 C :    0.038887
  15 C :   -0.017133
  16 C :    0.137043
  17 O :   -0.141299
  18 C :   -0.013022
  19 C :   -0.122032
  20 C :    0.055714
  21 C :    0.101169
  22 N :    0.276540
  23 O :   -0.234804
  24 O :   -0.254997
  25 C :    0.009626
  26 C :   -0.017423
  27 C :    0.034126
  28 C :    0.041125
  29 C :   -0.006940
  30 C :    0.042495
  31 C :    0.054749
  32 N :    0.298105
  33 O :   -0.314047
  34 O :   -0.242961
  35 C :    0.072048
  36 C :   -0.085983
  37 C :    0.078622
  38 C :   -0.190164
  39 S :    0.172430
  40 C :   -0.133488
  41 C :    0.112274
  42 C :    0.115435
  43 N :   -0.024668
  44 C :   -0.095244
  45 C :   -0.141318
  46 N :    0.182488
  47 C :   -0.045447
  48 C :    0.092812
  49 C :   -0.001566
  50 C :    0.121169
  51 C :   -0.076780
  52 C :    0.153431
  53 N :    0.243757
  54 O :   -0.225620
  55 O :   -0.226305
  56 C :    0.069356
  57 C :   -0.026738
  58 C :    0.018703
  59 C :    0.023232
  60 C :   -0.006648
  61 C :   -0.043969
  62 C :   -0.062519
  63 C :    0.328595
  64 C :   -0.343711
  65 C :   -0.182092
  66 N :    0.149688
  67 C :   -0.195803
  68 N :    0.157667
  69 C :    0.049687
  70 C :    0.001588
  71 C :    0.151037
  72 O :   -0.157093
  73 C :   -0.083528
  74 C :    0.101843
  75 C :    0.099244
  76 C :   -0.087139
  77 C :   -0.021536
  78 C :    0.039607
  79 C :    0.037284
  80 C :   -0.018785
  81 H :   -0.009483
  82 H :   -0.005947
  83 H :   -0.007287
  84 H :   -0.003784
  85 H :   -0.003915
  86 H :   -0.014282
  87 H :    0.046973
  88 H :    0.000006
  89 H :    0.003587
  90 H :   -0.000684
  91 H :    0.012704
  92 H :   -0.013484
  93 H :    0.006334
  94 H :    0.162136
  95 H :    0.002364
  96 H :   -0.018174
  97 H :   -0.026167
  98 H :    0.007928
  99 H :    0.004259
 100 H :   -0.010514
 101 H :    0.027341
 102 H :    0.034769
 103 H :    0.020584
 104 H :   -0.013719
 105 H :   -0.007400
 106 H :   -0.007157
 107 H :   -0.003640
 108 H :   -0.003465
 109 H :   -0.016781
Sum of atomic charges:   -0.0000000

LOEWDIN ATOMIC CHARGES
----------------------
   0 C :    0.078969
   1 C :   -0.133010
   2 C :   -0.018239
   3 N :   -0.046704
   4 C :   -0.019398
   5 N :   -0.049130
   6 C :   -0.023077
   7 C :   -0.050274
   8 C :    0.037770
   9 C :   -0.005568
  10 C :   -0.004530
  11 C :    0.021428
  12 C :   -0.005020
  13 C :   -0.011614
  14 C :   -0.009976
  15 C :   -0.008221
  16 C :    0.080979
  17 O :   -0.139878
  18 C :   -0.057120
  19 C :    0.050103
  20 C :   -0.000382
  21 C :   -0.019072
  22 N :    0.290271
  23 O :   -0.197510
  24 O :   -0.209532
  25 C :   -0.000146
  26 C :   -0.037544
  27 C :    0.019740
  28 C :    0.052299
  29 C :   -0.053531
  30 C :    0.048923
  31 C :   -0.077469
  32 N :    0.295026
  33 O :   -0.265377
  34 O :   -0.206959
  35 C :    0.028591
  36 C :   -0.042973
  37 C :    0.008723
  38 C :   -0.204178
  39 S :    0.472788
  40 C :   -0.140100
  41 C :   -0.068349
  42 C :    0.013686
  43 N :    0.095198
  44 C :   -0.018328
  45 C :   -0.044527
  46 N :   -0.020404
  47 C :   -0.031466
  48 C :   -0.037009
  49 C :    0.002435
  50 C :   -0.020961
  51 C :    0.010872
  52 C :   -0.018118
  53 N :    0.283719
  54 O :   -0.193655
  55 O :   -0.186416
  56 C :   -0.007570
  57 C :    0.007719
  58 C :    0.011836
  59 C :    0.029586
  60 C :   -0.020528
  61 C :    0.070652
  62 C :   -0.083711
  63 C :    0.073932
  64 C :   -0.132757
  65 C :   -0.016724
  66 N :   -0.049794
  67 C :   -0.022040
  68 N :   -0.045479
  69 C :   -0.025397
  70 C :   -0.057021
  71 C :    0.087292
  72 O :   -0.148424
  73 C :    0.033279
  74 C :   -0.008148
  75 C :   -0.005209
  76 C :    0.020343
  77 C :   -0.004628
  78 C :   -0.011665
  79 C :   -0.011126
  80 C :   -0.009506
  81 H :    0.040782
  82 H :    0.039367
  83 H :    0.035202
  84 H :    0.033772
  85 H :    0.033446
  86 H :    0.032982
  87 H :    0.048582
  88 H :    0.037056
  89 H :    0.030556
  90 H :    0.030908
  91 H :    0.042665
  92 H :    0.023466
  93 H :    0.036682
  94 H :    0.100266
  95 H :    0.036374
  96 H :    0.030164
  97 H :    0.033398
  98 H :    0.041515
  99 H :    0.042006
 100 H :    0.033643
 101 H :    0.036756
 102 H :    0.031804
 103 H :    0.044997
 104 H :    0.038675
 105 H :    0.039423
 106 H :    0.035471
 107 H :    0.033843
 108 H :    0.033505
 109 H :    0.032024

  Mayer bond orders larger than 0.100000
B(  0-C ,  1-C ) :   1.6537 B(  0-C ,  6-C ) :   1.0040 B(  0-C , 18-C ) :   1.0375
B(  1-C ,  2-C ) :   1.1369 B(  1-C ,  4-C ) :   1.1533 B(  2-C ,  3-N ) :   2.9729
B(  4-C ,  5-N ) :   2.9674 B(  6-C ,  7-C ) :   1.2130 B(  6-C , 11-C ) :   1.4379
B(  7-C ,  8-C ) :   1.4706 B(  7-C , 16-C ) :   0.9425 B(  8-C ,  9-C ) :   1.1860
B(  8-C , 81-H ) :   1.0160 B(  9-C , 10-C ) :   1.2505 B(  9-C , 15-C ) :   1.2416
B( 10-C , 11-C ) :   1.2155 B( 10-C , 12-C ) :   1.2364 B( 11-C , 82-H ) :   0.9905
B( 12-C , 13-C ) :   1.4926 B( 12-C , 83-H ) :   0.9978 B( 13-C , 14-C ) :   1.2568
B( 13-C , 84-H ) :   0.9883 B( 14-C , 15-C ) :   1.4917 B( 14-C , 85-H ) :   0.9886
B( 15-C , 86-H ) :   0.9981 B( 16-C , 17-O ) :   2.2549 B( 16-C , 18-C ) :   0.8977
B( 18-C , 19-C ) :   1.7424 B( 19-C , 20-C ) :   1.0197 B( 19-C , 87-H ) :   0.9233
B( 20-C , 21-C ) :   1.5789 B( 20-C , 27-C ) :   1.0846 B( 21-C , 22-N ) :   0.9353
B( 21-C , 25-C ) :   1.1338 B( 22-N , 23-O ) :   1.5429 B( 22-N , 24-O ) :   1.4992
B( 23-O , 24-O ) :   0.2620 B( 25-C , 26-C ) :   1.5858 B( 25-C , 88-H ) :   1.0111
B( 26-C , 27-C ) :   1.1022 B( 26-C , 89-H ) :   1.0029 B( 27-C , 28-C ) :   1.4796
B( 28-C , 29-C ) :   1.1737 B( 28-C , 35-C ) :   0.9847 B( 29-C , 30-C ) :   1.5250
B( 29-C , 90-H ) :   0.9976 B( 30-C , 31-C ) :   1.1470 B( 30-C , 91-H ) :   1.0117
B( 31-C , 32-N ) :   0.9926 B( 31-C , 35-C ) :   1.4201 B( 32-N , 33-O ) :   1.4122
B( 32-N , 34-O ) :   1.5432 B( 33-O , 34-O ) :   0.2302 B( 35-C , 36-C ) :   1.3001
B( 36-C , 37-C ) :   1.4647 B( 36-C , 92-H ) :   0.9290 B( 37-C , 38-C ) :   1.2590
B( 37-C , 93-H ) :   0.9534 B( 38-C , 39-S ) :   1.0785 B( 38-C , 42-C ) :   1.2893
B( 39-S , 40-C ) :   1.1655 B( 40-C , 41-C ) :   1.2680 B( 40-C , 48-C ) :   1.1759
B( 41-C , 42-C ) :   1.2579 B( 41-C , 47-C ) :   1.1823 B( 42-C , 43-N ) :   1.2230
B( 43-N , 44-C ) :   1.2191 B( 43-N , 94-H ) :   0.9067 B( 44-C , 45-C ) :   1.0510
B( 44-C , 47-C ) :   1.5920 B( 45-C , 46-N ) :   3.0570 B( 47-C , 95-H ) :   1.0076
B( 48-C , 49-C ) :   1.6279 B( 48-C , 96-H ) :   0.9481 B( 49-C , 50-C ) :   1.1080
B( 49-C , 97-H ) :   0.9868 B( 50-C , 51-C ) :   1.2742 B( 50-C , 58-C ) :   1.2970
B( 51-C , 52-C ) :   1.3803 B( 51-C , 98-H ) :   0.9997 B( 52-C , 53-N ) :   0.8751
B( 52-C , 56-C ) :   1.3417 B( 53-N , 54-O ) :   1.5575 B( 53-N , 55-O ) :   1.5236
B( 54-O , 55-O ) :   0.2689 B( 56-C , 57-C ) :   1.3203 B( 56-C , 59-C ) :   1.0557
B( 57-C , 58-C ) :   1.4389 B( 57-C , 99-H ) :   0.9876 B( 58-C ,100-H ) :   0.9884
B( 59-C , 60-C ) :   1.6352 B( 59-C ,101-H ) :   0.9627 B( 60-C , 61-C ) :   1.1349
B( 60-C ,102-H ) :   0.9713 B( 61-C , 62-C ) :   1.5778 B( 61-C ,103-H ) :   0.9647
B( 62-C , 63-C ) :   1.0460 B( 62-C , 71-C ) :   0.9381 B( 63-C , 64-C ) :   1.6433
B( 63-C , 69-C ) :   0.9912 B( 64-C , 65-C ) :   1.1434 B( 64-C , 67-C ) :   1.1419
B( 65-C , 66-N ) :   2.9639 B( 67-C , 68-N ) :   2.9732 B( 69-C , 70-C ) :   1.2142
B( 69-C , 76-C ) :   1.4452 B( 70-C , 71-C ) :   0.9495 B( 70-C , 73-C ) :   1.4638
B( 71-C , 72-O ) :   2.1896 B( 73-C , 74-C ) :   1.1812 B( 73-C ,104-H ) :   1.0173
B( 74-C , 75-C ) :   1.2542 B( 74-C , 80-C ) :   1.2408 B( 75-C , 76-C ) :   1.2066
B( 75-C , 77-C ) :   1.2388 B( 76-C ,105-H ) :   0.9906 B( 77-C , 78-C ) :   1.4912
B( 77-C ,106-H ) :   0.9979 B( 78-C , 79-C ) :   1.2578 B( 78-C ,107-H ) :   0.9879
B( 79-C , 80-C ) :   1.4897 B( 79-C ,108-H ) :   0.9889 B( 80-C ,109-H ) :   0.9987

-----------------------------------------------------------------------------
         ABSORPTION SPECTRUM VIA TRANSITION ELECTRIC DIPOLE MOMENTS
-----------------------------------------------------------------------------
State   Energy  Wavelength   fosc         T2         TX        TY        TZ
        (cm-1)    (nm)                  (au**2)     (au)      (au)      (au)
-----------------------------------------------------------------------------
   0    8000.8   1249.9   0.469459589  19.31712  -1.32690   4.09947   0.86649
   1   15218.2    657.1   0.008978329   0.19423   0.29912  -0.06621   0.31681
   2   18047.7    554.1   1.414268159  25.79799  -2.08793   2.94475   3.57309
   3   19694.1    507.8   0.122899806   2.05443   0.64378  -1.13268  -0.59750
   4   20178.3    495.6   0.002190866   0.03574  -0.18489   0.02488  -0.03070
   5   21198.5    471.7   0.129493387   2.01103   0.73665  -0.95979  -0.73971
   6   22499.0    444.5   0.001146472   0.01678   0.11169  -0.06012  -0.02619
   7   23614.6    423.5   0.112264199   1.56508   0.09326   0.71509  -1.02227
   8   23907.5    418.3   0.088648311   1.22071  -0.39745   0.79067   0.66150
   9   24214.8    413.0   0.064534214   0.87737  -0.72142   0.59588   0.04302
  10   24599.7    406.5   0.020758872   0.27781  -0.12721   0.00209   0.51149
  11   25368.5    394.2   0.140165900   1.81896  -0.32795   1.19461  -0.53321
  12   25722.6    388.8   0.155631319   1.99186  -0.50839  -0.09662   1.31303
  13   25781.8    387.9   0.036903113   0.47122   0.59042  -0.16151  -0.31072
  14   27183.7    367.9   0.072839034   0.88213   0.32890  -0.11749  -0.87187
  15   27273.9    366.7   0.028339255   0.34207  -0.19428  -0.08321   0.54535
  16   27456.6    364.2   0.167527768   2.00870   0.59282  -0.28670  -1.25501
  17   27677.6    361.3   0.105571156   1.25572   0.51886   0.81846  -0.56269
  18   27798.8    359.7   0.106186615   1.25753  -0.35415   0.96008   0.45864
  19   28392.4    352.2   0.038523669   0.44669  -0.35127   0.47181   0.31732
  20   28505.8    350.8   0.154386764   1.78301  -0.65374  -0.52918   1.03711
  21   28743.3    347.9   0.055552690   0.63627  -0.03974  -0.72814   0.32327
  22   28796.4    347.3   0.022346835   0.25548   0.23931   0.32317  -0.30621
  23   29188.8    342.6   0.015127165   0.17061  -0.09322  -0.36132  -0.17712
  24   29660.7    337.1   0.019713000   0.21880   0.19127  -0.12959  -0.40672
  25   30243.1    330.7   0.018614693   0.20263   0.38908  -0.13162  -0.18420
  26   30550.9    327.3   0.141601007   1.52587  -0.18011  -0.37189   1.16410
  27   30897.0    323.7   0.103158961   1.09917   0.63502   0.47134  -0.68831
  28   31323.7    319.2   0.287533814   3.02197   0.56328   0.67361  -1.50032
  29   31528.7    317.2   0.133571457   1.39471  -0.96717   0.16346   0.65770
  30   31854.8    313.9   0.075928465   0.78470  -0.54908   0.15210   0.67829
  31   32003.6    312.5   0.050408204   0.51853  -0.10781  -0.62891   0.33375
  32   32169.1    310.9   0.093648674   0.95838  -0.64935  -0.11004   0.72430
  33   32686.1    305.9   0.072072018   0.72590  -0.37643   0.75983  -0.08286
  34   32927.0    303.7   0.179468755   1.79437   0.51400   0.99291  -0.73777
  35   33049.2    302.6   0.043920559   0.43750  -0.12847  -0.46814   0.44927
  36   33419.6    299.2   0.070684455   0.69630  -0.47643  -0.50220   0.46596
  37   33685.9    296.9   0.158506934   1.54909  -0.49548  -0.92960   0.66290
  38   33760.5    296.2   0.310420002   3.02702  -0.70179  -1.51035   0.50334
  39   33883.4    295.1   0.152038864   1.47721   0.30918   1.10502   0.40070
  40   34322.2    291.4   0.302387282   2.90044   0.68252   1.00248  -1.19568
  41   34454.7    290.2   0.044225564   0.42257  -0.07739  -0.62158   0.17383
  42   34602.3    289.0   0.022679217   0.21577   0.14981  -0.28677  -0.33331
  43   34805.4    287.3   0.135931501   1.28573   0.61427   0.95269   0.02800
  44   34857.8    286.9   0.038401909   0.36268  -0.06409  -0.42265   0.42420
  45   35086.6    285.0   0.065886106   0.61820  -0.18904   0.56344   0.51478
  46   35214.4    284.0   0.239479603   2.23884  -0.68324  -0.45386   1.25142
  47   35486.4    281.8   0.009159817   0.08498  -0.20442   0.10749  -0.17786
  48   35860.3    278.9   0.026898381   0.24694   0.06203   0.45907  -0.17984
  49   35944.3    278.2   0.133505239   1.22277   0.07827  -0.95610   0.55002
  50   36003.0    277.8   0.135799873   1.24176   0.05248  -0.84523   0.72428
  51   36300.5    275.5   0.015528521   0.14083  -0.37478  -0.01113   0.01559
  52   36752.7    272.1   0.076750273   0.68749  -0.39363   0.70587   0.18521
  53   36976.5    270.4   0.122359935   1.08940   0.57869   0.67790  -0.54312
  54   37094.1    269.6   0.084951637   0.75395  -0.02328  -0.80973   0.31263
  55   37290.3    268.2   0.020452649   0.18056  -0.21029  -0.36891  -0.01575
  56   37426.8    267.2   0.020993923   0.18467   0.01817  -0.41488   0.11049
  57   37825.8    264.4   0.052134375   0.45375   0.05147   0.57135  -0.35307
  58   38105.2    262.4   0.027460352   0.23725   0.46458   0.02802  -0.14362
  59   38183.9    261.9   0.108922371   0.93910  -0.02768   0.82347  -0.51013
  60   38268.3    261.3   0.089683666   0.77152   0.56853   0.65535  -0.13719
  61   38406.8    260.4   0.108470930   0.92978  -0.03997   0.89735  -0.35063
  62   38722.1    258.3   0.033351440   0.28355   0.13918   0.24188   0.45352
  63   38786.8    257.8   0.109566583   0.92997   0.33465   0.49256  -0.75853
  64   38899.3    257.1   0.016449874   0.13922   0.14296   0.34304   0.03324
  65   39080.3    255.9   0.051014666   0.42975   0.65523   0.00646  -0.01957
  66   39102.2    255.7   0.086926754   0.73186   0.16595   0.83352  -0.09776
  67   39492.5    253.2   0.106366014   0.88667   0.27140  -0.86955  -0.23854
  68   39866.5    250.8   0.190224560   1.57085   0.09601   0.87781  -0.88943
  69   40126.8    249.2   0.032466381   0.26636  -0.19100   0.11284  -0.46599
  70   40288.5    248.2   0.009321723   0.07617  -0.02126   0.11388   0.25050

FINAL SINGLE POINT ENERGY     -3905.934639761177

DIPOLE MOMENT
-------------
                                X             Y             Z
Electronic contribution:     14.43239       7.33511     -23.36616
Nuclear contribution   :    -16.48186     -10.67124      26.67346
                        -----------------------------------------
Total Dipole Moment    :     -2.04946      -3.33613       3.30730
                        -----------------------------------------
Magnitude (a.u.)       :      5.12526
Magnitude (Debye)      :     13.02738

Rotational constants in cm-1:     0.000980     0.000184     0.000159
Rotational constants in MHz :    29.380724     5.520977     4.758348

                             ****ORCA TERMINATED NORMALLY****
TOTAL RUN TIME: 0 days 0 hours 14 minutes 0 seconds 843 msec
