                         Program Version 4.2.0 -  RELEASE  -
|  1> # ORCA input file
|  2> # SCF done       -219.016471337781          0.000657589607
|  3> ! CAM-B3LYP def2-SVP def2/J RIJCOSX Grid4 TightSCF
|  4> %maxcore 5000
|  5> %tddft
|  6>     Mode sTDDFT
|  7>     Ethresh 5.0
|  8>     maxcore 5000
|  9> end
| 10>
| 11> %pal
| 12>   nprocs 6
| 13>   end
| 14> * xyz 0 1
| 15>    C        3.18131         2.46126        -5.37075
| 16>    C        1.93766         2.12703        -4.90675
| 17>    C        1.49391         0.79702        -4.74450
| 18>    N        1.07921        -0.26320        -4.60614
| 19>    C        0.93897         3.07335        -4.60893
| 20>    N        0.10342         3.82465        -4.37189
| 21>    C        4.18170         1.52573        -5.86231
| 22>    C        5.10024         2.23125        -6.69620
| 23>    C        6.13555         1.59405        -7.31962
| 24>    C        6.30721         0.20563        -7.12339
| 25>    C        5.40541        -0.49920        -6.27231
| 26>    C        4.33824         0.18316        -5.64558
| 27>    C        5.59786        -1.88168        -6.07509
| 28>    C        6.62749        -2.53972        -6.69124
| 29>    C        7.51221        -1.84636        -7.53106
| 30>    C        7.35560        -0.50323        -7.74280
| 31>    C        4.74432         3.65594        -6.71848
| 32>    O        5.23593         4.55463        -7.35691
| 33>    C        3.64772         3.79524        -5.70114
| 34>    C        3.35583         5.02775        -5.22319
| 35>    C        2.64607         5.37886        -4.04051
| 36>    S        1.75410         6.85956        -3.96262
| 37>    C        1.25869         6.55718        -2.32581
| 38>    C        1.80489         5.36532        -1.86409
| 39>    C        2.59029         4.69826        -2.82459
| 40>    C        3.32463         3.51920        -2.59643
| 41>    N        3.94841         2.56906        -2.44864
| 42>    C        1.56386         4.87329        -0.47436
| 43>    F        0.24738         4.78714        -0.18551
| 44>    F        2.08810         3.67805        -0.22545
| 45>    F        2.06827         5.72141         0.44988
| 46>    C        0.40184         7.42522        -1.60930
| 47>    C       -0.10804         8.58439        -2.10620
| 48>    C       -0.99722         9.43097        -1.41795
| 49>    S       -1.41688        10.98514        -2.09402
| 50>    C       -2.46789        11.42655        -0.76719
| 51>    C       -2.50123        10.37409         0.17066
| 52>    C       -1.67701         9.27386        -0.20655
| 53>    N       -1.79227         8.31365         0.74365
| 54>    C       -2.65817         8.76712         1.71308
| 55>    C       -2.98411         7.98482         2.83234
| 56>    N       -3.25024         7.34180         3.74323
| 57>    C       -3.11182        10.03355         1.39630
| 58>    C       -3.11373        12.66272        -0.78435
| 59>    C       -3.91193        13.10233         0.24686
| 60>    C       -4.60689        14.31143         0.32287
| 61>    C       -5.03831        14.91793         1.51241
| 62>    N       -5.03493        14.38552         2.80973
| 63>    O       -5.39909        15.11434         3.71549
| 64>    O       -4.68720        13.22170         2.97180
| 65>    C       -5.46225        16.24995         1.22857
| 66>    C       -5.31306        16.49229        -0.10721
| 67>    C       -4.86440        15.29952        -0.74918
| 68>    C       -4.89024        15.05074        -2.10653
| 69>    C       -5.12226        13.77970        -2.73960
| 70>    C       -5.29646        13.98199        -4.06824
| 71>    C       -5.13394        15.38607        -4.35118
| 72>    N       -5.07871        15.85651        -5.68144
| 73>    O       -4.71331        16.99859        -5.89128
| 74>    O       -5.37385        15.06112        -6.55613
| 75>    C       -4.90354        16.07029        -3.16712
| 76>    C       -4.62120        17.44583        -2.93060
| 77>    C       -5.19043        18.49420        -3.57942
| 78>    C       -4.85040        19.82921        -3.25289
| 79>    C       -5.50398        20.93041        -3.72242
| 80>    C       -5.15696        22.32069        -3.48596
| 81>    C       -4.20765        22.79368        -2.61648
| 82>    C       -3.92207        24.16222        -2.42447
| 83>    N       -3.63596        25.25531        -2.22220
| 84>    C       -3.40585        22.00094        -1.76926
| 85>    N       -2.72983        21.42393        -1.04162
| 86>    C       -6.03017        23.14276        -4.31531
| 87>    C       -6.94952        22.29269        -4.99492
| 88>    C       -6.69530        20.89223        -4.61888
| 89>    O       -7.34419        19.92236        -4.94326
| 90>    C       -7.90148        22.78688        -5.83934
| 91>    C       -7.97893        24.18163        -6.04972
| 92>    C       -7.06110        25.03932        -5.37666
| 93>    C       -6.08597        24.49847        -4.50801
| 94>    C       -7.14879        26.42997        -5.59167
| 95>    C       -8.09727        26.95004        -6.42968
| 96>    C       -9.00001        26.10459        -7.09204
| 97>    C       -8.94194        24.74985        -6.90646
| 98>    H        6.81721         2.14285        -7.95227
| 99>    H        3.67896        -0.36662        -4.99257
|100>    H        4.91281        -2.41115        -5.42980
|101>    H        6.76602        -3.59886        -6.53495
|102>    H        8.31923        -2.38142        -8.00849
|103>    H        8.03447         0.03549        -8.38736
|104>    H        3.75537         5.85674        -5.80064
|105>    H        0.16180         7.12587        -0.60177
|106>    H        0.18559         8.90238        -3.09820
|107>    H       -1.37341         7.39774         0.74847
|108>    H       -3.78994        10.60761         1.99521
|109>    H       -2.93281        13.29569        -1.64226
|110>    H       -3.94691        12.50251         1.14369
|111>    H       -5.84163        16.92470         1.97291
|112>    H       -5.62337        17.38260        -0.61789
|113>    H       -5.24698        12.85341        -2.21387
|114>    H       -5.51668        13.25195        -4.82349
|115>    H       -3.93546        17.65078        -2.11549
|116>    H       -5.94466        18.33681        -4.33485
|117>    H       -3.99777        19.96305        -2.59862
|118>    H       -8.58710        22.12022        -6.34094
|119>    H       -5.40470        25.17484        -4.01677
|120>    H       -6.45212        27.07689        -5.07902
|121>    H       -8.15734        28.01652        -6.58678
|122>    H       -9.74169        26.53221        -7.74995
|123>    H       -9.63425        24.09393        -7.41358
|124> *
|125>
|126>                          ****END OF INPUT****

CARTESIAN COORDINATES (ANGSTROEM)
---------------------------------
  C      3.181310    2.461260   -5.370750
  C      1.937660    2.127030   -4.906750
  C      1.493910    0.797020   -4.744500
  N      1.079210   -0.263200   -4.606140
  C      0.938970    3.073350   -4.608930
  N      0.103420    3.824650   -4.371890
  C      4.181700    1.525730   -5.862310
  C      5.100240    2.231250   -6.696200
  C      6.135550    1.594050   -7.319620
  C      6.307210    0.205630   -7.123390
  C      5.405410   -0.499200   -6.272310
  C      4.338240    0.183160   -5.645580
  C      5.597860   -1.881680   -6.075090
  C      6.627490   -2.539720   -6.691240
  C      7.512210   -1.846360   -7.531060
  C      7.355600   -0.503230   -7.742800
  C      4.744320    3.655940   -6.718480
  O      5.235930    4.554630   -7.356910
  C      3.647720    3.795240   -5.701140
  C      3.355830    5.027750   -5.223190
  C      2.646070    5.378860   -4.040510
  S      1.754100    6.859560   -3.962620
  C      1.258690    6.557180   -2.325810
  C      1.804890    5.365320   -1.864090
  C      2.590290    4.698260   -2.824590
  C      3.324630    3.519200   -2.596430
  N      3.948410    2.569060   -2.448640
  C      1.563860    4.873290   -0.474360
  F      0.247380    4.787140   -0.185510
  F      2.088100    3.678050   -0.225450
  F      2.068270    5.721410    0.449880
  C      0.401840    7.425220   -1.609300
  C     -0.108040    8.584390   -2.106200
  C     -0.997220    9.430970   -1.417950
  S     -1.416880   10.985140   -2.094020
  C     -2.467890   11.426550   -0.767190
  C     -2.501230   10.374090    0.170660
  C     -1.677010    9.273860   -0.206550
  N     -1.792270    8.313650    0.743650
  C     -2.658170    8.767120    1.713080
  C     -2.984110    7.984820    2.832340
  N     -3.250240    7.341800    3.743230
  C     -3.111820   10.033550    1.396300
  C     -3.113730   12.662720   -0.784350
  C     -3.911930   13.102330    0.246860
  C     -4.606890   14.311430    0.322870
  C     -5.038310   14.917930    1.512410
  N     -5.034930   14.385520    2.809730
  O     -5.399090   15.114340    3.715490
  O     -4.687200   13.221700    2.971800
  C     -5.462250   16.249950    1.228570
  C     -5.313060   16.492290   -0.107210
  C     -4.864400   15.299520   -0.749180
  C     -4.890240   15.050740   -2.106530
  C     -5.122260   13.779700   -2.739600
  C     -5.296460   13.981990   -4.068240
  C     -5.133940   15.386070   -4.351180
  N     -5.078710   15.856510   -5.681440
  O     -4.713310   16.998590   -5.891280
  O     -5.373850   15.061120   -6.556130
  C     -4.903540   16.070290   -3.167120
  C     -4.621200   17.445830   -2.930600
  C     -5.190430   18.494200   -3.579420
  C     -4.850400   19.829210   -3.252890
  C     -5.503980   20.930410   -3.722420
  C     -5.156960   22.320690   -3.485960
  C     -4.207650   22.793680   -2.616480
  C     -3.922070   24.162220   -2.424470
  N     -3.635960   25.255310   -2.222200
  C     -3.405850   22.000940   -1.769260
  N     -2.729830   21.423930   -1.041620
  C     -6.030170   23.142760   -4.315310
  C     -6.949520   22.292690   -4.994920
  C     -6.695300   20.892230   -4.618880
  O     -7.344190   19.922360   -4.943260
  C     -7.901480   22.786880   -5.839340
  C     -7.978930   24.181630   -6.049720
  C     -7.061100   25.039320   -5.376660
  C     -6.085970   24.498470   -4.508010
  C     -7.148790   26.429970   -5.591670
  C     -8.097270   26.950040   -6.429680
  C     -9.000010   26.104590   -7.092040
  C     -8.941940   24.749850   -6.906460
  H      6.817210    2.142850   -7.952270
  H      3.678960   -0.366620   -4.992570
  H      4.912810   -2.411150   -5.429800
  H      6.766020   -3.598860   -6.534950
  H      8.319230   -2.381420   -8.008490
  H      8.034470    0.035490   -8.387360
  H      3.755370    5.856740   -5.800640
  H      0.161800    7.125870   -0.601770
  H      0.185590    8.902380   -3.098200
  H     -1.373410    7.397740    0.748470
  H     -3.789940   10.607610    1.995210
  H     -2.932810   13.295690   -1.642260
  H     -3.946910   12.502510    1.143690
  H     -5.841630   16.924700    1.972910
  H     -5.623370   17.382600   -0.617890
  H     -5.246980   12.853410   -2.213870
  H     -5.516680   13.251950   -4.823490
  H     -3.935460   17.650780   -2.115490
  H     -5.944660   18.336810   -4.334850
  H     -3.997770   19.963050   -2.598620
  H     -8.587100   22.120220   -6.340940
  H     -5.404700   25.174840   -4.016770
  H     -6.452120   27.076890   -5.079020
  H     -8.157340   28.016520   -6.586780
  H     -9.741690   26.532210   -7.749950
  H     -9.634250   24.093930   -7.413580

 Total Charge           Charge          ....    0
 Multiplicity           Mult            ....    1
 Number of Electrons    NEL             ....  574
 Basis Dimension        Dim             .... 1300

ORBITAL ENERGIES
----------------

  NO   OCC          E(Eh)            E(eV)
   0   2.0000     -89.005159     -2421.9535
   1   2.0000     -88.998393     -2421.7694
   2   2.0000     -24.824338      -675.5046
   3   2.0000     -24.819652      -675.3771
   4   2.0000     -24.815417      -675.2618
   5   2.0000     -19.242140      -523.6053
   6   2.0000     -19.240602      -523.5634
   7   2.0000     -19.236562      -523.4535
   8   2.0000     -19.236173      -523.4429
   9   2.0000     -19.228696      -523.2394
  10   2.0000     -19.218226      -522.9545
  11   2.0000     -14.650667      -398.6649
  12   2.0000     -14.646378      -398.5482
  13   2.0000     -14.507653      -394.7733
  14   2.0000     -14.432760      -392.7354
  15   2.0000     -14.431115      -392.6906
  16   2.0000     -14.429592      -392.6492
  17   2.0000     -14.423016      -392.4702
  18   2.0000     -14.419552      -392.3759
  19   2.0000     -14.416657      -392.2972
  20   2.0000     -10.543913      -286.9145
  21   2.0000     -10.379370      -282.4370
  22   2.0000     -10.372468      -282.2492
  23   2.0000     -10.368749      -282.1480
  24   2.0000     -10.357773      -281.8493
  25   2.0000     -10.357605      -281.8448
  26   2.0000     -10.354902      -281.7712
  27   2.0000     -10.354724      -281.7664
  28   2.0000     -10.353339      -281.7287
  29   2.0000     -10.351917      -281.6900
  30   2.0000     -10.349479      -281.6236
  31   2.0000     -10.345037      -281.5028
  32   2.0000     -10.344941      -281.5002
  33   2.0000     -10.343020      -281.4479
  34   2.0000     -10.337920      -281.3091
  35   2.0000     -10.337615      -281.3008
  36   2.0000     -10.337570      -281.2996
  37   2.0000     -10.335454      -281.2420
  38   2.0000     -10.332501      -281.1616
  39   2.0000     -10.331208      -281.1265
  40   2.0000     -10.330861      -281.1170
  41   2.0000     -10.330815      -281.1158
  42   2.0000     -10.330631      -281.1108
  43   2.0000     -10.330539      -281.1083
  44   2.0000     -10.327570      -281.0275
  45   2.0000     -10.326568      -281.0002
  46   2.0000     -10.325541      -280.9723
  47   2.0000     -10.324868      -280.9539
  48   2.0000     -10.322265      -280.8831
  49   2.0000     -10.322001      -280.8759
  50   2.0000     -10.321048      -280.8500
  51   2.0000     -10.319348      -280.8037
  52   2.0000     -10.318466      -280.7797
  53   2.0000     -10.316344      -280.7220
  54   2.0000     -10.311618      -280.5934
  55   2.0000     -10.310677      -280.5678
  56   2.0000     -10.309703      -280.5413
  57   2.0000     -10.308399      -280.5058
  58   2.0000     -10.307628      -280.4848
  59   2.0000     -10.305182      -280.4183
  60   2.0000     -10.304283      -280.3938
  61   2.0000     -10.304170      -280.3907
  62   2.0000     -10.303921      -280.3839
  63   2.0000     -10.303233      -280.3652
  64   2.0000     -10.303195      -280.3642
  65   2.0000     -10.298854      -280.2461
  66   2.0000     -10.298733      -280.2428
  67   2.0000     -10.298628      -280.2399
  68   2.0000     -10.298186      -280.2279
  69   2.0000     -10.298081      -280.2250
  70   2.0000     -10.297505      -280.2094
  71   2.0000     -10.293344      -280.0961
  72   2.0000     -10.293095      -280.0894
  73   2.0000     -10.291933      -280.0577
  74   2.0000     -10.291441      -280.0443
  75   2.0000     -10.291051      -280.0337
  76   2.0000     -10.290396      -280.0159
  77   2.0000     -10.289833      -280.0006
  78   2.0000     -10.289453      -279.9903
  79   2.0000     -10.287582      -279.9393
  80   2.0000     -10.287000      -279.9235
  81   2.0000     -10.286830      -279.9189
  82   2.0000     -10.286380      -279.9066
  83   2.0000      -8.100695      -220.4311
  84   2.0000      -8.093314      -220.2303
  85   2.0000      -6.069877      -165.1697
  86   2.0000      -6.065770      -165.0580
  87   2.0000      -6.062870      -164.9791
  88   2.0000      -6.062584      -164.9713
  89   2.0000      -6.058459      -164.8591
  90   2.0000      -6.055535      -164.7795
  91   2.0000      -1.410896       -38.3924
  92   2.0000      -1.321586       -35.9622
  93   2.0000      -1.316645       -35.8277
  94   2.0000      -1.314936       -35.7812
  95   2.0000      -1.306287       -35.5459
  96   2.0000      -1.144455       -31.1422
  97   2.0000      -1.138664       -30.9846
  98   2.0000      -1.133255       -30.8374
  99   2.0000      -1.131945       -30.8018
 100   2.0000      -1.129453       -30.7340
 101   2.0000      -1.047895       -28.5147
 102   2.0000      -1.027601       -27.9624
 103   2.0000      -1.023819       -27.8595
 104   2.0000      -1.020442       -27.7676
 105   2.0000      -1.018532       -27.7157
 106   2.0000      -1.012072       -27.5399
 107   2.0000      -1.009081       -27.4585
 108   2.0000      -1.008410       -27.4402
 109   2.0000      -1.003008       -27.2932
 110   2.0000      -1.002026       -27.2665
 111   2.0000      -1.000399       -27.2222
 112   2.0000      -0.996159       -27.1069
 113   2.0000      -0.980049       -26.6685
 114   2.0000      -0.973033       -26.4776
 115   2.0000      -0.958309       -26.0769
 116   2.0000      -0.939513       -25.5654
 117   2.0000      -0.933322       -25.3970
 118   2.0000      -0.928847       -25.2752
 119   2.0000      -0.921624       -25.0787
 120   2.0000      -0.920091       -25.0369
 121   2.0000      -0.915959       -24.9245
 122   2.0000      -0.914198       -24.8766
 123   2.0000      -0.905043       -24.6275
 124   2.0000      -0.894504       -24.3407
 125   2.0000      -0.889496       -24.2044
 126   2.0000      -0.887899       -24.1610
 127   2.0000      -0.884127       -24.0583
 128   2.0000      -0.882136       -24.0041
 129   2.0000      -0.877508       -23.8782
 130   2.0000      -0.867617       -23.6091
 131   2.0000      -0.865989       -23.5648
 132   2.0000      -0.850936       -23.1551
 133   2.0000      -0.835296       -22.7296
 134   2.0000      -0.830725       -22.6052
 135   2.0000      -0.829363       -22.5681
 136   2.0000      -0.818279       -22.2665
 137   2.0000      -0.814054       -22.1515
 138   2.0000      -0.803935       -21.8762
 139   2.0000      -0.784425       -21.3453
 140   2.0000      -0.776184       -21.1210
 141   2.0000      -0.771291       -20.9879
 142   2.0000      -0.767790       -20.8926
 143   2.0000      -0.763216       -20.7682
 144   2.0000      -0.754056       -20.5189
 145   2.0000      -0.746706       -20.3189
 146   2.0000      -0.735479       -20.0134
 147   2.0000      -0.733307       -19.9543
 148   2.0000      -0.725419       -19.7397
 149   2.0000      -0.723516       -19.6879
 150   2.0000      -0.718835       -19.5605
 151   2.0000      -0.716148       -19.4874
 152   2.0000      -0.707921       -19.2635
 153   2.0000      -0.705070       -19.1859
 154   2.0000      -0.698261       -19.0007
 155   2.0000      -0.696745       -18.9594
 156   2.0000      -0.692015       -18.8307
 157   2.0000      -0.691368       -18.8131
 158   2.0000      -0.686303       -18.6753
 159   2.0000      -0.686174       -18.6718
 160   2.0000      -0.678166       -18.4538
 161   2.0000      -0.674096       -18.3431
 162   2.0000      -0.670744       -18.2519
 163   2.0000      -0.660780       -17.9807
 164   2.0000      -0.652827       -17.7643
 165   2.0000      -0.647986       -17.6326
 166   2.0000      -0.644817       -17.5464
 167   2.0000      -0.637286       -17.3414
 168   2.0000      -0.635960       -17.3054
 169   2.0000      -0.633357       -17.2345
 170   2.0000      -0.631447       -17.1825
 171   2.0000      -0.628933       -17.1141
 172   2.0000      -0.627282       -17.0692
 173   2.0000      -0.625840       -17.0300
 174   2.0000      -0.620032       -16.8719
 175   2.0000      -0.614985       -16.7346
 176   2.0000      -0.613564       -16.6959
 177   2.0000      -0.608242       -16.5511
 178   2.0000      -0.604800       -16.4575
 179   2.0000      -0.604358       -16.4454
 180   2.0000      -0.591492       -16.0953
 181   2.0000      -0.587433       -15.9849
 182   2.0000      -0.583556       -15.8794
 183   2.0000      -0.581465       -15.8225
 184   2.0000      -0.578174       -15.7329
 185   2.0000      -0.574419       -15.6307
 186   2.0000      -0.573596       -15.6083
 187   2.0000      -0.569198       -15.4887
 188   2.0000      -0.567791       -15.4504
 189   2.0000      -0.565732       -15.3944
 190   2.0000      -0.561416       -15.2769
 191   2.0000      -0.557392       -15.1674
 192   2.0000      -0.554652       -15.0929
 193   2.0000      -0.553262       -15.0550
 194   2.0000      -0.551710       -15.0128
 195   2.0000      -0.550538       -14.9809
 196   2.0000      -0.549260       -14.9461
 197   2.0000      -0.547324       -14.8934
 198   2.0000      -0.545591       -14.8463
 199   2.0000      -0.540846       -14.7172
 200   2.0000      -0.539909       -14.6917
 201   2.0000      -0.539093       -14.6695
 202   2.0000      -0.536983       -14.6121
 203   2.0000      -0.534173       -14.5356
 204   2.0000      -0.529447       -14.4070
 205   2.0000      -0.528295       -14.3756
 206   2.0000      -0.522711       -14.2237
 207   2.0000      -0.520985       -14.1767
 208   2.0000      -0.520952       -14.1758
 209   2.0000      -0.518489       -14.1088
 210   2.0000      -0.516052       -14.0425
 211   2.0000      -0.513568       -13.9749
 212   2.0000      -0.513154       -13.9636
 213   2.0000      -0.512556       -13.9474
 214   2.0000      -0.508588       -13.8394
 215   2.0000      -0.507814       -13.8183
 216   2.0000      -0.506938       -13.7945
 217   2.0000      -0.505120       -13.7450
 218   2.0000      -0.501582       -13.6487
 219   2.0000      -0.500554       -13.6208
 220   2.0000      -0.498845       -13.5743
 221   2.0000      -0.497993       -13.5511
 222   2.0000      -0.494898       -13.4669
 223   2.0000      -0.493663       -13.4333
 224   2.0000      -0.491317       -13.3694
 225   2.0000      -0.489853       -13.3296
 226   2.0000      -0.487481       -13.2650
 227   2.0000      -0.485295       -13.2055
 228   2.0000      -0.481205       -13.0942
 229   2.0000      -0.475520       -12.9396
 230   2.0000      -0.472983       -12.8705
 231   2.0000      -0.469858       -12.7855
 232   2.0000      -0.465776       -12.6744
 233   2.0000      -0.462116       -12.5748
 234   2.0000      -0.461512       -12.5584
 235   2.0000      -0.461049       -12.5458
 236   2.0000      -0.459778       -12.5112
 237   2.0000      -0.457975       -12.4621
 238   2.0000      -0.456417       -12.4197
 239   2.0000      -0.454561       -12.3692
 240   2.0000      -0.453090       -12.3292
 241   2.0000      -0.451718       -12.2919
 242   2.0000      -0.450731       -12.2650
 243   2.0000      -0.447691       -12.1823
 244   2.0000      -0.446781       -12.1575
 245   2.0000      -0.446602       -12.1526
 246   2.0000      -0.443039       -12.0557
 247   2.0000      -0.441544       -12.0150
 248   2.0000      -0.438897       -11.9430
 249   2.0000      -0.437653       -11.9092
 250   2.0000      -0.436482       -11.8773
 251   2.0000      -0.435350       -11.8465
 252   2.0000      -0.434257       -11.8167
 253   2.0000      -0.431026       -11.7288
 254   2.0000      -0.430604       -11.7173
 255   2.0000      -0.428007       -11.6467
 256   2.0000      -0.424583       -11.5535
 257   2.0000      -0.422673       -11.5015
 258   2.0000      -0.421403       -11.4670
 259   2.0000      -0.414094       -11.2681
 260   2.0000      -0.408570       -11.1178
 261   2.0000      -0.395694       -10.7674
 262   2.0000      -0.394669       -10.7395
 263   2.0000      -0.387788       -10.5523
 264   2.0000      -0.385017       -10.4769
 265   2.0000      -0.383339       -10.4312
 266   2.0000      -0.380192       -10.3456
 267   2.0000      -0.379519       -10.3272
 268   2.0000      -0.375821       -10.2266
 269   2.0000      -0.375087       -10.2066
 270   2.0000      -0.371449       -10.1076
 271   2.0000      -0.364987        -9.9318
 272   2.0000      -0.363764        -9.8985
 273   2.0000      -0.359744        -9.7891
 274   2.0000      -0.348672        -9.4878
 275   2.0000      -0.346602        -9.4315
 276   2.0000      -0.341292        -9.2870
 277   2.0000      -0.336967        -9.1693
 278   2.0000      -0.335610        -9.1324
 279   2.0000      -0.326887        -8.8950
 280   2.0000      -0.322549        -8.7770
 281   2.0000      -0.318227        -8.6594
 282   2.0000      -0.307600        -8.3702
 283   2.0000      -0.300057        -8.1650
 284   2.0000      -0.297405        -8.0928
 285   2.0000      -0.284642        -7.7455
 286   2.0000      -0.254564        -6.9270
 287   0.0000      -0.148050        -4.0287
 288   0.0000      -0.113949        -3.1007
 289   0.0000      -0.100232        -2.7275
 290   0.0000      -0.084145        -2.2897
 291   0.0000      -0.065827        -1.7912

MULLIKEN ATOMIC CHARGES
-----------------------
   0 C :    0.260666
   1 C :   -0.305156
   2 C :   -0.179303
   3 N :    0.168358
   4 C :   -0.192144
   5 N :    0.160218
   6 C :    0.037445
   7 C :    0.019329
   8 C :   -0.079973
   9 C :    0.096093
  10 C :    0.092483
  11 C :   -0.067605
  12 C :   -0.016015
  13 C :    0.037231
  14 C :    0.036702
  15 C :   -0.014638
  16 C :    0.136174
  17 O :   -0.132939
  18 C :   -0.114177
  19 C :    0.056926
  20 C :   -0.105305
  21 S :    0.194539
  22 C :   -0.074892
  23 C :   -0.042724
  24 C :   -0.009676
  25 C :   -0.269599
  26 N :    0.189462
  27 C :    0.514169
  28 F :   -0.171640
  29 F :   -0.123580
  30 F :   -0.167524
  31 C :    0.007490
  32 C :    0.066498
  33 C :   -0.174317
  34 S :    0.184404
  35 C :   -0.158557
  36 C :    0.131943
  37 C :    0.099648
  38 N :   -0.021460
  39 C :   -0.090594
  40 C :   -0.145816
  41 N :    0.187460
  42 C :   -0.043017
  43 C :    0.073261
  44 C :   -0.063774
  45 C :    0.062199
  46 C :    0.069572
  47 N :    0.281182
  48 O :   -0.248127
  49 O :   -0.271991
  50 C :    0.035213
  51 C :   -0.019694
  52 C :    0.030356
  53 C :    0.024096
  54 C :   -0.010560
  55 C :    0.007350
  56 C :    0.084302
  57 N :    0.262118
  58 O :   -0.237463
  59 O :   -0.242775
  60 C :    0.065467
  61 C :   -0.071063
  62 C :    0.071073
  63 C :   -0.061671
  64 C :   -0.055094
  65 C :    0.329348
  66 C :   -0.348110
  67 C :   -0.182232
  68 N :    0.151169
  69 C :   -0.192167
  70 N :    0.148094
  71 C :    0.046742
  72 C :   -0.004392
  73 C :    0.149004
  74 O :   -0.144100
  75 C :   -0.076015
  76 C :    0.097321
  77 C :    0.096187
  78 C :   -0.082522
  79 C :   -0.018971
  80 C :    0.034980
  81 C :    0.036552
  82 C :   -0.015633
  83 H :   -0.009044
  84 H :    0.002819
  85 H :   -0.006861
  86 H :   -0.000801
  87 H :   -0.002664
  88 H :   -0.015252
  89 H :    0.032847
  90 H :   -0.022832
  91 H :   -0.005681
  92 H :    0.146296
  93 H :    0.030232
  94 H :    0.008452
  95 H :    0.003186
  96 H :    0.013342
  97 H :    0.001085
  98 H :    0.006253
  99 H :    0.005381
 100 H :    0.028749
 101 H :    0.033851
 102 H :    0.015179
 103 H :   -0.010902
 104 H :   -0.007922
 105 H :   -0.008492
 106 H :   -0.003186
 107 H :   -0.004123
 108 H :   -0.015736
Sum of atomic charges:   -0.0000000

LOEWDIN ATOMIC CHARGES
----------------------
   0 C :    0.071341
   1 C :   -0.124482
   2 C :   -0.017242
   3 N :   -0.039948
   4 C :   -0.015396
   5 N :   -0.050485
   6 C :   -0.018791
   7 C :   -0.058955
   8 C :    0.036662
   9 C :   -0.007526
  10 C :   -0.002690
  11 C :    0.027093
  12 C :   -0.003552
  13 C :   -0.009754
  14 C :   -0.010174
  15 C :   -0.008154
  16 C :    0.086962
  17 O :   -0.132730
  18 C :   -0.056925
  19 C :    0.025040
  20 C :   -0.146442
  21 S :    0.504165
  22 C :   -0.126287
  23 C :   -0.096852
  24 C :   -0.075997
  25 C :   -0.035802
  26 N :   -0.032587
  27 C :    0.172604
  28 F :   -0.067376
  29 F :   -0.022426
  30 F :   -0.069711
  31 C :   -0.048459
  32 C :   -0.020598
  33 C :   -0.185682
  34 S :    0.479686
  35 C :   -0.165839
  36 C :   -0.050648
  37 C :   -0.000537
  38 N :    0.088439
  39 C :   -0.013176
  40 C :   -0.045053
  41 N :   -0.017255
  42 C :   -0.024464
  43 C :   -0.001310
  44 C :   -0.019088
  45 C :    0.019717
  46 C :   -0.068164
  47 N :    0.287840
  48 O :   -0.212445
  49 O :   -0.236543
  50 C :    0.043222
  51 C :   -0.055720
  52 C :    0.048575
  53 C :    0.021995
  54 C :   -0.040036
  55 C :   -0.002532
  56 C :   -0.029966
  57 N :    0.283069
  58 O :   -0.199471
  59 O :   -0.206774
  60 C :   -0.005628
  61 C :    0.006802
  62 C :    0.008651
  63 C :    0.061676
  64 C :   -0.078126
  65 C :    0.075352
  66 C :   -0.135830
  67 C :   -0.017212
  68 N :   -0.051220
  69 C :   -0.019434
  70 N :   -0.053025
  71 C :   -0.026010
  72 C :   -0.055556
  73 C :    0.085510
  74 O :   -0.135630
  75 C :    0.033765
  76 C :   -0.007399
  77 C :   -0.005787
  78 C :    0.020143
  79 C :   -0.005077
  80 C :   -0.012875
  81 C :   -0.011291
  82 C :   -0.009061
  83 H :    0.040438
  84 H :    0.041938
  85 H :    0.035934
  86 H :    0.034614
  87 H :    0.033847
  88 H :    0.032603
  89 H :    0.050175
  90 H :    0.024033
  91 H :    0.030140
  92 H :    0.099469
  93 H :    0.046801
  94 H :    0.036248
  95 H :    0.035977
  96 H :    0.042691
  97 H :    0.032074
  98 H :    0.031467
  99 H :    0.037921
 100 H :    0.039355
 101 H :    0.033913
 102 H :    0.042297
 103 H :    0.039756
 104 H :    0.039046
 105 H :    0.034921
 106 H :    0.033651
 107 H :    0.033177
 108 H :    0.032407

  Mayer bond orders larger than 0.100000
B(  0-C ,  1-C ) :   1.6611 B(  0-C ,  6-C ) :   1.0075 B(  0-C , 18-C ) :   1.0132
B(  1-C ,  2-C ) :   1.1342 B(  1-C ,  4-C ) :   1.1720 B(  2-C ,  3-N ) :   2.9978
B(  4-C ,  5-N ) :   2.9919 B(  6-C ,  7-C ) :   1.2112 B(  6-C , 11-C ) :   1.4567
B(  7-C ,  8-C ) :   1.4630 B(  7-C , 16-C ) :   0.9274 B(  8-C ,  9-C ) :   1.1892
B(  8-C , 83-H ) :   1.0171 B(  9-C , 10-C ) :   1.2526 B(  9-C , 15-C ) :   1.2437
B( 10-C , 11-C ) :   1.2086 B( 10-C , 12-C ) :   1.2401 B( 11-C , 84-H ) :   0.9937
B( 12-C , 13-C ) :   1.4903 B( 12-C , 85-H ) :   0.9981 B( 13-C , 14-C ) :   1.2593
B( 13-C , 86-H ) :   0.9884 B( 14-C , 15-C ) :   1.4895 B( 14-C , 87-H ) :   0.9889
B( 15-C , 88-H ) :   0.9982 B( 16-C , 17-O ) :   2.2781 B( 16-C , 18-C ) :   0.9210
B( 18-C , 19-C ) :   1.7422 B( 19-C , 20-C ) :   1.0745 B( 19-C , 89-H ) :   0.9259
B( 20-C , 21-S ) :   1.1364 B( 20-C , 24-C ) :   1.4832 B( 21-S , 22-C ) :   1.1386
B( 22-C , 23-C ) :   1.4713 B( 22-C , 31-C ) :   1.1984 B( 23-C , 24-C ) :   1.3263
B( 23-C , 27-C ) :   0.9373 B( 24-C , 25-C ) :   1.1456 B( 25-C , 26-N ) :   2.9940
B( 27-C , 28-F ) :   1.1373 B( 27-C , 29-F ) :   1.1924 B( 27-C , 30-F ) :   1.1602
B( 31-C , 32-C ) :   1.6074 B( 31-C , 90-H ) :   0.9476 B( 32-C , 33-C ) :   1.1877
B( 32-C , 91-H ) :   0.9491 B( 33-C , 34-S ) :   1.1237 B( 33-C , 37-C ) :   1.3254
B( 34-S , 35-C ) :   1.1219 B( 35-C , 36-C ) :   1.2319 B( 35-C , 43-C ) :   1.2610
B( 36-C , 37-C ) :   1.2624 B( 36-C , 42-C ) :   1.2021 B( 37-C , 38-N ) :   1.1985
B( 38-N , 39-C ) :   1.2159 B( 38-N , 92-H ) :   0.9269 B( 39-C , 40-C ) :   1.0557
B( 39-C , 42-C ) :   1.5659 B( 40-C , 41-N ) :   3.0565 B( 42-C , 93-H ) :   1.0052
B( 43-C , 44-C ) :   1.4501 B( 43-C , 94-H ) :   0.9508 B( 44-C , 45-C ) :   1.2960
B( 44-C , 95-H ) :   0.9462 B( 45-C , 46-C ) :   1.4226 B( 45-C , 52-C ) :   0.9822
B( 46-C , 47-N ) :   0.9709 B( 46-C , 50-C ) :   1.1623 B( 47-N , 48-O ) :   1.5358
B( 47-N , 49-O ) :   1.4697 B( 48-O , 49-O ) :   0.2475 B( 50-C , 51-C ) :   1.5130
B( 50-C , 96-H ) :   1.0096 B( 51-C , 52-C ) :   1.1802 B( 51-C , 97-H ) :   1.0015
B( 52-C , 53-C ) :   1.4711 B( 53-C , 54-C ) :   1.1156 B( 53-C , 60-C ) :   1.0654
B( 54-C , 55-C ) :   1.5782 B( 54-C , 98-H ) :   1.0019 B( 55-C , 56-C ) :   1.1370
B( 55-C , 99-H ) :   1.0100 B( 56-C , 57-N ) :   0.9341 B( 56-C , 60-C ) :   1.5353
B( 57-N , 58-O ) :   1.5225 B( 57-N , 59-O ) :   1.5314 B( 58-O , 59-O ) :   0.2675
B( 60-C , 61-C ) :   1.0661 B( 61-C , 62-C ) :   1.6222 B( 61-C ,100-H ) :   0.9543
B( 62-C , 63-C ) :   1.1513 B( 62-C ,101-H ) :   0.9672 B( 63-C , 64-C ) :   1.5679
B( 63-C ,102-H ) :   0.9629 B( 64-C , 65-C ) :   1.0563 B( 64-C , 73-C ) :   0.9334
B( 65-C , 66-C ) :   1.6313 B( 65-C , 71-C ) :   0.9934 B( 66-C , 67-C ) :   1.1450
B( 66-C , 69-C ) :   1.1474 B( 67-C , 68-N ) :   2.9643 B( 69-C , 70-N ) :   2.9661
B( 71-C , 72-C ) :   1.2134 B( 71-C , 78-C ) :   1.4492 B( 72-C , 73-C ) :   0.9408
B( 72-C , 75-C ) :   1.4739 B( 73-C , 74-O ) :   2.2096 B( 75-C , 76-C ) :   1.1832
B( 75-C ,103-H ) :   1.0150 B( 76-C , 77-C ) :   1.2539 B( 76-C , 82-C ) :   1.2437
B( 77-C , 78-C ) :   1.2105 B( 77-C , 79-C ) :   1.2395 B( 78-C ,104-H ) :   0.9885
B( 79-C , 80-C ) :   1.4920 B( 79-C ,105-H ) :   0.9968 B( 80-C , 81-C ) :   1.2588
B( 80-C ,106-H ) :   0.9881 B( 81-C , 82-C ) :   1.4909 B( 81-C ,107-H ) :   0.9884
B( 82-C ,108-H ) :   0.9975

-----------------------------------------------------------------------------
         ABSORPTION SPECTRUM VIA TRANSITION ELECTRIC DIPOLE MOMENTS
-----------------------------------------------------------------------------
State   Energy  Wavelength   fosc         T2         TX        TY        TZ
        (cm-1)    (nm)                  (au**2)     (au)      (au)      (au)
-----------------------------------------------------------------------------
   0    7666.6   1304.4   0.552160367  23.71049  -2.32667   4.26947  -0.26222
   1   13142.7    760.9   0.025210414   0.63150   0.47224   0.55120  -0.32352
   2   17106.7    584.6   0.976508086  18.79251   2.27935  -2.93695  -2.22966
   3   19752.0    506.3   0.233255739   3.88774   0.82245  -1.71083  -0.53329
   4   20698.6    483.1   0.032662064   0.51949   0.43351   0.57477   0.03464
   5   21187.4    472.0   0.006750373   0.10489  -0.27781  -0.05630  -0.15666
   6   22745.2    439.7   0.504782347   7.30616   0.58214  -2.55122   0.67718
   7   23234.2    430.4   0.022917370   0.32472   0.02380   0.13334   0.55351
   8   23565.6    424.3   0.097604558   1.36354  -0.23828   1.13194   0.15959
   9   23623.0    423.3   0.112015504   1.56106  -0.90079   0.15874   0.85114
  10   24102.4    414.9   0.086064152   1.17554   0.04555   1.08308   0.01994
  11   24265.5    412.1   0.009989838   0.13553  -0.17160  -0.29386  -0.14047
  12   25633.2    390.1   0.032410640   0.41626   0.20674   0.34735   0.50286
  13   26368.1    379.2   0.017135286   0.21394   0.30314   0.25679  -0.23686
  14   26417.9    378.5   0.013912725   0.17338  -0.12927  -0.26735  -0.29187
  15   26836.8    372.6   0.007381164   0.09055  -0.06099   0.24681   0.16097
  16   26971.9    370.8   0.163526310   1.99596   0.62261  -0.40587  -1.20149
  17   27175.9    368.0   0.118561153   1.43626   0.30480  -1.05701   0.47549
  18   27369.7    365.4   0.061391520   0.73844  -0.65280  -0.32339   0.45574
  19   27704.9    360.9   0.116425950   1.38347   0.48956  -0.66062   0.84105
  20   28114.8    355.7   0.260207939   3.04692   0.63449  -1.18706  -1.11141
  21   28363.5    352.6   0.041130256   0.47739  -0.55506  -0.07011  -0.40545
  22   28388.0    352.3   0.132039525   1.53124  -0.18552   0.82687   0.90173
  23   29493.7    339.1   0.114955164   1.28314  -0.76641   0.42624  -0.71699
  24   29936.7    334.0   0.031542062   0.34687  -0.08536   0.57361  -0.10272
  25   30465.1    328.2   0.066734238   0.72114  -0.03267  -0.51268   0.67619
  26   30559.0    327.2   0.021567067   0.23234   0.16384   0.44584   0.08201
  27   30734.7    325.4   0.039836787   0.42671  -0.17401   0.53566   0.33090
  28   30841.1    324.2   0.018482577   0.19729   0.36962  -0.20170  -0.14139
  29   30879.3    323.8   0.112207439   1.19627   0.47011  -0.09685   0.98280
  30   31074.4    321.8   0.006338609   0.06715   0.04412   0.24047   0.08592
  31   31739.3    315.1   0.108850507   1.12904   0.29537  -0.64602  -0.79022
  32   31801.0    314.5   0.022490407   0.23283  -0.00065  -0.11603  -0.46836
  33   32167.2    310.9   0.074455426   0.76201   0.48454  -0.65362  -0.31623
  34   32360.3    309.0   0.047916928   0.48748  -0.03245   0.22326   0.66074
  35   32998.9    303.0   0.075269011   0.75092   0.43698  -0.24735   0.70625
  36   33045.9    302.6   0.620862051   6.18520  -2.03937   1.15728   0.82876
  37   33116.0    302.0   0.052950028   0.52639  -0.30065  -0.25625  -0.60855
  38   33261.8    300.6   0.046165368   0.45693   0.64126  -0.16378  -0.13741
  39   33501.2    298.5   0.459084681   4.51137   0.78065  -1.06340   1.66468
  40   33546.0    298.1   0.023346064   0.22911   0.45739  -0.13746  -0.03184
  41   33697.3    296.8   0.148242697   1.44829  -0.57947   0.42189   0.96670
  42   33920.8    294.8   0.072397241   0.70264  -0.35751   0.73137   0.19979
  43   34194.4    292.4   0.070147880   0.67536  -0.01746  -0.42906   0.70069
  44   34395.2    290.7   0.165477853   1.58386  -0.79500   0.46153  -0.85955
  45   34953.8    286.1   0.033344912   0.31406  -0.21345   0.47044   0.21722
  46   35206.3    284.0   0.027234907   0.25467  -0.16389  -0.20825  -0.42947
  47   35437.1    282.2   0.041299981   0.38368  -0.34777   0.50571  -0.08359
  48   35560.1    281.2   0.016026776   0.14837  -0.36602   0.03223   0.11560
  49   35913.9    278.4   0.166053336   1.52216   0.84355  -0.65979   0.61259
  50   36082.8    277.1   0.096815036   0.88332   0.46807  -0.70431  -0.41008
  51   36439.4    274.4   0.089030135   0.80434  -0.01111   0.17314  -0.87991
  52   36752.7    272.1   0.143493670   1.28534   0.66064  -0.58710   0.71008
  53   36889.5    271.1   0.085310265   0.76133  -0.06462  -0.15109   0.85693
  54   36993.6    270.3   0.022323340   0.19866   0.20387  -0.39263  -0.05417
  55   37146.2    269.2   0.002540752   0.02252   0.01331  -0.05859  -0.13750
  56   37283.3    268.2   0.004744443   0.04189   0.14491  -0.13741   0.04486
  57   37607.7    265.9   0.032684145   0.28611  -0.50278   0.18154  -0.01919
  58   37653.2    265.6   0.103583488   0.90566   0.44925  -0.83893  -0.00586
  59   37941.4    263.6   0.101752183   0.88289   0.11245  -0.04999  -0.93153
  60   38190.7    261.8   0.066023662   0.56914  -0.51685   0.12654  -0.53478
  61   38229.4    261.6   0.127240841   1.09573   0.96163   0.35943  -0.20447
  62   38501.7    259.7   0.010351756   0.08851  -0.08332  -0.27251  -0.08549
  63   38625.9    258.9   0.027411585   0.23363  -0.23259   0.29057  -0.30838
  64   39426.1    253.6   0.023419966   0.19556  -0.15985  -0.38152   0.15635
  65   39605.1    252.5   0.154738429   1.28624   0.65068   0.80359   0.46594
  66   39698.4    251.9   0.007562513   0.06271  -0.22531   0.10038  -0.04331
  67   40000.7    250.0   0.034817154   0.28655  -0.30586   0.06027  -0.43516
  68   40089.6    249.4   0.039200198   0.32191  -0.22668  -0.14317   0.50003
  69   40119.0    249.3   0.036567064   0.30006   0.17638   0.48492  -0.18388
  70   40224.0    248.6   0.110188325   0.90183  -0.64427   0.29244   0.63343

FINAL SINGLE POINT ENERGY     -4451.226769842562

DIPOLE MOMENT
-------------
                                X             Y             Z
Electronic contribution:     21.91235     -49.08706      26.01961
Nuclear contribution   :    -20.71197      48.44173     -29.10858
                        -----------------------------------------
Total Dipole Moment    :      1.20038      -0.64532      -3.08896
                        -----------------------------------------
Magnitude (a.u.)       :      3.37625
Magnitude (Debye)      :      8.58174

Rotational constants in cm-1:     0.001311     0.000172     0.000159
Rotational constants in MHz :    39.299449     5.171325     4.756363

                             ****ORCA TERMINATED NORMALLY****
TOTAL RUN TIME: 0 days 0 hours 13 minutes 40 seconds 348 msec
