                         Program Version 4.2.0 -  RELEASE  -
|  1> # ORCA input file
|  2> # SCF done       -207.350199221465          0.000903521832
|  3> ! CAM-B3LYP def2-SVP def2/J RIJCOSX Grid4 TightSCF
|  4> %maxcore 5000
|  5> %tddft
|  6>     Mode sTDDFT
|  7>     Ethresh 5.0
|  8>     maxcore 5000
|  9> end
| 10>
| 11> %pal
| 12>   nprocs 6
| 13>   end
| 14> * xyz 0 1
| 15>    C       -6.02820         8.43372        -9.64041
| 16>    C       -6.80206         9.55042        -9.78057
| 17>    C       -7.78478         9.71501       -10.78065
| 18>    N       -8.59179         9.90126       -11.57437
| 19>    C       -6.68351        10.69205        -8.95840
| 20>    N       -6.59438        11.65228        -8.33680
| 21>    C       -6.03386         7.25289       -10.49328
| 22>    C       -5.02048         6.34798       -10.05203
| 23>    C       -4.79424         5.15677       -10.68220
| 24>    C       -5.58366         4.80687       -11.79938
| 25>    C       -6.60073         5.70220       -12.24346
| 26>    C       -6.81269         6.92821       -11.57354
| 27>    C       -7.38390         5.34047       -13.35858
| 28>    C       -7.17369         4.15293       -14.00539
| 29>    C       -6.17222         3.27290       -13.56781
| 30>    C       -5.39404         3.59256       -12.48826
| 31>    C       -4.34462         6.90989        -8.87973
| 32>    O       -3.43701         6.44761        -8.22159
| 33>    C       -5.01339         8.21531        -8.62055
| 34>    C       -4.68718         8.93640        -7.53040
| 35>    C       -3.67792         8.47135        -6.59802
| 36>    C       -3.98958         7.88291        -5.40017
| 37>    N       -5.30499         7.64195        -4.97634
| 38>    O       -5.47561         7.12347        -3.89092
| 39>    O       -6.20322         7.98131        -5.73661
| 40>    C       -2.78065         7.48252        -4.70921
| 41>    C       -1.73146         7.87998        -5.45329
| 42>    C       -2.21279         8.56314        -6.64493
| 43>    C       -1.47601         9.19179        -7.61273
| 44>    C       -1.92620         9.54373        -8.93616
| 45>    C       -0.84541         9.75569        -9.72101
| 46>    C        0.34692         9.66060        -8.90958
| 47>    N        1.63258         9.90991        -9.42417
| 48>    O        2.58450         9.87639        -8.66034
| 49>    O        1.72099        10.13786       -10.61708
| 50>    C       -0.00700         9.39654        -7.60067
| 51>    C        0.84362         9.44910        -6.46240
| 52>    C        0.43215         9.86007        -5.24341
| 53>    C        1.26560         9.93355        -4.05895
| 54>    C        2.60748        10.02406        -4.13618
| 55>    C        0.57137         9.91849        -2.78099
| 56>    S       -1.17280         9.95629        -2.69725
| 57>    C       -1.16017         9.90367        -0.97294
| 58>    C       -2.45297         9.86202        -0.24284
| 59>    C        0.12670         9.85099        -0.48342
| 60>    C        1.09427         9.84481        -1.52299
| 61>    C        0.52561         9.78512         0.90478
| 62>    C       -0.13408        10.31867         1.94298
| 63>    C        0.30734        10.25546         3.32165
| 64>    C       -0.14202        11.21794         4.22754
| 65>    C        0.27523        11.20992         5.54586
| 66>    N       -0.09381        12.36089         6.33997
| 67>    O       -1.19137        12.83414         6.15111
| 68>    O        0.74402        12.81483         7.08872
| 69>    C        1.11932        10.20312         6.04246
| 70>    C        1.57877         9.25592         5.11936
| 71>    C        1.18947         9.27877         3.79933
| 72>    C        1.47939        10.05802         7.43518
| 73>    C        0.67371        10.32971         8.48271
| 74>    C        1.11619        10.15306         9.82223
| 75>    C        0.36874        10.42749        10.92452
| 76>    C        0.79842        10.33473        12.31078
| 77>    C        1.91062         9.68673        12.77892
| 78>    C        2.26308         9.60736        14.14295
| 79>    N        2.60689         9.50892        15.23370
| 80>    C        2.83194         8.97519        11.98193
| 81>    N        3.61158         8.36276        11.40232
| 82>    C       -0.20325        11.00628        13.12874
| 83>    C       -1.28671        11.40121        12.29215
| 84>    C       -1.00850        10.99819        10.90300
| 85>    O       -1.75226        11.10082         9.95247
| 86>    C       -2.37696        12.05768        12.78601
| 87>    C       -2.43267        12.36034        14.16485
| 88>    C       -1.35154        11.97171        15.00815
| 89>    C       -0.23698        11.29024        14.46898
| 90>    C       -1.41699        12.28107        16.38224
| 91>    C       -2.49683        12.94269        16.90001
| 92>    C       -3.55999        13.32611        16.06859
| 93>    C       -3.52885        13.04077        14.73051
| 94>    H       -4.02171         4.48920       -10.33042
| 95>    H       -7.59130         7.58342       -11.93111
| 96>    H       -8.15340         6.02087       -13.69207
| 97>    H       -7.77843         3.88486       -14.85846
| 98>    H       -6.02060         2.34043       -14.09022
| 99>    H       -4.62194         2.91904       -12.14664
|100>    H       -5.21048         9.84930        -7.27377
|101>    H       -2.77821         6.93931        -3.78444
|102>    H       -0.69805         7.68749        -5.24824
|103>    H       -2.94914         9.54559        -9.25193
|104>    H       -0.82518         9.97857       -10.77113
|105>    H        1.88777         9.23036        -6.64120
|106>    H       -0.59951        10.16022        -5.11201
|107>    H        3.11194        10.07515        -5.08371
|108>    H        3.22487        10.08969        -3.25951
|109>    H       -3.22736         9.42592        -0.87101
|110>    H       -2.77744        10.86661         0.03362
|111>    H       -2.35575         9.27046         0.66598
|112>    H        2.14839         9.79769        -1.31750
|113>    H        1.47970         9.30154         1.07062
|114>    H       -1.02760        10.90041         1.77159
|115>    H       -0.79584        12.01293         3.89844
|116>    H        2.23428         8.47253         5.46946
|117>    H        1.55418         8.51548         3.12973
|118>    H        2.45418         9.62381         7.62266
|119>    H       -0.33699        10.68331         8.33985
|120>    H        2.13855         9.81928         9.94830
|121>    H       -3.18515        12.34669        12.13068
|122>    H        0.56885        11.01621        15.13140
|123>    H       -0.59614        11.98341        17.01814
|124>    H       -2.53777        13.17491        17.95366
|125>    H       -4.40350        13.84908        16.49388
|126>    H       -4.34420        13.33382        14.08547
|127> *
|128>
|129>                          ****END OF INPUT****

CARTESIAN COORDINATES (ANGSTROEM)
---------------------------------
  C     -6.028200    8.433720   -9.640410
  C     -6.802060    9.550420   -9.780570
  C     -7.784780    9.715010  -10.780650
  N     -8.591790    9.901260  -11.574370
  C     -6.683510   10.692050   -8.958400
  N     -6.594380   11.652280   -8.336800
  C     -6.033860    7.252890  -10.493280
  C     -5.020480    6.347980  -10.052030
  C     -4.794240    5.156770  -10.682200
  C     -5.583660    4.806870  -11.799380
  C     -6.600730    5.702200  -12.243460
  C     -6.812690    6.928210  -11.573540
  C     -7.383900    5.340470  -13.358580
  C     -7.173690    4.152930  -14.005390
  C     -6.172220    3.272900  -13.567810
  C     -5.394040    3.592560  -12.488260
  C     -4.344620    6.909890   -8.879730
  O     -3.437010    6.447610   -8.221590
  C     -5.013390    8.215310   -8.620550
  C     -4.687180    8.936400   -7.530400
  C     -3.677920    8.471350   -6.598020
  C     -3.989580    7.882910   -5.400170
  N     -5.304990    7.641950   -4.976340
  O     -5.475610    7.123470   -3.890920
  O     -6.203220    7.981310   -5.736610
  C     -2.780650    7.482520   -4.709210
  C     -1.731460    7.879980   -5.453290
  C     -2.212790    8.563140   -6.644930
  C     -1.476010    9.191790   -7.612730
  C     -1.926200    9.543730   -8.936160
  C     -0.845410    9.755690   -9.721010
  C      0.346920    9.660600   -8.909580
  N      1.632580    9.909910   -9.424170
  O      2.584500    9.876390   -8.660340
  O      1.720990   10.137860  -10.617080
  C     -0.007000    9.396540   -7.600670
  C      0.843620    9.449100   -6.462400
  C      0.432150    9.860070   -5.243410
  C      1.265600    9.933550   -4.058950
  C      2.607480   10.024060   -4.136180
  C      0.571370    9.918490   -2.780990
  S     -1.172800    9.956290   -2.697250
  C     -1.160170    9.903670   -0.972940
  C     -2.452970    9.862020   -0.242840
  C      0.126700    9.850990   -0.483420
  C      1.094270    9.844810   -1.522990
  C      0.525610    9.785120    0.904780
  C     -0.134080   10.318670    1.942980
  C      0.307340   10.255460    3.321650
  C     -0.142020   11.217940    4.227540
  C      0.275230   11.209920    5.545860
  N     -0.093810   12.360890    6.339970
  O     -1.191370   12.834140    6.151110
  O      0.744020   12.814830    7.088720
  C      1.119320   10.203120    6.042460
  C      1.578770    9.255920    5.119360
  C      1.189470    9.278770    3.799330
  C      1.479390   10.058020    7.435180
  C      0.673710   10.329710    8.482710
  C      1.116190   10.153060    9.822230
  C      0.368740   10.427490   10.924520
  C      0.798420   10.334730   12.310780
  C      1.910620    9.686730   12.778920
  C      2.263080    9.607360   14.142950
  N      2.606890    9.508920   15.233700
  C      2.831940    8.975190   11.981930
  N      3.611580    8.362760   11.402320
  C     -0.203250   11.006280   13.128740
  C     -1.286710   11.401210   12.292150
  C     -1.008500   10.998190   10.903000
  O     -1.752260   11.100820    9.952470
  C     -2.376960   12.057680   12.786010
  C     -2.432670   12.360340   14.164850
  C     -1.351540   11.971710   15.008150
  C     -0.236980   11.290240   14.468980
  C     -1.416990   12.281070   16.382240
  C     -2.496830   12.942690   16.900010
  C     -3.559990   13.326110   16.068590
  C     -3.528850   13.040770   14.730510
  H     -4.021710    4.489200  -10.330420
  H     -7.591300    7.583420  -11.931110
  H     -8.153400    6.020870  -13.692070
  H     -7.778430    3.884860  -14.858460
  H     -6.020600    2.340430  -14.090220
  H     -4.621940    2.919040  -12.146640
  H     -5.210480    9.849300   -7.273770
  H     -2.778210    6.939310   -3.784440
  H     -0.698050    7.687490   -5.248240
  H     -2.949140    9.545590   -9.251930
  H     -0.825180    9.978570  -10.771130
  H      1.887770    9.230360   -6.641200
  H     -0.599510   10.160220   -5.112010
  H      3.111940   10.075150   -5.083710
  H      3.224870   10.089690   -3.259510
  H     -3.227360    9.425920   -0.871010
  H     -2.777440   10.866610    0.033620
  H     -2.355750    9.270460    0.665980
  H      2.148390    9.797690   -1.317500
  H      1.479700    9.301540    1.070620
  H     -1.027600   10.900410    1.771590
  H     -0.795840   12.012930    3.898440
  H      2.234280    8.472530    5.469460
  H      1.554180    8.515480    3.129730
  H      2.454180    9.623810    7.622660
  H     -0.336990   10.683310    8.339850
  H      2.138550    9.819280    9.948300
  H     -3.185150   12.346690   12.130680
  H      0.568850   11.016210   15.131400
  H     -0.596140   11.983410   17.018140
  H     -2.537770   13.174910   17.953660
  H     -4.403500   13.849080   16.493880
  H     -4.344200   13.333820   14.085470

 Total Charge           Charge          ....    0
 Multiplicity           Mult            ....    1
 Number of Electrons    NEL             ....  540
 Basis Dimension        Dim             .... 1275

ORBITAL ENERGIES
----------------

  NO   OCC          E(Eh)            E(eV)
   0   2.0000     -88.965188     -2420.8658
   1   2.0000     -19.251776      -523.8675
   2   2.0000     -19.249662      -523.8099
   3   2.0000     -19.245854      -523.7063
   4   2.0000     -19.244233      -523.6622
   5   2.0000     -19.240273      -523.5544
   6   2.0000     -19.239223      -523.5259
   7   2.0000     -19.233922      -523.3816
   8   2.0000     -19.214746      -522.8598
   9   2.0000     -14.657641      -398.8547
  10   2.0000     -14.649864      -398.6431
  11   2.0000     -14.648938      -398.6179
  12   2.0000     -14.427569      -392.5941
  13   2.0000     -14.426678      -392.5699
  14   2.0000     -14.414945      -392.2506
  15   2.0000     -14.413049      -392.1990
  16   2.0000     -10.380583      -282.4700
  17   2.0000     -10.365307      -282.0543
  18   2.0000     -10.356859      -281.8245
  19   2.0000     -10.353126      -281.7229
  20   2.0000     -10.340593      -281.3818
  21   2.0000     -10.339325      -281.3473
  22   2.0000     -10.338864      -281.3348
  23   2.0000     -10.338488      -281.3246
  24   2.0000     -10.337752      -281.3045
  25   2.0000     -10.336827      -281.2794
  26   2.0000     -10.334790      -281.2239
  27   2.0000     -10.333270      -281.1826
  28   2.0000     -10.331140      -281.1246
  29   2.0000     -10.329103      -281.0692
  30   2.0000     -10.328389      -281.0497
  31   2.0000     -10.327723      -281.0316
  32   2.0000     -10.317777      -280.7610
  33   2.0000     -10.315863      -280.7089
  34   2.0000     -10.315470      -280.6982
  35   2.0000     -10.313837      -280.6538
  36   2.0000     -10.313038      -280.6320
  37   2.0000     -10.312792      -280.6253
  38   2.0000     -10.311564      -280.5919
  39   2.0000     -10.309389      -280.5327
  40   2.0000     -10.308661      -280.5129
  41   2.0000     -10.308452      -280.5072
  42   2.0000     -10.308346      -280.5044
  43   2.0000     -10.308177      -280.4998
  44   2.0000     -10.306853      -280.4637
  45   2.0000     -10.306177      -280.4453
  46   2.0000     -10.305888      -280.4375
  47   2.0000     -10.305443      -280.4254
  48   2.0000     -10.304182      -280.3911
  49   2.0000     -10.302112      -280.3347
  50   2.0000     -10.301750      -280.3249
  51   2.0000     -10.300914      -280.3021
  52   2.0000     -10.300565      -280.2926
  53   2.0000     -10.300420      -280.2887
  54   2.0000     -10.298098      -280.2255
  55   2.0000     -10.298007      -280.2230
  56   2.0000     -10.297120      -280.1989
  57   2.0000     -10.296072      -280.1704
  58   2.0000     -10.295955      -280.1672
  59   2.0000     -10.295713      -280.1606
  60   2.0000     -10.295610      -280.1578
  61   2.0000     -10.295344      -280.1505
  62   2.0000     -10.294977      -280.1406
  63   2.0000     -10.294837      -280.1368
  64   2.0000     -10.294316      -280.1226
  65   2.0000     -10.293968      -280.1131
  66   2.0000     -10.291541      -280.0471
  67   2.0000     -10.290173      -280.0098
  68   2.0000     -10.289234      -279.9843
  69   2.0000     -10.286820      -279.9186
  70   2.0000     -10.286380      -279.9066
  71   2.0000     -10.286364      -279.9062
  72   2.0000     -10.284947      -279.8676
  73   2.0000     -10.284534      -279.8564
  74   2.0000     -10.284325      -279.8507
  75   2.0000     -10.284158      -279.8462
  76   2.0000     -10.283972      -279.8411
  77   2.0000     -10.283704      -279.8338
  78   2.0000     -10.281698      -279.7792
  79   2.0000      -8.060538      -219.3384
  80   2.0000      -6.029630      -164.0746
  81   2.0000      -6.025537      -163.9632
  82   2.0000      -6.023059      -163.8958
  83   2.0000      -1.328869       -36.1604
  84   2.0000      -1.326482       -36.0954
  85   2.0000      -1.319139       -35.8956
  86   2.0000      -1.148759       -31.2593
  87   2.0000      -1.147197       -31.2168
  88   2.0000      -1.145619       -31.1739
  89   2.0000      -1.136519       -30.9263
  90   2.0000      -1.129705       -30.7408
  91   2.0000      -1.030183       -28.0327
  92   2.0000      -1.024199       -27.8699
  93   2.0000      -1.016415       -27.6581
  94   2.0000      -1.009960       -27.4824
  95   2.0000      -1.005594       -27.3636
  96   2.0000      -1.004139       -27.3240
  97   2.0000      -0.998094       -27.1595
  98   2.0000      -0.996702       -27.1217
  99   2.0000      -0.995374       -27.0855
 100   2.0000      -0.992280       -27.0013
 101   2.0000      -0.982120       -26.7248
 102   2.0000      -0.969718       -26.3874
 103   2.0000      -0.941637       -25.6232
 104   2.0000      -0.936422       -25.4814
 105   2.0000      -0.933981       -25.4149
 106   2.0000      -0.923168       -25.1207
 107   2.0000      -0.919278       -25.0148
 108   2.0000      -0.917213       -24.9586
 109   2.0000      -0.913185       -24.8490
 110   2.0000      -0.897082       -24.4108
 111   2.0000      -0.893802       -24.3216
 112   2.0000      -0.892037       -24.2736
 113   2.0000      -0.889347       -24.2004
 114   2.0000      -0.884473       -24.0677
 115   2.0000      -0.882428       -24.0121
 116   2.0000      -0.879043       -23.9200
 117   2.0000      -0.871169       -23.7057
 118   2.0000      -0.854828       -23.2611
 119   2.0000      -0.842377       -22.9222
 120   2.0000      -0.840562       -22.8728
 121   2.0000      -0.839119       -22.8336
 122   2.0000      -0.826389       -22.4872
 123   2.0000      -0.820496       -22.3268
 124   2.0000      -0.817260       -22.2388
 125   2.0000      -0.801266       -21.8036
 126   2.0000      -0.797332       -21.6965
 127   2.0000      -0.781440       -21.2641
 128   2.0000      -0.777450       -21.1555
 129   2.0000      -0.773510       -21.0483
 130   2.0000      -0.769346       -20.9350
 131   2.0000      -0.759503       -20.6671
 132   2.0000      -0.744656       -20.2631
 133   2.0000      -0.733432       -19.9577
 134   2.0000      -0.725025       -19.7289
 135   2.0000      -0.723719       -19.6934
 136   2.0000      -0.714627       -19.4460
 137   2.0000      -0.712532       -19.3890
 138   2.0000      -0.707045       -19.2397
 139   2.0000      -0.705895       -19.2084
 140   2.0000      -0.701420       -19.0866
 141   2.0000      -0.691610       -18.8197
 142   2.0000      -0.688529       -18.7358
 143   2.0000      -0.683129       -18.5889
 144   2.0000      -0.680258       -18.5108
 145   2.0000      -0.675758       -18.3883
 146   2.0000      -0.667527       -18.1643
 147   2.0000      -0.660920       -17.9846
 148   2.0000      -0.656250       -17.8575
 149   2.0000      -0.654850       -17.8194
 150   2.0000      -0.643520       -17.5111
 151   2.0000      -0.642828       -17.4922
 152   2.0000      -0.641534       -17.4570
 153   2.0000      -0.640696       -17.4342
 154   2.0000      -0.633957       -17.2508
 155   2.0000      -0.630522       -17.1574
 156   2.0000      -0.626244       -17.0410
 157   2.0000      -0.624562       -16.9952
 158   2.0000      -0.623708       -16.9720
 159   2.0000      -0.622193       -16.9307
 160   2.0000      -0.619366       -16.8538
 161   2.0000      -0.617517       -16.8035
 162   2.0000      -0.615826       -16.7575
 163   2.0000      -0.606964       -16.5163
 164   2.0000      -0.605008       -16.4631
 165   2.0000      -0.599444       -16.3117
 166   2.0000      -0.595477       -16.2037
 167   2.0000      -0.594094       -16.1661
 168   2.0000      -0.587799       -15.9948
 169   2.0000      -0.585235       -15.9250
 170   2.0000      -0.582387       -15.8476
 171   2.0000      -0.579509       -15.7693
 172   2.0000      -0.568057       -15.4576
 173   2.0000      -0.566309       -15.4100
 174   2.0000      -0.561936       -15.2911
 175   2.0000      -0.559130       -15.2147
 176   2.0000      -0.557208       -15.1624
 177   2.0000      -0.551871       -15.0172
 178   2.0000      -0.548674       -14.9302
 179   2.0000      -0.546955       -14.8834
 180   2.0000      -0.544942       -14.8286
 181   2.0000      -0.544733       -14.8229
 182   2.0000      -0.543295       -14.7838
 183   2.0000      -0.541085       -14.7237
 184   2.0000      -0.536262       -14.5924
 185   2.0000      -0.535203       -14.5636
 186   2.0000      -0.533674       -14.5220
 187   2.0000      -0.533027       -14.5044
 188   2.0000      -0.530582       -14.4379
 189   2.0000      -0.526616       -14.3299
 190   2.0000      -0.522811       -14.2264
 191   2.0000      -0.519770       -14.1437
 192   2.0000      -0.517654       -14.0861
 193   2.0000      -0.515650       -14.0315
 194   2.0000      -0.515236       -14.0203
 195   2.0000      -0.512347       -13.9417
 196   2.0000      -0.511957       -13.9311
 197   2.0000      -0.509954       -13.8766
 198   2.0000      -0.508430       -13.8351
 199   2.0000      -0.504105       -13.7174
 200   2.0000      -0.503548       -13.7022
 201   2.0000      -0.500003       -13.6058
 202   2.0000      -0.498998       -13.5784
 203   2.0000      -0.495096       -13.4723
 204   2.0000      -0.494882       -13.4664
 205   2.0000      -0.493891       -13.4395
 206   2.0000      -0.489140       -13.3102
 207   2.0000      -0.487911       -13.2767
 208   2.0000      -0.484431       -13.1820
 209   2.0000      -0.483657       -13.1610
 210   2.0000      -0.478620       -13.0239
 211   2.0000      -0.476443       -12.9647
 212   2.0000      -0.473026       -12.8717
 213   2.0000      -0.469561       -12.7774
 214   2.0000      -0.468689       -12.7537
 215   2.0000      -0.463346       -12.6083
 216   2.0000      -0.459709       -12.5093
 217   2.0000      -0.459169       -12.4946
 218   2.0000      -0.457191       -12.4408
 219   2.0000      -0.455171       -12.3858
 220   2.0000      -0.452027       -12.3003
 221   2.0000      -0.449751       -12.2383
 222   2.0000      -0.448662       -12.2087
 223   2.0000      -0.447387       -12.1740
 224   2.0000      -0.444126       -12.0853
 225   2.0000      -0.443470       -12.0674
 226   2.0000      -0.443121       -12.0579
 227   2.0000      -0.440051       -11.9744
 228   2.0000      -0.438270       -11.9259
 229   2.0000      -0.437908       -11.9161
 230   2.0000      -0.434143       -11.8136
 231   2.0000      -0.431769       -11.7490
 232   2.0000      -0.430675       -11.7193
 233   2.0000      -0.430296       -11.7090
 234   2.0000      -0.425024       -11.5655
 235   2.0000      -0.422770       -11.5042
 236   2.0000      -0.420149       -11.4328
 237   2.0000      -0.418091       -11.3768
 238   2.0000      -0.416149       -11.3240
 239   2.0000      -0.413938       -11.2638
 240   2.0000      -0.406612       -11.0645
 241   2.0000      -0.404250       -11.0002
 242   2.0000      -0.397704       -10.8221
 243   2.0000      -0.390340       -10.6217
 244   2.0000      -0.389575       -10.6009
 245   2.0000      -0.387451       -10.5431
 246   2.0000      -0.386717       -10.5231
 247   2.0000      -0.384708       -10.4684
 248   2.0000      -0.380884       -10.3644
 249   2.0000      -0.379193       -10.3184
 250   2.0000      -0.378467       -10.2986
 251   2.0000      -0.377588       -10.2747
 252   2.0000      -0.369782       -10.0623
 253   2.0000      -0.367247        -9.9933
 254   2.0000      -0.361249        -9.8301
 255   2.0000      -0.360530        -9.8105
 256   2.0000      -0.349511        -9.5107
 257   2.0000      -0.347305        -9.4507
 258   2.0000      -0.345315        -9.3965
 259   2.0000      -0.340599        -9.2682
 260   2.0000      -0.332929        -9.0595
 261   2.0000      -0.326888        -8.8951
 262   2.0000      -0.321138        -8.7386
 263   2.0000      -0.315794        -8.5932
 264   2.0000      -0.308282        -8.3888
 265   2.0000      -0.303701        -8.2641
 266   2.0000      -0.300776        -8.1845
 267   2.0000      -0.292121        -7.9490
 268   2.0000      -0.282588        -7.6896
 269   2.0000      -0.270541        -7.3618
 270   0.0000      -0.127057        -3.4574
 271   0.0000      -0.096958        -2.6383
 272   0.0000      -0.096390        -2.6229
 273   0.0000      -0.068369        -1.8604
 274   0.0000      -0.058634        -1.5955

MULLIKEN ATOMIC CHARGES
-----------------------
   0 C :    0.336658
   1 C :   -0.329466
   2 C :   -0.182478
   3 N :    0.159213
   4 C :   -0.202717
   5 N :    0.170742
   6 C :    0.045198
   7 C :   -0.007083
   8 C :   -0.071663
   9 C :    0.098042
  10 C :    0.098266
  11 C :   -0.083336
  12 C :   -0.018499
  13 C :    0.038461
  14 C :    0.039743
  15 C :   -0.015776
  16 C :    0.159459
  17 O :   -0.141840
  18 C :   -0.075665
  19 C :   -0.053680
  20 C :    0.004860
  21 C :    0.093101
  22 N :    0.272680
  23 O :   -0.236621
  24 O :   -0.246902
  25 C :    0.038071
  26 C :   -0.004190
  27 C :    0.085069
  28 C :    0.018532
  29 C :    0.008087
  30 C :    0.030320
  31 C :    0.081604
  32 N :    0.270730
  33 O :   -0.257484
  34 O :   -0.245341
  35 C :    0.019635
  36 C :   -0.025371
  37 C :   -0.034954
  38 C :    0.076954
  39 C :   -0.042693
  40 C :   -0.068474
  41 S :    0.103098
  42 C :   -0.278927
  43 C :    0.114162
  44 C :    0.128164
  45 C :   -0.035131
  46 C :   -0.003301
  47 C :   -0.005971
  48 C :    0.099426
  49 C :   -0.047365
  50 C :    0.119539
  51 N :    0.228335
  52 O :   -0.225352
  53 O :   -0.220977
  54 C :    0.086613
  55 C :   -0.013852
  56 C :    0.008729
  57 C :    0.003004
  58 C :    0.031593
  59 C :   -0.053585
  60 C :   -0.061182
  61 C :    0.319971
  62 C :   -0.344553
  63 C :   -0.183435
  64 N :    0.148575
  65 C :   -0.198739
  66 N :    0.150225
  67 C :    0.050605
  68 C :   -0.001374
  69 C :    0.150395
  70 O :   -0.144635
  71 C :   -0.078709
  72 C :    0.096641
  73 C :    0.096677
  74 C :   -0.085084
  75 C :   -0.019932
  76 C :    0.036396
  77 C :    0.037384
  78 C :   -0.015455
  79 H :   -0.009693
  80 H :   -0.005677
  81 H :   -0.006160
  82 H :   -0.000769
  83 H :   -0.001499
  84 H :   -0.013874
  85 H :    0.056155
  86 H :   -0.005556
  87 H :    0.010976
  88 H :   -0.011841
  89 H :    0.007890
  90 H :    0.028569
  91 H :    0.038738
  92 H :    0.038946
  93 H :    0.021646
  94 H :    0.025459
  95 H :    0.048335
  96 H :    0.040492
  97 H :   -0.025650
  98 H :   -0.007812
  99 H :   -0.012939
 100 H :   -0.000719
 101 H :   -0.009423
 102 H :   -0.009640
 103 H :    0.014415
 104 H :    0.034939
 105 H :    0.015995
 106 H :   -0.010999
 107 H :   -0.007406
 108 H :   -0.009551
 109 H :   -0.004656
 110 H :   -0.005374
 111 H :   -0.016481
Sum of atomic charges:   -0.0000000

LOEWDIN ATOMIC CHARGES
----------------------
   0 C :    0.074214
   1 C :   -0.123281
   2 C :   -0.017308
   3 N :   -0.041877
   4 C :   -0.017592
   5 N :   -0.040808
   6 C :   -0.024627
   7 C :   -0.058713
   8 C :    0.038376
   9 C :   -0.007391
  10 C :   -0.003924
  11 C :    0.023365
  12 C :   -0.003822
  13 C :   -0.008640
  14 C :   -0.008270
  15 C :   -0.007436
  16 C :    0.087535
  17 O :   -0.129331
  18 C :   -0.077834
  19 C :    0.082868
  20 C :    0.018911
  21 C :   -0.032638
  22 N :    0.287629
  23 O :   -0.200384
  24 O :   -0.206718
  25 C :    0.001673
  26 C :   -0.027486
  27 C :    0.042545
  28 C :    0.044812
  29 C :   -0.044787
  30 C :    0.024597
  31 C :   -0.051374
  32 N :    0.285113
  33 O :   -0.219059
  34 O :   -0.210268
  35 C :    0.025022
  36 C :   -0.016966
  37 C :    0.013317
  38 C :   -0.045014
  39 C :   -0.008579
  40 C :   -0.172972
  41 S :    0.450045
  42 C :   -0.164738
  43 C :   -0.062390
  44 C :   -0.077107
  45 C :   -0.043628
  46 C :   -0.002360
  47 C :   -0.027478
  48 C :   -0.012880
  49 C :    0.004629
  50 C :   -0.013873
  51 N :    0.281218
  52 O :   -0.192541
  53 O :   -0.191593
  54 C :   -0.019104
  55 C :    0.001742
  56 C :    0.000953
  57 C :    0.026941
  58 C :   -0.015209
  59 C :    0.070938
  60 C :   -0.084610
  61 C :    0.077078
  62 C :   -0.137907
  63 C :   -0.017269
  64 N :   -0.053457
  65 C :   -0.020372
  66 N :   -0.054337
  67 C :   -0.025629
  68 C :   -0.054651
  69 C :    0.086675
  70 O :   -0.137252
  71 C :    0.033175
  72 C :   -0.007615
  73 C :   -0.006072
  74 C :    0.019622
  75 C :   -0.005595
  76 C :   -0.013461
  77 C :   -0.012083
  78 C :   -0.009217
  79 H :    0.040919
  80 H :    0.040256
  81 H :    0.035994
  82 H :    0.034994
  83 H :    0.034498
  84 H :    0.033247
  85 H :    0.054444
  86 H :    0.036436
  87 H :    0.033299
  88 H :    0.027010
  89 H :    0.039575
  90 H :    0.038918
  91 H :    0.021409
  92 H :    0.031512
  93 H :    0.025498
  94 H :    0.035616
  95 H :    0.040367
  96 H :    0.041636
  97 H :    0.027288
  98 H :    0.028810
  99 H :    0.031238
 100 H :    0.040262
 101 H :    0.036593
 102 H :    0.032549
 103 H :    0.038230
 104 H :    0.031589
 105 H :    0.042630
 106 H :    0.039829
 107 H :    0.039025
 108 H :    0.034651
 109 H :    0.033201
 110 H :    0.032735
 111 H :    0.032276

  Mayer bond orders larger than 0.100000
B(  0-C ,  1-C ) :   1.6850 B(  0-C ,  6-C ) :   1.0033 B(  0-C , 18-C ) :   0.9982
B(  1-C ,  2-C ) :   1.1309 B(  1-C ,  4-C ) :   1.1551 B(  2-C ,  3-N ) :   2.9713
B(  4-C ,  5-N ) :   2.9758 B(  6-C ,  7-C ) :   1.2088 B(  6-C , 11-C ) :   1.4454
B(  7-C ,  8-C ) :   1.4655 B(  7-C , 16-C ) :   0.9550 B(  8-C ,  9-C ) :   1.1839
B(  8-C , 79-H ) :   1.0166 B(  9-C , 10-C ) :   1.2527 B(  9-C , 15-C ) :   1.2399
B( 10-C , 11-C ) :   1.2092 B( 10-C , 12-C ) :   1.2389 B( 11-C , 80-H ) :   0.9905
B( 12-C , 13-C ) :   1.4889 B( 12-C , 81-H ) :   0.9979 B( 13-C , 14-C ) :   1.2596
B( 13-C , 82-H ) :   0.9892 B( 14-C , 15-C ) :   1.4883 B( 14-C , 83-H ) :   0.9890
B( 15-C , 84-H ) :   0.9987 B( 16-C , 17-O ) :   2.1965 B( 16-C , 18-C ) :   0.9263
B( 18-C , 19-C ) :   1.7511 B( 19-C , 20-C ) :   0.9902 B( 19-C , 24-O ) :   0.1127
B( 19-C , 85-H ) :   0.9233 B( 20-C , 21-C ) :   1.6425 B( 20-C , 27-C ) :   1.0362
B( 21-C , 22-N ) :   0.9399 B( 21-C , 25-C ) :   1.0995 B( 22-N , 23-O ) :   1.5358
B( 22-N , 24-O ) :   1.4908 B( 23-O , 24-O ) :   0.2628 B( 25-C , 26-C ) :   1.6354
B( 25-C , 86-H ) :   1.0175 B( 26-C , 27-C ) :   1.0864 B( 26-C , 87-H ) :   0.9896
B( 27-C , 28-C ) :   1.5595 B( 28-C , 29-C ) :   1.1083 B( 28-C , 35-C ) :   0.9976
B( 29-C , 30-C ) :   1.6027 B( 29-C , 88-H ) :   1.0018 B( 30-C , 31-C ) :   1.1119
B( 30-C , 89-H ) :   1.0108 B( 31-C , 32-N ) :   0.9486 B( 31-C , 35-C ) :   1.5540
B( 32-N , 33-O ) :   1.4941 B( 32-N , 34-O ) :   1.5370 B( 33-O , 34-O ) :   0.2597
B( 35-C , 36-C ) :   1.1554 B( 36-C , 37-C ) :   1.6865 B( 36-C , 90-H ) :   0.9459
B( 37-C , 38-C ) :   1.0340 B( 37-C , 91-H ) :   0.9517 B( 38-C , 39-C ) :   1.9102
B( 38-C , 40-C ) :   1.0347 B( 39-C , 92-H ) :   0.9389 B( 39-C , 93-H ) :   0.9409
B( 40-C , 41-S ) :   1.1127 B( 40-C , 45-C ) :   1.5624 B( 41-S , 42-C ) :   1.1550
B( 42-C , 43-C ) :   1.0903 B( 42-C , 44-C ) :   1.5331 B( 43-C , 94-H ) :   0.9419
B( 43-C , 95-H ) :   0.9411 B( 43-C , 96-H ) :   0.9465 B( 44-C , 45-C ) :   1.2040
B( 44-C , 46-C ) :   1.0657 B( 45-C , 97-H ) :   0.9981 B( 46-C , 47-C ) :   1.7453
B( 46-C , 98-H ) :   0.9617 B( 47-C , 48-C ) :   1.0532 B( 47-C , 99-H ) :   0.9796
B( 48-C , 49-C ) :   1.2939 B( 48-C , 56-C ) :   1.3431 B( 49-C , 50-C ) :   1.4010
B( 49-C ,100-H ) :   0.9991 B( 50-C , 51-N ) :   0.8580 B( 50-C , 54-C ) :   1.3602
B( 51-N , 52-O ) :   1.5433 B( 51-N , 53-O ) :   1.5513 B( 52-O , 53-O ) :   0.2736
B( 54-C , 55-C ) :   1.3374 B( 54-C , 57-C ) :   1.0304 B( 55-C , 56-C ) :   1.3970
B( 55-C ,101-H ) :   0.9934 B( 56-C ,102-H ) :   0.9909 B( 57-C , 58-C ) :   1.6631
B( 57-C ,103-H ) :   0.9670 B( 58-C , 59-C ) :   1.1509 B( 58-C ,104-H ) :   0.9659
B( 59-C , 60-C ) :   1.5837 B( 59-C ,105-H ) :   0.9659 B( 60-C , 61-C ) :   1.0486
B( 60-C , 69-C ) :   0.9331 B( 61-C , 62-C ) :   1.6394 B( 61-C , 67-C ) :   0.9936
B( 62-C , 63-C ) :   1.1432 B( 62-C , 65-C ) :   1.1442 B( 63-C , 64-N ) :   2.9688
B( 65-C , 66-N ) :   2.9825 B( 67-C , 68-C ) :   1.2138 B( 67-C , 74-C ) :   1.4473
B( 68-C , 69-C ) :   0.9405 B( 68-C , 71-C ) :   1.4734 B( 69-C , 70-O ) :   2.2059
B( 71-C , 72-C ) :   1.1809 B( 71-C ,106-H ) :   1.0152 B( 72-C , 73-C ) :   1.2546
B( 72-C , 78-C ) :   1.2451 B( 73-C , 74-C ) :   1.2100 B( 73-C , 75-C ) :   1.2384
B( 74-C ,107-H ) :   0.9891 B( 75-C , 76-C ) :   1.4912 B( 75-C ,108-H ) :   0.9969
B( 76-C , 77-C ) :   1.2591 B( 76-C ,109-H ) :   0.9885 B( 77-C , 78-C ) :   1.4894
B( 77-C ,110-H ) :   0.9882 B( 78-C ,111-H ) :   0.9972

-----------------------------------------------------------------------------
         ABSORPTION SPECTRUM VIA TRANSITION ELECTRIC DIPOLE MOMENTS
-----------------------------------------------------------------------------
State   Energy  Wavelength   fosc         T2         TX        TY        TZ
        (cm-1)    (nm)                  (au**2)     (au)      (au)      (au)
-----------------------------------------------------------------------------
   0   14533.4    688.1   0.103145239   2.33646  -1.04182  -0.41200  -1.03987
   1   18456.3    541.8   0.008933163   0.15934  -0.21192  -0.12227  -0.31541
   2   19275.1    518.8   0.002532837   0.04326   0.15214  -0.00734  -0.14163
   3   23272.6    429.7   0.054866575   0.77614   0.24102  -0.13623   0.83635
   4   23420.4    427.0   0.236992206   3.33131   0.14287   0.15225   1.81321
   5   23788.4    420.4   1.102358879  15.25577   0.08172  -0.05385   3.90464
   6   24276.8    411.9   0.002602335   0.03529   0.17656  -0.03824  -0.05151
   7   25833.7    387.1   0.013975023   0.17809   0.23481   0.29207   0.19403
   8   26607.9    375.8   0.136494291   1.68880   0.46339  -0.45765  -1.12456
   9   27011.0    370.2   0.026661060   0.32495  -0.46556  -0.03607  -0.32696
  10   27547.3    363.0   0.001944572   0.02324   0.04438  -0.06012  -0.13287
  11   27990.1    357.3   0.071573917   0.84183  -0.09824  -0.79153  -0.45349
  12   28224.5    354.3   0.033697414   0.39305   0.56749   0.09543  -0.24878
  13   28439.1    351.6   0.005334196   0.06175   0.24152   0.05820   0.00550
  14   28946.3    345.5   0.027505234   0.31282   0.52462  -0.01543  -0.19328
  15   29067.4    344.0   0.045062160   0.51037   0.35278   0.48612   0.38678
  16   29137.8    343.2   0.018359504   0.20743   0.00256  -0.44267   0.10709
  17   29297.0    341.3   0.016980328   0.19081   0.15238   0.40889   0.01987
  18   29425.9    339.8   0.048978519   0.54796   0.41339   0.25381   0.55916
  19   29555.1    338.4   0.047927968   0.53387  -0.44977  -0.17217   0.54948
  20   29891.5    334.5   0.002556508   0.02816  -0.02920  -0.08975   0.13874
  21   30212.3    331.0   0.012469041   0.13587   0.25165  -0.12661   0.23772
  22   30714.9    325.6   0.022731843   0.24365   0.27328  -0.19749  -0.36051
  23   30774.7    324.9   0.046861853   0.50130  -0.58980  -0.28306  -0.27077
  24   31435.3    318.1   0.069227955   0.72500   0.52784   0.27769  -0.60768
  25   31523.2    317.2   0.097750495   1.02086  -0.73510  -0.39371   0.57051
  26   32229.3    310.3   0.140578550   1.43597  -0.03117   0.61476   1.02814
  27   32349.5    309.1   0.237212490   2.41404   1.14771  -0.62052  -0.84366
  28   32539.6    307.3   0.008894603   0.08999   0.24272  -0.11638   0.13241
  29   33302.8    300.3   0.018555212   0.18343   0.16034   0.12008  -0.37855
  30   33372.0    299.7   0.278726757   2.74961   1.26868   0.17524  -1.05326
  31   33765.7    296.2   0.250880698   2.44606  -0.53592   0.78417   1.24255
  32   33799.1    295.9   0.404579654   3.94071  -1.28629   0.83042   1.26355
  33   33836.9    295.5   0.266761639   2.59542  -0.50942   1.45092  -0.48035
  34   34082.4    293.4   0.343939361   3.32221   0.21848   1.72279   0.55359
  35   34275.6    291.8   0.180289434   1.73165  -0.95306   0.64567  -0.63753
  36   34293.7    291.6   0.594076663   5.70301  -1.38791   0.86032   1.74258
  37   35141.1    284.6   0.342660477   3.21015  -0.24640  -1.55598  -0.85344
  38   35267.9    283.5   0.173751348   1.62190  -0.31657   0.91961   0.82219
  39   35432.9    282.2   0.014059173   0.13063  -0.06571  -0.06654  -0.34911
  40   35568.2    281.2   0.305586213   2.82845  -0.36054   0.19995   1.63048
  41   35754.0    279.7   0.039247173   0.36138   0.35798   0.03124  -0.48193
  42   35962.3    278.1   0.113005116   1.03449   0.40559  -0.04220  -0.93178
  43   36296.4    275.5   0.055052328   0.49933  -0.45622  -0.17996  -0.50874
  44   36370.5    274.9   0.046001012   0.41638   0.05700  -0.35528   0.53564
  45   36679.7    272.6   0.045583521   0.40913   0.15890   0.18153   0.59239
  46   36919.4    270.9   0.219366062   1.95610   0.38462   0.08098   1.34224
  47   37006.3    270.2   0.063415155   0.56415  -0.22444   0.08651   0.71154
  48   37081.4    269.7   0.165425854   1.46867  -0.76850  -0.20271  -0.91487
  49   37585.5    266.1   0.002897363   0.02538  -0.11068  -0.07428   0.08723
  50   37726.2    265.1   0.066768635   0.58265   0.10374  -0.24163  -0.71659
  51   37839.5    264.3   0.068717042   0.59785   0.48803   0.58334   0.13925
  52   38395.9    260.4   0.268187052   2.29948  -0.43289  -0.01104   1.45326
  53   38778.2    257.9   0.003664058   0.03111   0.09669   0.09433  -0.11340
  54   38833.5    257.5   0.029688892   0.25169   0.10855   0.32729  -0.36440
  55   39084.5    255.9   0.176264486   1.48469  -1.10061   0.36497  -0.37437
  56   39203.6    255.1   0.009788453   0.08220   0.08955  -0.26053  -0.07938
  57   39247.9    254.8   0.206553128   1.73257   0.78135  -0.32757   1.00735
  58   39444.1    253.5   0.005792717   0.04835  -0.17041  -0.07122   0.11931
  59   39516.7    253.1   0.308730010   2.57202  -1.43973  -0.38284  -0.59384
  60   39658.7    252.2   0.016441785   0.13649   0.09415   0.11391   0.33860
  61   39731.2    251.7   0.019666245   0.16295  -0.23189  -0.12472   0.30598
  62   39846.9    251.0   0.206690703   1.70766  -0.81740  -0.08309   1.01618
  63   40082.8    249.5   0.372364405   3.05834   0.51000  -0.14431  -1.66656
  64   40175.3    248.9   0.053394926   0.43754   0.10621  -0.11658   0.64239
  65   40233.9    248.5   0.021268293   0.17403  -0.05721   0.10435  -0.39983

FINAL SINGLE POINT ENERGY     -3798.943822966155

DIPOLE MOMENT
-------------
                                X             Y             Z
Electronic contribution:     -5.35714       3.58407     -12.66764
Nuclear contribution   :      4.57519      -5.50682      11.03451
                        -----------------------------------------
Total Dipole Moment    :     -0.78195      -1.92275      -1.63312
                        -----------------------------------------
Magnitude (a.u.)       :      2.64112
Magnitude (Debye)      :      6.71319

Rotational constants in cm-1:     0.001760     0.000164     0.000157
Rotational constants in MHz :    52.772193     4.919593     4.710939

                             ****ORCA TERMINATED NORMALLY****
TOTAL RUN TIME: 0 days 0 hours 11 minutes 37 seconds 274 msec
