                         Program Version 4.2.0 -  RELEASE  -
|  1> # ORCA input file
|  2> # SCF done       -186.304045840497          0.000941085885
|  3> ! CAM-B3LYP def2-SVP def2/J RIJCOSX Grid4 TightSCF
|  4> %maxcore 5000
|  5> %tddft
|  6>     Mode sTDDFT
|  7>     Ethresh 5.0
|  8>     maxcore 5000
|  9> end
| 10>
| 11> %pal
| 12>   nprocs 6
| 13>   end
| 14> * xyz 0 1
| 15>    C       -2.45652         5.24752         4.12419
| 16>    C       -1.54179         4.58231         3.35614
| 17>    C       -1.21211         3.22241         3.53656
| 18>    N       -0.92075         2.11705         3.63903
| 19>    C       -0.75666         5.19077         2.35392
| 20>    N       -0.05091         5.63870         1.56767
| 21>    C       -3.11575         4.71957         5.31203
| 22>    C       -3.60821         5.81198         6.08585
| 23>    C       -4.25231         5.61599         7.27400
| 24>    C       -4.44562         4.29802         7.74438
| 25>    C       -3.96766         3.20156         6.96905
| 26>    C       -3.29849         3.43343         5.74610
| 27>    C       -4.17432         1.89103         7.44640
| 28>    C       -4.82065         1.67192         8.63213
| 29>    C       -5.29100         2.75181         9.39464
| 30>    C       -5.10663         4.03649         8.96097
| 31>    C       -3.32680         7.07597         5.38421
| 32>    O       -3.53971         8.20539         5.75652
| 33>    C       -2.77450         6.66659         4.05580
| 34>    C       -2.77114         7.53911         3.02758
| 35>    C       -2.62668         7.22972         1.62252
| 36>    C       -1.95359         8.07796         0.74885
| 37>    C       -1.82453         7.73532        -0.59961
| 38>    C       -2.42167         6.53242        -1.00355
| 39>    N       -3.12059         5.75876        -0.19802
| 40>    C       -3.22620         6.08765         1.07071
| 41>    C       -1.10264         8.61637        -1.48644
| 42>    C       -0.74456         8.32807        -2.75532
| 43>    C       -0.02732         9.24318        -3.57723
| 44>    N        0.35703         8.95479        -4.86790
| 45>    C        0.05724         7.75679        -5.61298
| 46>    C       -1.37877         7.75456        -6.13268
| 47>    C        1.06151        10.01636        -5.45838
| 48>    O        1.49458         9.98040        -6.59541
| 49>    C        1.11096        11.02890        -4.43075
| 50>    C        0.42879        10.52312        -3.28830
| 51>    C        0.48231        11.53447        -2.25926
| 52>    O        0.04675        11.57059        -1.12354
| 53>    N        1.20518        12.58865        -2.84368
| 54>    C        1.43136        13.82324        -2.13263
| 55>    C        0.47570        14.92530        -2.58406
| 56>    C        1.58366        12.30161        -4.13603
| 57>    C        2.34552        13.18903        -4.94956
| 58>    C        2.69019        12.87852        -6.21743
| 59>    C        3.47533        13.69400        -7.11316
| 60>    C        3.92233        14.98282        -6.82241
| 61>    C        4.68820        15.68255        -7.75829
| 62>    C        4.96759        15.02904        -8.96985
| 63>    N        4.54846        13.81427        -9.26108
| 64>    C        3.82783        13.16679        -8.36810
| 65>    C        5.19197        17.01641        -7.54489
| 66>    C        4.96734        17.79044        -6.45903
| 67>    C        5.51193        19.09615        -6.35516
| 68>    C        5.32007        19.93958        -5.30141
| 69>    C        5.85198        21.28522        -5.15865
| 70>    C        6.68711        21.93839        -6.02685
| 71>    C        7.17094        23.24877        -5.82562
| 72>    N        7.60139        24.30861        -5.72708
| 73>    C        7.19553        21.41790        -7.23554
| 74>    N        7.65661        21.07283        -8.22933
| 75>    C        5.34607        21.83126        -3.90460
| 76>    C        4.53862        20.84544        -3.26870
| 77>    C        4.49763        19.63206        -4.10105
| 78>    O        3.90753        18.60120        -3.84670
| 79>    C        3.92771        21.07631        -2.06965
| 80>    C        4.09718        22.32879        -1.43896
| 81>    C        4.90220        23.32134        -2.06893
| 82>    C        5.52341        23.05291        -3.30975
| 83>    C        5.06425        24.56898        -1.43262
| 84>    C        4.46074        24.82562        -0.23181
| 85>    C        3.66823        23.84757         0.38767
| 86>    C        3.49041        22.62584        -0.20278
| 87>    H       -4.61291         6.45706         7.84736
| 88>    H       -2.95668         2.58583         5.17271
| 89>    H       -3.80793         1.06335         6.85710
| 90>    H       -4.97313         0.66467         8.98973
| 91>    H       -5.80020         2.56035        10.32728
| 92>    H       -5.46635         4.87170         9.54389
| 93>    H       -2.97529         8.57480         3.27989
| 94>    H       -1.48986         8.98135         1.11794
| 95>    H       -2.35660         6.18207        -2.02378
| 96>    H       -3.83924         5.43492         1.67959
| 97>    H       -0.82609         9.57681        -1.07096
| 98>    H       -0.98263         7.36727        -3.18650
| 99>    H        0.24992         6.87809        -4.99101
|100>    H        0.75127         7.74716        -6.45831
|101>    H       -2.09214         7.81688        -5.31361
|102>    H       -1.56654         6.84271        -6.69287
|103>    H       -1.53508         8.60554        -6.79112
|104>    H        2.47195        14.13577        -2.25847
|105>    H        1.25851        13.59782        -1.07643
|106>    H        0.58457        15.12598        -3.64765
|107>    H        0.68243        15.83918        -2.03417
|108>    H       -0.55225        14.62697        -2.39279
|109>    H        2.65058        14.12437        -4.50353
|110>    H        2.37178        11.92748        -6.62320
|111>    H        3.67762        15.44326        -5.87815
|112>    H        5.55404        15.51988        -9.73605
|113>    H        3.50864        12.17152        -8.64808
|114>    H        5.80254        17.41463        -8.34750
|115>    H        4.36284        17.44337        -5.63583
|116>    H        6.11699        19.42858        -7.18893
|117>    H        3.32064        20.31163        -1.60793
|118>    H        6.12487        23.82642        -3.75970
|119>    H        5.67555        25.31836        -1.91370
|120>    H        4.59068        25.78421         0.24768
|121>    H        3.19926        24.06729         1.33510
|122>    H        2.88122        21.86920         0.26977
|123> *
|124>
|125>                          ****END OF INPUT****

CARTESIAN COORDINATES (ANGSTROEM)
---------------------------------
  C     -2.456520    5.247520    4.124190
  C     -1.541790    4.582310    3.356140
  C     -1.212110    3.222410    3.536560
  N     -0.920750    2.117050    3.639030
  C     -0.756660    5.190770    2.353920
  N     -0.050910    5.638700    1.567670
  C     -3.115750    4.719570    5.312030
  C     -3.608210    5.811980    6.085850
  C     -4.252310    5.615990    7.274000
  C     -4.445620    4.298020    7.744380
  C     -3.967660    3.201560    6.969050
  C     -3.298490    3.433430    5.746100
  C     -4.174320    1.891030    7.446400
  C     -4.820650    1.671920    8.632130
  C     -5.291000    2.751810    9.394640
  C     -5.106630    4.036490    8.960970
  C     -3.326800    7.075970    5.384210
  O     -3.539710    8.205390    5.756520
  C     -2.774500    6.666590    4.055800
  C     -2.771140    7.539110    3.027580
  C     -2.626680    7.229720    1.622520
  C     -1.953590    8.077960    0.748850
  C     -1.824530    7.735320   -0.599610
  C     -2.421670    6.532420   -1.003550
  N     -3.120590    5.758760   -0.198020
  C     -3.226200    6.087650    1.070710
  C     -1.102640    8.616370   -1.486440
  C     -0.744560    8.328070   -2.755320
  C     -0.027320    9.243180   -3.577230
  N      0.357030    8.954790   -4.867900
  C      0.057240    7.756790   -5.612980
  C     -1.378770    7.754560   -6.132680
  C      1.061510   10.016360   -5.458380
  O      1.494580    9.980400   -6.595410
  C      1.110960   11.028900   -4.430750
  C      0.428790   10.523120   -3.288300
  C      0.482310   11.534470   -2.259260
  O      0.046750   11.570590   -1.123540
  N      1.205180   12.588650   -2.843680
  C      1.431360   13.823240   -2.132630
  C      0.475700   14.925300   -2.584060
  C      1.583660   12.301610   -4.136030
  C      2.345520   13.189030   -4.949560
  C      2.690190   12.878520   -6.217430
  C      3.475330   13.694000   -7.113160
  C      3.922330   14.982820   -6.822410
  C      4.688200   15.682550   -7.758290
  C      4.967590   15.029040   -8.969850
  N      4.548460   13.814270   -9.261080
  C      3.827830   13.166790   -8.368100
  C      5.191970   17.016410   -7.544890
  C      4.967340   17.790440   -6.459030
  C      5.511930   19.096150   -6.355160
  C      5.320070   19.939580   -5.301410
  C      5.851980   21.285220   -5.158650
  C      6.687110   21.938390   -6.026850
  C      7.170940   23.248770   -5.825620
  N      7.601390   24.308610   -5.727080
  C      7.195530   21.417900   -7.235540
  N      7.656610   21.072830   -8.229330
  C      5.346070   21.831260   -3.904600
  C      4.538620   20.845440   -3.268700
  C      4.497630   19.632060   -4.101050
  O      3.907530   18.601200   -3.846700
  C      3.927710   21.076310   -2.069650
  C      4.097180   22.328790   -1.438960
  C      4.902200   23.321340   -2.068930
  C      5.523410   23.052910   -3.309750
  C      5.064250   24.568980   -1.432620
  C      4.460740   24.825620   -0.231810
  C      3.668230   23.847570    0.387670
  C      3.490410   22.625840   -0.202780
  H     -4.612910    6.457060    7.847360
  H     -2.956680    2.585830    5.172710
  H     -3.807930    1.063350    6.857100
  H     -4.973130    0.664670    8.989730
  H     -5.800200    2.560350   10.327280
  H     -5.466350    4.871700    9.543890
  H     -2.975290    8.574800    3.279890
  H     -1.489860    8.981350    1.117940
  H     -2.356600    6.182070   -2.023780
  H     -3.839240    5.434920    1.679590
  H     -0.826090    9.576810   -1.070960
  H     -0.982630    7.367270   -3.186500
  H      0.249920    6.878090   -4.991010
  H      0.751270    7.747160   -6.458310
  H     -2.092140    7.816880   -5.313610
  H     -1.566540    6.842710   -6.692870
  H     -1.535080    8.605540   -6.791120
  H      2.471950   14.135770   -2.258470
  H      1.258510   13.597820   -1.076430
  H      0.584570   15.125980   -3.647650
  H      0.682430   15.839180   -2.034170
  H     -0.552250   14.626970   -2.392790
  H      2.650580   14.124370   -4.503530
  H      2.371780   11.927480   -6.623200
  H      3.677620   15.443260   -5.878150
  H      5.554040   15.519880   -9.736050
  H      3.508640   12.171520   -8.648080
  H      5.802540   17.414630   -8.347500
  H      4.362840   17.443370   -5.635830
  H      6.116990   19.428580   -7.188930
  H      3.320640   20.311630   -1.607930
  H      6.124870   23.826420   -3.759700
  H      5.675550   25.318360   -1.913700
  H      4.590680   25.784210    0.247680
  H      3.199260   24.067290    1.335100
  H      2.881220   21.869200    0.269770

 Total Charge           Charge          ....    0
 Multiplicity           Mult            ....    1
 Number of Electrons    NEL             ....  484
 Basis Dimension        Dim             .... 1188

ORBITAL ENERGIES
----------------

  NO   OCC          E(Eh)            E(eV)
   0   2.0000     -19.219823      -522.9980
   1   2.0000     -19.219673      -522.9939
   2   2.0000     -19.188815      -522.1542
   3   2.0000     -19.188768      -522.1529
   4   2.0000     -14.451604      -393.2481
   5   2.0000     -14.451316      -393.2403
   6   2.0000     -14.418982      -392.3605
   7   2.0000     -14.417682      -392.3251
   8   2.0000     -14.416427      -392.2909
   9   2.0000     -14.415101      -392.2549
  10   2.0000     -14.410613      -392.1327
  11   2.0000     -14.410313      -392.1246
  12   2.0000     -10.371495      -282.2227
  13   2.0000     -10.371347      -282.2187
  14   2.0000     -10.370672      -282.2003
  15   2.0000     -10.370301      -282.1902
  16   2.0000     -10.348163      -281.5878
  17   2.0000     -10.345543      -281.5165
  18   2.0000     -10.342825      -281.4426
  19   2.0000     -10.341578      -281.4087
  20   2.0000     -10.336573      -281.2725
  21   2.0000     -10.336215      -281.2627
  22   2.0000     -10.321039      -280.8497
  23   2.0000     -10.320422      -280.8330
  24   2.0000     -10.320418      -280.8329
  25   2.0000     -10.318229      -280.7733
  26   2.0000     -10.318057      -280.7686
  27   2.0000     -10.317167      -280.7444
  28   2.0000     -10.316940      -280.7382
  29   2.0000     -10.316225      -280.7188
  30   2.0000     -10.315039      -280.6865
  31   2.0000     -10.314027      -280.6589
  32   2.0000     -10.309097      -280.5248
  33   2.0000     -10.307919      -280.4927
  34   2.0000     -10.307329      -280.4767
  35   2.0000     -10.307055      -280.4692
  36   2.0000     -10.304459      -280.3986
  37   2.0000     -10.304180      -280.3910
  38   2.0000     -10.302699      -280.3507
  39   2.0000     -10.301863      -280.3279
  40   2.0000     -10.301606      -280.3210
  41   2.0000     -10.301243      -280.3111
  42   2.0000     -10.300924      -280.3024
  43   2.0000     -10.299889      -280.2742
  44   2.0000     -10.299612      -280.2667
  45   2.0000     -10.299529      -280.2644
  46   2.0000     -10.299476      -280.2630
  47   2.0000     -10.299155      -280.2543
  48   2.0000     -10.299154      -280.2542
  49   2.0000     -10.298745      -280.2431
  50   2.0000     -10.298008      -280.2231
  51   2.0000     -10.296230      -280.1747
  52   2.0000     -10.294603      -280.1304
  53   2.0000     -10.293805      -280.1087
  54   2.0000     -10.290776      -280.0262
  55   2.0000     -10.290165      -280.0096
  56   2.0000     -10.289962      -280.0041
  57   2.0000     -10.289651      -279.9956
  58   2.0000     -10.289608      -279.9945
  59   2.0000     -10.289531      -279.9924
  60   2.0000     -10.289308      -279.9863
  61   2.0000     -10.288774      -279.9718
  62   2.0000     -10.288749      -279.9711
  63   2.0000     -10.288472      -279.9635
  64   2.0000     -10.288330      -279.9597
  65   2.0000     -10.287952      -279.9494
  66   2.0000     -10.287493      -279.9369
  67   2.0000     -10.286977      -279.9229
  68   2.0000     -10.263565      -279.2858
  69   2.0000     -10.263244      -279.2771
  70   2.0000     -10.257407      -279.1182
  71   2.0000     -10.257106      -279.1100
  72   2.0000      -1.134912       -30.8825
  73   2.0000      -1.133541       -30.8452
  74   2.0000      -1.131212       -30.7818
  75   2.0000      -1.124570       -30.6011
  76   2.0000      -1.061277       -28.8788
  77   2.0000      -1.053299       -28.6617
  78   2.0000      -1.048256       -28.5245
  79   2.0000      -1.047280       -28.4979
  80   2.0000      -1.021178       -27.7877
  81   2.0000      -1.019173       -27.7331
  82   2.0000      -1.001726       -27.2583
  83   2.0000      -1.000008       -27.2116
  84   2.0000      -0.995863       -27.0988
  85   2.0000      -0.994579       -27.0639
  86   2.0000      -0.975664       -26.5492
  87   2.0000      -0.973041       -26.4778
  88   2.0000      -0.941782       -25.6272
  89   2.0000      -0.935597       -25.4589
  90   2.0000      -0.930337       -25.3158
  91   2.0000      -0.928002       -25.2522
  92   2.0000      -0.924178       -25.1481
  93   2.0000      -0.921087       -25.0640
  94   2.0000      -0.916608       -24.9422
  95   2.0000      -0.902416       -24.5560
  96   2.0000      -0.893601       -24.3161
  97   2.0000      -0.884972       -24.0813
  98   2.0000      -0.884407       -24.0659
  99   2.0000      -0.881710       -23.9926
 100   2.0000      -0.877465       -23.8770
 101   2.0000      -0.866716       -23.5845
 102   2.0000      -0.863258       -23.4905
 103   2.0000      -0.845199       -22.9990
 104   2.0000      -0.836393       -22.7594
 105   2.0000      -0.832120       -22.6431
 106   2.0000      -0.829875       -22.5821
 107   2.0000      -0.819033       -22.2870
 108   2.0000      -0.796241       -21.6668
 109   2.0000      -0.795588       -21.6491
 110   2.0000      -0.790873       -21.5207
 111   2.0000      -0.779780       -21.2189
 112   2.0000      -0.764972       -20.8159
 113   2.0000      -0.763462       -20.7749
 114   2.0000      -0.759774       -20.6745
 115   2.0000      -0.747684       -20.3455
 116   2.0000      -0.740366       -20.1464
 117   2.0000      -0.730972       -19.8907
 118   2.0000      -0.722084       -19.6489
 119   2.0000      -0.713718       -19.4213
 120   2.0000      -0.708868       -19.2893
 121   2.0000      -0.706759       -19.2319
 122   2.0000      -0.706139       -19.2150
 123   2.0000      -0.704652       -19.1746
 124   2.0000      -0.701316       -19.0838
 125   2.0000      -0.692654       -18.8481
 126   2.0000      -0.685908       -18.6645
 127   2.0000      -0.679120       -18.4798
 128   2.0000      -0.678098       -18.4520
 129   2.0000      -0.658581       -17.9209
 130   2.0000      -0.658295       -17.9131
 131   2.0000      -0.653214       -17.7749
 132   2.0000      -0.647070       -17.6077
 133   2.0000      -0.639662       -17.4061
 134   2.0000      -0.636888       -17.3306
 135   2.0000      -0.627908       -17.0862
 136   2.0000      -0.622059       -16.9271
 137   2.0000      -0.615074       -16.7370
 138   2.0000      -0.611699       -16.6452
 139   2.0000      -0.610669       -16.6171
 140   2.0000      -0.608484       -16.5577
 141   2.0000      -0.606736       -16.5101
 142   2.0000      -0.602908       -16.4060
 143   2.0000      -0.596928       -16.2432
 144   2.0000      -0.591511       -16.0958
 145   2.0000      -0.586187       -15.9510
 146   2.0000      -0.580104       -15.7854
 147   2.0000      -0.571515       -15.5517
 148   2.0000      -0.568994       -15.4831
 149   2.0000      -0.564813       -15.3694
 150   2.0000      -0.557788       -15.1782
 151   2.0000      -0.551983       -15.0202
 152   2.0000      -0.550105       -14.9691
 153   2.0000      -0.548495       -14.9253
 154   2.0000      -0.548411       -14.9230
 155   2.0000      -0.546716       -14.8769
 156   2.0000      -0.543392       -14.7864
 157   2.0000      -0.542217       -14.7545
 158   2.0000      -0.538664       -14.6578
 159   2.0000      -0.537106       -14.6154
 160   2.0000      -0.533453       -14.5160
 161   2.0000      -0.531922       -14.4743
 162   2.0000      -0.530724       -14.4417
 163   2.0000      -0.525923       -14.3111
 164   2.0000      -0.522357       -14.2141
 165   2.0000      -0.522135       -14.2080
 166   2.0000      -0.520258       -14.1569
 167   2.0000      -0.516720       -14.0607
 168   2.0000      -0.516170       -14.0457
 169   2.0000      -0.515476       -14.0268
 170   2.0000      -0.512567       -13.9477
 171   2.0000      -0.511528       -13.9194
 172   2.0000      -0.508707       -13.8426
 173   2.0000      -0.507821       -13.8185
 174   2.0000      -0.506648       -13.7866
 175   2.0000      -0.504716       -13.7340
 176   2.0000      -0.500065       -13.6075
 177   2.0000      -0.498232       -13.5576
 178   2.0000      -0.497855       -13.5473
 179   2.0000      -0.495575       -13.4853
 180   2.0000      -0.492762       -13.4087
 181   2.0000      -0.489117       -13.3096
 182   2.0000      -0.488586       -13.2951
 183   2.0000      -0.488367       -13.2892
 184   2.0000      -0.484280       -13.1779
 185   2.0000      -0.477653       -12.9976
 186   2.0000      -0.475120       -12.9287
 187   2.0000      -0.470083       -12.7916
 188   2.0000      -0.468915       -12.7598
 189   2.0000      -0.467341       -12.7170
 190   2.0000      -0.463610       -12.6155
 191   2.0000      -0.460645       -12.5348
 192   2.0000      -0.458409       -12.4739
 193   2.0000      -0.454865       -12.3775
 194   2.0000      -0.452486       -12.3128
 195   2.0000      -0.451176       -12.2771
 196   2.0000      -0.449671       -12.2362
 197   2.0000      -0.446768       -12.1572
 198   2.0000      -0.445550       -12.1240
 199   2.0000      -0.445515       -12.1231
 200   2.0000      -0.443032       -12.0555
 201   2.0000      -0.442829       -12.0500
 202   2.0000      -0.441464       -12.0128
 203   2.0000      -0.440587       -11.9890
 204   2.0000      -0.438496       -11.9321
 205   2.0000      -0.437330       -11.9004
 206   2.0000      -0.435034       -11.8379
 207   2.0000      -0.434697       -11.8287
 208   2.0000      -0.434081       -11.8120
 209   2.0000      -0.433377       -11.7928
 210   2.0000      -0.428396       -11.6573
 211   2.0000      -0.427255       -11.6262
 212   2.0000      -0.426718       -11.6116
 213   2.0000      -0.424907       -11.5623
 214   2.0000      -0.420928       -11.4540
 215   2.0000      -0.420901       -11.4533
 216   2.0000      -0.416626       -11.3370
 217   2.0000      -0.406896       -11.0722
 218   2.0000      -0.404844       -11.0164
 219   2.0000      -0.399337       -10.8665
 220   2.0000      -0.394814       -10.7434
 221   2.0000      -0.387773       -10.5519
 222   2.0000      -0.382556       -10.4099
 223   2.0000      -0.379278       -10.3207
 224   2.0000      -0.368846       -10.0368
 225   2.0000      -0.359230        -9.7751
 226   2.0000      -0.346901        -9.4397
 227   2.0000      -0.340705        -9.2711
 228   2.0000      -0.338474        -9.2104
 229   2.0000      -0.335298        -9.1239
 230   2.0000      -0.333781        -9.0826
 231   2.0000      -0.329312        -8.9610
 232   2.0000      -0.328221        -8.9313
 233   2.0000      -0.322217        -8.7680
 234   2.0000      -0.320361        -8.7175
 235   2.0000      -0.318187        -8.6583
 236   2.0000      -0.312538        -8.5046
 237   2.0000      -0.307719        -8.3735
 238   2.0000      -0.299637        -8.1535
 239   2.0000      -0.296133        -8.0582
 240   2.0000      -0.286568        -7.7979
 241   2.0000      -0.237510        -6.4630
 242   0.0000      -0.098075        -2.6687
 243   0.0000      -0.092095        -2.5060
 244   0.0000      -0.079510        -2.1636
 245   0.0000      -0.060231        -1.6390
 246   0.0000      -0.057722        -1.5707

MULLIKEN ATOMIC CHARGES
-----------------------
   0 C :    0.263183
   1 C :   -0.321654
   2 C :   -0.183816
   3 N :    0.159698
   4 C :   -0.186002
   5 N :    0.170739
   6 C :    0.033244
   7 C :    0.011792
   8 C :   -0.078698
   9 C :    0.094030
  10 C :    0.093364
  11 C :   -0.076556
  12 C :   -0.015269
  13 C :    0.035111
  14 C :    0.037628
  15 C :   -0.013616
  16 C :    0.138310
  17 O :   -0.135731
  18 C :   -0.116091
  19 C :    0.045991
  20 C :   -0.008941
  21 C :    0.016279
  22 C :    0.083900
  23 C :   -0.003744
  24 N :   -0.043794
  25 C :    0.015111
  26 C :    0.003979
  27 C :    0.007815
  28 C :    0.129023
  29 N :   -0.258084
  30 C :    0.098183
  31 C :    0.003048
  32 C :    0.163993
  33 O :   -0.217338
  34 C :   -0.066489
  35 C :   -0.066196
  36 C :    0.162392
  37 O :   -0.216994
  38 N :   -0.258207
  39 C :    0.099325
  40 C :    0.005929
  41 C :    0.127343
  42 C :    0.005258
  43 C :    0.001280
  44 C :    0.065339
  45 C :   -0.004318
  46 C :    0.067782
  47 C :   -0.009111
  48 N :   -0.042752
  49 C :   -0.005655
  50 C :    0.036425
  51 C :    0.002729
  52 C :   -0.038611
  53 C :   -0.071068
  54 C :    0.341617
  55 C :   -0.357083
  56 C :   -0.184557
  57 N :    0.149300
  58 C :   -0.190954
  59 N :    0.149491
  60 C :    0.049876
  61 C :    0.001262
  62 C :    0.152499
  63 O :   -0.160115
  64 C :   -0.084014
  65 C :    0.099815
  66 C :    0.098976
  67 C :   -0.086505
  68 C :   -0.020757
  69 C :    0.038479
  70 C :    0.037557
  71 C :   -0.018691
  72 H :   -0.010747
  73 H :   -0.005374
  74 H :   -0.009370
  75 H :   -0.003354
  76 H :   -0.003961
  77 H :   -0.016539
  78 H :    0.032338
  79 H :    0.007586
  80 H :    0.000580
  81 H :    0.011850
  82 H :    0.012445
  83 H :   -0.028165
  84 H :    0.026761
  85 H :    0.043986
  86 H :    0.014637
  87 H :    0.024049
  88 H :    0.029606
  89 H :    0.025934
  90 H :    0.042559
  91 H :    0.015055
  92 H :    0.024718
  93 H :    0.027578
  94 H :   -0.030141
  95 H :    0.012131
  96 H :   -0.008979
  97 H :    0.006731
  98 H :    0.022023
  99 H :    0.005984
 100 H :    0.025947
 101 H :    0.009225
 102 H :   -0.016280
 103 H :   -0.009333
 104 H :   -0.007583
 105 H :   -0.004522
 106 H :   -0.005128
 107 H :   -0.017930
Sum of atomic charges:   -0.0000000

LOEWDIN ATOMIC CHARGES
----------------------
   0 C :    0.066891
   1 C :   -0.127480
   2 C :   -0.017487
   3 N :   -0.046531
   4 C :   -0.018765
   5 N :   -0.041506
   6 C :   -0.024508
   7 C :   -0.058537
   8 C :    0.034562
   9 C :   -0.008374
  10 C :   -0.004905
  11 C :    0.018727
  12 C :   -0.005219
  13 C :   -0.011446
  14 C :   -0.011408
  15 C :   -0.008530
  16 C :    0.085153
  17 O :   -0.136213
  18 C :   -0.077915
  19 C :    0.078252
  20 C :   -0.062826
  21 C :    0.044815
  22 C :   -0.041538
  23 C :    0.047239
  24 N :   -0.058369
  25 C :    0.034962
  26 C :    0.035935
  27 C :   -0.043808
  28 C :    0.078451
  29 N :    0.000839
  30 C :    0.035793
  31 C :   -0.061420
  32 C :    0.080449
  33 O :   -0.206383
  34 C :   -0.124100
  35 C :   -0.124122
  36 C :    0.080684
  37 O :   -0.207679
  38 N :   -0.000203
  39 C :    0.035944
  40 C :   -0.060633
  41 C :    0.077173
  42 C :   -0.046003
  43 C :    0.031982
  44 C :   -0.049725
  45 C :    0.037619
  46 C :   -0.057388
  47 C :    0.038170
  48 N :   -0.061133
  49 C :    0.047443
  50 C :    0.040716
  51 C :   -0.031870
  52 C :    0.073613
  53 C :   -0.093344
  54 C :    0.076117
  55 C :   -0.138439
  56 C :   -0.016927
  57 N :   -0.053453
  58 C :   -0.020380
  59 N :   -0.052210
  60 C :   -0.025600
  61 C :   -0.056099
  62 C :    0.087202
  63 O :   -0.153695
  64 C :    0.031505
  65 C :   -0.008273
  66 C :   -0.005933
  67 C :    0.020083
  68 C :   -0.004843
  69 C :   -0.012740
  70 C :   -0.011539
  71 C :   -0.010060
  72 H :    0.039984
  73 H :    0.039307
  74 H :    0.034973
  75 H :    0.033793
  76 H :    0.033367
  77 H :    0.032358
  78 H :    0.049541
  79 H :    0.040965
  80 H :    0.021361
  81 H :    0.022774
  82 H :    0.037563
  83 H :    0.027229
  84 H :    0.023815
  85 H :    0.038039
  86 H :    0.021452
  87 H :    0.030851
  88 H :    0.032284
  89 H :    0.023467
  90 H :    0.037421
  91 H :    0.022032
  92 H :    0.031418
  93 H :    0.031370
  94 H :    0.026706
  95 H :    0.038276
  96 H :    0.032297
  97 H :    0.024774
  98 H :    0.031264
  99 H :    0.037902
 100 H :    0.030066
 101 H :    0.042512
 102 H :    0.037731
 103 H :    0.039106
 104 H :    0.035240
 105 H :    0.033467
 106 H :    0.032952
 107 H :    0.031582

  Mayer bond orders larger than 0.100000
B(  0-C ,  1-C ) :   1.6862 B(  0-C ,  6-C ) :   1.0038 B(  0-C , 18-C ) :   0.9998
B(  1-C ,  2-C ) :   1.1335 B(  1-C ,  4-C ) :   1.1504 B(  2-C ,  3-N ) :   2.9889
B(  4-C ,  5-N ) :   3.0038 B(  6-C ,  7-C ) :   1.2132 B(  6-C , 11-C ) :   1.4521
B(  7-C ,  8-C ) :   1.4677 B(  7-C , 16-C ) :   0.9199 B(  8-C ,  9-C ) :   1.1882
B(  8-C , 72-H ) :   1.0162 B(  9-C , 10-C ) :   1.2555 B(  9-C , 15-C ) :   1.2421
B( 10-C , 11-C ) :   1.2075 B( 10-C , 12-C ) :   1.2382 B( 11-C , 73-H ) :   0.9941
B( 12-C , 13-C ) :   1.4913 B( 12-C , 74-H ) :   0.9980 B( 13-C , 14-C ) :   1.2580
B( 13-C , 75-H ) :   0.9891 B( 14-C , 15-C ) :   1.4908 B( 14-C , 76-H ) :   0.9887
B( 15-C , 77-H ) :   0.9980 B( 16-C , 17-O ) :   2.2843 B( 16-C , 18-C ) :   0.9218
B( 18-C , 19-C ) :   1.7695 B( 19-C , 20-C ) :   0.9948 B( 19-C , 78-H ) :   0.9466
B( 20-C , 21-C ) :   1.3602 B( 20-C , 25-C ) :   1.3206 B( 21-C , 22-C ) :   1.3549
B( 21-C , 79-H ) :   1.0051 B( 22-C , 23-C ) :   1.3113 B( 22-C , 26-C ) :   1.0543
B( 23-C , 24-N ) :   1.5672 B( 23-C , 80-H ) :   0.9835 B( 24-N , 25-C ) :   1.5704
B( 25-C , 81-H ) :   0.9836 B( 26-C , 27-C ) :   1.6370 B( 26-C , 82-H ) :   0.9651
B( 27-C , 28-C ) :   1.1413 B( 27-C , 83-H ) :   0.9558 B( 28-C , 29-N ) :   1.1574
B( 28-C , 35-C ) :   1.3616 B( 29-N , 30-C ) :   0.9467 B( 29-N , 32-C ) :   1.0648
B( 30-C , 31-C ) :   1.1197 B( 30-C , 84-H ) :   0.9499 B( 30-C , 85-H ) :   0.9270
B( 31-C , 86-H ) :   0.9686 B( 31-C , 87-H ) :   0.9682 B( 31-C , 88-H ) :   0.9635
B( 32-C , 33-O ) :   2.0130 B( 32-C , 34-C ) :   0.9899 B( 33-O , 95-H ) :   0.1166
B( 34-C , 35-C ) :   1.2332 B( 34-C , 41-C ) :   1.3643 B( 35-C , 36-C ) :   0.9901
B( 36-C , 37-O ) :   2.0206 B( 36-C , 38-N ) :   1.0614 B( 37-O , 82-H ) :   0.1119
B( 38-N , 39-C ) :   0.9459 B( 38-N , 41-C ) :   1.1584 B( 39-C , 40-C ) :   1.1208
B( 39-C , 89-H ) :   0.9492 B( 39-C , 90-H ) :   0.9273 B( 40-C , 91-H ) :   0.9684
B( 40-C , 92-H ) :   0.9676 B( 40-C , 93-H ) :   0.9637 B( 41-C , 42-C ) :   1.1390
B( 42-C , 43-C ) :   1.6345 B( 42-C , 94-H ) :   0.9567 B( 43-C , 44-C ) :   1.0529
B( 43-C , 95-H ) :   0.9624 B( 44-C , 45-C ) :   1.3757 B( 44-C , 49-C ) :   1.3014
B( 45-C , 46-C ) :   1.3699 B( 45-C , 96-H ) :   0.9830 B( 46-C , 47-C ) :   1.2980
B( 46-C , 50-C ) :   1.0453 B( 47-C , 48-N ) :   1.5659 B( 47-C , 97-H ) :   0.9890
B( 48-N , 49-C ) :   1.5620 B( 49-C , 98-H ) :   0.9862 B( 50-C , 51-C ) :   1.6120
B( 50-C , 99-H ) :   0.9903 B( 51-C , 52-C ) :   1.1447 B( 51-C ,100-H ) :   0.9677
B( 52-C , 53-C ) :   1.5548 B( 52-C ,101-H ) :   0.9628 B( 53-C , 54-C ) :   1.0542
B( 53-C , 62-C ) :   0.9417 B( 54-C , 55-C ) :   1.6294 B( 54-C , 60-C ) :   0.9900
B( 55-C , 56-C ) :   1.1481 B( 55-C , 58-C ) :   1.1465 B( 56-C , 57-N ) :   2.9618
B( 58-C , 59-N ) :   2.9607 B( 60-C , 61-C ) :   1.2147 B( 60-C , 67-C ) :   1.4462
B( 61-C , 62-C ) :   0.9505 B( 61-C , 64-C ) :   1.4664 B( 62-C , 63-O ) :   2.1855
B( 64-C , 65-C ) :   1.1800 B( 64-C ,102-H ) :   1.0164 B( 65-C , 66-C ) :   1.2547
B( 65-C , 71-C ) :   1.2430 B( 66-C , 67-C ) :   1.2073 B( 66-C , 68-C ) :   1.2385
B( 67-C ,103-H ) :   0.9892 B( 68-C , 69-C ) :   1.4890 B( 68-C ,104-H ) :   0.9977
B( 69-C , 70-C ) :   1.2589 B( 69-C ,105-H ) :   0.9887 B( 70-C , 71-C ) :   1.4894
B( 70-C ,106-H ) :   0.9889 B( 71-C ,107-H ) :   0.9977

-----------------------------------------------------------------------------
         ABSORPTION SPECTRUM VIA TRANSITION ELECTRIC DIPOLE MOMENTS
-----------------------------------------------------------------------------
State   Energy  Wavelength   fosc         T2         TX        TY        TZ
        (cm-1)    (nm)                  (au**2)     (au)      (au)      (au)
-----------------------------------------------------------------------------
   0   17824.2    561.0   0.870401092  16.07622  -1.89135  -3.30405   1.25789
   1   19153.0    522.1   0.015510484   0.26660   0.07650  -0.28603  -0.42301
   2   19723.1    507.0   0.025916773   0.43260   0.15549   0.50904  -0.38639
   3   24903.5    401.6   0.676277857   8.94007   0.88863   2.74800   0.77387
   4   26866.4    372.2   0.117319881   1.43760   0.37037   0.75090   0.85824
   5   27032.6    369.9   0.238581886   2.90553  -0.31908   1.50063   0.74285
   6   27217.4    367.4   0.087142249   1.05404   0.58571   0.84267   0.02991
   7   27989.2    357.3   0.000157224   0.00185   0.01490   0.03927   0.00924
   8   28294.3    353.4   0.096407778   1.12173  -0.00527   0.68947  -0.80394
   9   28502.7    350.8   0.007378259   0.08522  -0.06665   0.28348   0.02044
  10   28718.3    348.2   0.076574072   0.87781   0.10738  -0.50723   0.78038
  11   28918.9    345.8   0.015431594   0.17567   0.22710  -0.16570   0.31087
  12   29040.9    344.3   0.003942268   0.04469   0.03839   0.13504   0.15805
  13   29316.1    341.1   0.122436437   1.37493   0.19466   0.28499  -1.12063
  14   30020.3    333.1   0.005042728   0.05530   0.13866   0.11091  -0.15419
  15   30321.4    329.8   0.037631893   0.40859   0.16270   0.35324  -0.50729
  16   30703.6    325.7   0.001336796   0.01433   0.04599   0.02768  -0.10702
  17   31154.1    321.0   0.020564759   0.21731   0.15853   0.33636  -0.28115
  18   32151.0    311.0   0.000938923   0.00961  -0.03162   0.09272  -0.00423
  19   32223.1    310.3   0.626570287   6.40145  -0.80090   1.05897   2.15374
  20   32780.8    305.1   0.787467543   7.90839   1.33634   0.90725  -2.30206
  21   33394.0    299.5   0.001204568   0.01188   0.05316  -0.03211  -0.08955
  22   33493.0    298.6   0.013563535   0.13332  -0.18322  -0.08827   0.30325
  23   33623.6    297.4   0.025444657   0.24913  -0.42155   0.16160   0.21287
  24   33821.9    295.7   0.437591645   4.25939  -0.81120   0.85670   1.69334
  25   33917.1    294.8   0.022429347   0.21771   0.17221  -0.06745  -0.42837
  26   34077.3    293.5   0.265450391   2.56444  -0.67099  -0.77371   1.23109
  27   34374.3    290.9   0.051219124   0.49054  -0.17244  -0.00572   0.67880
  28   34804.0    287.3   0.967976229   9.15611   1.45946   0.55254  -2.59245
  29   35571.6    281.1   0.001980889   0.01833  -0.01287  -0.04841   0.12579
  30   35628.1    280.7   0.012282699   0.11349  -0.30003   0.12130   0.09362
  31   35675.1    280.3   0.057821461   0.53358  -0.46770  -0.02539   0.56053
  32   35841.3    279.0   0.002239110   0.02057  -0.08967   0.04408   0.10287
  33   36301.6    275.5   0.001944036   0.01763   0.09338   0.07644   0.05537
  34   36487.7    274.1   0.001763185   0.01591  -0.02019  -0.00014   0.12450
  35   36863.2    271.3   0.300902028   2.68725   0.43307   0.06363  -1.57976
  36   37166.6    269.1   0.013360660   0.11835  -0.14969  -0.08752   0.29712
  37   37491.0    266.7   0.012441004   0.10925  -0.13099  -0.08344   0.29176
  38   37568.4    266.2   0.122192127   1.07077   0.36730   0.16539  -0.95316
  39   38265.7    261.3   0.406474423   3.49703   0.88171   0.36034  -1.60927
  40   38630.4    258.9   0.133858803   1.14076   0.53541   0.33805  -0.86013
  41   38846.6    257.4   0.083247069   0.70549  -0.48528  -0.30151   0.61570
  42   39302.3    254.4   0.000730703   0.00612   0.02579  -0.01664  -0.07196
  43   39581.6    252.6   0.036960795   0.30741  -0.03785  -0.46520   0.29928
  44   39603.6    252.5   0.062938671   0.52319   0.09479   0.56764  -0.43817
  45   39928.7    250.4   0.000263740   0.00217  -0.00749   0.04593  -0.00298
  46   40000.4    250.0   0.004398809   0.03620   0.00537  -0.15491   0.11035
  47   40041.9    249.7   0.110274442   0.90664   0.44743  -0.54302  -0.64154

FINAL SINGLE POINT ENERGY     -3043.062874575902

DIPOLE MOMENT
-------------
                                X             Y             Z
Electronic contribution:     14.09209       3.46488       8.46602
Nuclear contribution   :    -16.91820      -3.62395      -5.29052
                        -----------------------------------------
Total Dipole Moment    :     -2.82611      -0.15907       3.17550
                        -----------------------------------------
Magnitude (a.u.)       :      4.25394
Magnitude (Debye)      :     10.81266

Rotational constants in cm-1:     0.001423     0.000240     0.000209
Rotational constants in MHz :    42.660991     7.196847     6.269822

                             ****ORCA TERMINATED NORMALLY****
TOTAL RUN TIME: 0 days 0 hours 9 minutes 40 seconds 940 msec
