                         Program Version 4.2.0 -  RELEASE  -
|  1> # ORCA input file
|  2> # SCF done       -209.674906534695          0.000657262980
|  3> ! CAM-B3LYP def2-SVP def2/J RIJCOSX Grid4 TightSCF
|  4> %maxcore 5000
|  5> %tddft
|  6>     Mode sTDDFT
|  7>     Ethresh 5.0
|  8>     maxcore 5000
|  9> end
| 10>
| 11> %pal
| 12>   nprocs 6
| 13>   end
| 14> * xyz 0 1
| 15>    C        4.24810         5.73183        -4.07397
| 16>    C        5.21211         6.60475        -3.64231
| 17>    C        6.51768         6.66010        -4.17424
| 18>    N        7.59239         6.75780        -4.56568
| 19>    C        5.06431         7.52615        -2.58391
| 20>    N        5.03023         8.28322        -1.72086
| 21>    C        4.43271         4.69934        -5.08452
| 22>    C        3.27670         3.86907        -5.09371
| 23>    C        3.15803         2.80580        -5.94148
| 24>    C        4.20962         2.52325        -6.84166
| 25>    C        5.36772         3.35354        -6.84342
| 26>    C        5.46347         4.44513        -5.95014
| 27>    C        6.40810         3.06538        -7.75005
| 28>    C        6.31127         2.00858        -8.61383
| 29>    C        5.17050         1.19205        -8.61145
| 30>    C        4.14244         1.44340        -7.74375
| 31>    C        2.30883         4.35434        -4.09493
| 32>    O        1.24680         3.83675        -3.82053
| 33>    C        2.89810         5.60273        -3.54573
| 34>    C        2.27123         6.58136        -2.82976
| 35>    C        0.99395         6.60412        -2.22535
| 36>    S        0.39913         8.16339        -1.68697
| 37>    C       -1.06240         7.47629        -1.07132
| 38>    C       -1.06156         6.08876        -1.26237
| 39>    C        0.08769         5.61215        -1.90912
| 40>    C       -2.08839         5.21455        -0.86524
| 41>    N       -2.89890         4.46416        -0.55360
| 42>    C       -2.03835         8.34027        -0.50282
| 43>    C       -3.19014         7.94826         0.08424
| 44>    C       -4.19609         8.82200         0.63292
| 45>    C       -4.20805        10.20720         0.42309
| 46>    C       -5.21067        10.99126         0.94375
| 47>    C       -6.23835        10.43114         1.70715
| 48>    C       -6.21428         9.05606         1.94796
| 49>    C       -5.22518         8.26679         1.40578
| 50>    C       -7.29589        11.27780         2.27138
| 51>    C       -7.63531        11.02207         3.67907
| 52>    C       -8.96465        10.96923         4.09584
| 53>    C       -9.27417        10.70105         5.41503
| 54>    C       -8.26472        10.48106         6.33829
| 55>    C       -6.94131        10.51956         5.93181
| 56>    C       -6.62753        10.78072         4.61139
| 57>    C       -7.90868        12.23553         1.53197
| 58>    C       -8.78100        13.25999         2.12590
| 59>    C       -8.40685        13.92870         3.29054
| 60>    C       -9.21884        14.90966         3.82579
| 61>    C      -10.41498        15.23937         3.20902
| 62>    C      -10.79065        14.58829         2.04580
| 63>    C       -9.97784        13.61090         1.50334
| 64>    C       -7.74796        12.30436         0.07472
| 65>    C       -7.82320        11.14926        -0.70692
| 66>    C       -7.69969        11.21640        -2.07490
| 67>    C       -7.49004        12.43989        -2.72027
| 68>    C       -7.43109        13.59867        -1.93797
| 69>    C       -7.56855        13.52998        -0.56912
| 70>    C       -7.35349        12.49244        -4.15675
| 71>    S       -7.71950        11.09731        -5.13076
| 72>    C       -7.32515        11.93800        -6.59827
| 73>    C       -6.92575        13.24457        -6.31245
| 74>    C       -6.94832        13.54739        -4.94048
| 75>    C       -6.54231        14.16463        -7.30276
| 76>    N       -6.22773        14.92522        -8.10154
| 77>    C       -7.41473        11.33535        -7.87297
| 78>    C       -7.84445        10.06124        -8.07974
| 79>    C       -7.92172         9.49070        -9.36830
| 80>    C       -8.37440         8.22746        -9.63095
| 81>    C       -8.47207         7.59036       -10.93120
| 82>    C       -8.04777         8.09666       -12.13308
| 83>    C       -8.16453         7.41679       -13.36369
| 84>    N       -8.22810         6.92293       -14.39828
| 85>    C       -7.42444         9.34668       -12.32840
| 86>    N       -6.90532        10.34083       -12.57563
| 87>    C       -9.08802         6.28106       -10.74056
| 88>    C       -9.33509         6.09145        -9.35126
| 89>    C       -8.89112         7.28170        -8.60642
| 90>    O       -8.94858         7.44304        -7.40440
| 91>    C       -9.90688         4.95022        -8.86755
| 92>    C      -10.26824         3.92475        -9.76946
| 93>    C      -10.02716         4.10670       -11.16174
| 94>    C       -9.43179         5.29954       -11.63248
| 95>    C      -10.39298         3.07827       -12.05398
| 96>    C      -10.96927         1.92528       -11.59490
| 97>    C      -11.20638         1.74739       -10.22366
| 98>    C      -10.86312         2.72571        -9.33038
| 99>    H        2.27102         2.18992        -5.92741
|100>    H        6.34892         5.06006        -5.98081
|101>    H        7.28480         3.69632        -7.74729
|102>    H        7.11361         1.79604        -9.30434
|103>    H        5.11013         0.36326        -9.30087
|104>    H        3.26142         0.81840        -7.73744
|105>    H        2.80749         7.51806        -2.72416
|106>    H        0.24558         4.57477        -2.14110
|107>    H       -1.78946         9.39142        -0.55946
|108>    H       -3.39737         6.89100         0.17467
|109>    H       -3.43281        10.67205        -0.16594
|110>    H       -5.20037        12.05803         0.77435
|111>    H       -6.99648         8.61031         2.54557
|112>    H       -5.23227         7.20077         1.58123
|113>    H       -9.75447        11.12606         3.37612
|114>    H      -10.30814        10.65970         5.72437
|115>    H       -8.50916        10.27475         7.36957
|116>    H       -6.15055        10.34330         6.64617
|117>    H       -5.59393        10.81399         4.29643
|118>    H       -7.46883        13.68352         3.76645
|119>    H       -8.91589        15.42249         4.72673
|120>    H      -11.04938        16.00451         3.63088
|121>    H      -11.71995        14.84436         1.55834
|122>    H      -10.27472        13.10054         0.59776
|123>    H       -7.99729        10.19577        -0.23164
|124>    H       -7.76397        10.31182        -2.66239
|125>    H       -7.29112        14.55987        -2.40737
|126>    H       -7.52397        14.43459         0.02015
|127>    H       -6.65991        14.50937        -4.55693
|128>    H       -7.12063        11.95283        -8.71425
|129>    H       -8.14315         9.45440        -7.23606
|130>    H       -7.60209        10.11662       -10.19182
|131>    H      -10.08213         4.83235        -7.80841
|132>    H       -9.26555         5.40538       -12.69257
|133>    H      -10.20807         3.21976       -13.10876
|134>    H      -11.24581         1.14340       -12.28629
|135>    H      -11.66233         0.83133        -9.87883
|136>    H      -11.04301         2.59444        -8.27332
|137> *
|138>
|139>                          ****END OF INPUT****

CARTESIAN COORDINATES (ANGSTROEM)
---------------------------------
  C      4.248100    5.731830   -4.073970
  C      5.212110    6.604750   -3.642310
  C      6.517680    6.660100   -4.174240
  N      7.592390    6.757800   -4.565680
  C      5.064310    7.526150   -2.583910
  N      5.030230    8.283220   -1.720860
  C      4.432710    4.699340   -5.084520
  C      3.276700    3.869070   -5.093710
  C      3.158030    2.805800   -5.941480
  C      4.209620    2.523250   -6.841660
  C      5.367720    3.353540   -6.843420
  C      5.463470    4.445130   -5.950140
  C      6.408100    3.065380   -7.750050
  C      6.311270    2.008580   -8.613830
  C      5.170500    1.192050   -8.611450
  C      4.142440    1.443400   -7.743750
  C      2.308830    4.354340   -4.094930
  O      1.246800    3.836750   -3.820530
  C      2.898100    5.602730   -3.545730
  C      2.271230    6.581360   -2.829760
  C      0.993950    6.604120   -2.225350
  S      0.399130    8.163390   -1.686970
  C     -1.062400    7.476290   -1.071320
  C     -1.061560    6.088760   -1.262370
  C      0.087690    5.612150   -1.909120
  C     -2.088390    5.214550   -0.865240
  N     -2.898900    4.464160   -0.553600
  C     -2.038350    8.340270   -0.502820
  C     -3.190140    7.948260    0.084240
  C     -4.196090    8.822000    0.632920
  C     -4.208050   10.207200    0.423090
  C     -5.210670   10.991260    0.943750
  C     -6.238350   10.431140    1.707150
  C     -6.214280    9.056060    1.947960
  C     -5.225180    8.266790    1.405780
  C     -7.295890   11.277800    2.271380
  C     -7.635310   11.022070    3.679070
  C     -8.964650   10.969230    4.095840
  C     -9.274170   10.701050    5.415030
  C     -8.264720   10.481060    6.338290
  C     -6.941310   10.519560    5.931810
  C     -6.627530   10.780720    4.611390
  C     -7.908680   12.235530    1.531970
  C     -8.781000   13.259990    2.125900
  C     -8.406850   13.928700    3.290540
  C     -9.218840   14.909660    3.825790
  C    -10.414980   15.239370    3.209020
  C    -10.790650   14.588290    2.045800
  C     -9.977840   13.610900    1.503340
  C     -7.747960   12.304360    0.074720
  C     -7.823200   11.149260   -0.706920
  C     -7.699690   11.216400   -2.074900
  C     -7.490040   12.439890   -2.720270
  C     -7.431090   13.598670   -1.937970
  C     -7.568550   13.529980   -0.569120
  C     -7.353490   12.492440   -4.156750
  S     -7.719500   11.097310   -5.130760
  C     -7.325150   11.938000   -6.598270
  C     -6.925750   13.244570   -6.312450
  C     -6.948320   13.547390   -4.940480
  C     -6.542310   14.164630   -7.302760
  N     -6.227730   14.925220   -8.101540
  C     -7.414730   11.335350   -7.872970
  C     -7.844450   10.061240   -8.079740
  C     -7.921720    9.490700   -9.368300
  C     -8.374400    8.227460   -9.630950
  C     -8.472070    7.590360  -10.931200
  C     -8.047770    8.096660  -12.133080
  C     -8.164530    7.416790  -13.363690
  N     -8.228100    6.922930  -14.398280
  C     -7.424440    9.346680  -12.328400
  N     -6.905320   10.340830  -12.575630
  C     -9.088020    6.281060  -10.740560
  C     -9.335090    6.091450   -9.351260
  C     -8.891120    7.281700   -8.606420
  O     -8.948580    7.443040   -7.404400
  C     -9.906880    4.950220   -8.867550
  C    -10.268240    3.924750   -9.769460
  C    -10.027160    4.106700  -11.161740
  C     -9.431790    5.299540  -11.632480
  C    -10.392980    3.078270  -12.053980
  C    -10.969270    1.925280  -11.594900
  C    -11.206380    1.747390  -10.223660
  C    -10.863120    2.725710   -9.330380
  H      2.271020    2.189920   -5.927410
  H      6.348920    5.060060   -5.980810
  H      7.284800    3.696320   -7.747290
  H      7.113610    1.796040   -9.304340
  H      5.110130    0.363260   -9.300870
  H      3.261420    0.818400   -7.737440
  H      2.807490    7.518060   -2.724160
  H      0.245580    4.574770   -2.141100
  H     -1.789460    9.391420   -0.559460
  H     -3.397370    6.891000    0.174670
  H     -3.432810   10.672050   -0.165940
  H     -5.200370   12.058030    0.774350
  H     -6.996480    8.610310    2.545570
  H     -5.232270    7.200770    1.581230
  H     -9.754470   11.126060    3.376120
  H    -10.308140   10.659700    5.724370
  H     -8.509160   10.274750    7.369570
  H     -6.150550   10.343300    6.646170
  H     -5.593930   10.813990    4.296430
  H     -7.468830   13.683520    3.766450
  H     -8.915890   15.422490    4.726730
  H    -11.049380   16.004510    3.630880
  H    -11.719950   14.844360    1.558340
  H    -10.274720   13.100540    0.597760
  H     -7.997290   10.195770   -0.231640
  H     -7.763970   10.311820   -2.662390
  H     -7.291120   14.559870   -2.407370
  H     -7.523970   14.434590    0.020150
  H     -6.659910   14.509370   -4.556930
  H     -7.120630   11.952830   -8.714250
  H     -8.143150    9.454400   -7.236060
  H     -7.602090   10.116620  -10.191820
  H    -10.082130    4.832350   -7.808410
  H     -9.265550    5.405380  -12.692570
  H    -10.208070    3.219760  -13.108760
  H    -11.245810    1.143400  -12.286290
  H    -11.662330    0.831330   -9.878830
  H    -11.043010    2.594440   -8.273320

 Total Charge           Charge          ....    0
 Multiplicity           Mult            ....    1
 Number of Electrons    NEL             ....  572
 Basis Dimension        Dim             .... 1374

ORBITAL ENERGIES
----------------

  NO   OCC          E(Eh)            E(eV)
   0   2.0000     -88.981560     -2421.3113
   1   2.0000     -88.981169     -2421.3007
   2   2.0000     -19.219997      -523.0027
   3   2.0000     -19.216174      -522.8987
   4   2.0000     -14.416065      -392.2811
   5   2.0000     -14.414383      -392.2353
   6   2.0000     -14.414276      -392.2324
   7   2.0000     -14.413726      -392.2174
   8   2.0000     -14.412651      -392.1882
   9   2.0000     -14.411430      -392.1550
  10   2.0000     -10.371355      -282.2189
  11   2.0000     -10.366679      -282.0917
  12   2.0000     -10.343569      -281.4628
  13   2.0000     -10.342243      -281.4267
  14   2.0000     -10.341087      -281.3953
  15   2.0000     -10.340153      -281.3699
  16   2.0000     -10.338734      -281.3313
  17   2.0000     -10.332446      -281.1602
  18   2.0000     -10.329865      -281.0899
  19   2.0000     -10.328445      -281.0513
  20   2.0000     -10.327569      -281.0274
  21   2.0000     -10.324152      -280.9345
  22   2.0000     -10.320164      -280.8259
  23   2.0000     -10.318974      -280.7935
  24   2.0000     -10.317175      -280.7446
  25   2.0000     -10.316966      -280.7389
  26   2.0000     -10.315613      -280.7021
  27   2.0000     -10.315009      -280.6857
  28   2.0000     -10.314738      -280.6783
  29   2.0000     -10.313133      -280.6346
  30   2.0000     -10.312898      -280.6282
  31   2.0000     -10.303838      -280.3817
  32   2.0000     -10.303316      -280.3675
  33   2.0000     -10.302922      -280.3568
  34   2.0000     -10.301694      -280.3234
  35   2.0000     -10.301433      -280.3162
  36   2.0000     -10.301406      -280.3155
  37   2.0000     -10.299411      -280.2612
  38   2.0000     -10.298507      -280.2366
  39   2.0000     -10.298161      -280.2272
  40   2.0000     -10.297923      -280.2207
  41   2.0000     -10.297679      -280.2141
  42   2.0000     -10.297112      -280.1987
  43   2.0000     -10.296929      -280.1937
  44   2.0000     -10.296725      -280.1881
  45   2.0000     -10.296448      -280.1806
  46   2.0000     -10.295526      -280.1555
  47   2.0000     -10.295223      -280.1473
  48   2.0000     -10.291159      -280.0367
  49   2.0000     -10.291043      -280.0335
  50   2.0000     -10.290383      -280.0156
  51   2.0000     -10.289694      -279.9968
  52   2.0000     -10.289074      -279.9799
  53   2.0000     -10.288182      -279.9557
  54   2.0000     -10.287796      -279.9452
  55   2.0000     -10.287109      -279.9265
  56   2.0000     -10.287017      -279.9240
  57   2.0000     -10.286713      -279.9157
  58   2.0000     -10.286637      -279.9136
  59   2.0000     -10.286148      -279.9003
  60   2.0000     -10.285994      -279.8961
  61   2.0000     -10.285842      -279.8920
  62   2.0000     -10.285431      -279.8808
  63   2.0000     -10.285365      -279.8790
  64   2.0000     -10.285040      -279.8702
  65   2.0000     -10.284531      -279.8563
  66   2.0000     -10.283078      -279.8168
  67   2.0000     -10.282962      -279.8136
  68   2.0000     -10.282438      -279.7994
  69   2.0000     -10.282427      -279.7991
  70   2.0000     -10.280307      -279.7414
  71   2.0000     -10.279982      -279.7325
  72   2.0000     -10.279703      -279.7249
  73   2.0000     -10.278930      -279.7039
  74   2.0000     -10.272120      -279.5186
  75   2.0000     -10.271799      -279.5099
  76   2.0000     -10.271492      -279.5015
  77   2.0000     -10.271325      -279.4970
  78   2.0000     -10.271100      -279.4908
  79   2.0000     -10.271049      -279.4894
  80   2.0000     -10.270711      -279.4802
  81   2.0000     -10.270616      -279.4777
  82   2.0000     -10.270407      -279.4720
  83   2.0000     -10.269923      -279.4588
  84   2.0000      -8.077330      -219.7953
  85   2.0000      -8.076316      -219.7677
  86   2.0000      -6.046416      -164.5313
  87   2.0000      -6.045441      -164.5048
  88   2.0000      -6.042389      -164.4218
  89   2.0000      -6.041374      -164.3942
  90   2.0000      -6.039667      -164.3477
  91   2.0000      -6.038669      -164.3205
  92   2.0000      -1.134960       -30.8838
  93   2.0000      -1.130286       -30.7566
  94   2.0000      -1.020416       -27.7669
  95   2.0000      -1.020238       -27.7621
  96   2.0000      -1.017186       -27.6790
  97   2.0000      -1.016291       -27.6547
  98   2.0000      -0.999018       -27.1847
  99   2.0000      -0.997070       -27.1317
 100   2.0000      -0.993678       -27.0393
 101   2.0000      -0.993017       -27.0214
 102   2.0000      -0.991809       -26.9885
 103   2.0000      -0.991199       -26.9719
 104   2.0000      -0.983746       -26.7691
 105   2.0000      -0.972067       -26.4513
 106   2.0000      -0.970480       -26.4081
 107   2.0000      -0.967541       -26.3281
 108   2.0000      -0.958587       -26.0845
 109   2.0000      -0.949398       -25.8344
 110   2.0000      -0.934233       -25.4218
 111   2.0000      -0.930267       -25.3138
 112   2.0000      -0.923597       -25.1323
 113   2.0000      -0.919198       -25.0127
 114   2.0000      -0.913805       -24.8659
 115   2.0000      -0.901395       -24.5282
 116   2.0000      -0.894372       -24.3371
 117   2.0000      -0.886529       -24.1237
 118   2.0000      -0.882411       -24.0116
 119   2.0000      -0.880396       -23.9568
 120   2.0000      -0.879759       -23.9394
 121   2.0000      -0.871476       -23.7141
 122   2.0000      -0.869671       -23.6649
 123   2.0000      -0.860925       -23.4270
 124   2.0000      -0.853086       -23.2136
 125   2.0000      -0.847952       -23.0739
 126   2.0000      -0.845049       -22.9950
 127   2.0000      -0.838559       -22.8183
 128   2.0000      -0.834416       -22.7056
 129   2.0000      -0.832517       -22.6539
 130   2.0000      -0.828524       -22.5453
 131   2.0000      -0.827186       -22.5089
 132   2.0000      -0.823936       -22.4204
 133   2.0000      -0.817014       -22.2321
 134   2.0000      -0.800628       -21.7862
 135   2.0000      -0.787167       -21.4199
 136   2.0000      -0.781663       -21.2701
 137   2.0000      -0.762545       -20.7499
 138   2.0000      -0.760433       -20.6924
 139   2.0000      -0.751999       -20.4629
 140   2.0000      -0.738052       -20.0834
 141   2.0000      -0.735441       -20.0124
 142   2.0000      -0.729262       -19.8442
 143   2.0000      -0.712813       -19.3966
 144   2.0000      -0.707689       -19.2572
 145   2.0000      -0.706683       -19.2298
 146   2.0000      -0.703718       -19.1492
 147   2.0000      -0.702864       -19.1259
 148   2.0000      -0.699351       -19.0303
 149   2.0000      -0.697718       -18.9859
 150   2.0000      -0.692195       -18.8356
 151   2.0000      -0.690346       -18.7853
 152   2.0000      -0.687685       -18.7129
 153   2.0000      -0.684076       -18.6147
 154   2.0000      -0.679896       -18.5009
 155   2.0000      -0.678176       -18.4541
 156   2.0000      -0.676098       -18.3976
 157   2.0000      -0.670133       -18.2352
 158   2.0000      -0.666205       -18.1284
 159   2.0000      -0.657379       -17.8882
 160   2.0000      -0.652107       -17.7447
 161   2.0000      -0.643812       -17.5190
 162   2.0000      -0.640698       -17.4343
 163   2.0000      -0.635771       -17.3002
 164   2.0000      -0.629927       -17.1412
 165   2.0000      -0.620076       -16.8731
 166   2.0000      -0.618601       -16.8330
 167   2.0000      -0.611806       -16.6481
 168   2.0000      -0.608195       -16.5498
 169   2.0000      -0.606521       -16.5043
 170   2.0000      -0.605248       -16.4696
 171   2.0000      -0.602594       -16.3974
 172   2.0000      -0.593138       -16.1401
 173   2.0000      -0.588801       -16.0221
 174   2.0000      -0.584050       -15.8928
 175   2.0000      -0.574488       -15.6326
 176   2.0000      -0.570911       -15.5353
 177   2.0000      -0.564097       -15.3499
 178   2.0000      -0.562351       -15.3023
 179   2.0000      -0.559040       -15.2123
 180   2.0000      -0.555238       -15.1088
 181   2.0000      -0.549620       -14.9559
 182   2.0000      -0.546746       -14.8777
 183   2.0000      -0.546456       -14.8698
 184   2.0000      -0.545035       -14.8312
 185   2.0000      -0.541539       -14.7360
 186   2.0000      -0.539473       -14.6798
 187   2.0000      -0.538767       -14.6606
 188   2.0000      -0.538580       -14.6555
 189   2.0000      -0.536243       -14.5919
 190   2.0000      -0.535001       -14.5581
 191   2.0000      -0.534533       -14.5454
 192   2.0000      -0.530856       -14.4453
 193   2.0000      -0.526339       -14.3224
 194   2.0000      -0.523644       -14.2491
 195   2.0000      -0.522392       -14.2150
 196   2.0000      -0.520816       -14.1721
 197   2.0000      -0.519675       -14.1411
 198   2.0000      -0.518896       -14.1199
 199   2.0000      -0.518073       -14.0975
 200   2.0000      -0.515767       -14.0347
 201   2.0000      -0.514760       -14.0073
 202   2.0000      -0.513025       -13.9601
 203   2.0000      -0.512420       -13.9437
 204   2.0000      -0.511788       -13.9265
 205   2.0000      -0.509986       -13.8774
 206   2.0000      -0.507520       -13.8103
 207   2.0000      -0.504255       -13.7215
 208   2.0000      -0.502894       -13.6844
 209   2.0000      -0.501600       -13.6492
 210   2.0000      -0.498604       -13.5677
 211   2.0000      -0.497973       -13.5505
 212   2.0000      -0.495501       -13.4833
 213   2.0000      -0.495332       -13.4787
 214   2.0000      -0.492801       -13.4098
 215   2.0000      -0.487081       -13.2542
 216   2.0000      -0.486720       -13.2443
 217   2.0000      -0.485366       -13.2075
 218   2.0000      -0.481880       -13.1126
 219   2.0000      -0.477551       -12.9948
 220   2.0000      -0.475043       -12.9266
 221   2.0000      -0.473040       -12.8721
 222   2.0000      -0.471363       -12.8264
 223   2.0000      -0.465607       -12.6698
 224   2.0000      -0.463948       -12.6247
 225   2.0000      -0.461008       -12.5447
 226   2.0000      -0.453425       -12.3383
 227   2.0000      -0.450824       -12.2675
 228   2.0000      -0.449869       -12.2416
 229   2.0000      -0.448296       -12.1987
 230   2.0000      -0.447739       -12.1836
 231   2.0000      -0.446627       -12.1533
 232   2.0000      -0.445916       -12.1340
 233   2.0000      -0.444403       -12.0928
 234   2.0000      -0.442761       -12.0482
 235   2.0000      -0.442712       -12.0468
 236   2.0000      -0.442068       -12.0293
 237   2.0000      -0.440279       -11.9806
 238   2.0000      -0.439149       -11.9499
 239   2.0000      -0.438494       -11.9320
 240   2.0000      -0.438295       -11.9266
 241   2.0000      -0.433811       -11.8046
 242   2.0000      -0.433242       -11.7891
 243   2.0000      -0.433100       -11.7853
 244   2.0000      -0.432421       -11.7668
 245   2.0000      -0.431407       -11.7392
 246   2.0000      -0.430645       -11.7184
 247   2.0000      -0.427351       -11.6288
 248   2.0000      -0.426880       -11.6160
 249   2.0000      -0.424307       -11.5460
 250   2.0000      -0.423674       -11.5288
 251   2.0000      -0.421640       -11.4734
 252   2.0000      -0.420761       -11.4495
 253   2.0000      -0.419124       -11.4049
 254   2.0000      -0.417921       -11.3722
 255   2.0000      -0.416329       -11.3289
 256   2.0000      -0.414008       -11.2657
 257   2.0000      -0.408269       -11.1096
 258   2.0000      -0.407656       -11.0929
 259   2.0000      -0.405425       -11.0322
 260   2.0000      -0.404263       -11.0005
 261   2.0000      -0.397831       -10.8255
 262   2.0000      -0.397522       -10.8171
 263   2.0000      -0.381192       -10.3728
 264   2.0000      -0.378321       -10.2946
 265   2.0000      -0.373715       -10.1693
 266   2.0000      -0.365443        -9.9442
 267   2.0000      -0.354835        -9.6556
 268   2.0000      -0.345559        -9.4031
 269   2.0000      -0.344618        -9.3775
 270   2.0000      -0.341211        -9.2848
 271   2.0000      -0.337763        -9.1910
 272   2.0000      -0.337225        -9.1764
 273   2.0000      -0.335091        -9.1183
 274   2.0000      -0.333563        -9.0767
 275   2.0000      -0.326301        -8.8791
 276   2.0000      -0.323631        -8.8064
 277   2.0000      -0.322722        -8.7817
 278   2.0000      -0.317555        -8.6411
 279   2.0000      -0.315590        -8.5876
 280   2.0000      -0.313248        -8.5239
 281   2.0000      -0.295429        -8.0390
 282   2.0000      -0.294369        -8.0102
 283   2.0000      -0.282893        -7.6979
 284   2.0000      -0.272636        -7.4188
 285   2.0000      -0.253277        -6.8920
 286   0.0000      -0.104987        -2.8568
 287   0.0000      -0.098604        -2.6832
 288   0.0000      -0.064013        -1.7419
 289   0.0000      -0.060023        -1.6333
 290   0.0000      -0.052177        -1.4198

MULLIKEN ATOMIC CHARGES
-----------------------
   0 C :    0.301077
   1 C :   -0.343626
   2 C :   -0.183355
   3 N :    0.150065
   4 C :   -0.206750
   5 N :    0.161211
   6 C :    0.046014
   7 C :   -0.003783
   8 C :   -0.081073
   9 C :    0.098565
  10 C :    0.095156
  11 C :   -0.080435
  12 C :   -0.017499
  13 C :    0.035224
  14 C :    0.035668
  15 C :   -0.016802
  16 C :    0.158929
  17 O :   -0.152725
  18 C :   -0.092282
  19 C :    0.049375
  20 C :   -0.105003
  21 S :    0.164920
  22 C :   -0.040001
  23 C :   -0.098080
  24 C :    0.052158
  25 C :   -0.163579
  26 N :    0.112315
  27 C :    0.054754
  28 C :   -0.005085
  29 C :    0.106182
  30 C :   -0.023630
  31 C :    0.057766
  32 C :   -0.048157
  33 C :    0.026680
  34 C :   -0.024919
  35 C :    0.052654
  36 C :   -0.035898
  37 C :    0.041735
  38 C :    0.013533
  39 C :    0.028811
  40 C :    0.017101
  41 C :    0.004247
  42 C :    0.059735
  43 C :   -0.041469
  44 C :    0.043158
  45 C :    0.015322
  46 C :    0.024644
  47 C :    0.019322
  48 C :    0.006651
  49 C :   -0.043430
  50 C :    0.058521
  51 C :   -0.053798
  52 C :    0.151042
  53 C :   -0.041700
  54 C :    0.024142
  55 C :   -0.041379
  56 S :    0.144444
  57 C :   -0.043065
  58 C :   -0.035118
  59 C :   -0.001932
  60 C :   -0.191964
  61 N :    0.142414
  62 C :    0.022214
  63 C :   -0.013891
  64 C :   -0.037488
  65 C :   -0.069165
  66 C :    0.338014
  67 C :   -0.354266
  68 C :   -0.180440
  69 N :    0.144720
  70 C :   -0.194982
  71 N :    0.153609
  72 C :    0.049759
  73 C :   -0.001347
  74 C :    0.150604
  75 O :   -0.155070
  76 C :   -0.084079
  77 C :    0.100696
  78 C :    0.099345
  79 C :   -0.089373
  80 C :   -0.022158
  81 C :    0.036787
  82 C :    0.038655
  83 C :   -0.019397
  84 H :   -0.011661
  85 H :   -0.005942
  86 H :   -0.008479
  87 H :   -0.003667
  88 H :   -0.003705
  89 H :   -0.016257
  90 H :    0.019521
  91 H :    0.026051
  92 H :   -0.014910
  93 H :    0.006090
  94 H :   -0.023092
  95 H :   -0.015571
  96 H :   -0.008047
  97 H :   -0.008151
  98 H :   -0.014702
  99 H :   -0.015546
 100 H :   -0.013740
 101 H :   -0.014142
 102 H :   -0.014308
 103 H :   -0.014922
 104 H :   -0.015505
 105 H :   -0.013036
 106 H :   -0.015968
 107 H :   -0.014865
 108 H :   -0.012430
 109 H :   -0.006254
 110 H :   -0.022994
 111 H :   -0.007556
 112 H :   -0.003113
 113 H :    0.030627
 114 H :    0.032329
 115 H :    0.013514
 116 H :   -0.013950
 117 H :   -0.008663
 118 H :   -0.008444
 119 H :   -0.004786
 120 H :   -0.006087
 121 H :   -0.017386
Sum of atomic charges:   -0.0000000

LOEWDIN ATOMIC CHARGES
----------------------
   0 C :    0.076573
   1 C :   -0.140635
   2 C :   -0.017501
   3 N :   -0.052924
   4 C :   -0.026342
   5 N :   -0.051722
   6 C :   -0.026566
   7 C :   -0.055345
   8 C :    0.032601
   9 C :   -0.008073
  10 C :   -0.006071
  11 C :    0.020028
  12 C :   -0.005178
  13 C :   -0.012956
  14 C :   -0.011789
  15 C :   -0.009460
  16 C :    0.087116
  17 O :   -0.140726
  18 C :   -0.090278
  19 C :    0.047030
  20 C :   -0.184655
  21 S :    0.475850
  22 C :   -0.113602
  23 C :   -0.118032
  24 C :    0.026582
  25 C :   -0.025282
  26 N :   -0.058905
  27 C :   -0.061517
  28 C :    0.028082
  29 C :   -0.034422
  30 C :   -0.007289
  31 C :   -0.006529
  32 C :   -0.014145
  33 C :   -0.013116
  34 C :   -0.005199
  35 C :   -0.010290
  36 C :   -0.028878
  37 C :   -0.007743
  38 C :   -0.022994
  39 C :   -0.021602
  40 C :   -0.024392
  41 C :   -0.017788
  42 C :   -0.011838
  43 C :   -0.028936
  44 C :   -0.007771
  45 C :   -0.022595
  46 C :   -0.022165
  47 C :   -0.024399
  48 C :   -0.018514
  49 C :   -0.015985
  50 C :   -0.001041
  51 C :   -0.021137
  52 C :   -0.045257
  53 C :   -0.009943
  54 C :   -0.009092
  55 C :   -0.136100
  56 S :    0.482813
  57 C :   -0.153100
  58 C :   -0.084966
  59 C :   -0.035285
  60 C :   -0.034269
  61 N :   -0.043086
  62 C :    0.013893
  63 C :   -0.031090
  64 C :    0.066793
  65 C :   -0.089382
  66 C :    0.074398
  67 C :   -0.138098
  68 C :   -0.016502
  69 N :   -0.054726
  70 C :   -0.021924
  71 N :   -0.049572
  72 C :   -0.025183
  73 C :   -0.055669
  74 C :    0.085625
  75 O :   -0.148338
  76 C :    0.031560
  77 C :   -0.008398
  78 C :   -0.006108
  79 C :    0.018777
  80 C :   -0.005494
  81 C :   -0.013779
  82 C :   -0.012489
  83 C :   -0.009868
  84 H :    0.039245
  85 H :    0.039287
  86 H :    0.034924
  87 H :    0.033588
  88 H :    0.033168
  89 H :    0.032166
  90 H :    0.044360
  91 H :    0.043700
  92 H :    0.028161
  93 H :    0.039731
  94 H :    0.027470
  95 H :    0.032647
  96 H :    0.033897
  97 H :    0.033779
  98 H :    0.030832
  99 H :    0.028793
 100 H :    0.027897
 101 H :    0.028739
 102 H :    0.029083
 103 H :    0.030834
 104 H :    0.028856
 105 H :    0.028025
 106 H :    0.028298
 107 H :    0.028762
 108 H :    0.034806
 109 H :    0.023300
 110 H :    0.029045
 111 H :    0.034393
 112 H :    0.038446
 113 H :    0.048711
 114 H :    0.027577
 115 H :    0.043813
 116 H :    0.038563
 117 H :    0.038986
 118 H :    0.034896
 119 H :    0.033210
 120 H :    0.032538
 121 H :    0.031798

  Mayer bond orders larger than 0.100000
B(  0-C ,  1-C ) :   1.6374 B(  0-C ,  6-C ) :   0.9897 B(  0-C , 18-C ) :   1.0634
B(  1-C ,  2-C ) :   1.1459 B(  1-C ,  4-C ) :   1.1368 B(  2-C ,  3-N ) :   2.9700
B(  4-C ,  5-N ) :   2.9970 B(  6-C ,  7-C ) :   1.2139 B(  6-C , 11-C ) :   1.4531
B(  7-C ,  8-C ) :   1.4700 B(  7-C , 16-C ) :   0.9533 B(  8-C ,  9-C ) :   1.1814
B(  8-C , 84-H ) :   1.0162 B(  9-C , 10-C ) :   1.2550 B(  9-C , 15-C ) :   1.2438
B( 10-C , 11-C ) :   1.2050 B( 10-C , 12-C ) :   1.2427 B( 11-C , 85-H ) :   0.9901
B( 12-C , 13-C ) :   1.4883 B( 12-C , 86-H ) :   0.9968 B( 13-C , 14-C ) :   1.2602
B( 13-C , 87-H ) :   0.9885 B( 14-C , 15-C ) :   1.4894 B( 14-C , 88-H ) :   0.9888
B( 15-C , 89-H ) :   0.9975 B( 16-C , 17-O ) :   2.1837 B( 16-C , 18-C ) :   0.9380
B( 18-C , 19-C ) :   1.6185 B( 19-C , 20-C ) :   1.1822 B( 19-C , 90-H ) :   0.9221
B( 20-C , 21-S ) :   1.0908 B( 20-C , 24-C ) :   1.4456 B( 21-S , 22-C ) :   1.1807
B( 22-C , 23-C ) :   1.4073 B( 22-C , 27-C ) :   1.1454 B( 23-C , 24-C ) :   1.3045
B( 23-C , 25-C ) :   1.1176 B( 24-C , 91-H ) :   0.9841 B( 25-C , 26-N ) :   2.9673
B( 27-C , 28-C ) :   1.6720 B( 27-C , 92-H ) :   0.9422 B( 28-C , 29-C ) :   1.0866
B( 28-C , 93-H ) :   0.9721 B( 29-C , 30-C ) :   1.3199 B( 29-C , 34-C ) :   1.3206
B( 30-C , 31-C ) :   1.4149 B( 30-C , 94-H ) :   0.9915 B( 31-C , 32-C ) :   1.3526
B( 31-C , 95-H ) :   0.9867 B( 32-C , 33-C ) :   1.3709 B( 32-C , 35-C ) :   0.9818
B( 33-C , 34-C ) :   1.3750 B( 33-C , 96-H ) :   0.9937 B( 34-C , 97-H ) :   1.0023
B( 35-C , 36-C ) :   0.9831 B( 35-C , 42-C ) :   1.7750 B( 36-C , 37-C ) :   1.3818
B( 36-C , 41-C ) :   1.3821 B( 37-C , 38-C ) :   1.3918 B( 37-C , 98-H ) :   0.9904
B( 38-C , 39-C ) :   1.3765 B( 38-C , 99-H ) :   0.9922 B( 39-C , 40-C ) :   1.3855
B( 39-C ,100-H ) :   0.9935 B( 40-C , 41-C ) :   1.3814 B( 40-C ,101-H ) :   0.9907
B( 41-C ,102-H ) :   0.9930 B( 42-C , 43-C ) :   0.9819 B( 42-C , 49-C ) :   0.9818
B( 43-C , 44-C ) :   1.3808 B( 43-C , 48-C ) :   1.3826 B( 44-C , 45-C ) :   1.3917
B( 44-C ,103-H ) :   0.9912 B( 45-C , 46-C ) :   1.3760 B( 45-C ,104-H ) :   0.9921
B( 46-C , 47-C ) :   1.3840 B( 46-C ,105-H ) :   0.9943 B( 47-C , 48-C ) :   1.3830
B( 47-C ,106-H ) :   0.9911 B( 48-C ,107-H ) :   0.9925 B( 49-C , 50-C ) :   1.3635
B( 49-C , 54-C ) :   1.3654 B( 50-C , 51-C ) :   1.4108 B( 50-C ,108-H ) :   0.9881
B( 51-C , 52-C ) :   1.3156 B( 51-C ,109-H ) :   0.9886 B( 52-C , 53-C ) :   1.3424
B( 52-C , 55-C ) :   1.0602 B( 53-C , 54-C ) :   1.3935 B( 53-C ,110-H ) :   0.9964
B( 54-C ,111-H ) :   0.9916 B( 55-C , 56-S ) :   1.1386 B( 55-C , 59-C ) :   1.5037
B( 56-S , 57-C ) :   1.1146 B( 57-C , 58-C ) :   1.4339 B( 57-C , 62-C ) :   1.1741
B( 58-C , 59-C ) :   1.2792 B( 58-C , 60-C ) :   1.1035 B( 59-C ,112-H ) :   0.9991
B( 60-C , 61-N ) :   3.0202 B( 62-C , 63-C ) :   1.5467 B( 62-C ,113-H ) :   0.9741
B( 63-C , 64-C ) :   1.1670 B( 63-C ,114-H ) :   0.9755 B( 64-C , 65-C ) :   1.5376
B( 64-C ,115-H ) :   0.9644 B( 65-C , 66-C ) :   1.0625 B( 65-C , 74-C ) :   0.9427
B( 66-C , 67-C ) :   1.6264 B( 66-C , 72-C ) :   0.9862 B( 67-C , 68-C ) :   1.1470
B( 67-C , 70-C ) :   1.1468 B( 68-C , 69-N ) :   2.9600 B( 70-C , 71-N ) :   2.9639
B( 72-C , 73-C ) :   1.2158 B( 72-C , 79-C ) :   1.4462 B( 73-C , 74-C ) :   0.9458
B( 73-C , 76-C ) :   1.4690 B( 74-C , 75-O ) :   2.1924 B( 76-C , 77-C ) :   1.1772
B( 76-C ,116-H ) :   1.0169 B( 77-C , 78-C ) :   1.2563 B( 77-C , 83-C ) :   1.2432
B( 78-C , 79-C ) :   1.2059 B( 78-C , 80-C ) :   1.2380 B( 79-C ,117-H ) :   0.9900
B( 80-C , 81-C ) :   1.4897 B( 80-C ,118-H ) :   0.9979 B( 81-C , 82-C ) :   1.2582
B( 81-C ,119-H ) :   0.9886 B( 82-C , 83-C ) :   1.4904 B( 82-C ,120-H ) :   0.9880
B( 83-C ,121-H ) :   0.9979

-----------------------------------------------------------------------------
         ABSORPTION SPECTRUM VIA TRANSITION ELECTRIC DIPOLE MOMENTS
-----------------------------------------------------------------------------
State   Energy  Wavelength   fosc         T2         TX        TY        TZ
        (cm-1)    (nm)                  (au**2)     (au)      (au)      (au)
-----------------------------------------------------------------------------
   0   18983.2    526.8   0.790647989  13.71164  -2.46786  -0.98942  -2.57727
   1   20760.8    481.7   1.894923455  30.04848  -3.33100   2.74959   3.37530
   2   23918.4    418.1   0.227178568   3.12688   0.26327   1.49186   0.91210
   3   25208.0    396.7   0.116182825   1.51733   0.86049   0.58007  -0.66362
   4   25633.6    390.1   0.146099413   1.87635  -0.40665  -1.23313  -0.43631
   5   26713.1    374.3   0.119579186   1.47369  -0.60433   0.33032   0.99969
   6   26766.0    373.6   0.000050509   0.00062   0.00853   0.01897   0.01373
   7   28100.3    355.9   0.121199832   1.41993  -0.59541   1.01004   0.21267
   8   28291.7    353.5   0.010197678   0.11866  -0.00118   0.27486   0.20764
   9   28378.4    352.4   0.045757008   0.53082   0.28164  -0.64772   0.17876
  10   28698.8    348.4   0.208991194   2.39739  -1.02128   1.01154   0.57548
  11   29466.8    339.4   0.034177149   0.38184   0.27460  -0.28740   0.47311
  12   29789.2    335.7   0.178561034   1.97334   0.88701   1.04337   0.31296
  13   30308.3    329.9   0.214814962   2.33334  -0.23802   1.11980  -1.01130
  14   30424.7    328.7   0.300046166   3.24666  -0.18912   1.31125   1.22127
  15   32208.1    310.5   0.335611052   3.43042  -0.78913  -0.19047   1.66476
  16   33140.3    301.7   0.350368004   3.48051   0.39082   1.75734   0.48940
  17   33169.5    301.5   0.108708585   1.07895   0.62672   0.03303  -0.82769
  18   33425.2    299.2   0.005432885   0.05351  -0.07806  -0.21668   0.02156
  19   33821.9    295.7   0.218243420   2.12432  -0.15303   0.90417   1.13286
  20   33950.4    294.5   0.243288337   2.35913  -0.46324  -1.25808  -0.74952
  21   34175.5    292.6   0.273647465   2.63604  -0.81200  -1.12096   0.84862
  22   34266.9    291.8   0.172243818   1.65480  -0.21954  -1.25650  -0.16677
  23   34553.9    289.4   0.193318575   1.84184  -0.17092   0.87877   1.01999
  24   34646.4    288.6   0.010573412   0.10047  -0.05325  -0.13798  -0.28035
  25   34960.5    286.0   0.075160161   0.70776  -0.00091   0.70239  -0.46304
  26   35015.1    285.6   0.022010143   0.20694   0.30263   0.02197  -0.33893
  27   35334.7    283.0   0.192725390   1.79561  -0.28516  -1.30464  -0.11044
  28   35538.1    281.4   0.046223515   0.42820  -0.17476  -0.26311   0.57309
  29   35700.5    280.1   0.003789853   0.03495  -0.08507   0.12728  -0.10728
  30   36197.5    276.3   0.005967888   0.05428  -0.12815  -0.19397  -0.01523
  31   36387.6    274.8   0.040568858   0.36704   0.14242   0.53923  -0.23662
  32   36513.2    273.9   0.059419038   0.53574   0.35480   0.25780  -0.58600
  33   36753.7    272.1   0.028373368   0.25415   0.02370   0.43853  -0.24755
  34   37308.2    268.0   0.087715416   0.77401  -0.61490  -0.52132   0.35233
  35   37776.5    264.7   0.021775841   0.18977   0.31212  -0.14715   0.26589
  36   37870.4    264.1   0.006120790   0.05321   0.04245   0.19939   0.10794
  37   38124.4    262.3   0.020670918   0.17850  -0.05639   0.40136   0.11927
  38   38370.6    260.6   0.264191865   2.26671   0.53645   0.47751  -1.32322
  39   38628.1    258.9   0.063103145   0.53780   0.14834  -0.28460   0.65939
  40   38894.8    257.1   0.097905600   0.82869   0.55417   0.64493   0.32504
  41   38979.2    256.5   0.009597826   0.08106   0.20941  -0.00408  -0.19286
  42   39195.1    255.1   0.027891119   0.23427   0.35892   0.10772  -0.30633
  43   39382.7    253.9   0.004334611   0.03623  -0.09232  -0.09151   0.13906
  44   39555.0    252.8   0.038908026   0.32383  -0.42893  -0.27013   0.25861
  45   39692.4    251.9   0.033028400   0.27394  -0.05670  -0.43725  -0.28202
  46   39885.2    250.7   0.016532802   0.13646   0.35036  -0.09810  -0.06392
  47   40085.6    249.5   0.017744328   0.14573   0.07757   0.18676  -0.32378
  48   40260.7    248.4   0.266607746   2.18005   1.20804   0.84818  -0.03574

FINAL SINGLE POINT ENERGY     -4113.499523569124

DIPOLE MOMENT
-------------
                                X             Y             Z
Electronic contribution:     35.40894      -7.11012     -41.78265
Nuclear contribution   :    -37.87159       5.53145      44.28644
                        -----------------------------------------
Total Dipole Moment    :     -2.46266      -1.57866       2.50378
                        -----------------------------------------
Magnitude (a.u.)       :      3.85043
Magnitude (Debye)      :      9.78701

Rotational constants in cm-1:     0.000447     0.000354     0.000230
Rotational constants in MHz :    13.393342    10.608332     6.902295

                             ****ORCA TERMINATED NORMALLY****
TOTAL RUN TIME: 0 days 0 hours 13 minutes 7 seconds 202 msec
