                         Program Version 4.2.0 -  RELEASE  -
|  1> # ORCA input file
|  2> # SCF done       -200.131444037639          0.000879228477
|  3> ! CAM-B3LYP def2-SVP def2/J RIJCOSX Grid4 TightSCF
|  4> %maxcore 5000
|  5> %tddft
|  6>     Mode sTDDFT
|  7>     Ethresh 5.0
|  8>     maxcore 5000
|  9> end
| 10>
| 11> %pal
| 12>   nprocs 6
| 13>   end
| 14> * xyz 0 1
| 15>    C        0.64704         0.52110        -0.43775
| 16>    C       -0.05655         0.80682        -1.57761
| 17>    C       -0.64201        -0.17393        -2.40589
| 18>    N       -1.13830        -0.92861        -3.11323
| 19>    C       -0.21520         2.10619        -2.09467
| 20>    N       -0.35607         3.15378        -2.54314
| 21>    C        1.01162        -0.81745         0.01176
| 22>    C        2.10625        -0.71248         0.91971
| 23>    C        2.68089        -1.81693         1.48098
| 24>    C        2.17153        -3.09574         1.16221
| 25>    C        1.06604        -3.20557         0.26911
| 26>    C        0.49456        -2.04537        -0.30194
| 27>    C        0.56198        -4.48672        -0.03350
| 28>    C        1.12313        -5.60734         0.51585
| 29>    C        2.21202        -5.49860         1.39380
| 30>    C        2.72523        -4.26990         1.70985
| 31>    C        2.43830         0.70651         1.11991
| 32>    O        3.33936         1.18646         1.76513
| 33>    C        1.36939         1.46453         0.39188
| 34>    C        1.20337         2.78134         0.67494
| 35>    C        0.08995         3.62638         0.42400
| 36>    C       -1.24888         3.29956         0.27994
| 37>    F       -1.71957         2.05092         0.37795
| 38>    C       -2.08444         4.39931         0.08707
| 39>    F       -3.40786         4.24703        -0.00201
| 40>    C       -1.41324         5.61609         0.06583
| 41>    S        0.28188         5.34733         0.37369
| 42>    C       -1.84268         6.96284        -0.11264
| 43>    N       -3.01128         7.43828        -0.64355
| 44>    C       -4.09299         6.73160        -1.29368
| 45>    C       -5.29252         6.56429        -0.36601
| 46>    C       -3.06615         8.85170        -0.59612
| 47>    O       -4.00266         9.49088        -1.02423
| 48>    C       -1.81760         9.24748         0.01300
| 49>    C       -1.08070         8.07129         0.26612
| 50>    C        0.18355         8.44742         0.85463
| 51>    O        1.13976         7.78265         1.20284
| 52>    N        0.12516         9.84575         0.93412
| 53>    C        1.21062        10.60614         1.50648
| 54>    C        0.92312        11.00847         2.95076
| 55>    C       -1.06118        10.34490         0.44128
| 56>    C       -1.39263        11.71528         0.41297
| 57>    C       -2.59724        12.16459        -0.04697
| 58>    C       -3.00686        13.51543        -0.06457
| 59>    C       -4.25200        13.96092        -0.46878
| 60>    C       -4.32172        15.37213        -0.31941
| 61>    C       -3.00243        15.79064         0.19746
| 62>    C       -2.23448        14.68168         0.34823
| 63>    C       -2.58234        17.09458         0.48485
| 64>    N       -2.19417        18.14783         0.72871
| 65>    C       -5.39739        16.19240        -0.57687
| 66>    C       -5.46823        17.61102        -0.41721
| 67>    C       -6.70865        18.04958        -0.82256
| 68>    C       -7.49508        16.88165        -1.20188
| 69>    C       -6.72103        15.77347        -1.06000
| 70>    C       -7.15776        14.46552        -1.30265
| 71>    N       -7.55629        13.40643        -1.49744
| 72>    C       -7.15116        19.40148        -0.81953
| 73>    C       -8.05198        19.94145        -1.68581
| 74>    C       -8.64875        21.26409        -1.62868
| 75>    C       -8.60238        22.12840        -0.56643
| 76>    C       -9.22412        23.39481        -0.55046
| 77>    N       -9.70362        24.43530        -0.47951
| 78>    C       -7.95903        21.86509         0.66151
| 79>    N       -7.47869        21.70920         1.69256
| 80>    C       -9.38222        21.47526        -2.87044
| 81>    C       -9.27224        20.30214        -3.67153
| 82>    C       -8.44163        19.30682        -2.97702
| 83>    O       -8.08153        18.23081        -3.40301
| 84>    C       -9.86948        20.20362        -4.89540
| 85>    C      -10.62456        21.29356        -5.38224
| 86>    C      -10.73699        22.47262        -4.58949
| 87>    C      -10.10247        22.54720        -3.32842
| 88>    C      -11.49156        23.55488        -5.08633
| 89>    C      -12.10717        23.47736        -6.30599
| 90>    C      -11.99579        22.31606        -7.08533
| 91>    C      -11.27032        21.24719        -6.63333
| 92>    H        3.51336        -1.71658         2.16141
| 93>    H       -0.34963        -2.15525        -0.96443
| 94>    H       -0.27440        -4.56536        -0.71229
| 95>    H        0.73113        -6.58436         0.27629
| 96>    H        2.64174        -6.39322         1.81884
| 97>    H        3.56316        -4.18026         2.38553
| 98>    H        2.02031         3.24219         1.22222
| 99>    H       -3.73180         5.77429        -1.66535
|100>    H       -4.39322         7.34808        -2.14681
|101>    H       -5.02176         6.01229         0.52952
|102>    H       -6.07702         6.02132        -0.88405
|103>    H       -5.67269         7.54142        -0.07972
|104>    H        1.40732        11.48518         0.88663
|105>    H        2.08639         9.95201         1.47614
|106>    H        0.02633        11.62068         3.01696
|107>    H        1.76222        11.57183         3.34921
|108>    H        0.78047        10.12040         3.56127
|109>    H       -0.66039        12.41671         0.78516
|110>    H       -3.31894        11.44783        -0.41663
|111>    H       -5.04701        13.33793        -0.82902
|112>    H       -1.22196        14.66691         0.70655
|113>    H       -4.66018        18.23326        -0.08404
|114>    H       -8.52886        16.89543        -1.48650
|115>    H       -6.69213        20.03799        -0.07249
|116>    H       -9.76975        19.30281        -5.48269
|117>    H      -10.20099        23.45587        -2.75601
|118>    H      -11.57524        24.44654        -4.48255
|119>    H      -12.68394        24.31113        -6.67717
|120>    H      -12.48763        22.27256        -8.04549
|121>    H      -11.18078        20.35036        -7.22866
|122> *
|123>
|124>                          ****END OF INPUT****

CARTESIAN COORDINATES (ANGSTROEM)
---------------------------------
  C      0.647040    0.521100   -0.437750
  C     -0.056550    0.806820   -1.577610
  C     -0.642010   -0.173930   -2.405890
  N     -1.138300   -0.928610   -3.113230
  C     -0.215200    2.106190   -2.094670
  N     -0.356070    3.153780   -2.543140
  C      1.011620   -0.817450    0.011760
  C      2.106250   -0.712480    0.919710
  C      2.680890   -1.816930    1.480980
  C      2.171530   -3.095740    1.162210
  C      1.066040   -3.205570    0.269110
  C      0.494560   -2.045370   -0.301940
  C      0.561980   -4.486720   -0.033500
  C      1.123130   -5.607340    0.515850
  C      2.212020   -5.498600    1.393800
  C      2.725230   -4.269900    1.709850
  C      2.438300    0.706510    1.119910
  O      3.339360    1.186460    1.765130
  C      1.369390    1.464530    0.391880
  C      1.203370    2.781340    0.674940
  C      0.089950    3.626380    0.424000
  C     -1.248880    3.299560    0.279940
  F     -1.719570    2.050920    0.377950
  C     -2.084440    4.399310    0.087070
  F     -3.407860    4.247030   -0.002010
  C     -1.413240    5.616090    0.065830
  S      0.281880    5.347330    0.373690
  C     -1.842680    6.962840   -0.112640
  N     -3.011280    7.438280   -0.643550
  C     -4.092990    6.731600   -1.293680
  C     -5.292520    6.564290   -0.366010
  C     -3.066150    8.851700   -0.596120
  O     -4.002660    9.490880   -1.024230
  C     -1.817600    9.247480    0.013000
  C     -1.080700    8.071290    0.266120
  C      0.183550    8.447420    0.854630
  O      1.139760    7.782650    1.202840
  N      0.125160    9.845750    0.934120
  C      1.210620   10.606140    1.506480
  C      0.923120   11.008470    2.950760
  C     -1.061180   10.344900    0.441280
  C     -1.392630   11.715280    0.412970
  C     -2.597240   12.164590   -0.046970
  C     -3.006860   13.515430   -0.064570
  C     -4.252000   13.960920   -0.468780
  C     -4.321720   15.372130   -0.319410
  C     -3.002430   15.790640    0.197460
  C     -2.234480   14.681680    0.348230
  C     -2.582340   17.094580    0.484850
  N     -2.194170   18.147830    0.728710
  C     -5.397390   16.192400   -0.576870
  C     -5.468230   17.611020   -0.417210
  C     -6.708650   18.049580   -0.822560
  C     -7.495080   16.881650   -1.201880
  C     -6.721030   15.773470   -1.060000
  C     -7.157760   14.465520   -1.302650
  N     -7.556290   13.406430   -1.497440
  C     -7.151160   19.401480   -0.819530
  C     -8.051980   19.941450   -1.685810
  C     -8.648750   21.264090   -1.628680
  C     -8.602380   22.128400   -0.566430
  C     -9.224120   23.394810   -0.550460
  N     -9.703620   24.435300   -0.479510
  C     -7.959030   21.865090    0.661510
  N     -7.478690   21.709200    1.692560
  C     -9.382220   21.475260   -2.870440
  C     -9.272240   20.302140   -3.671530
  C     -8.441630   19.306820   -2.977020
  O     -8.081530   18.230810   -3.403010
  C     -9.869480   20.203620   -4.895400
  C    -10.624560   21.293560   -5.382240
  C    -10.736990   22.472620   -4.589490
  C    -10.102470   22.547200   -3.328420
  C    -11.491560   23.554880   -5.086330
  C    -12.107170   23.477360   -6.305990
  C    -11.995790   22.316060   -7.085330
  C    -11.270320   21.247190   -6.633330
  H      3.513360   -1.716580    2.161410
  H     -0.349630   -2.155250   -0.964430
  H     -0.274400   -4.565360   -0.712290
  H      0.731130   -6.584360    0.276290
  H      2.641740   -6.393220    1.818840
  H      3.563160   -4.180260    2.385530
  H      2.020310    3.242190    1.222220
  H     -3.731800    5.774290   -1.665350
  H     -4.393220    7.348080   -2.146810
  H     -5.021760    6.012290    0.529520
  H     -6.077020    6.021320   -0.884050
  H     -5.672690    7.541420   -0.079720
  H      1.407320   11.485180    0.886630
  H      2.086390    9.952010    1.476140
  H      0.026330   11.620680    3.016960
  H      1.762220   11.571830    3.349210
  H      0.780470   10.120400    3.561270
  H     -0.660390   12.416710    0.785160
  H     -3.318940   11.447830   -0.416630
  H     -5.047010   13.337930   -0.829020
  H     -1.221960   14.666910    0.706550
  H     -4.660180   18.233260   -0.084040
  H     -8.528860   16.895430   -1.486500
  H     -6.692130   20.037990   -0.072490
  H     -9.769750   19.302810   -5.482690
  H    -10.200990   23.455870   -2.756010
  H    -11.575240   24.446540   -4.482550
  H    -12.683940   24.311130   -6.677170
  H    -12.487630   22.272560   -8.045490
  H    -11.180780   20.350360   -7.228660

 Total Charge           Charge          ....    0
 Multiplicity           Mult            ....    1
 Number of Electrons    NEL             ....  524
 Basis Dimension        Dim             .... 1232

ORBITAL ENERGIES
----------------

  NO   OCC          E(Eh)            E(eV)
   0   2.0000     -88.982959     -2421.3494
   1   2.0000     -24.817511      -675.3188
   2   2.0000     -24.816767      -675.2986
   3   2.0000     -19.227577      -523.2090
   4   2.0000     -19.218493      -522.9618
   5   2.0000     -19.203393      -522.5509
   6   2.0000     -19.199904      -522.4559
   7   2.0000     -14.466898      -393.6643
   8   2.0000     -14.464349      -393.5949
   9   2.0000     -14.421975      -392.4419
  10   2.0000     -14.421658      -392.4333
  11   2.0000     -14.420049      -392.3895
  12   2.0000     -14.417497      -392.3200
  13   2.0000     -14.415530      -392.2665
  14   2.0000     -14.404142      -391.9566
  15   2.0000     -10.389560      -282.7143
  16   2.0000     -10.387540      -282.6593
  17   2.0000     -10.384436      -282.5749
  18   2.0000     -10.384351      -282.5725
  19   2.0000     -10.377317      -282.3812
  20   2.0000     -10.369240      -282.1614
  21   2.0000     -10.363333      -282.0006
  22   2.0000     -10.351087      -281.6674
  23   2.0000     -10.351063      -281.6667
  24   2.0000     -10.347703      -281.5753
  25   2.0000     -10.346435      -281.5408
  26   2.0000     -10.342734      -281.4401
  27   2.0000     -10.341881      -281.4169
  28   2.0000     -10.330768      -281.1145
  29   2.0000     -10.330322      -281.1024
  30   2.0000     -10.329175      -281.0711
  31   2.0000     -10.327719      -281.0315
  32   2.0000     -10.327579      -281.0277
  33   2.0000     -10.324517      -280.9444
  34   2.0000     -10.323831      -280.9257
  35   2.0000     -10.323779      -280.9243
  36   2.0000     -10.321004      -280.8488
  37   2.0000     -10.319815      -280.8164
  38   2.0000     -10.318046      -280.7683
  39   2.0000     -10.317313      -280.7484
  40   2.0000     -10.317087      -280.7422
  41   2.0000     -10.311843      -280.5995
  42   2.0000     -10.311791      -280.5981
  43   2.0000     -10.310999      -280.5765
  44   2.0000     -10.310796      -280.5710
  45   2.0000     -10.309699      -280.5412
  46   2.0000     -10.308617      -280.5117
  47   2.0000     -10.307230      -280.4740
  48   2.0000     -10.307058      -280.4693
  49   2.0000     -10.306441      -280.4525
  50   2.0000     -10.306224      -280.4466
  51   2.0000     -10.305029      -280.4141
  52   2.0000     -10.303723      -280.3786
  53   2.0000     -10.303641      -280.3763
  54   2.0000     -10.303318      -280.3675
  55   2.0000     -10.303302      -280.3671
  56   2.0000     -10.303034      -280.3598
  57   2.0000     -10.302541      -280.3464
  58   2.0000     -10.299382      -280.2604
  59   2.0000     -10.299336      -280.2592
  60   2.0000     -10.298894      -280.2472
  61   2.0000     -10.297974      -280.2221
  62   2.0000     -10.295643      -280.1587
  63   2.0000     -10.291628      -280.0494
  64   2.0000     -10.291367      -280.0423
  65   2.0000     -10.291245      -280.0390
  66   2.0000     -10.291182      -280.0373
  67   2.0000     -10.290945      -280.0309
  68   2.0000     -10.290483      -280.0183
  69   2.0000     -10.287785      -279.9449
  70   2.0000     -10.287347      -279.9329
  71   2.0000     -10.287084      -279.9258
  72   2.0000     -10.286498      -279.9098
  73   2.0000     -10.274729      -279.5896
  74   2.0000     -10.274387      -279.5803
  75   2.0000     -10.272329      -279.5243
  76   2.0000     -10.254509      -279.0394
  77   2.0000      -8.077242      -219.7929
  78   2.0000      -6.046671      -164.5383
  79   2.0000      -6.042651      -164.4289
  80   2.0000      -6.038710      -164.3217
  81   2.0000      -1.337118       -36.3848
  82   2.0000      -1.324275       -36.0354
  83   2.0000      -1.145720       -31.1766
  84   2.0000      -1.142877       -31.0993
  85   2.0000      -1.138592       -30.9827
  86   2.0000      -1.134229       -30.8640
  87   2.0000      -1.075712       -29.2716
  88   2.0000      -1.067464       -29.0472
  89   2.0000      -1.025060       -27.8933
  90   2.0000      -1.023196       -27.8426
  91   2.0000      -1.021437       -27.7947
  92   2.0000      -1.014587       -27.6083
  93   2.0000      -1.005379       -27.3578
  94   2.0000      -1.003853       -27.3162
  95   2.0000      -1.000998       -27.2385
  96   2.0000      -0.999872       -27.2079
  97   2.0000      -0.996533       -27.1170
  98   2.0000      -0.990167       -26.9438
  99   2.0000      -0.983597       -26.7650
 100   2.0000      -0.976802       -26.5801
 101   2.0000      -0.973351       -26.4862
 102   2.0000      -0.939531       -25.5659
 103   2.0000      -0.931931       -25.3591
 104   2.0000      -0.928570       -25.2677
 105   2.0000      -0.923207       -25.1217
 106   2.0000      -0.914334       -24.8803
 107   2.0000      -0.912280       -24.8244
 108   2.0000      -0.891883       -24.2694
 109   2.0000      -0.888915       -24.1886
 110   2.0000      -0.885778       -24.1032
 111   2.0000      -0.883046       -24.0289
 112   2.0000      -0.879666       -23.9369
 113   2.0000      -0.866483       -23.5782
 114   2.0000      -0.865669       -23.5561
 115   2.0000      -0.858606       -23.3639
 116   2.0000      -0.847890       -23.0723
 117   2.0000      -0.845493       -23.0070
 118   2.0000      -0.834256       -22.7013
 119   2.0000      -0.830026       -22.5861
 120   2.0000      -0.825815       -22.4716
 121   2.0000      -0.817160       -22.2361
 122   2.0000      -0.807590       -21.9757
 123   2.0000      -0.794980       -21.6325
 124   2.0000      -0.779614       -21.2144
 125   2.0000      -0.768712       -20.9177
 126   2.0000      -0.766297       -20.8520
 127   2.0000      -0.765575       -20.8324
 128   2.0000      -0.762076       -20.7371
 129   2.0000      -0.736373       -20.0377
 130   2.0000      -0.731348       -19.9010
 131   2.0000      -0.726483       -19.7686
 132   2.0000      -0.718437       -19.5497
 133   2.0000      -0.715775       -19.4772
 134   2.0000      -0.712247       -19.3812
 135   2.0000      -0.708121       -19.2690
 136   2.0000      -0.704468       -19.1695
 137   2.0000      -0.701443       -19.0872
 138   2.0000      -0.699704       -19.0399
 139   2.0000      -0.691265       -18.8103
 140   2.0000      -0.684835       -18.6353
 141   2.0000      -0.683700       -18.6044
 142   2.0000      -0.678644       -18.4668
 143   2.0000      -0.677931       -18.4474
 144   2.0000      -0.664378       -18.0787
 145   2.0000      -0.662855       -18.0372
 146   2.0000      -0.658563       -17.9204
 147   2.0000      -0.649098       -17.6629
 148   2.0000      -0.640536       -17.4299
 149   2.0000      -0.638477       -17.3739
 150   2.0000      -0.634923       -17.2771
 151   2.0000      -0.628523       -17.1030
 152   2.0000      -0.623423       -16.9642
 153   2.0000      -0.620519       -16.8852
 154   2.0000      -0.612333       -16.6624
 155   2.0000      -0.609762       -16.5925
 156   2.0000      -0.609034       -16.5726
 157   2.0000      -0.604338       -16.4449
 158   2.0000      -0.597580       -16.2610
 159   2.0000      -0.596702       -16.2371
 160   2.0000      -0.586855       -15.9691
 161   2.0000      -0.585637       -15.9360
 162   2.0000      -0.575177       -15.6514
 163   2.0000      -0.573807       -15.6141
 164   2.0000      -0.566832       -15.4243
 165   2.0000      -0.561030       -15.2664
 166   2.0000      -0.558892       -15.2082
 167   2.0000      -0.557692       -15.1756
 168   2.0000      -0.554823       -15.0975
 169   2.0000      -0.552728       -15.0405
 170   2.0000      -0.551723       -15.0131
 171   2.0000      -0.549720       -14.9587
 172   2.0000      -0.548354       -14.9215
 173   2.0000      -0.544845       -14.8260
 174   2.0000      -0.543248       -14.7825
 175   2.0000      -0.541261       -14.7285
 176   2.0000      -0.536362       -14.5952
 177   2.0000      -0.535091       -14.5606
 178   2.0000      -0.531986       -14.4761
 179   2.0000      -0.530812       -14.4441
 180   2.0000      -0.528044       -14.3688
 181   2.0000      -0.526044       -14.3144
 182   2.0000      -0.523907       -14.2562
 183   2.0000      -0.522516       -14.2184
 184   2.0000      -0.521306       -14.1855
 185   2.0000      -0.520694       -14.1688
 186   2.0000      -0.519471       -14.1355
 187   2.0000      -0.518002       -14.0956
 188   2.0000      -0.514678       -14.0051
 189   2.0000      -0.513904       -13.9840
 190   2.0000      -0.507722       -13.8158
 191   2.0000      -0.507665       -13.8143
 192   2.0000      -0.507114       -13.7993
 193   2.0000      -0.505019       -13.7423
 194   2.0000      -0.502493       -13.6735
 195   2.0000      -0.501116       -13.6360
 196   2.0000      -0.496887       -13.5210
 197   2.0000      -0.494594       -13.4586
 198   2.0000      -0.491972       -13.3872
 199   2.0000      -0.491379       -13.3711
 200   2.0000      -0.489114       -13.3095
 201   2.0000      -0.487139       -13.2557
 202   2.0000      -0.485789       -13.2190
 203   2.0000      -0.482871       -13.1396
 204   2.0000      -0.479069       -13.0361
 205   2.0000      -0.475222       -12.9315
 206   2.0000      -0.470797       -12.8110
 207   2.0000      -0.468723       -12.7546
 208   2.0000      -0.467402       -12.7187
 209   2.0000      -0.466269       -12.6878
 210   2.0000      -0.464507       -12.6399
 211   2.0000      -0.457318       -12.4443
 212   2.0000      -0.454252       -12.3608
 213   2.0000      -0.453330       -12.3357
 214   2.0000      -0.453072       -12.3287
 215   2.0000      -0.449715       -12.2374
 216   2.0000      -0.449555       -12.2330
 217   2.0000      -0.447290       -12.1714
 218   2.0000      -0.446484       -12.1495
 219   2.0000      -0.443620       -12.0715
 220   2.0000      -0.442560       -12.0427
 221   2.0000      -0.440432       -11.9848
 222   2.0000      -0.439485       -11.9590
 223   2.0000      -0.439338       -11.9550
 224   2.0000      -0.438887       -11.9427
 225   2.0000      -0.436234       -11.8705
 226   2.0000      -0.435706       -11.8562
 227   2.0000      -0.433853       -11.8057
 228   2.0000      -0.433711       -11.8019
 229   2.0000      -0.431777       -11.7493
 230   2.0000      -0.431471       -11.7409
 231   2.0000      -0.429989       -11.7006
 232   2.0000      -0.428708       -11.6657
 233   2.0000      -0.425380       -11.5752
 234   2.0000      -0.422436       -11.4951
 235   2.0000      -0.419372       -11.4117
 236   2.0000      -0.419048       -11.4029
 237   2.0000      -0.414390       -11.2761
 238   2.0000      -0.411077       -11.1860
 239   2.0000      -0.407832       -11.0977
 240   2.0000      -0.400674       -10.9029
 241   2.0000      -0.399261       -10.8645
 242   2.0000      -0.387013       -10.5312
 243   2.0000      -0.380364       -10.3502
 244   2.0000      -0.378315       -10.2945
 245   2.0000      -0.363630        -9.8949
 246   2.0000      -0.356554        -9.7023
 247   2.0000      -0.355447        -9.6722
 248   2.0000      -0.351793        -9.5728
 249   2.0000      -0.343359        -9.3433
 250   2.0000      -0.339822        -9.2470
 251   2.0000      -0.329333        -8.9616
 252   2.0000      -0.326609        -8.8875
 253   2.0000      -0.325812        -8.8658
 254   2.0000      -0.320461        -8.7202
 255   2.0000      -0.317674        -8.6444
 256   2.0000      -0.311451        -8.4750
 257   2.0000      -0.308164        -8.3856
 258   2.0000      -0.303099        -8.2477
 259   2.0000      -0.295390        -8.0380
 260   2.0000      -0.293750        -7.9933
 261   2.0000      -0.244653        -6.6573
 262   0.0000      -0.138384        -3.7656
 263   0.0000      -0.101431        -2.7601
 264   0.0000      -0.086565        -2.3555
 265   0.0000      -0.070304        -1.9131
 266   0.0000      -0.063305        -1.7226

MULLIKEN ATOMIC CHARGES
-----------------------
   0 C :    0.277978
   1 C :   -0.323337
   2 C :   -0.179186
   3 N :    0.159633
   4 C :   -0.198418
   5 N :    0.161635
   6 C :    0.035798
   7 C :    0.015029
   8 C :   -0.078613
   9 C :    0.093935
  10 C :    0.093945
  11 C :   -0.079590
  12 C :   -0.018025
  13 C :    0.036299
  14 C :    0.036898
  15 C :   -0.017000
  16 C :    0.133541
  17 O :   -0.136841
  18 C :   -0.122993
  19 C :    0.086757
  20 C :   -0.162641
  21 C :    0.221583
  22 F :   -0.159032
  23 C :    0.205188
  24 F :   -0.161400
  25 C :   -0.242219
  26 S :    0.258236
  27 C :    0.225405
  28 N :   -0.260807
  29 C :    0.114005
  30 C :    0.001207
  31 C :    0.162609
  32 O :   -0.192954
  33 C :   -0.048234
  34 C :   -0.109891
  35 C :    0.154784
  36 O :   -0.205329
  37 N :   -0.257783
  38 C :    0.097445
  39 C :    0.002900
  40 C :    0.145499
  41 C :   -0.025064
  42 C :    0.013495
  43 C :    0.104999
  44 C :   -0.099200
  45 C :    0.122845
  46 C :   -0.096315
  47 C :   -0.003122
  48 C :   -0.178396
  49 N :    0.140251
  50 C :    0.111000
  51 C :   -0.071961
  52 C :    0.080141
  53 C :    0.080373
  54 C :   -0.127235
  55 C :   -0.184523
  56 N :    0.139294
  57 C :   -0.021390
  58 C :   -0.094213
  59 C :    0.317157
  60 C :   -0.340580
  61 C :   -0.179394
  62 N :    0.154254
  63 C :   -0.198044
  64 N :    0.168580
  65 C :    0.056208
  66 C :   -0.012271
  67 C :    0.140135
  68 O :   -0.138509
  69 C :   -0.077564
  70 C :    0.098959
  71 C :    0.098896
  72 C :   -0.086964
  73 C :   -0.020386
  74 C :    0.038918
  75 C :    0.039196
  76 C :   -0.016333
  77 H :   -0.010224
  78 H :   -0.003971
  79 H :   -0.008668
  80 H :   -0.004276
  81 H :   -0.004718
  82 H :   -0.015971
  83 H :    0.034240
  84 H :    0.033705
  85 H :    0.035652
  86 H :    0.013159
  87 H :    0.022980
  88 H :    0.035744
  89 H :    0.025059
  90 H :    0.047231
  91 H :    0.014654
  92 H :    0.027805
  93 H :    0.032822
  94 H :   -0.029752
  95 H :    0.019345
  96 H :    0.021353
  97 H :    0.000111
  98 H :    0.012985
  99 H :    0.004558
 100 H :    0.041396
 101 H :   -0.009717
 102 H :   -0.007521
 103 H :   -0.007272
 104 H :   -0.002505
 105 H :   -0.002841
 106 H :   -0.014618
Sum of atomic charges:   -0.0000000

LOEWDIN ATOMIC CHARGES
----------------------
   0 C :    0.066143
   1 C :   -0.131420
   2 C :   -0.017993
   3 N :   -0.047850
   4 C :   -0.017292
   5 N :   -0.049382
   6 C :   -0.021709
   7 C :   -0.058859
   8 C :    0.034660
   9 C :   -0.009363
  10 C :   -0.004469
  11 C :    0.016726
  12 C :   -0.006162
  13 C :   -0.011778
  14 C :   -0.012507
  15 C :   -0.008829
  16 C :    0.084789
  17 O :   -0.136638
  18 C :   -0.075407
  19 C :    0.042221
  20 C :   -0.207776
  21 C :    0.038586
  22 F :   -0.032407
  23 C :    0.031837
  24 F :   -0.029182
  25 C :   -0.196357
  26 S :    0.558662
  27 C :    0.060121
  28 N :    0.008148
  29 C :    0.037648
  30 C :   -0.061205
  31 C :    0.084438
  32 O :   -0.180681
  33 C :   -0.112324
  34 C :   -0.127489
  35 C :    0.070100
  36 O :   -0.204866
  37 N :    0.000973
  38 C :    0.037079
  39 C :   -0.060737
  40 C :    0.076135
  41 C :   -0.038124
  42 C :    0.036093
  43 C :   -0.017741
  44 C :   -0.004826
  45 C :    0.038731
  46 C :   -0.075682
  47 C :    0.053296
  48 C :   -0.032642
  49 N :   -0.056987
  50 C :    0.036855
  51 C :    0.018618
  52 C :   -0.025584
  53 C :    0.080291
  54 C :   -0.094876
  55 C :   -0.031149
  56 N :   -0.060473
  57 C :    0.074314
  58 C :   -0.078461
  59 C :    0.072044
  60 C :   -0.128599
  61 C :   -0.016727
  62 N :   -0.046176
  63 C :   -0.023984
  64 N :   -0.040956
  65 C :   -0.025944
  66 C :   -0.058242
  67 C :    0.084199
  68 O :   -0.127877
  69 C :    0.036033
  70 C :   -0.007730
  71 C :   -0.004741
  72 C :    0.021013
  73 C :   -0.004690
  74 C :   -0.010542
  75 C :   -0.009814
  76 C :   -0.008072
  77 H :    0.039821
  78 H :    0.039159
  79 H :    0.034777
  80 H :    0.033384
  81 H :    0.032955
  82 H :    0.032154
  83 H :    0.051130
  84 H :    0.025675
  85 H :    0.035919
  86 H :    0.018216
  87 H :    0.031868
  88 H :    0.030694
  89 H :    0.023547
  90 H :    0.039509
  91 H :    0.021466
  92 H :    0.032442
  93 H :    0.033612
  94 H :    0.028010
  95 H :    0.044255
  96 H :    0.042553
  97 H :    0.035279
  98 H :    0.039653
  99 H :    0.037784
 100 H :    0.053026
 101 H :    0.040485
 102 H :    0.039538
 103 H :    0.035474
 104 H :    0.034268
 105 H :    0.033953
 106 H :    0.032966

  Mayer bond orders larger than 0.100000
B(  0-C ,  1-C ) :   1.6550 B(  0-C ,  6-C ) :   1.0014 B(  0-C , 18-C ) :   1.0336
B(  1-C ,  2-C ) :   1.1338 B(  1-C ,  4-C ) :   1.1706 B(  2-C ,  3-N ) :   2.9903
B(  4-C ,  5-N ) :   2.9954 B(  6-C ,  7-C ) :   1.2133 B(  6-C , 11-C ) :   1.4586
B(  7-C ,  8-C ) :   1.4708 B(  7-C , 16-C ) :   0.9244 B(  8-C ,  9-C ) :   1.1876
B(  8-C , 77-H ) :   1.0163 B(  9-C , 10-C ) :   1.2562 B(  9-C , 15-C ) :   1.2434
B( 10-C , 11-C ) :   1.2056 B( 10-C , 12-C ) :   1.2418 B( 11-C , 78-H ) :   0.9934
B( 12-C , 13-C ) :   1.4880 B( 12-C , 79-H ) :   0.9981 B( 13-C , 14-C ) :   1.2603
B( 13-C , 80-H ) :   0.9894 B( 14-C , 15-C ) :   1.4898 B( 14-C , 81-H ) :   0.9891
B( 15-C , 82-H ) :   0.9981 B( 16-C , 17-O ) :   2.2740 B( 16-C , 18-C ) :   0.9270
B( 18-C , 19-C ) :   1.7037 B( 19-C , 20-C ) :   1.1013 B( 19-C , 83-H ) :   0.9268
B( 20-C , 21-C ) :   1.4119 B( 20-C , 25-C ) :   0.1363 B( 20-C , 26-S ) :   1.1012
B( 21-C , 22-F ) :   1.1505 B( 21-C , 23-C ) :   1.2548 B( 23-C , 24-F ) :   1.1564
B( 23-C , 25-C ) :   1.3835 B( 25-C , 26-S ) :   1.1617 B( 25-C , 27-C ) :   1.1227
B( 27-C , 28-N ) :   1.2256 B( 27-C , 34-C ) :   1.3333 B( 28-N , 29-C ) :   0.9283
B( 28-N , 31-C ) :   1.0432 B( 29-C , 30-C ) :   1.1151 B( 29-C , 84-H ) :   0.9507
B( 29-C , 85-H ) :   0.9324 B( 30-C , 86-H ) :   0.9672 B( 30-C , 87-H ) :   0.9675
B( 30-C , 88-H ) :   0.9650 B( 31-C , 32-O ) :   2.0292 B( 31-C , 33-C ) :   0.9872
B( 32-O , 95-H ) :   0.1083 B( 33-C , 34-C ) :   1.2684 B( 33-C , 40-C ) :   1.3242
B( 34-C , 35-C ) :   0.9750 B( 35-C , 36-O ) :   2.0855 B( 35-C , 37-N ) :   1.0600
B( 37-N , 38-C ) :   0.9423 B( 37-N , 40-C ) :   1.1558 B( 38-C , 39-C ) :   1.1207
B( 38-C , 89-H ) :   0.9500 B( 38-C , 90-H ) :   0.9281 B( 39-C , 91-H ) :   0.9687
B( 39-C , 92-H ) :   0.9681 B( 39-C , 93-H ) :   0.9633 B( 40-C , 41-C ) :   1.1702
B( 41-C , 42-C ) :   1.5374 B( 41-C , 94-H ) :   0.9645 B( 42-C , 43-C ) :   1.1370
B( 42-C , 95-H ) :   0.9574 B( 43-C , 44-C ) :   1.4968 B( 43-C , 47-C ) :   1.0312
B( 44-C , 45-C ) :   1.1189 B( 44-C , 96-H ) :   1.0111 B( 45-C , 46-C ) :   1.0961
B( 45-C , 50-C ) :   1.4090 B( 46-C , 47-C ) :   1.6989 B( 46-C , 48-C ) :   1.0874
B( 47-C , 97-H ) :   1.0132 B( 48-C , 49-N ) :   2.9704 B( 50-C , 51-C ) :   1.0975
B( 50-C , 54-C ) :   1.1202 B( 51-C , 52-C ) :   1.5274 B( 51-C , 98-H ) :   1.0059
B( 52-C , 53-C ) :   1.0509 B( 52-C , 57-C ) :   1.0943 B( 53-C , 54-C ) :   1.6776
B( 53-C , 99-H ) :   1.0046 B( 54-C , 55-C ) :   1.0915 B( 55-C , 56-N ) :   2.9751
B( 57-C , 58-C ) :   1.6314 B( 57-C ,100-H ) :   0.9485 B( 58-C , 59-C ) :   1.0404
B( 58-C , 67-C ) :   0.9358 B( 59-C , 60-C ) :   1.6521 B( 59-C , 65-C ) :   0.9949
B( 60-C , 61-C ) :   1.1449 B( 60-C , 63-C ) :   1.1413 B( 61-C , 62-N ) :   2.9650
B( 63-C , 64-N ) :   2.9840 B( 65-C , 66-C ) :   1.2106 B( 65-C , 72-C ) :   1.4452
B( 66-C , 67-C ) :   0.9467 B( 66-C , 69-C ) :   1.4673 B( 67-C , 68-O ) :   2.2161
B( 69-C , 70-C ) :   1.1810 B( 69-C ,101-H ) :   1.0172 B( 70-C , 71-C ) :   1.2530
B( 70-C , 76-C ) :   1.2438 B( 71-C , 72-C ) :   1.2080 B( 71-C , 73-C ) :   1.2401
B( 72-C ,102-H ) :   0.9905 B( 73-C , 74-C ) :   1.4898 B( 73-C ,103-H ) :   0.9973
B( 74-C , 75-C ) :   1.2584 B( 74-C ,104-H ) :   0.9886 B( 75-C , 76-C ) :   1.4892
B( 75-C ,105-H ) :   0.9886 B( 76-C ,106-H ) :   0.9978

-----------------------------------------------------------------------------
         ABSORPTION SPECTRUM VIA TRANSITION ELECTRIC DIPOLE MOMENTS
-----------------------------------------------------------------------------
State   Energy  Wavelength   fosc         T2         TX        TY        TZ
        (cm-1)    (nm)                  (au**2)     (au)      (au)      (au)
-----------------------------------------------------------------------------
   0    9827.0   1017.6   0.881712953  29.53797   2.16540  -4.96995   0.38557
   1   16823.7    594.4   0.366043034   7.16287  -0.15184  -2.62013  -0.52414
   2   17163.2    582.6   0.084987901   1.63018   0.88438  -0.87655   0.28233
   3   19399.6    515.5   0.039814598   0.67566  -0.76316   0.20562  -0.22575
   4   21798.2    458.8   0.140808067   2.12659  -0.85917   1.17809   0.02299
   5   22892.6    436.8   0.109129729   1.56936  -0.36245   1.12637  -0.41145
   6   23043.3    434.0   0.443547078   6.33680   1.87450  -1.53886   0.67451
   7   24570.9    407.0   0.062138684   0.83256  -0.20248  -0.87856  -0.14036
   8   24878.5    402.0   0.021612275   0.28599   0.24946  -0.35944  -0.30752
   9   24990.0    400.2   0.028847537   0.38003  -0.33022   0.46028   0.24316
  10   25919.1    385.8   0.321362865   4.08180  -0.73038   1.88339  -0.03454
  11   25954.0    385.3   0.025632255   0.32513   0.29562  -0.01384   0.48739
  12   26467.6    377.8   0.029820705   0.37092   0.02772   0.60693   0.04223
  13   27385.1    365.2   0.606715931   7.29368   1.93708  -1.71957   0.76452
  14   27672.7    361.4   0.000536450   0.00638   0.01856  -0.07765  -0.00272
  15   28309.7    353.2   0.053407952   0.62108   0.50484   0.13274   0.59042
  16   28393.3    352.2   0.127720508   1.48088   0.70639  -0.97194   0.19298
  17   28577.9    349.9   0.016819301   0.19375   0.26447  -0.18916  -0.29670
  18   28963.5    345.3   0.020199206   0.22959   0.05837   0.46767   0.08641
  19   29286.4    341.5   0.071941087   0.80870   0.42529  -0.01058   0.79228
  20   29460.9    339.4   0.013633027   0.15234   0.06094  -0.14463   0.35737
  21   30314.8    329.9   0.126004504   1.36838  -0.19896   1.09881   0.34845
  22   30351.2    329.5   0.291227654   3.15887  -1.02954   0.91721  -1.12144
  23   30746.0    325.2   0.042139063   0.45120   0.02465  -0.34572  -0.57539
  24   31161.7    320.9   0.021919825   0.23157   0.29825  -0.17424   0.33506
  25   31238.5    320.1   0.167611193   1.76640   0.59969  -1.14464   0.31074
  26   31784.2    314.6   0.017343094   0.17963  -0.31277  -0.15292  -0.24171
  27   32094.6    311.6   0.090966650   0.93309   0.16423  -0.87503   0.37477
  28   32300.4    309.6   0.093122479   0.94912   0.65772  -0.29237   0.65654
  29   32591.8    306.8   0.054053343   0.54600  -0.60862   0.10577  -0.40545
  30   32699.0    305.8   0.224746732   2.26274  -0.46464   1.20987  -0.76359
  31   32974.4    303.3   0.010183708   0.10167   0.19745   0.02940  -0.24864
  32   33451.5    298.9   0.048852454   0.48078   0.38342   0.16482   0.55372
  33   33624.3    297.4   0.113102629   1.10738  -0.52495   0.25757  -0.87491
  34   34145.7    292.9   0.345022428   3.32649   0.68510  -1.44851   0.87118
  35   34372.8    290.9   0.004387552   0.04202  -0.07721  -0.08043   0.17203
  36   34622.4    288.8   0.273763043   2.60311  -0.46744   1.43428  -0.57224
  37   35116.7    284.8   0.138282249   1.29637   0.38466  -0.85458   0.64660
  38   35158.3    284.4   0.039801133   0.37269  -0.07083   0.60618   0.01486
  39   35568.5    281.1   0.562187192   5.20344  -0.73809  -0.35812  -2.12848
  40   35815.0    279.2   0.000230774   0.00212   0.03787  -0.00310   0.02603
  41   36001.9    277.8   0.024367619   0.22282  -0.22622  -0.23855  -0.33874
  42   36798.5    271.7   0.071693900   0.64140  -0.63080   0.42784  -0.24585
  43   36970.4    270.5   0.100193065   0.89219   0.49278  -0.74322   0.31143
  44   37185.6    268.9   0.227653071   2.01546   0.91985  -0.92921   0.55308
  45   37496.6    266.7   0.017765345   0.15598   0.14749  -0.01200   0.36617
  46   37602.7    265.9   0.038143800   0.33395  -0.48407   0.10707  -0.29691
  47   37677.5    265.4   0.035793500   0.31275   0.21402   0.30117   0.41981
  48   37988.8    263.2   0.061465823   0.53266   0.40778  -0.58680  -0.14846
  49   38273.2    261.3   0.031864780   0.27409  -0.44531   0.27504   0.01202
  50   38601.5    259.1   0.073307682   0.62520  -0.48972   0.50237  -0.36470
  51   38728.6    258.2   0.012288679   0.10446   0.14149  -0.28418  -0.06070
  52   38892.2    257.1   0.118088030   0.99958   0.65686  -0.72779   0.19605
  53   39069.9    256.0   0.058728795   0.49486   0.16715  -0.53347  -0.42700
  54   39225.8    254.9   0.039998148   0.33569  -0.36781  -0.15501  -0.41998
  55   39537.4    252.9   0.039373776   0.32785   0.52039   0.23766   0.02373
  56   40090.9    249.4   0.069198710   0.56824   0.36668  -0.29141   0.59065

FINAL SINGLE POINT ENERGY     -3713.025933836193

DIPOLE MOMENT
-------------
                                X             Y             Z
Electronic contribution:      4.32636     -13.36202       0.93709
Nuclear contribution   :     -4.18508      11.93808      -1.39990
                        -----------------------------------------
Total Dipole Moment    :      0.14128      -1.42394      -0.46282
                        -----------------------------------------
Magnitude (a.u.)       :      1.50392
Magnitude (Debye)      :      3.82265

Rotational constants in cm-1:     0.002617     0.000175     0.000167
Rotational constants in MHz :    78.464761     5.245464     5.003649

                             ****ORCA TERMINATED NORMALLY****
TOTAL RUN TIME: 0 days 0 hours 11 minutes 29 seconds 473 msec
