                         Program Version 4.2.0 -  RELEASE  -
|  1> # ORCA input file
|  2> # SCF done       -206.880240667578          0.000825770757
|  3> ! CAM-B3LYP def2-SVP def2/J RIJCOSX Grid4 TightSCF
|  4> %maxcore 5000
|  5> %tddft
|  6>     Mode sTDDFT
|  7>     Ethresh 5.0
|  8>     maxcore 5000
|  9> end
| 10>
| 11> %pal
| 12>   nprocs 6
| 13>   end
| 14> * xyz 0 1
| 15>    C       -1.79544         2.52552         1.14382
| 16>    C       -0.80819         3.42055         1.43385
| 17>    C        0.25992         3.15258         2.31998
| 18>    N        1.15239         2.98880         3.02119
| 19>    C       -0.69721         4.71107         0.86772
| 20>    N       -0.55200         5.77074         0.45407
| 21>    C       -1.93287         1.18221         1.68671
| 22>    C       -2.95499         0.49348         0.96886
| 23>    C       -3.32841        -0.77980         1.29598
| 24>    C       -2.68269        -1.43431         2.36768
| 25>    C       -1.64765        -0.75747         3.07720
| 26>    C       -1.28974         0.56288         2.72694
| 27>    C       -0.98660        -1.43107         4.12506
| 28>    C       -1.33412        -2.71091         4.46045
| 29>    C       -2.35989        -3.37548         3.77046
| 30>    C       -3.02326        -2.74664         2.75134
| 31>    C       -3.50692         1.37728        -0.06751
| 32>    O       -4.27309         1.09500        -0.95926
| 33>    C       -2.89823         2.72009         0.20305
| 34>    C       -3.39435         3.89085        -0.23336
| 35>    C       -4.58246         4.03848        -1.06362
| 36>    C       -4.53258         4.74520        -2.24235
| 37>    C       -3.31640         5.40889        -2.79260
| 38>    F       -2.24830         4.59316        -2.79563
| 39>    F       -3.49042         5.82666        -4.05101
| 40>    F       -2.96258         6.48814        -2.07303
| 41>    S       -6.00901         4.76367        -3.12071
| 42>    C       -6.74859         3.81971        -1.87565
| 43>    C       -8.08805         3.43479        -1.94397
| 44>    N       -9.18410         3.09253        -1.95779
| 45>    C       -5.88837         3.50332        -0.83012
| 46>    C       -6.32813         2.68248         0.26049
| 47>    C       -5.72549         2.56564         1.46355
| 48>    C       -6.02155         1.56384         2.42087
| 49>    S       -4.86412         1.27051         3.70236
| 50>    C       -5.67870        -0.15647         4.27674
| 51>    C       -6.84012        -0.35886         3.53289
| 52>    C       -7.01612         0.59811         2.48645
| 53>    N       -8.15407         0.27892         1.81543
| 54>    C       -8.70201        -0.84443         2.40474
| 55>    C       -9.88100        -1.43403         1.92325
| 56>    N      -10.83464        -1.92903         1.52263
| 57>    C       -7.92113        -1.26700         3.45787
| 58>    C       -5.16611        -0.99994         5.28564
| 59>    C       -3.95662        -0.86311         5.87400
| 60>    C       -3.42548        -1.77454         6.84553
| 61>    C       -2.43610        -1.43508         7.75135
| 62>    C       -1.78920        -0.10304         7.88442
| 63>    F       -2.68076         0.88078         8.10570
| 64>    F       -0.91241        -0.06281         8.89323
| 65>    F       -1.11338         0.26230         6.77683
| 66>    S       -2.02504        -2.69575         8.84742
| 67>    C       -3.19941        -3.72656         8.10189
| 68>    C       -3.36840        -5.04562         8.53633
| 69>    N       -3.50959        -6.12398         8.90111
| 70>    C       -3.85960        -3.12366         7.04857
| 71>    C       -4.81781        -3.82419         6.22135
| 72>    C       -5.81348        -4.58485         6.70578
| 73>    C       -6.78237        -5.24858         5.88526
| 74>    C       -6.54455        -5.88746         4.71353
| 75>    C       -7.56162        -6.53411         3.89531
| 76>    C       -8.84791        -6.08866         3.76024
| 77>    C       -9.81971        -6.72330         2.95910
| 78>    N      -10.63604        -7.23261         2.33496
| 79>    C       -9.28497        -4.88675         4.35533
| 80>    N       -9.61775        -3.87603         4.78645
| 81>    C       -6.91810        -7.61318         3.16718
| 82>    C       -5.50976        -7.51453         3.37354
| 83>    C       -5.21185        -6.37102         4.25198
| 84>    O       -4.11789        -5.94743         4.55589
| 85>    C       -4.63959        -8.39651         2.79828
| 86>    C       -5.14742        -9.43610         1.98744
| 87>    C       -6.55478        -9.54266         1.78344
| 88>    C       -7.43254        -8.61181         2.38391
| 89>    C       -7.04727       -10.58902         0.97758
| 90>    C       -6.19303       -11.48841         0.39949
| 91>    C       -4.80849       -11.38258         0.59997
| 92>    C       -4.29667       -10.37777         1.37563
| 93>    H       -4.11150        -1.27977         0.74483
| 94>    H       -0.52103         1.05725         3.29939
| 95>    H       -0.19802        -0.91472         4.65062
| 96>    H       -0.81476        -3.22563         5.25523
| 97>    H       -2.61853        -4.38577         4.04825
| 98>    H       -3.81107        -3.25488         2.21332
| 99>    H       -2.89092         4.81727         0.01714
|100>    H       -7.19366         2.07617         0.03483
|101>    H       -4.90291         3.21733         1.72098
|102>    H       -8.57247         0.77635         1.04706
|103>    H       -8.13020        -2.10575         4.09165
|104>    H       -5.82470        -1.80719         5.57425
|105>    H       -3.34821        -0.00469         5.62364
|106>    H       -4.71372        -3.67113         5.15668
|107>    H       -5.98035        -4.63665         7.77409
|108>    H       -7.78968        -5.27306         6.28729
|109>    H       -3.57609        -8.30586         2.96280
|110>    H       -8.49423        -8.71621         2.22227
|111>    H       -8.11367       -10.66506         0.82497
|112>    H       -6.57985       -12.28674        -0.21552
|113>    H       -4.14939       -12.10158         0.13734
|114>    H       -3.23159       -10.29219         1.53340
|115> *
|116>
|117>                          ****END OF INPUT****

CARTESIAN COORDINATES (ANGSTROEM)
---------------------------------
  C     -1.795440    2.525520    1.143820
  C     -0.808190    3.420550    1.433850
  C      0.259920    3.152580    2.319980
  N      1.152390    2.988800    3.021190
  C     -0.697210    4.711070    0.867720
  N     -0.552000    5.770740    0.454070
  C     -1.932870    1.182210    1.686710
  C     -2.954990    0.493480    0.968860
  C     -3.328410   -0.779800    1.295980
  C     -2.682690   -1.434310    2.367680
  C     -1.647650   -0.757470    3.077200
  C     -1.289740    0.562880    2.726940
  C     -0.986600   -1.431070    4.125060
  C     -1.334120   -2.710910    4.460450
  C     -2.359890   -3.375480    3.770460
  C     -3.023260   -2.746640    2.751340
  C     -3.506920    1.377280   -0.067510
  O     -4.273090    1.095000   -0.959260
  C     -2.898230    2.720090    0.203050
  C     -3.394350    3.890850   -0.233360
  C     -4.582460    4.038480   -1.063620
  C     -4.532580    4.745200   -2.242350
  C     -3.316400    5.408890   -2.792600
  F     -2.248300    4.593160   -2.795630
  F     -3.490420    5.826660   -4.051010
  F     -2.962580    6.488140   -2.073030
  S     -6.009010    4.763670   -3.120710
  C     -6.748590    3.819710   -1.875650
  C     -8.088050    3.434790   -1.943970
  N     -9.184100    3.092530   -1.957790
  C     -5.888370    3.503320   -0.830120
  C     -6.328130    2.682480    0.260490
  C     -5.725490    2.565640    1.463550
  C     -6.021550    1.563840    2.420870
  S     -4.864120    1.270510    3.702360
  C     -5.678700   -0.156470    4.276740
  C     -6.840120   -0.358860    3.532890
  C     -7.016120    0.598110    2.486450
  N     -8.154070    0.278920    1.815430
  C     -8.702010   -0.844430    2.404740
  C     -9.881000   -1.434030    1.923250
  N    -10.834640   -1.929030    1.522630
  C     -7.921130   -1.267000    3.457870
  C     -5.166110   -0.999940    5.285640
  C     -3.956620   -0.863110    5.874000
  C     -3.425480   -1.774540    6.845530
  C     -2.436100   -1.435080    7.751350
  C     -1.789200   -0.103040    7.884420
  F     -2.680760    0.880780    8.105700
  F     -0.912410   -0.062810    8.893230
  F     -1.113380    0.262300    6.776830
  S     -2.025040   -2.695750    8.847420
  C     -3.199410   -3.726560    8.101890
  C     -3.368400   -5.045620    8.536330
  N     -3.509590   -6.123980    8.901110
  C     -3.859600   -3.123660    7.048570
  C     -4.817810   -3.824190    6.221350
  C     -5.813480   -4.584850    6.705780
  C     -6.782370   -5.248580    5.885260
  C     -6.544550   -5.887460    4.713530
  C     -7.561620   -6.534110    3.895310
  C     -8.847910   -6.088660    3.760240
  C     -9.819710   -6.723300    2.959100
  N    -10.636040   -7.232610    2.334960
  C     -9.284970   -4.886750    4.355330
  N     -9.617750   -3.876030    4.786450
  C     -6.918100   -7.613180    3.167180
  C     -5.509760   -7.514530    3.373540
  C     -5.211850   -6.371020    4.251980
  O     -4.117890   -5.947430    4.555890
  C     -4.639590   -8.396510    2.798280
  C     -5.147420   -9.436100    1.987440
  C     -6.554780   -9.542660    1.783440
  C     -7.432540   -8.611810    2.383910
  C     -7.047270  -10.589020    0.977580
  C     -6.193030  -11.488410    0.399490
  C     -4.808490  -11.382580    0.599970
  C     -4.296670  -10.377770    1.375630
  H     -4.111500   -1.279770    0.744830
  H     -0.521030    1.057250    3.299390
  H     -0.198020   -0.914720    4.650620
  H     -0.814760   -3.225630    5.255230
  H     -2.618530   -4.385770    4.048250
  H     -3.811070   -3.254880    2.213320
  H     -2.890920    4.817270    0.017140
  H     -7.193660    2.076170    0.034830
  H     -4.902910    3.217330    1.720980
  H     -8.572470    0.776350    1.047060
  H     -8.130200   -2.105750    4.091650
  H     -5.824700   -1.807190    5.574250
  H     -3.348210   -0.004690    5.623640
  H     -4.713720   -3.671130    5.156680
  H     -5.980350   -4.636650    7.774090
  H     -7.789680   -5.273060    6.287290
  H     -3.576090   -8.305860    2.962800
  H     -8.494230   -8.716210    2.222270
  H     -8.113670  -10.665060    0.824970
  H     -6.579850  -12.286740   -0.215520
  H     -4.149390  -12.101580    0.137340
  H     -3.231590  -10.292190    1.533400

 Total Charge           Charge          ....    0
 Multiplicity           Mult            ....    1
 Number of Electrons    NEL             ....  550
 Basis Dimension        Dim             .... 1214

ORBITAL ENERGIES
----------------

  NO   OCC          E(Eh)            E(eV)
   0   2.0000     -89.008702     -2422.0499
   1   2.0000     -89.001558     -2421.8555
   2   2.0000     -88.980549     -2421.2838
   3   2.0000     -24.823577      -675.4839
   4   2.0000     -24.819965      -675.3856
   5   2.0000     -24.816778      -675.2989
   6   2.0000     -24.814477      -675.2363
   7   2.0000     -24.810712      -675.1338
   8   2.0000     -24.808713      -675.0794
   9   2.0000     -19.238206      -523.4982
  10   2.0000     -19.230178      -523.2797
  11   2.0000     -14.487194      -394.2166
  12   2.0000     -14.431504      -392.7012
  13   2.0000     -14.430005      -392.6604
  14   2.0000     -14.427088      -392.5810
  15   2.0000     -14.426801      -392.5732
  16   2.0000     -14.426588      -392.5674
  17   2.0000     -14.423838      -392.4926
  18   2.0000     -14.418109      -392.3367
  19   2.0000     -10.544587      -286.9328
  20   2.0000     -10.538538      -286.7682
  21   2.0000     -10.389517      -282.7131
  22   2.0000     -10.381304      -282.4896
  23   2.0000     -10.361081      -281.9393
  24   2.0000     -10.358467      -281.8682
  25   2.0000     -10.358324      -281.8643
  26   2.0000     -10.355887      -281.7980
  27   2.0000     -10.355116      -281.7770
  28   2.0000     -10.353970      -281.7459
  29   2.0000     -10.347415      -281.5675
  30   2.0000     -10.343082      -281.4496
  31   2.0000     -10.341954      -281.4189
  32   2.0000     -10.335481      -281.2427
  33   2.0000     -10.335323      -281.2384
  34   2.0000     -10.335102      -281.2324
  35   2.0000     -10.334678      -281.2209
  36   2.0000     -10.332473      -281.1609
  37   2.0000     -10.331698      -281.1398
  38   2.0000     -10.329738      -281.0865
  39   2.0000     -10.328732      -281.0591
  40   2.0000     -10.328650      -281.0569
  41   2.0000     -10.328234      -281.0455
  42   2.0000     -10.328117      -281.0424
  43   2.0000     -10.327941      -281.0376
  44   2.0000     -10.325669      -280.9757
  45   2.0000     -10.325615      -280.9743
  46   2.0000     -10.324817      -280.9525
  47   2.0000     -10.321721      -280.8683
  48   2.0000     -10.319847      -280.8173
  49   2.0000     -10.318108      -280.7700
  50   2.0000     -10.317426      -280.7514
  51   2.0000     -10.316703      -280.7318
  52   2.0000     -10.314893      -280.6825
  53   2.0000     -10.311999      -280.6038
  54   2.0000     -10.311249      -280.5833
  55   2.0000     -10.310891      -280.5736
  56   2.0000     -10.310792      -280.5709
  57   2.0000     -10.310628      -280.5664
  58   2.0000     -10.310158      -280.5537
  59   2.0000     -10.309574      -280.5378
  60   2.0000     -10.308090      -280.4974
  61   2.0000     -10.308059      -280.4965
  62   2.0000     -10.307749      -280.4881
  63   2.0000     -10.307584      -280.4836
  64   2.0000     -10.305035      -280.4143
  65   2.0000     -10.303563      -280.3742
  66   2.0000     -10.300701      -280.2963
  67   2.0000     -10.300621      -280.2941
  68   2.0000     -10.299748      -280.2704
  69   2.0000     -10.298057      -280.2244
  70   2.0000     -10.297559      -280.2108
  71   2.0000     -10.297208      -280.2013
  72   2.0000     -10.296729      -280.1882
  73   2.0000     -10.294298      -280.1221
  74   2.0000     -10.293740      -280.1069
  75   2.0000     -10.293308      -280.0952
  76   2.0000     -10.292774      -280.0806
  77   2.0000     -10.289729      -279.9978
  78   2.0000      -8.103626      -220.5109
  79   2.0000      -8.096637      -220.3207
  80   2.0000      -8.074584      -219.7206
  81   2.0000      -6.072986      -165.2544
  82   2.0000      -6.068599      -165.1350
  83   2.0000      -6.066020      -165.0648
  84   2.0000      -6.065787      -165.0585
  85   2.0000      -6.061704      -164.9474
  86   2.0000      -6.058652      -164.8643
  87   2.0000      -6.043877      -164.4623
  88   2.0000      -6.039878      -164.3534
  89   2.0000      -6.036837      -164.2707
  90   2.0000      -1.409885       -38.3649
  91   2.0000      -1.403156       -38.1818
  92   2.0000      -1.314941       -35.7814
  93   2.0000      -1.307926       -35.5905
  94   2.0000      -1.307070       -35.5672
  95   2.0000      -1.300891       -35.3991
  96   2.0000      -1.153017       -31.3752
  97   2.0000      -1.145882       -31.1810
  98   2.0000      -1.109145       -30.1814
  99   2.0000      -1.041101       -28.3298
 100   2.0000      -1.035826       -28.1863
 101   2.0000      -1.033316       -28.1180
 102   2.0000      -1.029762       -28.0212
 103   2.0000      -1.013365       -27.5751
 104   2.0000      -1.010194       -27.4888
 105   2.0000      -1.008411       -27.4403
 106   2.0000      -1.007398       -27.4127
 107   2.0000      -1.004987       -27.3471
 108   2.0000      -1.002803       -27.2877
 109   2.0000      -1.002376       -27.2760
 110   2.0000      -0.993333       -27.0300
 111   2.0000      -0.986068       -26.8323
 112   2.0000      -0.982327       -26.7305
 113   2.0000      -0.951314       -25.8866
 114   2.0000      -0.941523       -25.6201
 115   2.0000      -0.938186       -25.5293
 116   2.0000      -0.935424       -25.4542
 117   2.0000      -0.926483       -25.2109
 118   2.0000      -0.923860       -25.1395
 119   2.0000      -0.914744       -24.8915
 120   2.0000      -0.907283       -24.6884
 121   2.0000      -0.897862       -24.4321
 122   2.0000      -0.896261       -24.3885
 123   2.0000      -0.893198       -24.3052
 124   2.0000      -0.890922       -24.2432
 125   2.0000      -0.883404       -24.0386
 126   2.0000      -0.871495       -23.7146
 127   2.0000      -0.858007       -23.3476
 128   2.0000      -0.855331       -23.2747
 129   2.0000      -0.847676       -23.0664
 130   2.0000      -0.841483       -22.8979
 131   2.0000      -0.837985       -22.8027
 132   2.0000      -0.821624       -22.3575
 133   2.0000      -0.815226       -22.1834
 134   2.0000      -0.804594       -21.8941
 135   2.0000      -0.800710       -21.7884
 136   2.0000      -0.797020       -21.6880
 137   2.0000      -0.775626       -21.1059
 138   2.0000      -0.773502       -21.0481
 139   2.0000      -0.766188       -20.8490
 140   2.0000      -0.754551       -20.5324
 141   2.0000      -0.750646       -20.4261
 142   2.0000      -0.741332       -20.1727
 143   2.0000      -0.738414       -20.0933
 144   2.0000      -0.727057       -19.7842
 145   2.0000      -0.718717       -19.5573
 146   2.0000      -0.717558       -19.5257
 147   2.0000      -0.713654       -19.4195
 148   2.0000      -0.712176       -19.3793
 149   2.0000      -0.707214       -19.2443
 150   2.0000      -0.702729       -19.1222
 151   2.0000      -0.700124       -19.0513
 152   2.0000      -0.693932       -18.8828
 153   2.0000      -0.691500       -18.8167
 154   2.0000      -0.690362       -18.7857
 155   2.0000      -0.688176       -18.7262
 156   2.0000      -0.686977       -18.6936
 157   2.0000      -0.684281       -18.6202
 158   2.0000      -0.675240       -18.3742
 159   2.0000      -0.671472       -18.2717
 160   2.0000      -0.656907       -17.8754
 161   2.0000      -0.651086       -17.7169
 162   2.0000      -0.647805       -17.6277
 163   2.0000      -0.646247       -17.5853
 164   2.0000      -0.640386       -17.4258
 165   2.0000      -0.629378       -17.1262
 166   2.0000      -0.624972       -17.0063
 167   2.0000      -0.620623       -16.8880
 168   2.0000      -0.618352       -16.8262
 169   2.0000      -0.615739       -16.7551
 170   2.0000      -0.613572       -16.6961
 171   2.0000      -0.604770       -16.4566
 172   2.0000      -0.600755       -16.3474
 173   2.0000      -0.597085       -16.2475
 174   2.0000      -0.587149       -15.9771
 175   2.0000      -0.577864       -15.7245
 176   2.0000      -0.574458       -15.6318
 177   2.0000      -0.571451       -15.5500
 178   2.0000      -0.568677       -15.4745
 179   2.0000      -0.568022       -15.4567
 180   2.0000      -0.566036       -15.4026
 181   2.0000      -0.564886       -15.3713
 182   2.0000      -0.562581       -15.3086
 183   2.0000      -0.560272       -15.2458
 184   2.0000      -0.559568       -15.2266
 185   2.0000      -0.558642       -15.2014
 186   2.0000      -0.555973       -15.1288
 187   2.0000      -0.554841       -15.0980
 188   2.0000      -0.552857       -15.0440
 189   2.0000      -0.551147       -14.9975
 190   2.0000      -0.547410       -14.8958
 191   2.0000      -0.545694       -14.8491
 192   2.0000      -0.543772       -14.7968
 193   2.0000      -0.539573       -14.6825
 194   2.0000      -0.538440       -14.6517
 195   2.0000      -0.536548       -14.6002
 196   2.0000      -0.534249       -14.5376
 197   2.0000      -0.531247       -14.4560
 198   2.0000      -0.526987       -14.3400
 199   2.0000      -0.525747       -14.3063
 200   2.0000      -0.524510       -14.2727
 201   2.0000      -0.521370       -14.1872
 202   2.0000      -0.519350       -14.1322
 203   2.0000      -0.517565       -14.0837
 204   2.0000      -0.516816       -14.0633
 205   2.0000      -0.515248       -14.0206
 206   2.0000      -0.513835       -13.9822
 207   2.0000      -0.511951       -13.9309
 208   2.0000      -0.509902       -13.8751
 209   2.0000      -0.508978       -13.8500
 210   2.0000      -0.505873       -13.7655
 211   2.0000      -0.504569       -13.7300
 212   2.0000      -0.504035       -13.7155
 213   2.0000      -0.502389       -13.6707
 214   2.0000      -0.499318       -13.5871
 215   2.0000      -0.498224       -13.5574
 216   2.0000      -0.496642       -13.5143
 217   2.0000      -0.494413       -13.4537
 218   2.0000      -0.489611       -13.3230
 219   2.0000      -0.485588       -13.2135
 220   2.0000      -0.483315       -13.1517
 221   2.0000      -0.480127       -13.0649
 222   2.0000      -0.479051       -13.0356
 223   2.0000      -0.473650       -12.8887
 224   2.0000      -0.469870       -12.7858
 225   2.0000      -0.465394       -12.6640
 226   2.0000      -0.463076       -12.6009
 227   2.0000      -0.460748       -12.5376
 228   2.0000      -0.458385       -12.4733
 229   2.0000      -0.458155       -12.4670
 230   2.0000      -0.456806       -12.4303
 231   2.0000      -0.456677       -12.4268
 232   2.0000      -0.453466       -12.3394
 233   2.0000      -0.452797       -12.3212
 234   2.0000      -0.452318       -12.3082
 235   2.0000      -0.449253       -12.2248
 236   2.0000      -0.448646       -12.2083
 237   2.0000      -0.446949       -12.1621
 238   2.0000      -0.445992       -12.1361
 239   2.0000      -0.444647       -12.0995
 240   2.0000      -0.443940       -12.0802
 241   2.0000      -0.442552       -12.0424
 242   2.0000      -0.440361       -11.9828
 243   2.0000      -0.439315       -11.9544
 244   2.0000      -0.437347       -11.9008
 245   2.0000      -0.436176       -11.8690
 246   2.0000      -0.433488       -11.7958
 247   2.0000      -0.429324       -11.6825
 248   2.0000      -0.428519       -11.6606
 249   2.0000      -0.427104       -11.6221
 250   2.0000      -0.425492       -11.5782
 251   2.0000      -0.424023       -11.5382
 252   2.0000      -0.423472       -11.5232
 253   2.0000      -0.420794       -11.4504
 254   2.0000      -0.419637       -11.4189
 255   2.0000      -0.413221       -11.2443
 256   2.0000      -0.400285       -10.8923
 257   2.0000      -0.397245       -10.8096
 258   2.0000      -0.388624       -10.5750
 259   2.0000      -0.384763       -10.4699
 260   2.0000      -0.379427       -10.3247
 261   2.0000      -0.365283        -9.9399
 262   2.0000      -0.363414        -9.8890
 263   2.0000      -0.355741        -9.6802
 264   2.0000      -0.348367        -9.4795
 265   2.0000      -0.340685        -9.2705
 266   2.0000      -0.331175        -9.0117
 267   2.0000      -0.330448        -8.9920
 268   2.0000      -0.325596        -8.8599
 269   2.0000      -0.321569        -8.7503
 270   2.0000      -0.316027        -8.5995
 271   2.0000      -0.311471        -8.4755
 272   2.0000      -0.304692        -8.2911
 273   2.0000      -0.302083        -8.2201
 274   2.0000      -0.252432        -6.8690
 275   0.0000      -0.105880        -2.8812
 276   0.0000      -0.102583        -2.7914
 277   0.0000      -0.088300        -2.4028
 278   0.0000      -0.074401        -2.0246
 279   0.0000      -0.067513        -1.8371

MULLIKEN ATOMIC CHARGES
-----------------------
   0 C :    0.310416
   1 C :   -0.333114
   2 C :   -0.188008
   3 N :    0.161875
   4 C :   -0.200226
   5 N :    0.179866
   6 C :    0.061312
   7 C :   -0.010505
   8 C :   -0.076025
   9 C :    0.104661
  10 C :    0.091280
  11 C :   -0.094311
  12 C :   -0.030861
  13 C :    0.052893
  14 C :    0.014120
  15 C :   -0.020014
  16 C :    0.163128
  17 O :   -0.130427
  18 C :   -0.070416
  19 C :   -0.094581
  20 C :    0.046150
  21 C :   -0.244024
  22 C :    0.541796
  23 F :   -0.153492
  24 F :   -0.150289
  25 F :   -0.150226
  26 S :    0.270241
  27 C :   -0.301578
  28 C :   -0.198082
  29 N :    0.133008
  30 C :    0.228118
  31 C :   -0.045989
  32 C :    0.100349
  33 C :   -0.239222
  34 S :    0.144713
  35 C :   -0.137775
  36 C :    0.122756
  37 C :    0.143260
  38 N :   -0.033761
  39 C :   -0.103834
  40 C :   -0.136769
  41 N :    0.179686
  42 C :   -0.022783
  43 C :    0.008237
  44 C :   -0.029821
  45 C :    0.122082
  46 C :   -0.292767
  47 C :    0.546230
  48 F :   -0.157362
  49 F :   -0.150160
  50 F :   -0.158324
  51 S :    0.268355
  52 C :   -0.303029
  53 C :   -0.190280
  54 N :    0.153736
  55 C :    0.134791
  56 C :    0.005687
  57 C :    0.004535
  58 C :    0.003129
  59 C :   -0.101190
  60 C :    0.255804
  61 C :   -0.318337
  62 C :   -0.167751
  63 N :    0.159593
  64 C :   -0.152360
  65 N :    0.123736
  66 C :    0.057477
  67 C :   -0.000956
  68 C :    0.163598
  69 O :   -0.148044
  70 C :   -0.077052
  71 C :    0.096754
  72 C :    0.096106
  73 C :   -0.078571
  74 C :   -0.017646
  75 C :    0.039225
  76 C :    0.038021
  77 C :   -0.016198
  78 H :   -0.012205
  79 H :   -0.002874
  80 H :   -0.008959
  81 H :   -0.005088
  82 H :    0.011875
  83 H :   -0.019825
  84 H :    0.052312
  85 H :   -0.027935
  86 H :   -0.008267
  87 H :    0.145965
  88 H :   -0.031548
  89 H :    0.012421
  90 H :    0.010596
  91 H :    0.041333
  92 H :    0.028731
  93 H :    0.043432
  94 H :   -0.009873
  95 H :   -0.002061
  96 H :   -0.005091
  97 H :    0.000210
  98 H :   -0.000186
  99 H :   -0.013526
Sum of atomic charges:   -0.0000000

LOEWDIN ATOMIC CHARGES
----------------------
   0 C :    0.069786
   1 C :   -0.122468
   2 C :   -0.018119
   3 N :   -0.039745
   4 C :   -0.024877
   5 N :   -0.032510
   6 C :   -0.030474
   7 C :   -0.062245
   8 C :    0.035014
   9 C :   -0.007030
  10 C :   -0.007856
  11 C :    0.020744
  12 C :   -0.005984
  13 C :   -0.013028
  14 C :   -0.010988
  15 C :   -0.013031
  16 C :    0.084027
  17 O :   -0.125043
  18 C :   -0.058964
  19 C :    0.053041
  20 C :   -0.036131
  21 C :   -0.217981
  22 C :    0.151537
  23 F :   -0.053105
  24 F :   -0.051650
  25 F :   -0.054111
  26 S :    0.526484
  27 C :   -0.222437
  28 C :   -0.054415
  29 N :   -0.047774
  30 C :   -0.000271
  31 C :   -0.036727
  32 C :   -0.026909
  33 C :   -0.202383
  34 S :    0.471724
  35 C :   -0.177084
  36 C :   -0.058736
  37 C :   -0.000143
  38 N :    0.075119
  39 C :   -0.017705
  40 C :   -0.043434
  41 N :   -0.026628
  42 C :   -0.031100
  43 C :   -0.014120
  44 C :   -0.036693
  45 C :   -0.020813
  46 C :   -0.243493
  47 C :    0.153310
  48 F :   -0.058170
  49 F :   -0.051719
  50 F :   -0.058621
  51 S :    0.525533
  52 C :   -0.208582
  53 C :   -0.054730
  54 N :   -0.035842
  55 C :   -0.019187
  56 C :    0.035801
  57 C :   -0.028130
  58 C :    0.068420
  59 C :   -0.083184
  60 C :    0.076645
  61 C :   -0.132775
  62 C :   -0.019437
  63 N :   -0.037802
  64 C :   -0.009865
  65 N :   -0.054092
  66 C :   -0.026754
  67 C :   -0.057525
  68 C :    0.093265
  69 O :   -0.136867
  70 C :    0.036234
  71 C :   -0.007293
  72 C :   -0.004337
  73 C :    0.024057
  74 C :   -0.003769
  75 C :   -0.008216
  76 C :   -0.008161
  77 C :   -0.007787
  78 H :    0.039682
  79 H :    0.040460
  80 H :    0.031825
  81 H :    0.032523
  82 H :    0.032443
  83 H :    0.030364
  84 H :    0.048493
  85 H :    0.027383
  86 H :    0.030324
  87 H :    0.098223
  88 H :    0.031701
  89 H :    0.040756
  90 H :    0.024492
  91 H :    0.038343
  92 H :    0.041968
  93 H :    0.048605
  94 H :    0.040027
  95 H :    0.040909
  96 H :    0.036303
  97 H :    0.035346
  98 H :    0.034894
  99 H :    0.033250

  Mayer bond orders larger than 0.100000
B(  0-C ,  1-C ) :   1.6867 B(  0-C ,  6-C ) :   0.9951 B(  0-C , 18-C ) :   1.0051
B(  1-C ,  2-C ) :   1.1346 B(  1-C ,  4-C ) :   1.1392 B(  2-C ,  3-N ) :   2.9805
B(  4-C ,  5-N ) :   2.9943 B(  6-C ,  7-C ) :   1.2100 B(  6-C , 11-C ) :   1.4296
B(  7-C ,  8-C ) :   1.4517 B(  7-C , 16-C ) :   0.9377 B(  8-C ,  9-C ) :   1.1864
B(  8-C , 78-H ) :   1.0212 B(  9-C , 10-C ) :   1.2516 B(  9-C , 15-C ) :   1.2347
B( 10-C , 11-C ) :   1.2099 B( 10-C , 12-C ) :   1.2309 B( 11-C , 79-H ) :   0.9946
B( 12-C , 13-C ) :   1.4771 B( 12-C , 80-H ) :   0.9990 B( 13-C , 14-C ) :   1.2593
B( 13-C , 81-H ) :   0.9897 B( 14-C , 15-C ) :   1.4747 B( 14-C , 82-H ) :   0.9729
B( 15-C , 83-H ) :   1.0009 B( 16-C , 17-O ) :   2.2450 B( 16-C , 18-C ) :   0.9014
B( 18-C , 19-C ) :   1.7789 B( 19-C , 20-C ) :   1.0133 B( 19-C , 84-H ) :   0.9168
B( 20-C , 21-C ) :   1.5724 B( 20-C , 30-C ) :   1.2261 B( 21-C , 22-C ) :   0.9498
B( 21-C , 26-S ) :   1.1403 B( 21-C , 27-C ) :   0.1114 B( 22-C , 23-F ) :   1.1582
B( 22-C , 24-F ) :   1.1742 B( 22-C , 25-F ) :   1.1700 B( 26-S , 27-C ) :   1.1345
B( 27-C , 28-C ) :   1.2101 B( 27-C , 30-C ) :   1.4508 B( 28-C , 29-N ) :   2.9981
B( 30-C , 31-C ) :   1.1505 B( 31-C , 32-C ) :   1.6758 B( 31-C , 85-H ) :   0.9396
B( 32-C , 33-C ) :   1.1622 B( 32-C , 86-H ) :   0.9331 B( 33-C , 34-S ) :   1.1137
B( 33-C , 35-C ) :   0.1103 B( 33-C , 37-C ) :   1.3701 B( 34-S , 35-C ) :   1.1308
B( 35-C , 36-C ) :   1.3016 B( 35-C , 43-C ) :   1.1852 B( 36-C , 37-C ) :   1.2295
B( 36-C , 42-C ) :   1.1594 B( 37-C , 38-N ) :   1.1891 B( 38-N , 39-C ) :   1.1908
B( 38-N , 87-H ) :   0.9296 B( 39-C , 40-C ) :   1.0591 B( 39-C , 42-C ) :   1.5952
B( 40-C , 41-N ) :   3.0519 B( 42-C , 88-H ) :   1.0021 B( 43-C , 44-C ) :   1.6483
B( 43-C , 89-H ) :   0.9638 B( 44-C , 45-C ) :   1.1299 B( 44-C , 90-H ) :   0.9452
B( 45-C , 46-C ) :   1.4887 B( 45-C , 55-C ) :   1.2095 B( 46-C , 47-C ) :   0.9580
B( 46-C , 51-S ) :   1.1262 B( 46-C , 52-C ) :   0.1186 B( 47-C , 48-F ) :   1.1728
B( 47-C , 49-F ) :   1.1727 B( 47-C , 50-F ) :   1.1356 B( 51-S , 52-C ) :   1.1573
B( 52-C , 53-C ) :   1.2065 B( 52-C , 55-C ) :   1.5195 B( 53-C , 54-N ) :   3.0047
B( 55-C , 56-C ) :   1.0756 B( 56-C , 57-C ) :   1.7414 B( 56-C , 91-H ) :   0.9271
B( 57-C , 58-C ) :   1.1213 B( 57-C , 92-H ) :   0.9524 B( 58-C , 59-C ) :   1.6850
B( 58-C , 93-H ) :   0.9528 B( 59-C , 60-C ) :   1.0225 B( 59-C , 68-C ) :   0.9357
B( 60-C , 61-C ) :   1.6745 B( 60-C , 66-C ) :   1.0115 B( 61-C , 62-C ) :   1.1246
B( 61-C , 64-C ) :   1.1516 B( 62-C , 63-N ) :   2.9818 B( 64-C , 65-N ) :   2.8936
B( 66-C , 67-C ) :   1.2062 B( 66-C , 73-C ) :   1.4523 B( 67-C , 68-C ) :   0.9543
B( 67-C , 70-C ) :   1.4679 B( 68-C , 69-O ) :   2.1472 B( 70-C , 71-C ) :   1.1867
B( 70-C , 94-H ) :   1.0165 B( 71-C , 72-C ) :   1.2524 B( 71-C , 77-C ) :   1.2441
B( 72-C , 73-C ) :   1.2050 B( 72-C , 74-C ) :   1.2411 B( 73-C , 95-H ) :   0.9942
B( 74-C , 75-C ) :   1.4890 B( 74-C , 96-H ) :   0.9979 B( 75-C , 76-C ) :   1.2605
B( 75-C , 97-H ) :   0.9885 B( 76-C , 77-C ) :   1.4891 B( 76-C , 98-H ) :   0.9887
B( 77-C , 99-H ) :   0.9981

-----------------------------------------------------------------------------
         ABSORPTION SPECTRUM VIA TRANSITION ELECTRIC DIPOLE MOMENTS
-----------------------------------------------------------------------------
State   Energy  Wavelength   fosc         T2         TX        TY        TZ
        (cm-1)    (nm)                  (au**2)     (au)      (au)      (au)
-----------------------------------------------------------------------------
   0   15479.3    646.0   0.028387459   0.60374   0.25258   0.36716  -0.63651
   1   17586.7    568.6   0.066221418   1.23963  -0.12844  -1.03552   0.38836
   2   19901.5    502.5   0.549302136   9.08657  -0.75803   1.52854  -2.48506
   3   22497.3    444.5   0.278952291   4.08202   0.91511  -1.12000   1.41074
   4   25256.7    395.9   0.190277120   2.48019  -1.07465  -0.62179  -0.96887
   5   25618.6    390.3   0.049938582   0.64174   0.56446  -0.00774   0.56838
   6   26033.3    384.1   0.030532999   0.38611  -0.38606  -0.48429   0.05030
   7   26701.0    374.5   0.071889953   0.88637   0.57102  -0.50667   0.55099
   8   27069.8    369.4   0.163281004   1.98576  -0.27863  -1.06053  -0.88510
   9   27856.8    359.0   0.008110451   0.09585  -0.22263  -0.11934   0.17901
  10   28210.9    354.5   0.026554592   0.30988  -0.53474  -0.09977  -0.11822
  11   28594.9    349.7   0.059899645   0.68962  -0.47701  -0.67794   0.04979
  12   28786.5    347.4   0.017442549   0.19948   0.19793   0.36693   0.16019
  13   29004.2    344.8   0.008460063   0.09603   0.05701  -0.06950   0.29656
  14   29441.9    339.7   0.102027429   1.14084  -0.38063  -0.90293   0.42506
  15   29957.5    333.8   0.050487458   0.55482  -0.08627   0.65119  -0.35119
  16   30299.7    330.0   0.033829193   0.36756  -0.15739  -0.56800   0.14199
  17   30660.0    326.2   0.062207265   0.66795  -0.66616  -0.12129  -0.45768
  18   30793.2    324.7   0.036258518   0.38764   0.55069  -0.02736   0.28920
  19   31391.4    318.6   0.361966941   3.79607  -1.47356   0.66242  -1.08898
  20   31658.7    315.9   0.073846311   0.76791   0.11115  -0.70258   0.51180
  21   32222.7    310.3   0.038138589   0.38965   0.38917  -0.48321  -0.06859
  22   32447.6    308.2   0.027459976   0.27861  -0.09703   0.40499  -0.32431
  23   32634.8    306.4   0.118849221   1.19892  -0.19349   1.06163   0.18555
  24   32925.1    303.7   0.804384740   8.04289  -0.47545   2.15752   1.77818
  25   32980.5    303.2   0.036412547   0.36347   0.01013   0.58116  -0.16007
  26   33544.5    298.1   0.564803673   5.54309   0.13673   1.89347  -1.39253
  27   33750.3    296.3   0.447134266   4.36151   0.48180  -2.01473  -0.26504
  28   34043.1    293.7   0.307841097   2.97696  -1.55430  -0.70633   0.24943
  29   34643.2    288.7   0.095742127   0.90983   0.62912   0.69438   0.17852
  30   35036.7    285.4   0.148463362   1.39499   0.06727   0.85231  -0.81489
  31   35334.7    283.0   0.038926060   0.36267  -0.25728   0.35483  -0.41301
  32   35605.8    280.9   0.018133949   0.16767   0.16926   0.36065   0.09458
  33   35802.9    279.3   0.041133273   0.37823  -0.59962  -0.13529   0.01950
  34   35957.8    278.1   0.011701362   0.10713   0.10860   0.25959   0.16719
  35   36027.1    277.6   0.002639300   0.02412  -0.12945  -0.06547  -0.05546
  36   36157.4    276.6   0.014148602   0.12882   0.27388  -0.07771   0.21857
  37   36710.1    272.4   0.034935885   0.31330  -0.18316  -0.52334   0.07660
  38   36764.5    272.0   0.083812667   0.75051  -0.55640  -0.04907  -0.66221
  39   36906.3    271.0   0.010877677   0.09703  -0.18590  -0.23120   0.09497
  40   37054.6    269.9   0.059180102   0.52579   0.32051   0.38647   0.52316
  41   37428.4    267.2   0.140586701   1.23657   0.93958   0.41320   0.42781
  42   37627.1    265.8   0.077503011   0.67810   0.73812   0.15381  -0.33109
  43   37872.0    264.0   0.039274777   0.34141  -0.02604   0.55981   0.16535
  44   38085.0    262.6   0.028710018   0.24817  -0.25116  -0.30938   0.29895
  45   38424.0    260.3   0.095595384   0.81905   0.47611   0.35143   0.68474
  46   38476.2    259.9   0.061329484   0.52475   0.28320   0.66627  -0.02509
  47   38595.0    259.1   0.013056621   0.11137  -0.32742  -0.04516   0.04616
  48   38646.8    258.8   0.009410942   0.08017  -0.22227  -0.01966   0.17429
  49   38920.0    256.9   0.024070717   0.20361  -0.36845  -0.22069  -0.13836
  50   39102.9    255.7   0.075964841   0.63956  -0.76259  -0.12605  -0.20524
  51   39116.2    255.6   0.104793347   0.88197   0.90619   0.09846   0.22606
  52   39788.9    251.3   0.085842886   0.71026  -0.13020   0.69231   0.46262
  53   40102.3    249.4   0.008294899   0.06810  -0.22283  -0.13005  -0.03912
  54   40169.1    248.9   0.144564187   1.18480  -0.71481   0.49932  -0.65156
  55   40291.9    248.2   0.416411406   3.40237   1.53701  -0.36738   0.95132

FINAL SINGLE POINT ENERGY     -4638.893009684307

DIPOLE MOMENT
-------------
                                X             Y             Z
Electronic contribution:     18.15050      71.76446      -5.45668
Nuclear contribution   :    -16.99516     -74.97510       5.99258
                        -----------------------------------------
Total Dipole Moment    :      1.15534      -3.21064       0.53590
                        -----------------------------------------
Magnitude (a.u.)       :      3.45401
Magnitude (Debye)      :      8.77940

Rotational constants in cm-1:     0.001059     0.000533     0.000433
Rotational constants in MHz :    31.750700    15.981350    12.971918

                             ****ORCA TERMINATED NORMALLY****
TOTAL RUN TIME: 0 days 0 hours 11 minutes 29 seconds 814 msec
