                         Program Version 4.2.0 -  RELEASE  -
|  1> # ORCA input file
|  2> # SCF done       -219.068739649013          0.000505940516
|  3> ! CAM-B3LYP def2-SVP def2/J RIJCOSX Grid4 TightSCF
|  4> %maxcore 5000
|  5> %tddft
|  6>     Mode sTDDFT
|  7>     Ethresh 5.0
|  8>     maxcore 5000
|  9> end
| 10>
| 11> %pal
| 12>   nprocs 6
| 13>   end
| 14> * xyz 0 1
| 15>    C       -3.82927         3.38440        -2.34552
| 16>    C       -4.08179         2.21911        -1.67261
| 17>    C       -4.77498         1.12400        -2.23091
| 18>    N       -5.33908         0.20699        -2.62855
| 19>    C       -3.63635         1.92370        -0.36565
| 20>    N       -3.27154         1.59842         0.67274
| 21>    C       -4.15516         3.64943        -3.74269
| 22>    C       -3.55973         4.88870        -4.11943
| 23>    C       -3.67782         5.39363        -5.38284
| 24>    C       -4.41931         4.67243        -6.34465
| 25>    C       -5.02648         3.43746        -5.97407
| 26>    C       -4.88110         2.93683        -4.65920
| 27>    C       -5.76927         2.72990        -6.94044
| 28>    C       -5.90602         3.21628        -8.21255
| 29>    C       -5.30690         4.43128        -8.57656
| 30>    C       -4.57891         5.14395        -7.66249
| 31>    C       -2.86346         5.46048        -2.96143
| 32>    O       -2.21787         6.49530        -2.93501
| 33>    C       -3.11709         4.54475        -1.83770
| 34>    C       -2.83718         4.80880        -0.52548
| 35>    C       -2.16588         5.91131         0.03250
| 36>    S       -1.35430         7.20425        -0.79608
| 37>    C       -0.84941         7.93202         0.70176
| 38>    C       -1.31655         7.20329         1.79935
| 39>    C       -2.04515         6.08115         1.42490
| 40>    O       -2.64731         5.19822         2.26007
| 41>    C       -2.62487         5.26356         3.60469
| 42>    O       -3.24830         4.46157         4.23551
| 43>    C       -1.82696         6.33356         4.34712
| 44>    O       -1.76309         6.31730         5.54348
| 45>    S       -1.00296         7.63907         3.46858
| 46>    C       -0.09988         9.12303         0.76692
| 47>    C        0.33184         9.79727        -0.33576
| 48>    C        1.05657        11.00518        -0.25101
| 49>    N        1.50323        11.71474        -1.33856
| 50>    C        1.29918        11.38193        -2.72791
| 51>    C       -0.10480        11.74928        -3.20122
| 52>    C        2.18470        12.89209        -0.96220
| 53>    O        2.69034        13.65869        -1.74967
| 54>    C        2.12468        12.87940         0.48550
| 55>    C        1.45006        11.71006         0.89242
| 56>    C        1.42387        11.70358         2.33764
| 57>    O        0.94311        10.92648         3.13903
| 58>    N        2.10704        12.87678         2.71213
| 59>    C        2.23931        13.20626         4.11121
| 60>    C        3.52166        12.63134         4.70964
| 61>    C        2.52791        13.59398         1.61488
| 62>    C        3.19794        14.83910         1.54455
| 63>    C        3.89207        15.48812         2.51693
| 64>    C        4.51406        16.75036         2.35264
| 65>    S        5.64058        17.31117         3.54989
| 66>    C        5.94127        18.79491         2.69447
| 67>    C        5.17309        18.83871         1.53228
| 68>    C        4.37793        17.70496         1.34015
| 69>    O        3.48916        17.52053         0.32777
| 70>    C        3.23483        18.39397        -0.65973
| 71>    O        2.34793        18.16298        -1.42903
| 72>    C        4.05134        19.67180        -0.83704
| 73>    O        3.89818        20.36823        -1.79782
| 74>    S        5.21936        20.18077         0.40298
| 75>    C        6.84578        19.77351         3.15269
| 76>    C        7.57888        19.65553         4.29343
| 77>    C        8.48387        20.65377         4.71204
| 78>    C        9.25710        20.57660         5.83678
| 79>    C       10.20900        21.56499         6.30994
| 80>    C       10.49657        22.77570         5.73308
| 81>    C       11.43740        23.69354         6.24650
| 82>    N       12.18768        24.48480         6.60558
| 83>    C        9.90919        23.29040         4.55861
| 84>    N        9.48063        23.78307         3.61352
| 85>    C       10.82027        21.04624         7.52900
| 86>    C       10.25641        19.77013         7.81521
| 87>    C        9.26371        19.42875         6.78416
| 88>    O        8.59616        18.41627         6.72929
| 89>    C       10.63814        19.03823         8.90261
| 90>    C       11.62220        19.55818         9.77232
| 91>    C       12.19199        20.83421         9.49399
| 92>    C       11.77587        21.56911         8.36014
| 93>    C       13.17379        21.34421        10.36772
| 94>    C       13.57480        20.62952        11.46359
| 95>    C       13.01315        19.37319        11.73644
| 96>    C       12.05752        18.84887        10.90884
| 97>    H       -3.21330         6.33281        -5.64421
| 98>    H       -5.35582         2.00130        -4.40965
| 99>    H       -6.22775         1.79421        -6.65637
|100>    H       -6.47702         2.66658        -8.94552
|101>    H       -5.42518         4.80010        -9.58433
|102>    H       -4.11552         6.08033        -7.93672
|103>    H       -3.18741         4.10562         0.22146
|104>    H        0.12476         9.50450         1.75599
|105>    H        0.10448         9.39845        -1.31462
|106>    H        1.49574        10.31733        -2.88137
|107>    H        2.03740        11.96319        -3.28761
|108>    H       -0.86220        11.20928        -2.63762
|109>    H       -0.21159        11.50327        -4.25383
|110>    H       -0.27100        12.81622        -3.07529
|111>    H        1.38090        12.75204         4.61578
|112>    H        2.18570        14.29015         4.23202
|113>    H        3.48581        11.54563         4.67155
|114>    H        3.61547        12.93912         5.74734
|115>    H        4.40062        12.96382         4.16132
|116>    H        3.16240        15.27253         0.55435
|117>    H        4.06047        15.03520         3.48194
|118>    H        6.94248        20.65696         2.53288
|119>    H        7.47639        18.76871         4.90382
|120>    H        8.55974        21.52964         4.08076
|121>    H       10.19404        18.07290         9.09560
|122>    H       12.22803        22.53108         8.17910
|123>    H       13.60317        22.31194        10.15379
|124>    H       14.32741        21.02870        12.12681
|125>    H       13.34161        18.82292        12.60540
|126>    H       11.62155        17.88198        11.11349
|127> *
|128>
|129>                          ****END OF INPUT****

CARTESIAN COORDINATES (ANGSTROEM)
---------------------------------
  C     -3.829270    3.384400   -2.345520
  C     -4.081790    2.219110   -1.672610
  C     -4.774980    1.124000   -2.230910
  N     -5.339080    0.206990   -2.628550
  C     -3.636350    1.923700   -0.365650
  N     -3.271540    1.598420    0.672740
  C     -4.155160    3.649430   -3.742690
  C     -3.559730    4.888700   -4.119430
  C     -3.677820    5.393630   -5.382840
  C     -4.419310    4.672430   -6.344650
  C     -5.026480    3.437460   -5.974070
  C     -4.881100    2.936830   -4.659200
  C     -5.769270    2.729900   -6.940440
  C     -5.906020    3.216280   -8.212550
  C     -5.306900    4.431280   -8.576560
  C     -4.578910    5.143950   -7.662490
  C     -2.863460    5.460480   -2.961430
  O     -2.217870    6.495300   -2.935010
  C     -3.117090    4.544750   -1.837700
  C     -2.837180    4.808800   -0.525480
  C     -2.165880    5.911310    0.032500
  S     -1.354300    7.204250   -0.796080
  C     -0.849410    7.932020    0.701760
  C     -1.316550    7.203290    1.799350
  C     -2.045150    6.081150    1.424900
  O     -2.647310    5.198220    2.260070
  C     -2.624870    5.263560    3.604690
  O     -3.248300    4.461570    4.235510
  C     -1.826960    6.333560    4.347120
  O     -1.763090    6.317300    5.543480
  S     -1.002960    7.639070    3.468580
  C     -0.099880    9.123030    0.766920
  C      0.331840    9.797270   -0.335760
  C      1.056570   11.005180   -0.251010
  N      1.503230   11.714740   -1.338560
  C      1.299180   11.381930   -2.727910
  C     -0.104800   11.749280   -3.201220
  C      2.184700   12.892090   -0.962200
  O      2.690340   13.658690   -1.749670
  C      2.124680   12.879400    0.485500
  C      1.450060   11.710060    0.892420
  C      1.423870   11.703580    2.337640
  O      0.943110   10.926480    3.139030
  N      2.107040   12.876780    2.712130
  C      2.239310   13.206260    4.111210
  C      3.521660   12.631340    4.709640
  C      2.527910   13.593980    1.614880
  C      3.197940   14.839100    1.544550
  C      3.892070   15.488120    2.516930
  C      4.514060   16.750360    2.352640
  S      5.640580   17.311170    3.549890
  C      5.941270   18.794910    2.694470
  C      5.173090   18.838710    1.532280
  C      4.377930   17.704960    1.340150
  O      3.489160   17.520530    0.327770
  C      3.234830   18.393970   -0.659730
  O      2.347930   18.162980   -1.429030
  C      4.051340   19.671800   -0.837040
  O      3.898180   20.368230   -1.797820
  S      5.219360   20.180770    0.402980
  C      6.845780   19.773510    3.152690
  C      7.578880   19.655530    4.293430
  C      8.483870   20.653770    4.712040
  C      9.257100   20.576600    5.836780
  C     10.209000   21.564990    6.309940
  C     10.496570   22.775700    5.733080
  C     11.437400   23.693540    6.246500
  N     12.187680   24.484800    6.605580
  C      9.909190   23.290400    4.558610
  N      9.480630   23.783070    3.613520
  C     10.820270   21.046240    7.529000
  C     10.256410   19.770130    7.815210
  C      9.263710   19.428750    6.784160
  O      8.596160   18.416270    6.729290
  C     10.638140   19.038230    8.902610
  C     11.622200   19.558180    9.772320
  C     12.191990   20.834210    9.493990
  C     11.775870   21.569110    8.360140
  C     13.173790   21.344210   10.367720
  C     13.574800   20.629520   11.463590
  C     13.013150   19.373190   11.736440
  C     12.057520   18.848870   10.908840
  H     -3.213300    6.332810   -5.644210
  H     -5.355820    2.001300   -4.409650
  H     -6.227750    1.794210   -6.656370
  H     -6.477020    2.666580   -8.945520
  H     -5.425180    4.800100   -9.584330
  H     -4.115520    6.080330   -7.936720
  H     -3.187410    4.105620    0.221460
  H      0.124760    9.504500    1.755990
  H      0.104480    9.398450   -1.314620
  H      1.495740   10.317330   -2.881370
  H      2.037400   11.963190   -3.287610
  H     -0.862200   11.209280   -2.637620
  H     -0.211590   11.503270   -4.253830
  H     -0.271000   12.816220   -3.075290
  H      1.380900   12.752040    4.615780
  H      2.185700   14.290150    4.232020
  H      3.485810   11.545630    4.671550
  H      3.615470   12.939120    5.747340
  H      4.400620   12.963820    4.161320
  H      3.162400   15.272530    0.554350
  H      4.060470   15.035200    3.481940
  H      6.942480   20.656960    2.532880
  H      7.476390   18.768710    4.903820
  H      8.559740   21.529640    4.080760
  H     10.194040   18.072900    9.095600
  H     12.228030   22.531080    8.179100
  H     13.603170   22.311940   10.153790
  H     14.327410   21.028700   12.126810
  H     13.341610   18.822920   12.605400
  H     11.621550   17.881980   11.113490

 Total Charge           Charge          ....    0
 Multiplicity           Mult            ....    1
 Number of Electrons    NEL             ....  588
 Basis Dimension        Dim             .... 1314

ORBITAL ENERGIES
----------------

  NO   OCC          E(Eh)            E(eV)
   0   2.0000     -88.991916     -2421.5932
   1   2.0000     -88.987527     -2421.4737
   2   2.0000     -88.986307     -2421.4405
   3   2.0000     -88.979434     -2421.2535
   4   2.0000     -19.321870      -525.7748
   5   2.0000     -19.320413      -525.7352
   6   2.0000     -19.256552      -523.9974
   7   2.0000     -19.248741      -523.7849
   8   2.0000     -19.242443      -523.6135
   9   2.0000     -19.239069      -523.5217
  10   2.0000     -19.232241      -523.3359
  11   2.0000     -19.220680      -523.0213
  12   2.0000     -19.202382      -522.5234
  13   2.0000     -19.199139      -522.4351
  14   2.0000     -14.464037      -393.5865
  15   2.0000     -14.462656      -393.5489
  16   2.0000     -14.419488      -392.3742
  17   2.0000     -14.418631      -392.3509
  18   2.0000     -14.418309      -392.3421
  19   2.0000     -14.416328      -392.2882
  20   2.0000     -10.445435      -284.2347
  21   2.0000     -10.441344      -284.1234
  22   2.0000     -10.423142      -283.6281
  23   2.0000     -10.415921      -283.4316
  24   2.0000     -10.386747      -282.6377
  25   2.0000     -10.384108      -282.5659
  26   2.0000     -10.383609      -282.5524
  27   2.0000     -10.382945      -282.5343
  28   2.0000     -10.379681      -282.4455
  29   2.0000     -10.371071      -282.2112
  30   2.0000     -10.353629      -281.7366
  31   2.0000     -10.349839      -281.6334
  32   2.0000     -10.347669      -281.5744
  33   2.0000     -10.346911      -281.5538
  34   2.0000     -10.345797      -281.5234
  35   2.0000     -10.344320      -281.4833
  36   2.0000     -10.342970      -281.4465
  37   2.0000     -10.342934      -281.4456
  38   2.0000     -10.341322      -281.4017
  39   2.0000     -10.340344      -281.3751
  40   2.0000     -10.337613      -281.3008
  41   2.0000     -10.334828      -281.2250
  42   2.0000     -10.333284      -281.1830
  43   2.0000     -10.323637      -280.9204
  44   2.0000     -10.322249      -280.8827
  45   2.0000     -10.321079      -280.8508
  46   2.0000     -10.319967      -280.8206
  47   2.0000     -10.319865      -280.8178
  48   2.0000     -10.319244      -280.8009
  49   2.0000     -10.317138      -280.7436
  50   2.0000     -10.316352      -280.7222
  51   2.0000     -10.316057      -280.7142
  52   2.0000     -10.312764      -280.6246
  53   2.0000     -10.310137      -280.5531
  54   2.0000     -10.309120      -280.5254
  55   2.0000     -10.309082      -280.5244
  56   2.0000     -10.306442      -280.4526
  57   2.0000     -10.305217      -280.4192
  58   2.0000     -10.304715      -280.4056
  59   2.0000     -10.303727      -280.3787
  60   2.0000     -10.303461      -280.3714
  61   2.0000     -10.302839      -280.3545
  62   2.0000     -10.302294      -280.3397
  63   2.0000     -10.300182      -280.2822
  64   2.0000     -10.299893      -280.2743
  65   2.0000     -10.299288      -280.2579
  66   2.0000     -10.298865      -280.2464
  67   2.0000     -10.298055      -280.2243
  68   2.0000     -10.296408      -280.1795
  69   2.0000     -10.292158      -280.0639
  70   2.0000     -10.291618      -280.0492
  71   2.0000     -10.291224      -280.0384
  72   2.0000     -10.290877      -280.0290
  73   2.0000     -10.290644      -280.0226
  74   2.0000     -10.289044      -279.9791
  75   2.0000     -10.288533      -279.9652
  76   2.0000     -10.288150      -279.9548
  77   2.0000     -10.287644      -279.9410
  78   2.0000     -10.273416      -279.5539
  79   2.0000     -10.272727      -279.5351
  80   2.0000     -10.271808      -279.5101
  81   2.0000     -10.270079      -279.4630
  82   2.0000      -8.087159      -220.0628
  83   2.0000      -8.083997      -219.9768
  84   2.0000      -8.079180      -219.8457
  85   2.0000      -8.075633      -219.7491
  86   2.0000      -6.056403      -164.8031
  87   2.0000      -6.053723      -164.7302
  88   2.0000      -6.052539      -164.6980
  89   2.0000      -6.049432      -164.6134
  90   2.0000      -6.049013      -164.6020
  91   2.0000      -6.048586      -164.5904
  92   2.0000      -6.045376      -164.5030
  93   2.0000      -6.044843      -164.4885
  94   2.0000      -6.044334      -164.4747
  95   2.0000      -6.041146      -164.3879
  96   2.0000      -6.041076      -164.3860
  97   2.0000      -6.036429      -164.2596
  98   2.0000      -1.249928       -34.0123
  99   2.0000      -1.247963       -33.9588
 100   2.0000      -1.181388       -32.1472
 101   2.0000      -1.174387       -31.9567
 102   2.0000      -1.147131       -31.2150
 103   2.0000      -1.146043       -31.1854
 104   2.0000      -1.143728       -31.1224
 105   2.0000      -1.142459       -31.0879
 106   2.0000      -1.136843       -30.9351
 107   2.0000      -1.134899       -30.8822
 108   2.0000      -1.073733       -29.2178
 109   2.0000      -1.064922       -28.9780
 110   2.0000      -1.029666       -28.0186
 111   2.0000      -1.024599       -27.8807
 112   2.0000      -1.021767       -27.8037
 113   2.0000      -1.020563       -27.7709
 114   2.0000      -1.004079       -27.3224
 115   2.0000      -1.001186       -27.2437
 116   2.0000      -0.996911       -27.1273
 117   2.0000      -0.995997       -27.1025
 118   2.0000      -0.978107       -26.6156
 119   2.0000      -0.974166       -26.5084
 120   2.0000      -0.953908       -25.9571
 121   2.0000      -0.948192       -25.8016
 122   2.0000      -0.940251       -25.5855
 123   2.0000      -0.939435       -25.5633
 124   2.0000      -0.929894       -25.3037
 125   2.0000      -0.927845       -25.2479
 126   2.0000      -0.924677       -25.1617
 127   2.0000      -0.914092       -24.8737
 128   2.0000      -0.906369       -24.6636
 129   2.0000      -0.897938       -24.4341
 130   2.0000      -0.888067       -24.1655
 131   2.0000      -0.886311       -24.1177
 132   2.0000      -0.883638       -24.0450
 133   2.0000      -0.879864       -23.9423
 134   2.0000      -0.877501       -23.8780
 135   2.0000      -0.869795       -23.6683
 136   2.0000      -0.863837       -23.5062
 137   2.0000      -0.845081       -22.9958
 138   2.0000      -0.840180       -22.8625
 139   2.0000      -0.834255       -22.7012
 140   2.0000      -0.830654       -22.6032
 141   2.0000      -0.829623       -22.5752
 142   2.0000      -0.818241       -22.2655
 143   2.0000      -0.809556       -22.0291
 144   2.0000      -0.792596       -21.5676
 145   2.0000      -0.787243       -21.4220
 146   2.0000      -0.780304       -21.2332
 147   2.0000      -0.774224       -21.0677
 148   2.0000      -0.769156       -20.9298
 149   2.0000      -0.768988       -20.9252
 150   2.0000      -0.764407       -20.8006
 151   2.0000      -0.750762       -20.4293
 152   2.0000      -0.746194       -20.3050
 153   2.0000      -0.741897       -20.1880
 154   2.0000      -0.729254       -19.8440
 155   2.0000      -0.718107       -19.5407
 156   2.0000      -0.711738       -19.3674
 157   2.0000      -0.707947       -19.2642
 158   2.0000      -0.706946       -19.2370
 159   2.0000      -0.705439       -19.1960
 160   2.0000      -0.703762       -19.1503
 161   2.0000      -0.698719       -19.0131
 162   2.0000      -0.692792       -18.8518
 163   2.0000      -0.689389       -18.7592
 164   2.0000      -0.678389       -18.4599
 165   2.0000      -0.677215       -18.4280
 166   2.0000      -0.665735       -18.1156
 167   2.0000      -0.661532       -18.0012
 168   2.0000      -0.659869       -17.9559
 169   2.0000      -0.650073       -17.6894
 170   2.0000      -0.647629       -17.6229
 171   2.0000      -0.643386       -17.5074
 172   2.0000      -0.641114       -17.4456
 173   2.0000      -0.630222       -17.1492
 174   2.0000      -0.626779       -17.0555
 175   2.0000      -0.617667       -16.8076
 176   2.0000      -0.612426       -16.6650
 177   2.0000      -0.611044       -16.6273
 178   2.0000      -0.609019       -16.5723
 179   2.0000      -0.606922       -16.5152
 180   2.0000      -0.605334       -16.4720
 181   2.0000      -0.603621       -16.4254
 182   2.0000      -0.598562       -16.2877
 183   2.0000      -0.595075       -16.1928
 184   2.0000      -0.585035       -15.9196
 185   2.0000      -0.583671       -15.8825
 186   2.0000      -0.579659       -15.7733
 187   2.0000      -0.575825       -15.6690
 188   2.0000      -0.574203       -15.6248
 189   2.0000      -0.568468       -15.4688
 190   2.0000      -0.565298       -15.3825
 191   2.0000      -0.562199       -15.2982
 192   2.0000      -0.559956       -15.2372
 193   2.0000      -0.554329       -15.0841
 194   2.0000      -0.552217       -15.0266
 195   2.0000      -0.549114       -14.9421
 196   2.0000      -0.548553       -14.9269
 197   2.0000      -0.547407       -14.8957
 198   2.0000      -0.545012       -14.8305
 199   2.0000      -0.542332       -14.7576
 200   2.0000      -0.541591       -14.7374
 201   2.0000      -0.540944       -14.7198
 202   2.0000      -0.540156       -14.6984
 203   2.0000      -0.538807       -14.6617
 204   2.0000      -0.537154       -14.6167
 205   2.0000      -0.535811       -14.5802
 206   2.0000      -0.534152       -14.5350
 207   2.0000      -0.533526       -14.5180
 208   2.0000      -0.528594       -14.3838
 209   2.0000      -0.527084       -14.3427
 210   2.0000      -0.526695       -14.3321
 211   2.0000      -0.524036       -14.2598
 212   2.0000      -0.522486       -14.2176
 213   2.0000      -0.518558       -14.1107
 214   2.0000      -0.517728       -14.0881
 215   2.0000      -0.517105       -14.0711
 216   2.0000      -0.514804       -14.0085
 217   2.0000      -0.511807       -13.9270
 218   2.0000      -0.511600       -13.9213
 219   2.0000      -0.511137       -13.9087
 220   2.0000      -0.508871       -13.8471
 221   2.0000      -0.505628       -13.7588
 222   2.0000      -0.503013       -13.6877
 223   2.0000      -0.501668       -13.6511
 224   2.0000      -0.499477       -13.5915
 225   2.0000      -0.498245       -13.5579
 226   2.0000      -0.494826       -13.4649
 227   2.0000      -0.494018       -13.4429
 228   2.0000      -0.489575       -13.3220
 229   2.0000      -0.488570       -13.2947
 230   2.0000      -0.485784       -13.2189
 231   2.0000      -0.484003       -13.1704
 232   2.0000      -0.477984       -13.0066
 233   2.0000      -0.475674       -12.9437
 234   2.0000      -0.470984       -12.8161
 235   2.0000      -0.468940       -12.7605
 236   2.0000      -0.467374       -12.7179
 237   2.0000      -0.466431       -12.6922
 238   2.0000      -0.462225       -12.5778
 239   2.0000      -0.460345       -12.5266
 240   2.0000      -0.458559       -12.4780
 241   2.0000      -0.458020       -12.4634
 242   2.0000      -0.457341       -12.4449
 243   2.0000      -0.451739       -12.2924
 244   2.0000      -0.451605       -12.2888
 245   2.0000      -0.448492       -12.2041
 246   2.0000      -0.447301       -12.1717
 247   2.0000      -0.446676       -12.1547
 248   2.0000      -0.445737       -12.1291
 249   2.0000      -0.444515       -12.0959
 250   2.0000      -0.442260       -12.0345
 251   2.0000      -0.441891       -12.0245
 252   2.0000      -0.439887       -11.9699
 253   2.0000      -0.438810       -11.9406
 254   2.0000      -0.436387       -11.8747
 255   2.0000      -0.435951       -11.8628
 256   2.0000      -0.435653       -11.8547
 257   2.0000      -0.435138       -11.8407
 258   2.0000      -0.431790       -11.7496
 259   2.0000      -0.430855       -11.7242
 260   2.0000      -0.429742       -11.6939
 261   2.0000      -0.427153       -11.6234
 262   2.0000      -0.426169       -11.5967
 263   2.0000      -0.422242       -11.4898
 264   2.0000      -0.419817       -11.4238
 265   2.0000      -0.418138       -11.3781
 266   2.0000      -0.410834       -11.1794
 267   2.0000      -0.408398       -11.1131
 268   2.0000      -0.405200       -11.0261
 269   2.0000      -0.400303       -10.8928
 270   2.0000      -0.398483       -10.8433
 271   2.0000      -0.397322       -10.8117
 272   2.0000      -0.389403       -10.5962
 273   2.0000      -0.382224       -10.4008
 274   2.0000      -0.380226       -10.3465
 275   2.0000      -0.371474       -10.1083
 276   2.0000      -0.363549        -9.8927
 277   2.0000      -0.359073        -9.7709
 278   2.0000      -0.358525        -9.7560
 279   2.0000      -0.351877        -9.5750
 280   2.0000      -0.344137        -9.3644
 281   2.0000      -0.340998        -9.2790
 282   2.0000      -0.339669        -9.2429
 283   2.0000      -0.338096        -9.2001
 284   2.0000      -0.326278        -8.8785
 285   2.0000      -0.325257        -8.8507
 286   2.0000      -0.324495        -8.8299
 287   2.0000      -0.319241        -8.6870
 288   2.0000      -0.314952        -8.5703
 289   2.0000      -0.303532        -8.2595
 290   2.0000      -0.298505        -8.1227
 291   2.0000      -0.291928        -7.9438
 292   2.0000      -0.281518        -7.6605
 293   2.0000      -0.241239        -6.5644
 294   0.0000      -0.124393        -3.3849
 295   0.0000      -0.106699        -2.9034
 296   0.0000      -0.080185        -2.1820
 297   0.0000      -0.066981        -1.8227
 298   0.0000      -0.062250        -1.6939

MULLIKEN ATOMIC CHARGES
-----------------------
   0 C :    0.316865
   1 C :   -0.340190
   2 C :   -0.180287
   3 N :    0.149373
   4 C :   -0.209783
   5 N :    0.174041
   6 C :    0.047441
   7 C :   -0.001078
   8 C :   -0.079449
   9 C :    0.097734
  10 C :    0.097257
  11 C :   -0.081812
  12 C :   -0.018075
  13 C :    0.036902
  14 C :    0.037030
  15 C :   -0.015797
  16 C :    0.175489
  17 O :   -0.188609
  18 C :   -0.087717
  19 C :   -0.030298
  20 C :   -0.116980
  21 S :    0.202886
  22 C :   -0.097697
  23 C :   -0.029005
  24 C :    0.192448
  25 O :   -0.197446
  26 C :    0.213239
  27 O :   -0.096105
  28 C :    0.003951
  29 O :   -0.115172
  30 S :    0.147457
  31 C :   -0.012178
  32 C :   -0.031502
  33 C :    0.153618
  34 N :   -0.264707
  35 C :    0.093162
  36 C :    0.002680
  37 C :    0.153441
  38 O :   -0.178187
  39 C :   -0.037369
  40 C :   -0.064916
  41 C :    0.165626
  42 O :   -0.214691
  43 N :   -0.263940
  44 C :    0.101075
  45 C :    0.002234
  46 C :    0.107577
  47 C :   -0.031936
  48 C :    0.043671
  49 C :   -0.124581
  50 S :    0.179903
  51 C :   -0.127994
  52 C :   -0.022721
  53 C :    0.186239
  54 O :   -0.205198
  55 C :    0.217743
  56 O :   -0.103573
  57 C :    0.005743
  58 O :   -0.107869
  59 S :    0.125678
  60 C :    0.021005
  61 C :   -0.010869
  62 C :   -0.041553
  63 C :   -0.069597
  64 C :    0.340067
  65 C :   -0.353268
  66 C :   -0.183195
  67 N :    0.145800
  68 C :   -0.190518
  69 N :    0.148405
  70 C :    0.045071
  71 C :   -0.002896
  72 C :    0.149055
  73 O :   -0.155902
  74 C :   -0.078790
  75 C :    0.096545
  76 C :    0.095772
  77 C :   -0.080711
  78 C :   -0.016990
  79 C :    0.034338
  80 C :    0.037638
  81 C :   -0.015519
  82 H :   -0.014877
  83 H :   -0.006933
  84 H :   -0.008040
  85 H :   -0.001887
  86 H :   -0.003592
  87 H :   -0.017661
  88 H :    0.040899
  89 H :    0.031640
  90 H :   -0.005526
  91 H :    0.026103
  92 H :    0.047276
  93 H :    0.015906
  94 H :    0.026921
  95 H :    0.034624
  96 H :    0.042121
  97 H :    0.025477
  98 H :    0.035463
  99 H :    0.025932
 100 H :    0.019045
 101 H :    0.035483
 102 H :   -0.020096
 103 H :    0.021809
 104 H :    0.032229
 105 H :    0.010291
 106 H :   -0.015312
 107 H :   -0.009686
 108 H :   -0.008552
 109 H :   -0.003587
 110 H :   -0.004599
 111 H :   -0.018401
Sum of atomic charges:   -0.0000000

LOEWDIN ATOMIC CHARGES
----------------------
   0 C :    0.072744
   1 C :   -0.132825
   2 C :   -0.016762
   3 N :   -0.049537
   4 C :   -0.027748
   5 N :   -0.037529
   6 C :   -0.024035
   7 C :   -0.057176
   8 C :    0.033810
   9 C :   -0.009180
  10 C :   -0.004843
  11 C :    0.020597
  12 C :   -0.004519
  13 C :   -0.010892
  14 C :   -0.011124
  15 C :   -0.009003
  16 C :    0.087676
  17 O :   -0.172228
  18 C :   -0.094210
  19 C :    0.055446
  20 C :   -0.197822
  21 S :    0.529357
  22 C :   -0.179365
  23 C :   -0.222975
  24 C :    0.023803
  25 O :   -0.013863
  26 C :    0.052463
  27 O :   -0.075607
  28 C :   -0.105873
  29 O :   -0.091472
  30 S :    0.407860
  31 C :    0.003476
  32 C :   -0.034799
  33 C :    0.080133
  34 N :   -0.002974
  35 C :    0.036171
  36 C :   -0.060424
  37 C :    0.080737
  38 O :   -0.181510
  39 C :   -0.103893
  40 C :   -0.121174
  41 C :    0.080575
  42 O :   -0.201305
  43 N :    0.000330
  44 C :    0.035874
  45 C :   -0.062827
  46 C :    0.063753
  47 C :   -0.009293
  48 C :   -0.039454
  49 C :   -0.169723
  50 S :    0.484621
  51 C :   -0.193700
  52 C :   -0.206683
  53 C :   -0.002679
  54 O :   -0.012365
  55 C :    0.051028
  56 O :   -0.080143
  57 C :   -0.101588
  58 O :   -0.085447
  59 S :    0.392187
  60 C :    0.002589
  61 C :   -0.030463
  62 C :    0.062927
  63 C :   -0.088700
  64 C :    0.074460
  65 C :   -0.138474
  66 C :   -0.017076
  67 N :   -0.053219
  68 C :   -0.020258
  69 N :   -0.053091
  70 C :   -0.025587
  71 C :   -0.056219
  72 C :    0.085415
  73 O :   -0.149348
  74 C :    0.032239
  75 C :   -0.008305
  76 C :   -0.005943
  77 C :    0.019913
  78 C :   -0.004785
  79 C :   -0.012855
  80 C :   -0.011532
  81 C :   -0.009605
  82 H :    0.038430
  83 H :    0.039723
  84 H :    0.035467
  85 H :    0.034262
  86 H :    0.033547
  87 H :    0.031762
  88 H :    0.054502
  89 H :    0.037201
  90 H :    0.027614
  91 H :    0.024033
  92 H :    0.039451
  93 H :    0.021897
  94 H :    0.032335
  95 H :    0.034112
  96 H :    0.037821
  97 H :    0.023967
  98 H :    0.035431
  99 H :    0.031823
 100 H :    0.020037
 101 H :    0.049431
 102 H :    0.030907
 103 H :    0.038639
 104 H :    0.028025
 105 H :    0.042766
 106 H :    0.038295
 107 H :    0.039039
 108 H :    0.035048
 109 H :    0.033618
 110 H :    0.033044
 111 H :    0.031624

  Mayer bond orders larger than 0.100000
B(  0-C ,  1-C ) :   1.6449 B(  0-C ,  6-C ) :   0.9893 B(  0-C , 18-C ) :   1.0586
B(  1-C ,  2-C ) :   1.1448 B(  1-C ,  4-C ) :   1.1422 B(  2-C ,  3-N ) :   2.9662
B(  4-C ,  5-N ) :   2.9888 B(  6-C ,  7-C ) :   1.2139 B(  6-C , 11-C ) :   1.4546
B(  7-C ,  8-C ) :   1.4651 B(  7-C , 16-C ) :   0.9640 B(  8-C ,  9-C ) :   1.1796
B(  8-C , 82-H ) :   1.0166 B(  9-C , 10-C ) :   1.2559 B(  9-C , 15-C ) :   1.2444
B( 10-C , 11-C ) :   1.2026 B( 10-C , 12-C ) :   1.2408 B( 11-C , 83-H ) :   0.9909
B( 12-C , 13-C ) :   1.4878 B( 12-C , 84-H ) :   0.9976 B( 13-C , 14-C ) :   1.2611
B( 13-C , 85-H ) :   0.9887 B( 14-C , 15-C ) :   1.4871 B( 14-C , 86-H ) :   0.9891
B( 15-C , 87-H ) :   0.9980 B( 16-C , 17-O ) :   2.1117 B( 16-C , 18-C ) :   0.9772
B( 18-C , 19-C ) :   1.5217 B( 19-C , 20-C ) :   1.2516 B( 19-C , 88-H ) :   0.9396
B( 20-C , 21-S ) :   1.0971 B( 20-C , 22-C ) :   0.1032 B( 20-C , 24-C ) :   1.3930
B( 21-S , 22-C ) :   1.1037 B( 22-C , 23-C ) :   1.4318 B( 22-C , 31-C ) :   1.1901
B( 23-C , 24-C ) :   1.3346 B( 23-C , 30-S ) :   0.9770 B( 24-C , 25-O ) :   1.0967
B( 25-O , 26-C ) :   1.0560 B( 26-C , 27-O ) :   2.2583 B( 26-C , 28-C ) :   0.8006
B( 28-C , 29-O ) :   2.1686 B( 28-C , 30-S ) :   1.0433 B( 29-O , 30-S ) :   0.1382
B( 31-C , 32-C ) :   1.5657 B( 31-C , 89-H ) :   0.9478 B( 32-C , 33-C ) :   1.1765
B( 32-C , 90-H ) :   0.9669 B( 33-C , 34-N ) :   1.1723 B( 33-C , 40-C ) :   1.3110
B( 34-N , 35-C ) :   0.9432 B( 34-N , 37-C ) :   1.0260 B( 35-C , 36-C ) :   1.1208
B( 35-C , 91-H ) :   0.9508 B( 35-C , 92-H ) :   0.9276 B( 36-C , 93-H ) :   0.9684
B( 36-C , 94-H ) :   0.9678 B( 36-C , 95-H ) :   0.9637 B( 37-C , 38-O ) :   2.1478
B( 37-C , 39-C ) :   0.9692 B( 39-C , 40-C ) :   1.2611 B( 39-C , 46-C ) :   1.3376
B( 40-C , 41-C ) :   0.9917 B( 41-C , 42-O ) :   2.0079 B( 41-C , 43-N ) :   1.0674
B( 42-O , 89-H ) :   0.1174 B( 43-N , 44-C ) :   0.9420 B( 43-N , 46-C ) :   1.1619
B( 44-C , 45-C ) :   1.1178 B( 44-C , 96-H ) :   0.9280 B( 44-C , 97-H ) :   0.9503
B( 45-C , 98-H ) :   0.9598 B( 45-C , 99-H ) :   0.9690 B( 45-C ,100-H ) :   0.9654
B( 46-C , 47-C ) :   1.1941 B( 47-C , 48-C ) :   1.5841 B( 47-C ,101-H ) :   0.9470
B( 48-C , 49-C ) :   1.1504 B( 48-C ,102-H ) :   0.9520 B( 49-C , 50-S ) :   1.1339
B( 49-C , 51-C ) :   0.1092 B( 49-C , 53-C ) :   1.4473 B( 50-S , 51-C ) :   1.1141
B( 51-C , 52-C ) :   1.4820 B( 51-C , 60-C ) :   1.1746 B( 52-C , 53-C ) :   1.2996
B( 52-C , 59-S ) :   0.9726 B( 53-C , 54-O ) :   1.0739 B( 54-O , 55-C ) :   1.0660
B( 55-C , 56-O ) :   2.2437 B( 55-C , 57-C ) :   0.8018 B( 57-C , 58-O ) :   2.1805
B( 57-C , 59-S ) :   1.0328 B( 58-O , 59-S ) :   0.1360 B( 60-C , 61-C ) :   1.5499
B( 60-C ,103-H ) :   0.9766 B( 61-C , 62-C ) :   1.1744 B( 61-C ,104-H ) :   0.9749
B( 62-C , 63-C ) :   1.5382 B( 62-C ,105-H ) :   0.9624 B( 63-C , 64-C ) :   1.0630
B( 63-C , 72-C ) :   0.9425 B( 64-C , 65-C ) :   1.6234 B( 64-C , 70-C ) :   0.9892
B( 65-C , 66-C ) :   1.1476 B( 65-C , 68-C ) :   1.1474 B( 66-C , 67-N ) :   2.9597
B( 68-C , 69-N ) :   2.9587 B( 70-C , 71-C ) :   1.2147 B( 70-C , 77-C ) :   1.4494
B( 71-C , 72-C ) :   0.9472 B( 71-C , 74-C ) :   1.4708 B( 72-C , 73-O ) :   2.1905
B( 74-C , 75-C ) :   1.1798 B( 74-C ,106-H ) :   1.0155 B( 75-C , 76-C ) :   1.2552
B( 75-C , 81-C ) :   1.2446 B( 76-C , 77-C ) :   1.2079 B( 76-C , 78-C ) :   1.2391
B( 77-C ,107-H ) :   0.9882 B( 78-C , 79-C ) :   1.4892 B( 78-C ,108-H ) :   0.9972
B( 79-C , 80-C ) :   1.2588 B( 79-C ,109-H ) :   0.9891 B( 80-C , 81-C ) :   1.4894
B( 80-C ,110-H ) :   0.9891 B( 81-C ,111-H ) :   0.9971

-----------------------------------------------------------------------------
         ABSORPTION SPECTRUM VIA TRANSITION ELECTRIC DIPOLE MOMENTS
-----------------------------------------------------------------------------
State   Energy  Wavelength   fosc         T2         TX        TY        TZ
        (cm-1)    (nm)                  (au**2)     (au)      (au)      (au)
-----------------------------------------------------------------------------
   0   11657.8    857.8   1.736034002  49.02512  -3.79199  -5.17664  -2.80149
   1   17156.7    582.9   0.121477470   2.33098  -1.16591  -0.52693  -0.83305
   2   21294.3    469.6   0.263921456   4.08026  -1.54617  -0.57169  -1.16738
   3   22147.1    451.5   0.664708482   9.88074  -1.88039  -2.22399  -1.18269
   4   22736.0    439.8   0.104289106   1.51008  -0.54585  -1.08729  -0.17302
   5   24475.8    408.6   0.004459431   0.05998  -0.12178   0.11358  -0.17958
   6   24837.1    402.6   0.061871236   0.82009  -0.62746  -0.18167  -0.62720
   7   24971.1    400.5   0.133425056   1.75904  -0.75866  -0.77871  -0.75966
   8   25515.7    391.9   0.001788416   0.02307  -0.07977  -0.12734  -0.02230
   9   25696.5    389.2   0.037780774   0.48403   0.18786  -0.04050  -0.66866
  10   26326.6    379.8   0.097304590   1.21678  -0.31175   0.18389  -1.04201
  11   26772.9    373.5   0.000660171   0.00812   0.01829  -0.01865   0.08623
  12   26816.0    372.9   0.030443718   0.37375  -0.14562   0.09492  -0.58612
  13   26923.1    371.4   0.010269431   0.12557  -0.22105   0.02823   0.27552
  14   27055.1    369.6   0.041320135   0.50279  -0.28000   0.17042  -0.62877
  15   27556.7    362.9   0.053903439   0.64397  -0.34020   0.09416  -0.72067
  16   27691.0    361.1   0.013751770   0.16349   0.10987  -0.13253   0.36586
  17   28471.8    351.2   0.131247844   1.51758  -0.43421   0.16102  -1.14154
  18   28623.1    349.4   0.030744450   0.35361  -0.07191  -0.08714   0.58382
  19   28748.5    347.8   0.160820016   1.84162   0.32690  -0.71397   1.10680
  20   29244.4    341.9   0.034660860   0.39019  -0.33257   0.52213  -0.08344
  21   29977.7    333.6   0.032256413   0.35424   0.19900   0.08378  -0.55463
  22   31132.2    321.2   0.000246472   0.00261  -0.00960  -0.04521  -0.02168
  23   32088.4    311.6   0.297515406   3.05237  -0.22326   0.34635  -1.69781
  24   32181.1    310.7   0.735600000   7.52517   0.98281  -0.81334   2.42853
  25   32470.1    308.0   0.047313619   0.47971  -0.36797   0.38861  -0.43965
  26   32669.4    306.1   0.045816758   0.46170   0.36263  -0.12761   0.56028
  27   32843.2    304.5   0.001056780   0.01059   0.07396  -0.00304   0.07151
  28   32914.6    303.8   0.000948005   0.00948   0.04840   0.01788  -0.08258
  29   33067.3    302.4   0.061302560   0.61032   0.23838   0.05823   0.74169
  30   33497.5    298.5   0.013537414   0.13305   0.28406   0.22382   0.04756
  31   33660.1    297.1   0.065002680   0.63576   0.50429   0.46550   0.40591
  32   33871.0    295.2   0.159218209   1.54753  -0.33835  -0.63588   1.01426
  33   34103.9    293.2   0.330069049   3.18622   0.20607  -1.08129   1.40520
  34   34161.7    292.7   0.001977057   0.01905   0.01326  -0.07178   0.11715
  35   34237.2    292.1   0.139323007   1.33968  -0.39481   0.57219  -0.92542
  36   34363.8    291.0   0.040318380   0.38626   0.11166   0.19933  -0.57798
  37   34896.2    286.6   0.001350927   0.01274   0.06125   0.06357  -0.07037
  38   35052.7    285.3   0.209804725   1.97047   0.05140   0.95358  -1.02884
  39   35090.9    285.0   0.046727286   0.43838  -0.30579  -0.38774   0.44105
  40   35152.3    284.5   0.005731095   0.05367   0.14055  -0.11674  -0.14245
  41   35395.8    282.5   0.069165563   0.64330   0.21293   0.22253  -0.74057
  42   35795.6    279.4   0.060567733   0.55704   0.19024   0.28153  -0.66452
  43   36084.5    277.1   0.026038455   0.23756  -0.10781  -0.19717   0.43250
  44   36639.7    272.9   0.097911133   0.87974  -0.10178   0.72653  -0.58441
  45   37163.3    269.1   0.118426581   1.04909   0.07795   0.75064  -0.69250
  46   37376.0    267.6   0.070886308   0.62437  -0.00171  -0.51341   0.60065
  47   37781.8    264.7   0.267127523   2.32762   0.16228   1.24558  -0.86591
  48   37893.6    263.9   0.000415861   0.00361  -0.01578   0.05590  -0.01547
  49   38187.2    261.9   0.092665686   0.79887  -0.05660   0.08331  -0.88810
  50   38345.7    260.8   0.005944352   0.05103  -0.12359  -0.00521  -0.18903
  51   38524.3    259.6   0.157067287   1.34223   0.30290   0.30624   1.07550
  52   38766.3    258.0   0.423731536   3.59842  -0.05626   0.68213  -1.76917
  53   38868.0    257.3   0.111649859   0.94567   0.66825   0.27514   0.65070
  54   39025.4    256.2   0.013951484   0.11769  -0.15908   0.16509  -0.25521
  55   39170.1    255.3   0.032039931   0.26929   0.42139  -0.03476   0.30085
  56   39277.3    254.6   0.095774728   0.80276  -0.16071   0.50634  -0.72149
  57   39361.3    254.1   0.118333305   0.98972  -0.49857  -0.76113   0.40227
  58   39401.0    253.8   0.001197488   0.01001   0.00811   0.05788  -0.08118
  59   39700.3    251.9   0.018466214   0.15313  -0.27650  -0.26622   0.07619
  60   39947.0    250.3   0.024830520   0.20463  -0.29392  -0.31334  -0.14164
  61   40083.8    249.5   0.286261286   2.35109   0.83671   1.28161   0.09201

FINAL SINGLE POINT ENERGY     -5049.341887799704

DIPOLE MOMENT
-------------
                                X             Y             Z
Electronic contribution:    -12.66382      -3.85445       3.13369
Nuclear contribution   :     13.40541       3.94046      -3.88750
                        -----------------------------------------
Total Dipole Moment    :      0.74159       0.08600      -0.75381
                        -----------------------------------------
Magnitude (a.u.)       :      1.06094
Magnitude (Debye)      :      2.69669

Rotational constants in cm-1:     0.001375     0.000162     0.000147
Rotational constants in MHz :    41.218720     4.864168     4.420580

                             ****ORCA TERMINATED NORMALLY****
TOTAL RUN TIME: 0 days 0 hours 27 minutes 0 seconds 638 msec
