                         Program Version 4.2.0 -  RELEASE  -
|  1> # ORCA input file
|  2> # SCF done       -209.643415851580          0.000982893871
|  3> ! CAM-B3LYP def2-SVP def2/J RIJCOSX Grid4 TightSCF
|  4> %maxcore 5000
|  5> %tddft
|  6>     Mode sTDDFT
|  7>     Ethresh 5.0
|  8>     maxcore 5000
|  9> end
| 10>
| 11> %pal
| 12>   nprocs 6
| 13>   end
| 14> * xyz 0 1
| 15>    C       -2.27801        -1.11590         1.97531
| 16>    C       -3.33931        -1.81364         2.49247
| 17>    C       -3.31420        -3.19831         2.76346
| 18>    N       -3.36421        -4.31691         3.01766
| 19>    C       -4.61363        -1.29164         2.79906
| 20>    N       -5.68469        -0.96166         3.05285
| 21>    C       -1.00275        -1.70698         1.58713
| 22>    C       -0.21989        -0.70544         0.94917
| 23>    C        1.02882        -0.96172         0.46137
| 24>    C        1.56785        -2.25994         0.60037
| 25>    C        0.79588        -3.26741         1.24757
| 26>    C       -0.49729        -2.97162         1.73706
| 27>    C        1.34604        -4.55790         1.38740
| 28>    C        2.59674        -4.84146         0.91018
| 29>    C        3.35500        -3.84886         0.27159
| 30>    C        2.85134        -2.58547         0.11987
| 31>    C       -0.96251         0.56554         0.92891
| 32>    O       -0.57888         1.59761         0.41725
| 33>    C       -2.22909         0.30441         1.65662
| 34>    C       -3.16978         1.20210         2.08126
| 35>    C       -3.28690         2.59521         1.89192
| 36>    S       -4.58344         3.40324         2.76001
| 37>    C       -4.14445         4.95112         2.12802
| 38>    C       -3.04757         4.82419         1.26184
| 39>    C       -2.57994         3.51069         1.13642
| 40>    C       -2.43703         5.87395         0.55382
| 41>    N       -1.90656         6.69495        -0.04839
| 42>    C       -4.86733         6.10029         2.54450
| 43>    C       -4.56035         7.37045         2.19270
| 44>    C       -5.21488         8.57130         2.62802
| 45>    C       -6.34258         8.59786         3.45064
| 46>    C       -6.89940         9.78760         3.89472
| 47>    C       -6.36240        11.02624         3.46732
| 48>    C       -5.23545        10.99199         2.63141
| 49>    C       -4.67710         9.80780         2.22941
| 50>    N       -6.91740        12.24162         3.80604
| 51>    C       -8.29412        12.41007         4.01464
| 52>    C       -9.22304        11.76148         3.20268
| 53>    C      -10.57654        11.90618         3.44436
| 54>    C      -11.02009        12.70575         4.48459
| 55>    C      -10.10081        13.38274         5.27015
| 56>    C       -8.74634        13.24236         5.03819
| 57>    C       -6.10155        13.39036         3.88755
| 58>    C       -6.53385        14.58693         3.32254
| 59>    C       -5.74264        15.71706         3.41016
| 60>    C       -4.51819        15.66370         4.05516
| 61>    C       -4.08975        14.47320         4.62051
| 62>    C       -4.87395        13.33829         4.54160
| 63>    C       -8.00930         9.73107         4.83198
| 64>    S       -9.46407         8.83201         4.47402
| 65>    C       -8.13976        10.35211         6.04410
| 66>    C       -7.33374        11.22684         6.91036
| 67>    O       -6.20459        11.62946         6.77976
| 68>    N       -8.16780        11.52938         7.98047
| 69>    C       -7.75692        12.36358         9.08938
| 70>    C       -7.19423        11.52690        10.23287
| 71>    C       -9.42310        10.93095         7.91018
| 72>    O      -10.30511        11.07675         8.71825
| 73>    C       -9.39362        10.15139         6.66475
| 74>    C      -10.26590         9.37512         5.93969
| 75>    C      -11.62524         9.10626         6.23460
| 76>    C      -12.52086         8.64985         5.32493
| 77>    C      -13.89339         8.49181         5.63842
| 78>    C      -14.87495         8.26834         4.71872
| 79>    C      -16.29556         8.11067         4.98183
| 80>    C      -16.88788         7.93878         6.20516
| 81>    C      -18.27706         7.77866         6.39492
| 82>    N      -19.39572         7.64915         6.61768
| 83>    C      -16.20990         7.86798         7.44072
| 84>    N      -15.73394         7.78279         8.48207
| 85>    C      -16.98819         8.11846         3.69871
| 86>    C      -16.01940         8.19721         2.65754
| 87>    C      -14.67087         8.26771         3.24334
| 88>    O      -13.62159         8.34416         2.63889
| 89>    C      -16.37638         8.22307         1.33990
| 90>    C      -17.74553         8.17839         0.99563
| 91>    C      -18.72167         8.10630         2.03131
| 92>    C      -18.32166         8.07458         3.38669
| 93>    C      -20.08590         8.07165         1.67726
| 94>    C      -20.46931         8.10723         0.36427
| 95>    C      -19.50734         8.17742        -0.65462
| 96>    C      -18.17454         8.21116        -0.34580
| 97>    H        1.59844        -0.18185        -0.02202
| 98>    H       -1.05249        -3.75663         2.22497
| 99>    H        0.75815        -5.31946         1.87850
|100>    H        3.00892        -5.83316         1.02197
|101>    H        4.34005        -4.09011        -0.09912
|102>    H        3.43022        -1.81646        -0.37052
|103>    H       -3.96200         0.79881         2.70150
|104>    H       -1.74456         3.23702         0.51722
|105>    H       -5.69548         5.89943         3.21017
|106>    H       -3.71661         7.53044         1.53632
|107>    H       -6.78853         7.67526         3.79032
|108>    H       -4.81821        11.92611         2.28739
|109>    H       -3.81325         9.81869         1.58163
|110>    H       -8.87719        11.14265         2.38701
|111>    H      -11.28704        11.38894         2.81713
|112>    H      -12.07681        12.80678         4.67786
|113>    H      -10.44092        14.01633         6.07545
|114>    H       -8.02638        13.76347         5.65186
|115>    H       -7.48700        14.62411         2.81514
|116>    H       -6.08254        16.64104         2.96665
|117>    H       -3.90200        16.54755         4.11995
|118>    H       -3.14143        14.42920         5.13447
|119>    H       -4.55894        12.41573         5.00293
|120>    H       -8.63539        12.92066         9.42427
|121>    H       -6.99870        13.05406         8.71199
|122>    H       -7.95035        10.83619        10.59861
|123>    H       -6.88982        12.17616        11.04871
|124>    H       -6.32969        10.96031         9.89441
|125>    H      -11.94094         9.37339         7.23616
|126>    H      -12.20039         8.44113         4.31359
|127>    H      -14.16222         8.59776         6.68195
|128>    H      -15.62185         8.28146         0.56940
|129>    H      -19.08534         8.02412         4.14633
|130>    H      -20.82266         8.01665         2.46517
|131>    H      -21.51663         8.08174         0.10327
|132>    H      -19.82784         8.20514        -1.68530
|133>    H      -17.42938         8.26531        -1.12599
|134> *
|135>
|136>                          ****END OF INPUT****

CARTESIAN COORDINATES (ANGSTROEM)
---------------------------------
  C     -2.278010   -1.115900    1.975310
  C     -3.339310   -1.813640    2.492470
  C     -3.314200   -3.198310    2.763460
  N     -3.364210   -4.316910    3.017660
  C     -4.613630   -1.291640    2.799060
  N     -5.684690   -0.961660    3.052850
  C     -1.002750   -1.706980    1.587130
  C     -0.219890   -0.705440    0.949170
  C      1.028820   -0.961720    0.461370
  C      1.567850   -2.259940    0.600370
  C      0.795880   -3.267410    1.247570
  C     -0.497290   -2.971620    1.737060
  C      1.346040   -4.557900    1.387400
  C      2.596740   -4.841460    0.910180
  C      3.355000   -3.848860    0.271590
  C      2.851340   -2.585470    0.119870
  C     -0.962510    0.565540    0.928910
  O     -0.578880    1.597610    0.417250
  C     -2.229090    0.304410    1.656620
  C     -3.169780    1.202100    2.081260
  C     -3.286900    2.595210    1.891920
  S     -4.583440    3.403240    2.760010
  C     -4.144450    4.951120    2.128020
  C     -3.047570    4.824190    1.261840
  C     -2.579940    3.510690    1.136420
  C     -2.437030    5.873950    0.553820
  N     -1.906560    6.694950   -0.048390
  C     -4.867330    6.100290    2.544500
  C     -4.560350    7.370450    2.192700
  C     -5.214880    8.571300    2.628020
  C     -6.342580    8.597860    3.450640
  C     -6.899400    9.787600    3.894720
  C     -6.362400   11.026240    3.467320
  C     -5.235450   10.991990    2.631410
  C     -4.677100    9.807800    2.229410
  N     -6.917400   12.241620    3.806040
  C     -8.294120   12.410070    4.014640
  C     -9.223040   11.761480    3.202680
  C    -10.576540   11.906180    3.444360
  C    -11.020090   12.705750    4.484590
  C    -10.100810   13.382740    5.270150
  C     -8.746340   13.242360    5.038190
  C     -6.101550   13.390360    3.887550
  C     -6.533850   14.586930    3.322540
  C     -5.742640   15.717060    3.410160
  C     -4.518190   15.663700    4.055160
  C     -4.089750   14.473200    4.620510
  C     -4.873950   13.338290    4.541600
  C     -8.009300    9.731070    4.831980
  S     -9.464070    8.832010    4.474020
  C     -8.139760   10.352110    6.044100
  C     -7.333740   11.226840    6.910360
  O     -6.204590   11.629460    6.779760
  N     -8.167800   11.529380    7.980470
  C     -7.756920   12.363580    9.089380
  C     -7.194230   11.526900   10.232870
  C     -9.423100   10.930950    7.910180
  O    -10.305110   11.076750    8.718250
  C     -9.393620   10.151390    6.664750
  C    -10.265900    9.375120    5.939690
  C    -11.625240    9.106260    6.234600
  C    -12.520860    8.649850    5.324930
  C    -13.893390    8.491810    5.638420
  C    -14.874950    8.268340    4.718720
  C    -16.295560    8.110670    4.981830
  C    -16.887880    7.938780    6.205160
  C    -18.277060    7.778660    6.394920
  N    -19.395720    7.649150    6.617680
  C    -16.209900    7.867980    7.440720
  N    -15.733940    7.782790    8.482070
  C    -16.988190    8.118460    3.698710
  C    -16.019400    8.197210    2.657540
  C    -14.670870    8.267710    3.243340
  O    -13.621590    8.344160    2.638890
  C    -16.376380    8.223070    1.339900
  C    -17.745530    8.178390    0.995630
  C    -18.721670    8.106300    2.031310
  C    -18.321660    8.074580    3.386690
  C    -20.085900    8.071650    1.677260
  C    -20.469310    8.107230    0.364270
  C    -19.507340    8.177420   -0.654620
  C    -18.174540    8.211160   -0.345800
  H      1.598440   -0.181850   -0.022020
  H     -1.052490   -3.756630    2.224970
  H      0.758150   -5.319460    1.878500
  H      3.008920   -5.833160    1.021970
  H      4.340050   -4.090110   -0.099120
  H      3.430220   -1.816460   -0.370520
  H     -3.962000    0.798810    2.701500
  H     -1.744560    3.237020    0.517220
  H     -5.695480    5.899430    3.210170
  H     -3.716610    7.530440    1.536320
  H     -6.788530    7.675260    3.790320
  H     -4.818210   11.926110    2.287390
  H     -3.813250    9.818690    1.581630
  H     -8.877190   11.142650    2.387010
  H    -11.287040   11.388940    2.817130
  H    -12.076810   12.806780    4.677860
  H    -10.440920   14.016330    6.075450
  H     -8.026380   13.763470    5.651860
  H     -7.487000   14.624110    2.815140
  H     -6.082540   16.641040    2.966650
  H     -3.902000   16.547550    4.119950
  H     -3.141430   14.429200    5.134470
  H     -4.558940   12.415730    5.002930
  H     -8.635390   12.920660    9.424270
  H     -6.998700   13.054060    8.711990
  H     -7.950350   10.836190   10.598610
  H     -6.889820   12.176160   11.048710
  H     -6.329690   10.960310    9.894410
  H    -11.940940    9.373390    7.236160
  H    -12.200390    8.441130    4.313590
  H    -14.162220    8.597760    6.681950
  H    -15.621850    8.281460    0.569400
  H    -19.085340    8.024120    4.146330
  H    -20.822660    8.016650    2.465170
  H    -21.516630    8.081740    0.103270
  H    -19.827840    8.205140   -1.685300
  H    -17.429380    8.265310   -1.125990

 Total Charge           Charge          ....    0
 Multiplicity           Mult            ....    1
 Number of Electrons    NEL             ....  564
 Basis Dimension        Dim             .... 1341

ORBITAL ENERGIES
----------------

  NO   OCC          E(Eh)            E(eV)
   0   2.0000     -88.981921     -2421.3212
   1   2.0000     -88.978924     -2421.2396
   2   2.0000     -19.219775      -522.9967
   3   2.0000     -19.218301      -522.9566
   4   2.0000     -19.216730      -522.9138
   5   2.0000     -19.216709      -522.9132
   6   2.0000     -14.459027      -393.4501
   7   2.0000     -14.454476      -393.3263
   8   2.0000     -14.416497      -392.2928
   9   2.0000     -14.415421      -392.2636
  10   2.0000     -14.415330      -392.2611
  11   2.0000     -14.412063      -392.1722
  12   2.0000     -14.409598      -392.1051
  13   2.0000     -10.398885      -282.9681
  14   2.0000     -10.398757      -282.9646
  15   2.0000     -10.370445      -282.1942
  16   2.0000     -10.369139      -282.1586
  17   2.0000     -10.343399      -281.4582
  18   2.0000     -10.342487      -281.4334
  19   2.0000     -10.341371      -281.4030
  20   2.0000     -10.340026      -281.3664
  21   2.0000     -10.339423      -281.3500
  22   2.0000     -10.337577      -281.2998
  23   2.0000     -10.337513      -281.2980
  24   2.0000     -10.332830      -281.1706
  25   2.0000     -10.326189      -280.9899
  26   2.0000     -10.321516      -280.8627
  27   2.0000     -10.318881      -280.7910
  28   2.0000     -10.318370      -280.7771
  29   2.0000     -10.318070      -280.7690
  30   2.0000     -10.317984      -280.7666
  31   2.0000     -10.317787      -280.7613
  32   2.0000     -10.317218      -280.7458
  33   2.0000     -10.315276      -280.6929
  34   2.0000     -10.313369      -280.6410
  35   2.0000     -10.311627      -280.5936
  36   2.0000     -10.311279      -280.5842
  37   2.0000     -10.309219      -280.5281
  38   2.0000     -10.304247      -280.3928
  39   2.0000     -10.303242      -280.3655
  40   2.0000     -10.301380      -280.3148
  41   2.0000     -10.301049      -280.3058
  42   2.0000     -10.301028      -280.3052
  43   2.0000     -10.300859      -280.3006
  44   2.0000     -10.300337      -280.2864
  45   2.0000     -10.299401      -280.2610
  46   2.0000     -10.299128      -280.2535
  47   2.0000     -10.299090      -280.2525
  48   2.0000     -10.298666      -280.2409
  49   2.0000     -10.298083      -280.2251
  50   2.0000     -10.296309      -280.1768
  51   2.0000     -10.296052      -280.1698
  52   2.0000     -10.295944      -280.1669
  53   2.0000     -10.295683      -280.1598
  54   2.0000     -10.295222      -280.1472
  55   2.0000     -10.295078      -280.1433
  56   2.0000     -10.294981      -280.1407
  57   2.0000     -10.293503      -280.1005
  58   2.0000     -10.290188      -280.0102
  59   2.0000     -10.288568      -279.9662
  60   2.0000     -10.288167      -279.9553
  61   2.0000     -10.287773      -279.9445
  62   2.0000     -10.287682      -279.9421
  63   2.0000     -10.287314      -279.9321
  64   2.0000     -10.286824      -279.9187
  65   2.0000     -10.286718      -279.9158
  66   2.0000     -10.285446      -279.8812
  67   2.0000     -10.284865      -279.8654
  68   2.0000     -10.284583      -279.8577
  69   2.0000     -10.284100      -279.8446
  70   2.0000     -10.279637      -279.7231
  71   2.0000     -10.276651      -279.6419
  72   2.0000     -10.276367      -279.6342
  73   2.0000     -10.275858      -279.6203
  74   2.0000     -10.273347      -279.5520
  75   2.0000     -10.271742      -279.5083
  76   2.0000     -10.271288      -279.4960
  77   2.0000     -10.270940      -279.4865
  78   2.0000     -10.270267      -279.4682
  79   2.0000     -10.268001      -279.4065
  80   2.0000     -10.267483      -279.3924
  81   2.0000     -10.261534      -279.2305
  82   2.0000      -8.076227      -219.7653
  83   2.0000      -8.074653      -219.7225
  84   2.0000      -6.045590      -164.5089
  85   2.0000      -6.043748      -164.4587
  86   2.0000      -6.041334      -164.3931
  87   2.0000      -6.039731      -164.3494
  88   2.0000      -6.038409      -164.3135
  89   2.0000      -6.036949      -164.2737
  90   2.0000      -1.162629       -31.6367
  91   2.0000      -1.139309       -31.0022
  92   2.0000      -1.134150       -30.8618
  93   2.0000      -1.132959       -30.8294
  94   2.0000      -1.080652       -29.4060
  95   2.0000      -1.054510       -28.6947
  96   2.0000      -1.018849       -27.7243
  97   2.0000      -1.018331       -27.7102
  98   2.0000      -1.015168       -27.6241
  99   2.0000      -1.008972       -27.4555
 100   2.0000      -0.999607       -27.2007
 101   2.0000      -0.997581       -27.1456
 102   2.0000      -0.994266       -27.0553
 103   2.0000      -0.991969       -26.9929
 104   2.0000      -0.989273       -26.9195
 105   2.0000      -0.973396       -26.4874
 106   2.0000      -0.972402       -26.4604
 107   2.0000      -0.970140       -26.3989
 108   2.0000      -0.954364       -25.9696
 109   2.0000      -0.940253       -25.5856
 110   2.0000      -0.936259       -25.4769
 111   2.0000      -0.927473       -25.2378
 112   2.0000      -0.922234       -25.0953
 113   2.0000      -0.917355       -24.9625
 114   2.0000      -0.905840       -24.6492
 115   2.0000      -0.901493       -24.5309
 116   2.0000      -0.896026       -24.3821
 117   2.0000      -0.884339       -24.0641
 118   2.0000      -0.882428       -24.0121
 119   2.0000      -0.879931       -23.9442
 120   2.0000      -0.878724       -23.9113
 121   2.0000      -0.869979       -23.6733
 122   2.0000      -0.856762       -23.3137
 123   2.0000      -0.856047       -23.2942
 124   2.0000      -0.847007       -23.0482
 125   2.0000      -0.839795       -22.8520
 126   2.0000      -0.834380       -22.7046
 127   2.0000      -0.831327       -22.6216
 128   2.0000      -0.829790       -22.5797
 129   2.0000      -0.826981       -22.5033
 130   2.0000      -0.825521       -22.4636
 131   2.0000      -0.823744       -22.4152
 132   2.0000      -0.802768       -21.8444
 133   2.0000      -0.790648       -21.5146
 134   2.0000      -0.781808       -21.2741
 135   2.0000      -0.763082       -20.7645
 136   2.0000      -0.761232       -20.7142
 137   2.0000      -0.754788       -20.5388
 138   2.0000      -0.753800       -20.5119
 139   2.0000      -0.747053       -20.3283
 140   2.0000      -0.736277       -20.0351
 141   2.0000      -0.730534       -19.8788
 142   2.0000      -0.719444       -19.5771
 143   2.0000      -0.709960       -19.3190
 144   2.0000      -0.705693       -19.2029
 145   2.0000      -0.704543       -19.1716
 146   2.0000      -0.702105       -19.1052
 147   2.0000      -0.698772       -19.0145
 148   2.0000      -0.697619       -18.9832
 149   2.0000      -0.694712       -18.9041
 150   2.0000      -0.689590       -18.7647
 151   2.0000      -0.684419       -18.6240
 152   2.0000      -0.678176       -18.4541
 153   2.0000      -0.677488       -18.4354
 154   2.0000      -0.673438       -18.3252
 155   2.0000      -0.672268       -18.2933
 156   2.0000      -0.663982       -18.0679
 157   2.0000      -0.658949       -17.9309
 158   2.0000      -0.653195       -17.7743
 159   2.0000      -0.642709       -17.4890
 160   2.0000      -0.635091       -17.2817
 161   2.0000      -0.634758       -17.2726
 162   2.0000      -0.629201       -17.1214
 163   2.0000      -0.624850       -17.0030
 164   2.0000      -0.616452       -16.7745
 165   2.0000      -0.609449       -16.5840
 166   2.0000      -0.608046       -16.5458
 167   2.0000      -0.607708       -16.5366
 168   2.0000      -0.604441       -16.4477
 169   2.0000      -0.596115       -16.2211
 170   2.0000      -0.589707       -16.0467
 171   2.0000      -0.584539       -15.9061
 172   2.0000      -0.579999       -15.7826
 173   2.0000      -0.576439       -15.6857
 174   2.0000      -0.573598       -15.6084
 175   2.0000      -0.570204       -15.5160
 176   2.0000      -0.564953       -15.3731
 177   2.0000      -0.560051       -15.2398
 178   2.0000      -0.558343       -15.1933
 179   2.0000      -0.554495       -15.0886
 180   2.0000      -0.551199       -14.9989
 181   2.0000      -0.550224       -14.9724
 182   2.0000      -0.548179       -14.9167
 183   2.0000      -0.545133       -14.8338
 184   2.0000      -0.543490       -14.7891
 185   2.0000      -0.541151       -14.7255
 186   2.0000      -0.539333       -14.6760
 187   2.0000      -0.537974       -14.6390
 188   2.0000      -0.537342       -14.6218
 189   2.0000      -0.535888       -14.5822
 190   2.0000      -0.532456       -14.4889
 191   2.0000      -0.528180       -14.3725
 192   2.0000      -0.525316       -14.2946
 193   2.0000      -0.523748       -14.2519
 194   2.0000      -0.522300       -14.2125
 195   2.0000      -0.520269       -14.1572
 196   2.0000      -0.519804       -14.1446
 197   2.0000      -0.516110       -14.0441
 198   2.0000      -0.515844       -14.0368
 199   2.0000      -0.515041       -14.0150
 200   2.0000      -0.513743       -13.9796
 201   2.0000      -0.512642       -13.9497
 202   2.0000      -0.510823       -13.9002
 203   2.0000      -0.509469       -13.8633
 204   2.0000      -0.507841       -13.8190
 205   2.0000      -0.506020       -13.7695
 206   2.0000      -0.503171       -13.6920
 207   2.0000      -0.500396       -13.6165
 208   2.0000      -0.499251       -13.5853
 209   2.0000      -0.497878       -13.5479
 210   2.0000      -0.495915       -13.4945
 211   2.0000      -0.494736       -13.4624
 212   2.0000      -0.492501       -13.4016
 213   2.0000      -0.489958       -13.3324
 214   2.0000      -0.487163       -13.2564
 215   2.0000      -0.485716       -13.2170
 216   2.0000      -0.485102       -13.2003
 217   2.0000      -0.482868       -13.1395
 218   2.0000      -0.476820       -12.9749
 219   2.0000      -0.472722       -12.8634
 220   2.0000      -0.469420       -12.7736
 221   2.0000      -0.465752       -12.6738
 222   2.0000      -0.464387       -12.6366
 223   2.0000      -0.463587       -12.6148
 224   2.0000      -0.457985       -12.4624
 225   2.0000      -0.455982       -12.4079
 226   2.0000      -0.453905       -12.3514
 227   2.0000      -0.449232       -12.2242
 228   2.0000      -0.447728       -12.1833
 229   2.0000      -0.446269       -12.1436
 230   2.0000      -0.445199       -12.1145
 231   2.0000      -0.444577       -12.0976
 232   2.0000      -0.444045       -12.0831
 233   2.0000      -0.443311       -12.0631
 234   2.0000      -0.441927       -12.0254
 235   2.0000      -0.441318       -12.0089
 236   2.0000      -0.439826       -11.9683
 237   2.0000      -0.438723       -11.9383
 238   2.0000      -0.436381       -11.8745
 239   2.0000      -0.435750       -11.8574
 240   2.0000      -0.434770       -11.8307
 241   2.0000      -0.434120       -11.8130
 242   2.0000      -0.432110       -11.7583
 243   2.0000      -0.432069       -11.7572
 244   2.0000      -0.431010       -11.7284
 245   2.0000      -0.429471       -11.6865
 246   2.0000      -0.427815       -11.6414
 247   2.0000      -0.424976       -11.5642
 248   2.0000      -0.424365       -11.5475
 249   2.0000      -0.423033       -11.5113
 250   2.0000      -0.420772       -11.4498
 251   2.0000      -0.420429       -11.4405
 252   2.0000      -0.417519       -11.3613
 253   2.0000      -0.407493       -11.0884
 254   2.0000      -0.406915       -11.0727
 255   2.0000      -0.405289       -11.0285
 256   2.0000      -0.402850       -10.9621
 257   2.0000      -0.396818       -10.7980
 258   2.0000      -0.388744       -10.5783
 259   2.0000      -0.379175       -10.3179
 260   2.0000      -0.375200       -10.2097
 261   2.0000      -0.367747       -10.0069
 262   2.0000      -0.364960        -9.9311
 263   2.0000      -0.362350        -9.8600
 264   2.0000      -0.355026        -9.6608
 265   2.0000      -0.350754        -9.5445
 266   2.0000      -0.342001        -9.3063
 267   2.0000      -0.340943        -9.2775
 268   2.0000      -0.338699        -9.2165
 269   2.0000      -0.337466        -9.1829
 270   2.0000      -0.336901        -9.1675
 271   2.0000      -0.328559        -8.9405
 272   2.0000      -0.325601        -8.8601
 273   2.0000      -0.322899        -8.7865
 274   2.0000      -0.317327        -8.6349
 275   2.0000      -0.316358        -8.6085
 276   2.0000      -0.314738        -8.5645
 277   2.0000      -0.296936        -8.0800
 278   2.0000      -0.294414        -8.0114
 279   2.0000      -0.281197        -7.6518
 280   2.0000      -0.278439        -7.5767
 281   2.0000      -0.247553        -6.7363
 282   0.0000      -0.103794        -2.8244
 283   0.0000      -0.097393        -2.6502
 284   0.0000      -0.061819        -1.6822
 285   0.0000      -0.060855        -1.6559
 286   0.0000      -0.048040        -1.3072

MULLIKEN ATOMIC CHARGES
-----------------------
   0 C :    0.316972
   1 C :   -0.361325
   2 C :   -0.181981
   3 N :    0.145805
   4 C :   -0.193626
   5 N :    0.155931
   6 C :    0.048332
   7 C :   -0.000514
   8 C :   -0.084686
   9 C :    0.098907
  10 C :    0.096744
  11 C :   -0.084130
  12 C :   -0.019383
  13 C :    0.036946
  14 C :    0.037833
  15 C :   -0.017557
  16 C :    0.160096
  17 O :   -0.155362
  18 C :   -0.089595
  19 C :    0.058853
  20 C :   -0.107798
  21 S :    0.163723
  22 C :   -0.037270
  23 C :   -0.092294
  24 C :    0.033837
  25 C :   -0.165593
  26 N :    0.111939
  27 C :    0.052006
  28 C :    0.004132
  29 C :    0.114725
  30 C :   -0.077278
  31 C :    0.038576
  32 C :    0.154083
  33 C :   -0.036559
  34 C :   -0.008221
  35 N :   -0.138289
  36 C :    0.059700
  37 C :    0.017461
  38 C :    0.006040
  39 C :    0.028491
  40 C :    0.009207
  41 C :    0.014549
  42 C :    0.076902
  43 C :    0.000543
  44 C :    0.013857
  45 C :    0.032638
  46 C :    0.011194
  47 C :    0.013828
  48 C :   -0.270949
  49 S :    0.182184
  50 C :    0.134132
  51 C :    0.177271
  52 O :   -0.157367
  53 N :   -0.317903
  54 C :    0.133549
  55 C :   -0.005764
  56 C :    0.183220
  57 O :   -0.159265
  58 C :    0.036664
  59 C :   -0.139193
  60 C :    0.031469
  61 C :   -0.005009
  62 C :   -0.042836
  63 C :   -0.065465
  64 C :    0.324244
  65 C :   -0.340564
  66 C :   -0.183351
  67 N :    0.150327
  68 C :   -0.201685
  69 N :    0.156310
  70 C :    0.047504
  71 C :   -0.008447
  72 C :    0.149466
  73 O :   -0.153732
  74 C :   -0.077911
  75 C :    0.097809
  76 C :    0.096307
  77 C :   -0.081980
  78 C :   -0.020263
  79 C :    0.035786
  80 C :    0.036214
  81 C :   -0.017796
  82 H :   -0.012988
  83 H :   -0.007949
  84 H :   -0.008736
  85 H :   -0.005391
  86 H :   -0.005922
  87 H :   -0.017399
  88 H :    0.007998
  89 H :    0.026709
  90 H :   -0.019058
  91 H :   -0.002242
  92 H :   -0.028034
  93 H :    0.002287
  94 H :   -0.001277
  95 H :   -0.011531
  96 H :   -0.004372
  97 H :   -0.013633
  98 H :   -0.009399
  99 H :    0.001202
 100 H :   -0.009687
 101 H :   -0.014705
 102 H :   -0.015090
 103 H :   -0.012955
 104 H :    0.003269
 105 H :    0.029432
 106 H :    0.032893
 107 H :    0.030716
 108 H :    0.023389
 109 H :    0.024959
 110 H :    0.031130
 111 H :    0.031225
 112 H :    0.021394
 113 H :   -0.012963
 114 H :   -0.007662
 115 H :   -0.006883
 116 H :   -0.003565
 117 H :   -0.004491
 118 H :   -0.016038
Sum of atomic charges:   -0.0000000

LOEWDIN ATOMIC CHARGES
----------------------
   0 C :    0.077869
   1 C :   -0.143427
   2 C :   -0.016669
   3 N :   -0.055818
   4 C :   -0.025157
   5 N :   -0.053199
   6 C :   -0.026530
   7 C :   -0.055034
   8 C :    0.031899
   9 C :   -0.008282
  10 C :   -0.006426
  11 C :    0.019607
  12 C :   -0.005275
  13 C :   -0.013678
  14 C :   -0.012261
  15 C :   -0.009726
  16 C :    0.088356
  17 O :   -0.142737
  18 C :   -0.094599
  19 C :    0.048198
  20 C :   -0.186589
  21 S :    0.474123
  22 C :   -0.110262
  23 C :   -0.121589
  24 C :    0.026303
  25 C :   -0.025733
  26 N :   -0.061256
  27 C :   -0.068957
  28 C :    0.031399
  29 C :   -0.054565
  30 C :    0.013761
  31 C :   -0.072444
  32 C :    0.057443
  33 C :   -0.036871
  34 C :    0.011981
  35 N :    0.010792
  36 C :    0.016736
  37 C :   -0.043354
  38 C :   -0.016072
  39 C :   -0.035124
  40 C :   -0.019382
  41 C :   -0.041814
  42 C :    0.016217
  43 C :   -0.033673
  44 C :   -0.020809
  45 C :   -0.030503
  46 C :   -0.019119
  47 C :   -0.021741
  48 C :   -0.115219
  49 S :    0.479904
  50 C :   -0.089814
  51 C :    0.091689
  52 O :   -0.159556
  53 N :   -0.028766
  54 C :    0.042856
  55 C :   -0.058913
  56 C :    0.089701
  57 O :   -0.159881
  58 C :   -0.069224
  59 C :   -0.141668
  60 C :    0.018396
  61 C :   -0.029700
  62 C :    0.068197
  63 C :   -0.087249
  64 C :    0.073966
  65 C :   -0.135482
  66 C :   -0.016998
  67 N :   -0.052067
  68 C :   -0.022821
  69 N :   -0.047548
  70 C :   -0.025514
  71 C :   -0.056753
  72 C :    0.085612
  73 O :   -0.148211
  74 C :    0.032321
  75 C :   -0.008342
  76 C :   -0.005720
  77 C :    0.019779
  78 C :   -0.005149
  79 C :   -0.012726
  80 C :   -0.011822
  81 C :   -0.009660
  82 H :    0.038874
  83 H :    0.038974
  84 H :    0.034803
  85 H :    0.033048
  86 H :    0.032609
  87 H :    0.031875
  88 H :    0.043359
  89 H :    0.042348
  90 H :    0.027255
  91 H :    0.039764
  92 H :    0.026153
  93 H :    0.039104
  94 H :    0.037496
  95 H :    0.028988
  96 H :    0.032214
  97 H :    0.028550
  98 H :    0.031018
  99 H :    0.033879
 100 H :    0.032728
 101 H :    0.029095
 102 H :    0.027580
 103 H :    0.030037
 104 H :    0.034225
 105 H :    0.031969
 106 H :    0.031795
 107 H :    0.029495
 108 H :    0.030892
 109 H :    0.028083
 110 H :    0.049191
 111 H :    0.028105
 112 H :    0.045079
 113 H :    0.038654
 114 H :    0.039182
 115 H :    0.035241
 116 H :    0.033625
 117 H :    0.033065
 118 H :    0.032019

  Mayer bond orders larger than 0.100000
B(  0-C ,  1-C ) :   1.6219 B(  0-C ,  6-C ) :   0.9818 B(  0-C , 18-C ) :   1.0766
B(  1-C ,  2-C ) :   1.1514 B(  1-C ,  4-C ) :   1.1390 B(  2-C ,  3-N ) :   2.9635
B(  4-C ,  5-N ) :   2.9767 B(  6-C ,  7-C ) :   1.2163 B(  6-C , 11-C ) :   1.4499
B(  7-C ,  8-C ) :   1.4693 B(  7-C , 16-C ) :   0.9554 B(  8-C ,  9-C ) :   1.1774
B(  8-C , 82-H ) :   1.0165 B(  9-C , 10-C ) :   1.2563 B(  9-C , 15-C ) :   1.2446
B( 10-C , 11-C ) :   1.2064 B( 10-C , 12-C ) :   1.2405 B( 11-C , 83-H ) :   0.9890
B( 12-C , 13-C ) :   1.4892 B( 12-C , 84-H ) :   0.9969 B( 13-C , 14-C ) :   1.2597
B( 13-C , 85-H ) :   0.9885 B( 14-C , 15-C ) :   1.4894 B( 14-C , 86-H ) :   0.9884
B( 15-C , 87-H ) :   0.9972 B( 16-C , 17-O ) :   2.1650 B( 16-C , 18-C ) :   0.9384
B( 18-C , 19-C ) :   1.5987 B( 19-C , 20-C ) :   1.2062 B( 19-C , 88-H ) :   0.9113
B( 20-C , 21-S ) :   1.0865 B( 20-C , 24-C ) :   1.4317 B( 21-S , 22-C ) :   1.1812
B( 22-C , 23-C ) :   1.3894 B( 22-C , 27-C ) :   1.1590 B( 23-C , 24-C ) :   1.3072
B( 23-C , 25-C ) :   1.1198 B( 24-C , 89-H ) :   0.9808 B( 25-C , 26-N ) :   2.9662
B( 27-C , 28-C ) :   1.6493 B( 27-C , 90-H ) :   0.9430 B( 28-C , 29-C ) :   1.1052
B( 28-C , 91-H ) :   0.9668 B( 29-C , 30-C ) :   1.3114 B( 29-C , 34-C ) :   1.2798
B( 30-C , 31-C ) :   1.3876 B( 30-C , 92-H ) :   0.9912 B( 31-C , 32-C ) :   1.3521
B( 31-C , 48-C ) :   0.9877 B( 32-C , 33-C ) :   1.3245 B( 32-C , 35-N ) :   1.0895
B( 33-C , 34-C ) :   1.3986 B( 33-C , 93-H ) :   0.9877 B( 34-C , 94-H ) :   0.9987
B( 35-N , 36-C ) :   0.9852 B( 35-N , 42-C ) :   0.9446 B( 36-C , 37-C ) :   1.3930
B( 36-C , 41-C ) :   1.3855 B( 37-C , 38-C ) :   1.3710 B( 37-C , 95-H ) :   0.9945
B( 38-C , 39-C ) :   1.3806 B( 38-C , 96-H ) :   0.9890 B( 39-C , 40-C ) :   1.3680
B( 39-C , 97-H ) :   0.9989 B( 40-C , 41-C ) :   1.3760 B( 40-C , 98-H ) :   0.9875
B( 41-C , 99-H ) :   0.9721 B( 42-C , 43-C ) :   1.4033 B( 42-C , 47-C ) :   1.4030
B( 43-C , 44-C ) :   1.3688 B( 43-C ,100-H ) :   0.9889 B( 44-C , 45-C ) :   1.3887
B( 44-C ,101-H ) :   0.9856 B( 45-C , 46-C ) :   1.3773 B( 45-C ,102-H ) :   0.9943
B( 46-C , 47-C ) :   1.3772 B( 46-C ,103-H ) :   0.9864 B( 47-C ,104-H ) :   0.9830
B( 48-C , 49-S ) :   1.1755 B( 48-C , 50-C ) :   1.5301 B( 49-S , 59-C ) :   1.1004
B( 50-C , 51-C ) :   0.8845 B( 50-C , 58-C ) :   1.2584 B( 51-C , 52-O ) :   2.1703
B( 51-C , 53-N ) :   1.0713 B( 53-N , 54-C ) :   0.9195 B( 53-N , 56-C ) :   1.0657
B( 54-C , 55-C ) :   1.1286 B( 54-C ,105-H ) :   0.9405 B( 54-C ,106-H ) :   0.9399
B( 55-C ,107-H ) :   0.9691 B( 55-C ,108-H ) :   0.9700 B( 55-C ,109-H ) :   0.9679
B( 56-C , 57-O ) :   2.1908 B( 56-C , 58-C ) :   0.8889 B( 58-C , 59-C ) :   1.5082
B( 59-C , 60-C ) :   1.1445 B( 60-C , 61-C ) :   1.5706 B( 60-C ,110-H ) :   0.9786
B( 61-C , 62-C ) :   1.1562 B( 61-C ,111-H ) :   0.9743 B( 62-C , 63-C ) :   1.5633
B( 62-C ,112-H ) :   0.9657 B( 63-C , 64-C ) :   1.0533 B( 63-C , 72-C ) :   0.9428
B( 64-C , 65-C ) :   1.6384 B( 64-C , 70-C ) :   0.9917 B( 65-C , 66-C ) :   1.1443
B( 65-C , 68-C ) :   1.1429 B( 66-C , 67-N ) :   2.9649 B( 68-C , 69-N ) :   2.9763
B( 70-C , 71-C ) :   1.2118 B( 70-C , 77-C ) :   1.4522 B( 71-C , 72-C ) :   0.9466
B( 71-C , 74-C ) :   1.4731 B( 72-C , 73-O ) :   2.1986 B( 74-C , 75-C ) :   1.1846
B( 74-C ,113-H ) :   1.0147 B( 75-C , 76-C ) :   1.2503 B( 75-C , 81-C ) :   1.2437
B( 76-C , 77-C ) :   1.2093 B( 76-C , 78-C ) :   1.2403 B( 77-C ,114-H ) :   0.9887
B( 78-C , 79-C ) :   1.4918 B( 78-C ,115-H ) :   0.9969 B( 79-C , 80-C ) :   1.2559
B( 79-C ,116-H ) :   0.9892 B( 80-C , 81-C ) :   1.4916 B( 80-C ,117-H ) :   0.9895
B( 81-C ,118-H ) :   0.9973

-----------------------------------------------------------------------------
         ABSORPTION SPECTRUM VIA TRANSITION ELECTRIC DIPOLE MOMENTS
-----------------------------------------------------------------------------
State   Energy  Wavelength   fosc         T2         TX        TY        TZ
        (cm-1)    (nm)                  (au**2)     (au)      (au)      (au)
-----------------------------------------------------------------------------
   0   17804.0    561.7   0.059468980   1.09963   0.99557  -0.28108  -0.17167
   1   18898.0    529.2   1.728442683  30.11022  -2.58850   4.80463   0.57045
   2   22050.0    453.5   1.068437835  15.95204  -3.55366  -1.76920  -0.43987
   3   24972.6    400.4   0.020971184   0.27646  -0.21154   0.26103  -0.40444
   4   25828.5    387.2   0.069275121   0.88299   0.77948   0.23378  -0.46984
   5   25894.7    386.2   0.093655150   1.19069   0.82981   0.06221   0.70586
   6   26785.0    373.3   0.022203811   0.27291  -0.11601  -0.23899   0.44981
   7   27205.6    367.6   0.000315282   0.00382  -0.06097   0.00742  -0.00654
   8   27753.7    360.3   0.078393300   0.92989   0.90223   0.26766   0.21031
   9   27959.0    357.7   0.261998039   3.08497   1.00433  -1.38954  -0.38139
  10   28515.3    350.7   0.001874640   0.02164  -0.03150   0.01375  -0.14304
  11   28680.7    348.7   0.131970604   1.51483  -0.63622   1.02473   0.24492
  12   29269.5    341.7   0.001133944   0.01275  -0.01157  -0.10752   0.03255
  13   29433.1    339.8   0.242678727   2.71439   0.69274  -1.43461  -0.42000
  14   29761.7    336.0   0.004002859   0.04428  -0.14500   0.07741  -0.13138
  15   29935.5    334.1   0.054409464   0.59836   0.57424  -0.20037  -0.47798
  16   29966.6    333.7   0.050350311   0.55315  -0.69640  -0.20453  -0.16232
  17   30731.5    325.4   0.202752914   2.17200   0.35968   0.14524   1.42181
  18   32790.3    305.0   0.115794103   1.16256   1.03587   0.02890   0.29783
  19   33001.9    303.0   0.103255462   1.03003   1.00469   0.11285   0.08885
  20   33299.5    300.3   0.499365205   4.93693   1.93755  -0.53353   0.94772
  21   33401.0    299.4   0.588806790   5.80348   0.95333  -0.67733  -2.10615
  22   33553.4    298.0   0.008817277   0.08651   0.16849  -0.05052  -0.23573
  23   33709.4    296.7   0.200811833   1.96116   1.12794  -0.20853   0.80338
  24   34090.1    293.3   0.217942998   2.10470  -0.79908   0.01998  -1.21069
  25   34541.7    289.5   0.080566761   0.76787   0.84757   0.04782  -0.21727
  26   34622.4    288.8   0.001467732   0.01396  -0.05880   0.08681   0.05444
  27   35026.5    285.5   0.114245454   1.07379  -0.32858  -0.08924  -0.97870
  28   35267.2    283.5   0.033135015   0.30931   0.16781  -0.21261  -0.48574
  29   35391.6    282.6   0.004644191   0.04320   0.10815  -0.05001   0.17030
  30   35659.8    280.4   0.009141756   0.08440  -0.21766  -0.19223   0.00833
  31   35821.2    279.2   0.086379973   0.79387  -0.79074  -0.25232  -0.32395
  32   36034.7    277.5   0.062993588   0.57551  -0.62620   0.28765   0.31723
  33   36506.7    273.9   0.029013446   0.26164  -0.06943   0.39200  -0.32117
  34   36556.7    273.5   0.042322738   0.38114   0.60529  -0.05550  -0.10809
  35   36974.1    270.5   0.047500365   0.42294   0.60102  -0.10011  -0.22735
  36   37161.9    269.1   0.017316532   0.15340   0.07213   0.15804  -0.35103
  37   37284.6    268.2   0.025995272   0.22953  -0.47810  -0.02835  -0.01201
  38   37442.7    267.1   0.007797427   0.06856  -0.15389   0.11882   0.17538
  39   37683.1    265.4   0.001620096   0.01415  -0.09740  -0.06066  -0.03141
  40   38082.1    262.6   0.026425274   0.22844   0.30884   0.04207  -0.36234
  41   38637.5    258.8   0.154172975   1.31364   0.89111   0.09296  -0.71479
  42   38643.6    258.8   0.065522332   0.55820   0.10596   0.26759  -0.68947
  43   38907.2    257.0   0.079575013   0.67332  -0.51884  -0.58911   0.23891
  44   39022.2    256.3   0.161814871   1.36516   0.96583   0.30710  -0.58139
  45   39141.6    255.5   0.129788797   1.09163   0.74915   0.50431  -0.52543
  46   39433.4    253.6   0.022603522   0.18871  -0.29628  -0.31560  -0.03639
  47   39699.3    251.9   0.020145869   0.16706   0.38994  -0.11225  -0.04910
  48   39824.8    251.1   0.093680918   0.77441  -0.38808  -0.45293   0.64704
  49   40077.6    249.5   0.042262762   0.34716  -0.43390  -0.26573   0.29712
  50   40225.9    248.6   0.005650463   0.04624  -0.08020   0.06197  -0.18966
  51   40274.0    248.3   0.120803483   0.98748   0.77170   0.60057   0.17685

FINAL SINGLE POINT ENERGY     -4127.652003913081

DIPOLE MOMENT
-------------
                                X             Y             Z
Electronic contribution:     -5.90690     -44.19688      -5.91941
Nuclear contribution   :      7.15510      46.22156       3.97832
                        -----------------------------------------
Total Dipole Moment    :      1.24820       2.02468      -1.94109
                        -----------------------------------------
Magnitude (a.u.)       :      3.07005
Magnitude (Debye)      :      7.80344

Rotational constants in cm-1:     0.000757     0.000269     0.000221
Rotational constants in MHz :    22.689684     8.053049     6.612218

                             ****ORCA TERMINATED NORMALLY****
TOTAL RUN TIME: 0 days 0 hours 12 minutes 23 seconds 522 msec
