                         Program Version 4.2.0 -  RELEASE  -
|  1> # ORCA input file
|  2> # SCF done       -204.439441694659          0.000852440218
|  3> ! CAM-B3LYP def2-SVP def2/J RIJCOSX Grid4 TightSCF
|  4> %maxcore 5000
|  5> %tddft
|  6>     Mode sTDDFT
|  7>     Ethresh 5.0
|  8>     maxcore 5000
|  9> end
| 10>
| 11> %pal
| 12>   nprocs 6
| 13>   end
| 14> * xyz 0 1
| 15>    C        3.89085         4.39221         0.45027
| 16>    C        2.80995         3.76290         1.00998
| 17>    C        2.80786         3.24124         2.32114
| 18>    N        2.75695         2.80178         3.37962
| 19>    C        1.60901         3.49352         0.32434
| 20>    N        0.61811         3.24019        -0.19904
| 21>    C        5.21586         4.48627         1.04984
| 22>    C        6.17193         4.69578         0.01116
| 23>    C        7.50841         4.78999         0.27569
| 24>    C        7.95436         4.69014         1.61257
| 25>    C        7.00144         4.50284         2.65673
| 26>    C        5.62440         4.40047         2.35351
| 27>    C        7.46005         4.41825         3.98699
| 28>    C        8.79496         4.50952         4.27418
| 29>    C        9.73212         4.69073         3.24585
| 30>    C        9.32098         4.77868         1.94339
| 31>    C        5.47614         4.80219        -1.28076
| 32>    O        5.94668         4.91538        -2.38644
| 33>    C        4.01931         4.81543        -0.93053
| 34>    C        3.11987         5.28687        -1.83122
| 35>    C        1.80598         5.74775        -1.57886
| 36>    S        1.27008         6.38270        -0.04018
| 37>    C       -0.36566         6.64056        -0.58488
| 38>    C       -0.44955         6.34464        -1.96063
| 39>    C        0.77597         5.88296        -2.49960
| 40>    O        0.66993         5.64732        -3.81598
| 41>    C       -0.60499         5.98245        -4.13781
| 42>    N       -1.02056         5.86691        -5.49022
| 43>    O       -2.17091         6.18883        -5.71837
| 44>    O       -0.21741         5.47086        -6.30130
| 45>    C       -1.33593         6.41786        -3.06161
| 46>    C       -1.40581         7.08015         0.24711
| 47>    C       -1.35936         7.89343         1.38650
| 48>    N       -0.23835         8.27459         2.10794
| 49>    O        0.82114         7.67793         1.88281
| 50>    O       -0.34385         9.15788         2.93635
| 51>    C       -2.68235         8.33644         1.70053
| 52>    C       -3.55361         7.80364         0.79915
| 53>    C       -2.83211         6.94378        -0.08886
| 54>    C       -3.37295         5.94869        -0.88246
| 55>    C       -2.80234         4.66523        -1.12586
| 56>    C       -3.75002         3.88206        -1.71169
| 57>    C       -4.94017         4.65175        -1.94337
| 58>    N       -6.05017         4.05423        -2.56681
| 59>    O       -7.11961         4.64573        -2.58481
| 60>    O       -5.88530         2.94753        -3.04531
| 61>    C       -4.73737         5.95117        -1.47140
| 62>    C       -5.40960         7.17457        -1.64678
| 63>    C       -6.64758         7.41727        -2.17593
| 64>    C       -7.16592         8.71799        -2.31167
| 65>    S       -6.29733        10.14438        -1.79386
| 66>    C       -7.57446        11.19436        -2.31680
| 67>    C       -8.63251        10.44696        -2.85994
| 68>    C       -8.39601         9.07058        -2.84926
| 69>    C       -9.85085        10.98091        -3.32419
| 70>    N      -10.87518        11.34778        -3.68395
| 71>    C       -7.41450        12.58681        -2.14717
| 72>    C       -8.21573        13.56157        -2.65973
| 73>    C       -7.93047        14.92493        -2.40933
| 74>    C       -8.58883        15.97893        -2.97144
| 75>    C       -8.35725        17.39039        -2.71598
| 76>    C       -7.41773        17.93016        -1.87510
| 77>    C       -7.24166        19.31551        -1.66871
| 78>    N       -7.04061        20.42490        -1.45350
| 79>    C       -6.48924        17.20356        -1.10068
| 80>    N       -5.70126        16.68735        -0.44356
| 81>    C       -9.30732        18.14864        -3.52072
| 82>    C      -10.10115        17.23700        -4.27491
| 83>    C       -9.68122        15.85804        -3.98226
| 84>    O      -10.11509        14.84177        -4.47668
| 85>    C      -11.07878        17.66345        -5.12735
| 86>    C      -11.31402        19.04913        -5.26724
| 87>    C      -10.52542        19.96874        -4.51595
| 88>    C       -9.51991        19.49737        -3.64175
| 89>    C      -10.76771        21.34979        -4.66367
| 90>    C      -11.74143        21.80231        -5.51196
| 91>    C      -12.51699        20.89616        -6.25093
| 92>    C      -12.30796        19.54880        -6.13135
| 93>    H        8.21716         4.94099        -0.52484
| 94>    H        4.92171         4.27318         3.16211
| 95>    H        6.73540         4.27589         4.77491
| 96>    H        9.13646         4.44235         5.29609
| 97>    H       10.78120         4.76123         3.49076
| 98>    H       10.03780         4.91887         1.14774
| 99>    H        3.46865         5.36843        -2.85676
|100>    H       -2.35325         6.74660        -3.09990
|101>    H       -2.91041         8.96915         2.53710
|102>    H       -4.62203         7.88564         0.84116
|103>    H       -1.83991         4.33858        -0.78225
|104>    H       -3.66656         2.84230        -1.96680
|105>    H       -4.84190         8.04494        -1.33661
|106>    H       -7.27915         6.60243        -2.50049
|107>    H       -9.09615         8.34402        -3.22222
|108>    H       -6.54146        12.88383        -1.57627
|109>    H       -9.06679        13.31868        -3.27836
|110>    H       -7.12320        15.12270        -1.71537
|111>    H      -11.66466        16.94987        -5.68731
|112>    H       -8.94122        20.21988        -3.08870
|113>    H      -10.16800        22.04356        -4.09303
|114>    H      -11.91944        22.86180        -5.61833
|115>    H      -13.28072        21.27111        -6.91554
|116>    H      -12.90145        18.84633        -6.69772
|117> *
|118>
|119>                          ****END OF INPUT****

CARTESIAN COORDINATES (ANGSTROEM)
---------------------------------
  C      3.890850    4.392210    0.450270
  C      2.809950    3.762900    1.009980
  C      2.807860    3.241240    2.321140
  N      2.756950    2.801780    3.379620
  C      1.609010    3.493520    0.324340
  N      0.618110    3.240190   -0.199040
  C      5.215860    4.486270    1.049840
  C      6.171930    4.695780    0.011160
  C      7.508410    4.789990    0.275690
  C      7.954360    4.690140    1.612570
  C      7.001440    4.502840    2.656730
  C      5.624400    4.400470    2.353510
  C      7.460050    4.418250    3.986990
  C      8.794960    4.509520    4.274180
  C      9.732120    4.690730    3.245850
  C      9.320980    4.778680    1.943390
  C      5.476140    4.802190   -1.280760
  O      5.946680    4.915380   -2.386440
  C      4.019310    4.815430   -0.930530
  C      3.119870    5.286870   -1.831220
  C      1.805980    5.747750   -1.578860
  S      1.270080    6.382700   -0.040180
  C     -0.365660    6.640560   -0.584880
  C     -0.449550    6.344640   -1.960630
  C      0.775970    5.882960   -2.499600
  O      0.669930    5.647320   -3.815980
  C     -0.604990    5.982450   -4.137810
  N     -1.020560    5.866910   -5.490220
  O     -2.170910    6.188830   -5.718370
  O     -0.217410    5.470860   -6.301300
  C     -1.335930    6.417860   -3.061610
  C     -1.405810    7.080150    0.247110
  C     -1.359360    7.893430    1.386500
  N     -0.238350    8.274590    2.107940
  O      0.821140    7.677930    1.882810
  O     -0.343850    9.157880    2.936350
  C     -2.682350    8.336440    1.700530
  C     -3.553610    7.803640    0.799150
  C     -2.832110    6.943780   -0.088860
  C     -3.372950    5.948690   -0.882460
  C     -2.802340    4.665230   -1.125860
  C     -3.750020    3.882060   -1.711690
  C     -4.940170    4.651750   -1.943370
  N     -6.050170    4.054230   -2.566810
  O     -7.119610    4.645730   -2.584810
  O     -5.885300    2.947530   -3.045310
  C     -4.737370    5.951170   -1.471400
  C     -5.409600    7.174570   -1.646780
  C     -6.647580    7.417270   -2.175930
  C     -7.165920    8.717990   -2.311670
  S     -6.297330   10.144380   -1.793860
  C     -7.574460   11.194360   -2.316800
  C     -8.632510   10.446960   -2.859940
  C     -8.396010    9.070580   -2.849260
  C     -9.850850   10.980910   -3.324190
  N    -10.875180   11.347780   -3.683950
  C     -7.414500   12.586810   -2.147170
  C     -8.215730   13.561570   -2.659730
  C     -7.930470   14.924930   -2.409330
  C     -8.588830   15.978930   -2.971440
  C     -8.357250   17.390390   -2.715980
  C     -7.417730   17.930160   -1.875100
  C     -7.241660   19.315510   -1.668710
  N     -7.040610   20.424900   -1.453500
  C     -6.489240   17.203560   -1.100680
  N     -5.701260   16.687350   -0.443560
  C     -9.307320   18.148640   -3.520720
  C    -10.101150   17.237000   -4.274910
  C     -9.681220   15.858040   -3.982260
  O    -10.115090   14.841770   -4.476680
  C    -11.078780   17.663450   -5.127350
  C    -11.314020   19.049130   -5.267240
  C    -10.525420   19.968740   -4.515950
  C     -9.519910   19.497370   -3.641750
  C    -10.767710   21.349790   -4.663670
  C    -11.741430   21.802310   -5.511960
  C    -12.516990   20.896160   -6.250930
  C    -12.307960   19.548800   -6.131350
  H      8.217160    4.940990   -0.524840
  H      4.921710    4.273180    3.162110
  H      6.735400    4.275890    4.774910
  H      9.136460    4.442350    5.296090
  H     10.781200    4.761230    3.490760
  H     10.037800    4.918870    1.147740
  H      3.468650    5.368430   -2.856760
  H     -2.353250    6.746600   -3.099900
  H     -2.910410    8.969150    2.537100
  H     -4.622030    7.885640    0.841160
  H     -1.839910    4.338580   -0.782250
  H     -3.666560    2.842300   -1.966800
  H     -4.841900    8.044940   -1.336610
  H     -7.279150    6.602430   -2.500490
  H     -9.096150    8.344020   -3.222220
  H     -6.541460   12.883830   -1.576270
  H     -9.066790   13.318680   -3.278360
  H     -7.123200   15.122700   -1.715370
  H    -11.664660   16.949870   -5.687310
  H     -8.941220   20.219880   -3.088700
  H    -10.168000   22.043560   -4.093030
  H    -11.919440   22.861800   -5.618330
  H    -13.280720   21.271110   -6.915540
  H    -12.901450   18.846330   -6.697720

 Total Charge           Charge          ....    0
 Multiplicity           Mult            ....    1
 Number of Electrons    NEL             ....  538
 Basis Dimension        Dim             .... 1220

ORBITAL ENERGIES
----------------

  NO   OCC          E(Eh)            E(eV)
   0   2.0000     -88.999039     -2421.7870
   1   2.0000     -88.997292     -2421.7394
   2   2.0000     -19.333534      -526.0922
   3   2.0000     -19.257996      -524.0367
   4   2.0000     -19.255042      -523.9563
   5   2.0000     -19.254651      -523.9457
   6   2.0000     -19.253218      -523.9067
   7   2.0000     -19.245278      -523.6906
   8   2.0000     -19.244063      -523.6576
   9   2.0000     -19.223288      -523.0923
  10   2.0000     -19.221593      -523.0461
  11   2.0000     -14.669921      -399.1888
  12   2.0000     -14.660372      -398.9290
  13   2.0000     -14.654612      -398.7723
  14   2.0000     -14.429840      -392.6559
  15   2.0000     -14.424064      -392.4987
  16   2.0000     -14.423004      -392.4699
  17   2.0000     -14.420966      -392.4144
  18   2.0000     -14.420373      -392.3983
  19   2.0000     -10.405245      -283.1411
  20   2.0000     -10.375168      -282.3227
  21   2.0000     -10.374815      -282.3131
  22   2.0000     -10.371985      -282.2360
  23   2.0000     -10.357079      -281.8304
  24   2.0000     -10.354047      -281.7479
  25   2.0000     -10.353863      -281.7429
  26   2.0000     -10.352159      -281.6966
  27   2.0000     -10.349560      -281.6259
  28   2.0000     -10.347280      -281.5638
  29   2.0000     -10.347076      -281.5582
  30   2.0000     -10.345292      -281.5097
  31   2.0000     -10.344611      -281.4912
  32   2.0000     -10.342534      -281.4347
  33   2.0000     -10.340788      -281.3871
  34   2.0000     -10.340477      -281.3787
  35   2.0000     -10.339521      -281.3527
  36   2.0000     -10.338359      -281.3210
  37   2.0000     -10.337849      -281.3072
  38   2.0000     -10.333348      -281.1847
  39   2.0000     -10.332666      -281.1661
  40   2.0000     -10.331356      -281.1305
  41   2.0000     -10.326700      -281.0038
  42   2.0000     -10.326243      -280.9914
  43   2.0000     -10.325157      -280.9618
  44   2.0000     -10.324762      -280.9511
  45   2.0000     -10.322951      -280.9018
  46   2.0000     -10.322184      -280.8809
  47   2.0000     -10.322002      -280.8760
  48   2.0000     -10.320137      -280.8252
  49   2.0000     -10.319389      -280.8048
  50   2.0000     -10.315293      -280.6934
  51   2.0000     -10.314803      -280.6801
  52   2.0000     -10.313038      -280.6320
  53   2.0000     -10.310950      -280.5752
  54   2.0000     -10.309295      -280.5302
  55   2.0000     -10.308444      -280.5070
  56   2.0000     -10.307470      -280.4805
  57   2.0000     -10.305416      -280.4246
  58   2.0000     -10.304341      -280.3954
  59   2.0000     -10.304048      -280.3874
  60   2.0000     -10.303890      -280.3831
  61   2.0000     -10.303697      -280.3778
  62   2.0000     -10.303461      -280.3714
  63   2.0000     -10.301505      -280.3182
  64   2.0000     -10.301273      -280.3119
  65   2.0000     -10.301015      -280.3049
  66   2.0000     -10.300230      -280.2835
  67   2.0000     -10.296713      -280.1878
  68   2.0000     -10.292402      -280.0705
  69   2.0000     -10.291655      -280.0502
  70   2.0000     -10.291508      -280.0462
  71   2.0000     -10.291054      -280.0338
  72   2.0000     -10.290794      -280.0267
  73   2.0000     -10.290322      -280.0139
  74   2.0000     -10.289794      -279.9995
  75   2.0000     -10.289303      -279.9862
  76   2.0000     -10.289107      -279.9808
  77   2.0000     -10.288735      -279.9707
  78   2.0000      -8.092760      -220.2152
  79   2.0000      -8.090792      -220.1616
  80   2.0000      -6.061827      -164.9507
  81   2.0000      -6.060435      -164.9128
  82   2.0000      -6.057849      -164.8424
  83   2.0000      -6.055718      -164.7845
  84   2.0000      -6.055114      -164.7680
  85   2.0000      -6.052914      -164.7082
  86   2.0000      -1.341954       -36.5164
  87   2.0000      -1.330192       -36.1964
  88   2.0000      -1.324780       -36.0491
  89   2.0000      -1.255708       -34.1696
  90   2.0000      -1.159078       -31.5401
  91   2.0000      -1.147807       -31.2334
  92   2.0000      -1.141368       -31.0582
  93   2.0000      -1.139330       -31.0027
  94   2.0000      -1.136961       -30.9383
  95   2.0000      -1.040486       -28.3131
  96   2.0000      -1.033150       -28.1135
  97   2.0000      -1.030025       -28.0284
  98   2.0000      -1.024519       -27.8786
  99   2.0000      -1.018101       -27.7039
 100   2.0000      -1.008728       -27.4489
 101   2.0000      -1.008053       -27.4305
 102   2.0000      -1.004062       -27.3219
 103   2.0000      -1.002277       -27.2733
 104   2.0000      -1.000793       -27.2330
 105   2.0000      -0.999979       -27.2108
 106   2.0000      -0.979119       -26.6432
 107   2.0000      -0.976322       -26.5671
 108   2.0000      -0.956440       -26.0260
 109   2.0000      -0.948943       -25.8220
 110   2.0000      -0.933229       -25.3944
 111   2.0000      -0.931960       -25.3599
 112   2.0000      -0.928310       -25.2606
 113   2.0000      -0.923236       -25.1225
 114   2.0000      -0.919863       -25.0308
 115   2.0000      -0.908107       -24.7109
 116   2.0000      -0.900852       -24.5134
 117   2.0000      -0.897894       -24.4330
 118   2.0000      -0.893793       -24.3214
 119   2.0000      -0.887657       -24.1544
 120   2.0000      -0.886525       -24.1236
 121   2.0000      -0.884959       -24.0810
 122   2.0000      -0.879055       -23.9203
 123   2.0000      -0.867262       -23.5994
 124   2.0000      -0.851188       -23.1620
 125   2.0000      -0.837369       -22.7860
 126   2.0000      -0.834714       -22.7137
 127   2.0000      -0.832188       -22.6450
 128   2.0000      -0.823369       -22.4050
 129   2.0000      -0.809821       -22.0363
 130   2.0000      -0.807174       -21.9643
 131   2.0000      -0.790973       -21.5235
 132   2.0000      -0.783386       -21.3170
 133   2.0000      -0.768425       -20.9099
 134   2.0000      -0.766947       -20.8697
 135   2.0000      -0.750381       -20.4189
 136   2.0000      -0.745533       -20.2870
 137   2.0000      -0.736130       -20.0311
 138   2.0000      -0.734676       -19.9916
 139   2.0000      -0.732031       -19.9196
 140   2.0000      -0.714655       -19.4468
 141   2.0000      -0.711533       -19.3618
 142   2.0000      -0.707248       -19.2452
 143   2.0000      -0.706837       -19.2340
 144   2.0000      -0.697766       -18.9872
 145   2.0000      -0.693485       -18.8707
 146   2.0000      -0.690420       -18.7873
 147   2.0000      -0.686553       -18.6821
 148   2.0000      -0.685240       -18.6463
 149   2.0000      -0.680891       -18.5280
 150   2.0000      -0.676482       -18.4080
 151   2.0000      -0.669749       -18.2248
 152   2.0000      -0.657802       -17.8997
 153   2.0000      -0.655961       -17.8496
 154   2.0000      -0.655531       -17.8379
 155   2.0000      -0.650096       -17.6900
 156   2.0000      -0.644526       -17.5384
 157   2.0000      -0.643433       -17.5087
 158   2.0000      -0.641295       -17.4505
 159   2.0000      -0.638692       -17.3797
 160   2.0000      -0.635954       -17.3052
 161   2.0000      -0.634203       -17.2575
 162   2.0000      -0.628010       -17.0890
 163   2.0000      -0.626613       -17.0510
 164   2.0000      -0.622239       -16.9320
 165   2.0000      -0.613926       -16.7058
 166   2.0000      -0.610848       -16.6220
 167   2.0000      -0.608189       -16.5497
 168   2.0000      -0.606060       -16.4917
 169   2.0000      -0.601792       -16.3756
 170   2.0000      -0.597536       -16.2598
 171   2.0000      -0.595621       -16.2077
 172   2.0000      -0.591488       -16.0952
 173   2.0000      -0.589055       -16.0290
 174   2.0000      -0.577878       -15.7249
 175   2.0000      -0.569864       -15.5068
 176   2.0000      -0.566867       -15.4252
 177   2.0000      -0.565322       -15.3832
 178   2.0000      -0.562062       -15.2945
 179   2.0000      -0.558458       -15.1964
 180   2.0000      -0.553866       -15.0715
 181   2.0000      -0.551565       -15.0088
 182   2.0000      -0.550282       -14.9739
 183   2.0000      -0.549380       -14.9494
 184   2.0000      -0.545872       -14.8539
 185   2.0000      -0.544672       -14.8213
 186   2.0000      -0.542505       -14.7623
 187   2.0000      -0.542281       -14.7562
 188   2.0000      -0.535812       -14.5802
 189   2.0000      -0.532658       -14.4944
 190   2.0000      -0.532035       -14.4774
 191   2.0000      -0.529873       -14.4186
 192   2.0000      -0.525875       -14.3098
 193   2.0000      -0.525149       -14.2900
 194   2.0000      -0.521409       -14.1883
 195   2.0000      -0.519446       -14.1348
 196   2.0000      -0.518211       -14.1012
 197   2.0000      -0.516152       -14.0452
 198   2.0000      -0.513296       -13.9675
 199   2.0000      -0.512184       -13.9372
 200   2.0000      -0.510747       -13.8981
 201   2.0000      -0.507022       -13.7968
 202   2.0000      -0.503210       -13.6930
 203   2.0000      -0.502654       -13.6779
 204   2.0000      -0.502156       -13.6644
 205   2.0000      -0.498661       -13.5692
 206   2.0000      -0.495027       -13.4704
 207   2.0000      -0.492046       -13.3892
 208   2.0000      -0.491013       -13.3611
 209   2.0000      -0.488188       -13.2843
 210   2.0000      -0.486929       -13.2500
 211   2.0000      -0.484394       -13.1810
 212   2.0000      -0.483576       -13.1588
 213   2.0000      -0.477013       -12.9802
 214   2.0000      -0.471370       -12.8266
 215   2.0000      -0.468870       -12.7586
 216   2.0000      -0.467914       -12.7326
 217   2.0000      -0.461981       -12.5711
 218   2.0000      -0.457768       -12.4565
 219   2.0000      -0.455952       -12.4071
 220   2.0000      -0.453271       -12.3341
 221   2.0000      -0.452652       -12.3173
 222   2.0000      -0.451171       -12.2770
 223   2.0000      -0.450282       -12.2528
 224   2.0000      -0.448739       -12.2108
 225   2.0000      -0.446132       -12.1399
 226   2.0000      -0.445740       -12.1292
 227   2.0000      -0.443985       -12.0814
 228   2.0000      -0.442393       -12.0381
 229   2.0000      -0.439456       -11.9582
 230   2.0000      -0.438697       -11.9376
 231   2.0000      -0.437582       -11.9072
 232   2.0000      -0.434482       -11.8228
 233   2.0000      -0.434023       -11.8104
 234   2.0000      -0.432274       -11.7628
 235   2.0000      -0.425619       -11.5817
 236   2.0000      -0.425295       -11.5729
 237   2.0000      -0.418687       -11.3930
 238   2.0000      -0.417904       -11.3717
 239   2.0000      -0.414887       -11.2897
 240   2.0000      -0.411491       -11.1972
 241   2.0000      -0.403616       -10.9829
 242   2.0000      -0.402639       -10.9564
 243   2.0000      -0.402391       -10.9496
 244   2.0000      -0.394984       -10.7481
 245   2.0000      -0.394090       -10.7237
 246   2.0000      -0.393611       -10.7107
 247   2.0000      -0.392770       -10.6878
 248   2.0000      -0.385671       -10.4946
 249   2.0000      -0.384233       -10.4555
 250   2.0000      -0.382241       -10.4013
 251   2.0000      -0.378918       -10.3109
 252   2.0000      -0.374933       -10.2024
 253   2.0000      -0.370367       -10.0782
 254   2.0000      -0.369246       -10.0477
 255   2.0000      -0.360966        -9.8224
 256   2.0000      -0.354631        -9.6500
 257   2.0000      -0.351468        -9.5639
 258   2.0000      -0.347481        -9.4554
 259   2.0000      -0.340341        -9.2611
 260   2.0000      -0.338382        -9.2078
 261   2.0000      -0.335058        -9.1174
 262   2.0000      -0.322928        -8.7873
 263   2.0000      -0.322781        -8.7833
 264   2.0000      -0.313928        -8.5424
 265   2.0000      -0.301314        -8.1992
 266   2.0000      -0.297634        -8.0990
 267   2.0000      -0.281991        -7.6734
 268   2.0000      -0.268975        -7.3192
 269   0.0000      -0.154869        -4.2142
 270   0.0000      -0.117110        -3.1867
 271   0.0000      -0.104327        -2.8389
 272   0.0000      -0.079753        -2.1702
 273   0.0000      -0.069551        -1.8926

MULLIKEN ATOMIC CHARGES
-----------------------
   0 C :    0.264597
   1 C :   -0.318443
   2 C :   -0.180785
   3 N :    0.164233
   4 C :   -0.176914
   5 N :    0.164325
   6 C :    0.033768
   7 C :    0.007962
   8 C :   -0.073920
   9 C :    0.092386
  10 C :    0.092142
  11 C :   -0.070629
  12 C :   -0.015938
  13 C :    0.037421
  14 C :    0.035995
  15 C :   -0.014543
  16 C :    0.141161
  17 O :   -0.131790
  18 C :   -0.128524
  19 C :    0.052884
  20 C :   -0.231001
  21 S :    0.252662
  22 C :   -0.167905
  23 C :    0.095030
  24 C :    0.261298
  25 O :   -0.160034
  26 C :    0.234214
  27 N :    0.274227
  28 O :   -0.243753
  29 O :   -0.218791
  30 C :   -0.057177
  31 C :    0.087111
  32 C :    0.042179
  33 N :    0.298942
  34 O :   -0.288065
  35 O :   -0.235068
  36 C :    0.019090
  37 C :   -0.004571
  38 C :    0.012504
  39 C :   -0.042076
  40 C :    0.035223
  41 C :    0.019643
  42 C :    0.065842
  43 N :    0.280609
  44 O :   -0.259998
  45 O :   -0.239403
  46 C :    0.103670
  47 C :   -0.107282
  48 C :    0.066799
  49 C :   -0.046883
  50 S :    0.144728
  51 C :   -0.039462
  52 C :   -0.041378
  53 C :    0.024792
  54 C :   -0.188166
  55 N :    0.153716
  56 C :    0.048553
  57 C :   -0.011182
  58 C :   -0.054372
  59 C :   -0.052210
  60 C :    0.336046
  61 C :   -0.350225
  62 C :   -0.182613
  63 N :    0.153213
  64 C :   -0.187073
  65 N :    0.145784
  66 C :    0.045060
  67 C :   -0.006625
  68 C :    0.144945
  69 O :   -0.129322
  70 C :   -0.073900
  71 C :    0.097612
  72 C :    0.095957
  73 C :   -0.081463
  74 C :   -0.019012
  75 C :    0.035457
  76 C :    0.036740
  77 C :   -0.014485
  78 H :   -0.007904
  79 H :   -0.000840
  80 H :   -0.007425
  81 H :   -0.002311
  82 H :   -0.002185
  83 H :   -0.014290
  84 H :    0.039819
  85 H :    0.009154
  86 H :    0.010983
  87 H :    0.001582
  88 H :    0.009935
  89 H :    0.015162
  90 H :    0.007977
  91 H :    0.031886
  92 H :    0.016871
  93 H :    0.009728
  94 H :    0.059540
  95 H :    0.013238
  96 H :   -0.007994
  97 H :   -0.008368
  98 H :   -0.008051
  99 H :   -0.002761
 100 H :   -0.002938
 101 H :   -0.014345
Sum of atomic charges:   -0.0000000

LOEWDIN ATOMIC CHARGES
----------------------
   0 C :    0.065104
   1 C :   -0.137659
   2 C :   -0.019504
   3 N :   -0.043826
   4 C :   -0.020965
   5 N :   -0.060003
   6 C :   -0.023339
   7 C :   -0.058201
   8 C :    0.035847
   9 C :   -0.007591
  10 C :   -0.004170
  11 C :    0.021214
  12 C :   -0.004731
  13 C :   -0.010192
  14 C :   -0.010222
  15 C :   -0.008125
  16 C :    0.083990
  17 O :   -0.133165
  18 C :   -0.075653
  19 C :    0.045766
  20 C :   -0.203900
  21 S :    0.578909
  22 C :   -0.151388
  23 C :   -0.063714
  24 C :    0.041833
  25 O :    0.021450
  26 C :    0.032004
  27 N :    0.271299
  28 O :   -0.205847
  29 O :   -0.180267
  30 C :   -0.006227
  31 C :    0.000956
  32 C :   -0.058388
  33 N :    0.288491
  34 O :   -0.248982
  35 O :   -0.199084
  36 C :    0.020434
  37 C :   -0.043371
  38 C :    0.021110
  39 C :    0.049357
  40 C :   -0.044116
  41 C :    0.034658
  42 C :   -0.052303
  43 N :    0.287243
  44 O :   -0.218749
  45 O :   -0.203190
  46 C :    0.011801
  47 C :   -0.047268
  48 C :    0.021046
  49 C :   -0.163159
  50 S :    0.471134
  51 C :   -0.132268
  52 C :   -0.089907
  53 C :    0.004909
  54 C :   -0.034764
  55 N :   -0.028059
  56 C :   -0.012272
  57 C :    0.003122
  58 C :    0.057350
  59 C :   -0.073259
  60 C :    0.074128
  61 C :   -0.133821
  62 C :   -0.017162
  63 N :   -0.049021
  64 C :   -0.019002
  65 N :   -0.052103
  66 C :   -0.026640
  67 C :   -0.056607
  68 C :    0.082877
  69 O :   -0.127836
  70 C :    0.035697
  71 C :   -0.007154
  72 C :   -0.005541
  73 C :    0.020633
  74 C :   -0.004903
  75 C :   -0.011919
  76 C :   -0.010388
  77 C :   -0.008229
  78 H :    0.040817
  79 H :    0.040256
  80 H :    0.035417
  81 H :    0.034238
  82 H :    0.033935
  83 H :    0.032893
  84 H :    0.056975
  85 H :    0.045337
  86 H :    0.042277
  87 H :    0.032687
  88 H :    0.035084
  89 H :    0.043517
  90 H :    0.023600
  91 H :    0.040905
  92 H :    0.049449
  93 H :    0.038015
  94 H :    0.042642
  95 H :    0.042079
  96 H :    0.040975
  97 H :    0.039089
  98 H :    0.035049
  99 H :    0.033923
 100 H :    0.033638
 101 H :    0.032992

  Mayer bond orders larger than 0.100000
B(  0-C ,  1-C ) :   1.6561 B(  0-C ,  6-C ) :   1.0050 B(  0-C , 18-C ) :   1.0252
B(  1-C ,  2-C ) :   1.1376 B(  1-C ,  4-C ) :   1.1560 B(  2-C ,  3-N ) :   2.9955
B(  4-C ,  5-N ) :   2.9887 B(  6-C ,  7-C ) :   1.2108 B(  6-C , 11-C ) :   1.4568
B(  7-C ,  8-C ) :   1.4754 B(  7-C , 16-C ) :   0.9240 B(  8-C ,  9-C ) :   1.1895
B(  8-C , 78-H ) :   1.0147 B(  9-C , 10-C ) :   1.2508 B(  9-C , 15-C ) :   1.2461
B( 10-C , 11-C ) :   1.2106 B( 10-C , 12-C ) :   1.2412 B( 11-C , 79-H ) :   0.9932
B( 12-C , 13-C ) :   1.4918 B( 12-C , 80-H ) :   0.9970 B( 13-C , 14-C ) :   1.2582
B( 13-C , 81-H ) :   0.9892 B( 14-C , 15-C ) :   1.4908 B( 14-C , 82-H ) :   0.9892
B( 15-C , 83-H ) :   0.9971 B( 16-C , 17-O ) :   2.2820 B( 16-C , 18-C ) :   0.9241
B( 18-C , 19-C ) :   1.6672 B( 19-C , 20-C ) :   1.1051 B( 19-C , 84-H ) :   0.9509
B( 20-C , 21-S ) :   1.1003 B( 20-C , 24-C ) :   1.3691 B( 21-S , 22-C ) :   1.1694
B( 21-S , 34-O ) :   0.1001 B( 22-C , 23-C ) :   1.2755 B( 22-C , 31-C ) :   1.2318
B( 23-C , 24-C ) :   1.2675 B( 23-C , 30-C ) :   1.1006 B( 24-C , 25-O ) :   1.1619
B( 25-O , 26-C ) :   1.1265 B( 26-C , 27-N ) :   0.9120 B( 26-C , 30-C ) :   1.5532
B( 27-N , 28-O ) :   1.5318 B( 27-N , 29-O ) :   1.5171 B( 28-O , 29-O ) :   0.2838
B( 30-C , 85-H ) :   1.0147 B( 31-C , 32-C ) :   1.4466 B( 31-C , 38-C ) :   1.0482
B( 32-C , 33-N ) :   0.9959 B( 32-C , 36-C ) :   1.1534 B( 33-N , 34-O ) :   1.3972
B( 33-N , 35-O ) :   1.5472 B( 34-O , 35-O ) :   0.2426 B( 36-C , 37-C ) :   1.5509
B( 36-C , 86-H ) :   1.0119 B( 37-C , 38-C ) :   1.1484 B( 37-C , 87-H ) :   1.0050
B( 38-C , 39-C ) :   1.4653 B( 39-C , 40-C ) :   1.1594 B( 39-C , 46-C ) :   1.0021
B( 40-C , 41-C ) :   1.5531 B( 40-C , 88-H ) :   0.9967 B( 41-C , 42-C ) :   1.1321
B( 41-C , 89-H ) :   1.0106 B( 42-C , 43-N ) :   0.9639 B( 42-C , 46-C ) :   1.4541
B( 43-N , 44-O ) :   1.4623 B( 43-N , 45-O ) :   1.5420 B( 44-O , 45-O ) :   0.2516
B( 46-C , 47-C ) :   1.2048 B( 47-C , 48-C ) :   1.5575 B( 47-C , 90-H ) :   0.9526
B( 48-C , 49-C ) :   1.1747 B( 48-C , 91-H ) :   0.9570 B( 49-C , 50-S ) :   1.0960
B( 49-C , 53-C ) :   1.4062 B( 50-S , 51-C ) :   1.1504 B( 51-C , 52-C ) :   1.4182
B( 51-C , 56-C ) :   1.1348 B( 52-C , 53-C ) :   1.3163 B( 52-C , 54-C ) :   1.1083
B( 53-C , 92-H ) :   1.0114 B( 54-C , 55-N ) :   2.9961 B( 56-C , 57-C ) :   1.5917
B( 56-C , 93-H ) :   0.9571 B( 57-C , 58-C ) :   1.1504 B( 57-C , 94-H ) :   0.9657
B( 58-C , 59-C ) :   1.5642 B( 58-C , 95-H ) :   0.9618 B( 59-C , 60-C ) :   1.0571
B( 59-C , 68-C ) :   0.9284 B( 60-C , 61-C ) :   1.6284 B( 60-C , 66-C ) :   0.9931
B( 61-C , 62-C ) :   1.1462 B( 61-C , 64-C ) :   1.1478 B( 62-C , 63-N ) :   2.9626
B( 64-C , 65-N ) :   2.9559 B( 66-C , 67-C ) :   1.2138 B( 66-C , 73-C ) :   1.4471
B( 67-C , 68-C ) :   0.9455 B( 67-C , 70-C ) :   1.4724 B( 68-C , 69-O ) :   2.2180
B( 70-C , 71-C ) :   1.1822 B( 70-C , 96-H ) :   1.0159 B( 71-C , 72-C ) :   1.2528
B( 71-C , 77-C ) :   1.2431 B( 72-C , 73-C ) :   1.2115 B( 72-C , 74-C ) :   1.2395
B( 73-C , 97-H ) :   0.9883 B( 74-C , 75-C ) :   1.4922 B( 74-C , 98-H ) :   0.9970
B( 75-C , 76-C ) :   1.2577 B( 75-C , 99-H ) :   0.9884 B( 76-C , 77-C ) :   1.4907
B( 76-C ,100-H ) :   0.9888 B( 77-C ,101-H ) :   0.9978

-----------------------------------------------------------------------------
         ABSORPTION SPECTRUM VIA TRANSITION ELECTRIC DIPOLE MOMENTS
-----------------------------------------------------------------------------
State   Energy  Wavelength   fosc         T2         TX        TY        TZ
        (cm-1)    (nm)                  (au**2)     (au)      (au)      (au)
-----------------------------------------------------------------------------
   0    8234.6   1214.4   0.399214163  15.96018  -3.20445   2.33051  -0.51026
   1   10778.4    927.8   0.041701709   1.27372   0.68834   0.62970  -0.63513
   2   18562.8    538.7   0.367623280   6.51980   0.19780   2.50450  -0.45624
   3   19506.7    512.6   0.895344230  15.11059   1.75652  -3.45549   0.29126
   4   19652.5    508.8   0.011664885   0.19541  -0.32192  -0.30258  -0.01494
   5   20111.8    497.2   0.237846086   3.89333  -0.94054   1.71060  -0.28733
   6   20888.3    478.7   0.021271554   0.33525   0.12244   0.45008   0.34305
   7   22340.1    447.6   0.085701761   1.26293   0.86963  -0.64011   0.31134
   8   22518.8    444.1   0.022812386   0.33350   0.13118   0.53030  -0.18730
   9   23044.4    433.9   0.017624163   0.25178  -0.15616   0.47675  -0.01023
  10   24537.1    407.5   0.061096688   0.81973   0.06606   0.50907  -0.74580
  11   24665.2    405.4   0.156966369   2.09507   1.22619   0.40055   0.65657
  12   24847.6    402.5   0.061204433   0.81091   0.02894   0.66612   0.60528
  13   24912.9    401.4   0.055349781   0.73142  -0.09658  -0.65040  -0.54687
  14   25542.5    391.5   0.026822873   0.34571   0.21416   0.53696  -0.10738
  15   25889.4    386.3   0.028335062   0.36031  -0.14981  -0.06298   0.57784
  16   25940.1    385.5   0.004753187   0.06032   0.14073   0.11142   0.16765
  17   26067.5    383.6   0.034189101   0.43178  -0.30937  -0.01826   0.57943
  18   26581.3    376.2   0.093042292   1.15234   0.76581  -0.38229   0.64787
  19   27132.5    368.6   0.210571883   2.55497   1.30021   0.51854   0.77171
  20   27401.4    364.9   0.066538447   0.79942  -0.26033  -0.57156  -0.63638
  21   27793.9    359.8   0.003701446   0.04384  -0.08555  -0.18571  -0.04513
  22   28699.7    348.4   0.143532470   1.64645  -0.51476  -1.17133   0.09724
  23   29266.9    341.7   0.038262507   0.43040   0.15770  -0.47476  -0.42443
  24   29284.7    341.5   0.003603455   0.04051   0.15688   0.04485  -0.11783
  25   29465.1    339.4   0.077582363   0.86682   0.50615  -0.76039   0.18014
  26   29602.9    337.8   0.032504620   0.36148   0.10357   0.57188  -0.15398
  27   30085.2    332.4   0.105754509   1.15724   0.75633  -0.69911   0.31055
  28   30360.2    329.4   0.014333104   0.15542   0.14215  -0.24255   0.27638
  29   30712.5    325.6   0.110036792   1.17950  -0.81102   0.14827   0.70694
  30   30915.1    323.5   0.115552552   1.23051  -0.44047   0.97745   0.28476
  31   31139.0    321.1   0.213693453   2.25924   0.89339  -0.81667   0.89115
  32   31314.6    319.3   0.015029135   0.15800   0.29699   0.23609  -0.11857
  33   31726.0    315.2   0.606519361   6.29368  -1.65645  -1.08545  -1.54002
  34   31963.7    312.9   0.012623630   0.13002   0.24482  -0.08815   0.24962
  35   32122.1    311.3   0.002213614   0.02269   0.11735  -0.04654   0.08215
  36   32526.6    307.4   0.061148812   0.61891  -0.36385   0.02693   0.69699
  37   32567.0    307.1   0.007066948   0.07144   0.11038   0.21120  -0.12103
  38   32716.4    305.7   0.023659543   0.23808   0.28938   0.03866   0.39095
  39   33291.3    300.4   0.605999050   5.99263   1.61543  -1.10681   1.46901
  40   33398.8    299.4   0.263004336   2.59243   1.23418   0.65892   0.79691
  41   33564.8    297.9   0.199737368   1.95907  -1.39873  -0.04903   0.01472
  42   33604.7    297.6   0.034506475   0.33805  -0.56929  -0.10540  -0.05341
  43   33834.0    295.6   0.011806412   0.11488   0.11983  -0.03874   0.31467
  44   33892.6    295.0   0.041703433   0.40508  -0.01543  -0.33018  -0.54390
  45   34376.4    290.9   0.040460443   0.38748  -0.34313  -0.25997  -0.44961
  46   34465.5    290.1   0.045841837   0.43788  -0.54469   0.19008  -0.32413
  47   34578.7    289.2   0.634342327   6.03936   1.85239   0.25920   1.59400
  48   34715.1    288.1   0.079306174   0.75208  -0.26467  -0.56633  -0.60108
  49   35246.8    283.7   0.013487735   0.12598  -0.05401  -0.32080   0.14194
  50   35466.9    282.0   0.001346976   0.01250   0.08501   0.00120   0.07262
  51   35630.2    280.7   0.013142395   0.12143  -0.05270   0.04246  -0.34184
  52   35660.1    280.4   0.022236048   0.20528   0.41732   0.14685   0.09777
  53   35961.2    278.1   0.009269398   0.08486  -0.28432  -0.01267   0.06212
  54   36272.5    275.7   0.053334222   0.48407  -0.37717  -0.01486  -0.58446
  55   36383.2    274.9   0.096182787   0.87031   0.69154  -0.48740   0.39309
  56   36614.3    273.1   0.001716248   0.01543  -0.04116   0.06187   0.09955
  57   36706.0    272.4   0.004137373   0.03711   0.15943   0.07589   0.07700
  58   36808.0    271.7   0.042717100   0.38206  -0.42524  -0.20146  -0.40081
  59   37273.9    268.3   0.050663092   0.44747  -0.07344   0.27768   0.60413
  60   37377.3    267.5   0.034957831   0.30790   0.34626   0.35561   0.24809
  61   37790.7    264.6   0.187574348   1.63405  -1.25594  -0.15192   0.18324
  62   37990.1    263.2   0.006036264   0.05231  -0.03988  -0.22059   0.04538
  63   38255.7    261.4   0.065187234   0.56097   0.01266  -0.01832  -0.74865
  64   38456.9    260.0   0.165935059   1.42050   0.69963  -0.00782   0.96486
  65   38607.9    259.0   0.006970784   0.05944  -0.07928  -0.04337  -0.22644
  66   38743.9    258.1   0.112787043   0.95837  -0.91548  -0.06574  -0.34049
  67   38948.4    256.8   0.009909627   0.08376  -0.17363  -0.20747   0.10281
  68   39111.8    255.7   0.039146316   0.32950  -0.37475  -0.32468   0.28922
  69   39247.3    254.8   0.017140125   0.14377  -0.17615  -0.33211   0.04945
  70   39298.8    254.5   0.013652062   0.11437   0.25348   0.19207   0.11499
  71   39529.9    253.0   0.016740400   0.13942   0.10554  -0.33264  -0.13277
  72   39651.5    252.2   0.006183399   0.05134  -0.17799   0.13344  -0.04300
  73   39773.0    251.4   0.101944895   0.84383   0.36018   0.25226   0.80651
  74   39863.4    250.9   0.072598983   0.59956   0.71726  -0.29158   0.00845
  75   39972.8    250.2   0.038698250   0.31871   0.37780   0.38588   0.16455
  76   40061.8    249.6   0.054383879   0.44691  -0.10268   0.03616  -0.65959
  77   40305.4    248.1   0.213119908   1.74075   0.52180   0.56809   1.07040

FINAL SINGLE POINT ENERGY     -4169.189760465719

DIPOLE MOMENT
-------------
                                X             Y             Z
Electronic contribution:      8.42003     -24.23807      -1.48347
Nuclear contribution   :     -7.65671      25.81353       2.14963
                        -----------------------------------------
Total Dipole Moment    :      0.76333       1.57546       0.66617
                        -----------------------------------------
Magnitude (a.u.)       :      1.87310
Magnitude (Debye)      :      4.76105

Rotational constants in cm-1:     0.001387     0.000244     0.000224
Rotational constants in MHz :    41.585351     7.313249     6.727696

                             ****ORCA TERMINATED NORMALLY****
TOTAL RUN TIME: 0 days 0 hours 12 minutes 43 seconds 378 msec
