                         Program Version 4.2.0 -  RELEASE  -
|  1> # ORCA input file
|  2> # SCF done       -190.021969664534          0.000587845494
|  3> ! CAM-B3LYP def2-SVP def2/J RIJCOSX Grid4 TightSCF
|  4> %maxcore 5000
|  5> %tddft
|  6>     Mode sTDDFT
|  7>     Ethresh 5.0
|  8>     maxcore 5000
|  9> end
| 10>
| 11> %pal
| 12>   nprocs 6
| 13>   end
| 14> * xyz 0 1
| 15>    C       -0.89375         2.71870        -5.17055
| 16>    C       -0.09598         3.61536        -4.51893
| 17>    C        1.13081         4.08653        -5.03255
| 18>    N        2.13287         4.49627        -5.41230
| 19>    C       -0.35420         4.09027        -3.21515
| 20>    N       -0.48774         4.44991        -2.13365
| 21>    C       -0.55102         1.99450        -6.38708
| 22>    C       -1.36772         0.82698        -6.47045
| 23>    C       -1.23545        -0.06823        -7.49390
| 24>    C       -0.27302         0.17171        -8.49950
| 25>    C        0.53382         1.34521        -8.43058
| 26>    C        0.37964         2.25240        -7.35799
| 27>    C        1.48533         1.57535        -9.44528
| 28>    C        1.63656         0.68963       -10.47701
| 29>    C        0.84295        -0.46572       -10.54340
| 30>    C       -0.09092        -0.71930        -9.57597
| 31>    C       -2.30771         0.80076        -5.33822
| 32>    O       -3.10699        -0.05306        -5.04002
| 33>    C       -2.11233         2.11745        -4.65051
| 34>    C       -3.06874         2.60712        -3.83439
| 35>    C       -3.19108         3.96826        -3.42021
| 36>    S       -3.97328         4.43292        -1.92382
| 37>    C       -3.60188         6.08462        -2.39973
| 38>    N       -3.00779         6.14633        -3.55359
| 39>    N       -2.77670         4.99222        -4.10941
| 40>    C       -3.88110         7.23232        -1.59676
| 41>    C       -4.37977         7.15774        -0.35521
| 42>    C       -4.62171         8.29063         0.51572
| 43>    C       -5.17968         9.48014         0.12057
| 44>    C       -5.72236         9.85841        -1.20917
| 45>    F       -6.35968         8.84580        -1.81972
| 46>    F       -6.60392        10.86594        -1.12226
| 47>    F       -4.77331        10.27572        -2.07332
| 48>    S       -5.32382        10.61787         1.41574
| 49>    C       -4.60998         9.48211         2.51610
| 50>    O       -4.41303         9.78403         3.79961
| 51>    C       -4.83977        11.05569         4.23995
| 52>    C       -4.29115         8.27862         1.91294
| 53>    C       -3.67408         7.14694         2.55597
| 54>    C       -3.20772         7.10800         3.81454
| 55>    C       -2.60633         5.94945         4.43992
| 56>    C       -2.73904         4.65613         3.93302
| 57>    C       -2.16320         3.57639         4.57792
| 58>    N       -2.28290         2.29796         3.91587
| 59>    O       -3.33472         2.06903         3.35582
| 60>    O       -1.32548         1.55748         3.92229
| 61>    C       -1.43719         3.72674         5.76939
| 62>    C       -1.27919         5.03165         6.24843
| 63>    C       -1.85570         6.10793         5.61299
| 64>    C       -0.90673         2.61831         6.53819
| 65>    C       -1.57024         1.46692         6.75507
| 66>    C       -1.10938         0.33361         7.49052
| 67>    C        0.16089        -0.11317         7.67779
| 68>    C        0.48504        -1.36084         8.36003
| 69>    C       -0.25360        -1.95140         9.34846
| 70>    C        0.12490        -3.14054        10.00652
| 71>    N        0.38517        -4.10482        10.57202
| 72>    C       -1.44715        -1.41637         9.87946
| 73>    N       -2.40532        -1.02106        10.37292
| 74>    C        1.77853        -1.81053         7.86888
| 75>    C        2.32905        -0.78205         7.05235
| 76>    C        1.40394         0.36556         7.00736
| 77>    O        1.63938         1.45688         6.54087
| 78>    C        3.54369        -0.91819         6.44488
| 79>    C        4.27008        -2.11728         6.62106
| 80>    C        3.72177        -3.15422         7.43071
| 81>    C        2.46534        -2.98122         8.05456
| 82>    C        4.45402        -4.34820         7.59244
| 83>    C        5.66914        -4.51205         6.98538
| 84>    C        6.20843        -3.49033         6.18937
| 85>    C        5.52437        -2.31845         6.01199
| 86>    H       -1.85859        -0.94919        -7.53591
| 87>    H        0.99373         3.13909        -7.33386
| 88>    H        2.09566         2.46450        -9.38813
| 89>    H        2.36920         0.87390       -11.24831
| 90>    H        0.97531        -1.15328       -11.36524
| 91>    H       -0.70464        -1.60691        -9.62194
| 92>    H       -3.84912         1.92510        -3.51754
| 93>    H       -3.60374         8.17066        -2.05311
| 94>    H       -4.59508         6.18452         0.06802
| 95>    H       -4.61265        11.10005         5.30290
| 96>    H       -5.91511        11.18355         4.08395
| 97>    H       -4.30549        11.85115         3.71153
| 98>    H       -3.57134         6.27542         1.92716
| 99>    H       -3.24848         7.99638         4.42582
|100>    H       -3.29563         4.46629         3.02828
|101>    H       -0.71575         5.18132         7.15697
|102>    H       -1.72435         7.09984         6.01959
|103>    H        0.05012         2.79041         7.00589
|104>    H       -2.58711         1.36968         6.38994
|105>    H       -1.90580        -0.30141         7.86357
|106>    H        3.94218        -0.12396         5.83135
|107>    H        2.06974        -3.78544         8.65498
|108>    H        4.03523        -5.13129         8.20730
|109>    H        6.22174        -5.43056         7.11474
|110>    H        7.16809        -3.63701         5.71671
|111>    H        5.93408        -1.52856         5.39962
|112> *
|113>
|114>                          ****END OF INPUT****

CARTESIAN COORDINATES (ANGSTROEM)
---------------------------------
  C     -0.893750    2.718700   -5.170550
  C     -0.095980    3.615360   -4.518930
  C      1.130810    4.086530   -5.032550
  N      2.132870    4.496270   -5.412300
  C     -0.354200    4.090270   -3.215150
  N     -0.487740    4.449910   -2.133650
  C     -0.551020    1.994500   -6.387080
  C     -1.367720    0.826980   -6.470450
  C     -1.235450   -0.068230   -7.493900
  C     -0.273020    0.171710   -8.499500
  C      0.533820    1.345210   -8.430580
  C      0.379640    2.252400   -7.357990
  C      1.485330    1.575350   -9.445280
  C      1.636560    0.689630  -10.477010
  C      0.842950   -0.465720  -10.543400
  C     -0.090920   -0.719300   -9.575970
  C     -2.307710    0.800760   -5.338220
  O     -3.106990   -0.053060   -5.040020
  C     -2.112330    2.117450   -4.650510
  C     -3.068740    2.607120   -3.834390
  C     -3.191080    3.968260   -3.420210
  S     -3.973280    4.432920   -1.923820
  C     -3.601880    6.084620   -2.399730
  N     -3.007790    6.146330   -3.553590
  N     -2.776700    4.992220   -4.109410
  C     -3.881100    7.232320   -1.596760
  C     -4.379770    7.157740   -0.355210
  C     -4.621710    8.290630    0.515720
  C     -5.179680    9.480140    0.120570
  C     -5.722360    9.858410   -1.209170
  F     -6.359680    8.845800   -1.819720
  F     -6.603920   10.865940   -1.122260
  F     -4.773310   10.275720   -2.073320
  S     -5.323820   10.617870    1.415740
  C     -4.609980    9.482110    2.516100
  O     -4.413030    9.784030    3.799610
  C     -4.839770   11.055690    4.239950
  C     -4.291150    8.278620    1.912940
  C     -3.674080    7.146940    2.555970
  C     -3.207720    7.108000    3.814540
  C     -2.606330    5.949450    4.439920
  C     -2.739040    4.656130    3.933020
  C     -2.163200    3.576390    4.577920
  N     -2.282900    2.297960    3.915870
  O     -3.334720    2.069030    3.355820
  O     -1.325480    1.557480    3.922290
  C     -1.437190    3.726740    5.769390
  C     -1.279190    5.031650    6.248430
  C     -1.855700    6.107930    5.612990
  C     -0.906730    2.618310    6.538190
  C     -1.570240    1.466920    6.755070
  C     -1.109380    0.333610    7.490520
  C      0.160890   -0.113170    7.677790
  C      0.485040   -1.360840    8.360030
  C     -0.253600   -1.951400    9.348460
  C      0.124900   -3.140540   10.006520
  N      0.385170   -4.104820   10.572020
  C     -1.447150   -1.416370    9.879460
  N     -2.405320   -1.021060   10.372920
  C      1.778530   -1.810530    7.868880
  C      2.329050   -0.782050    7.052350
  C      1.403940    0.365560    7.007360
  O      1.639380    1.456880    6.540870
  C      3.543690   -0.918190    6.444880
  C      4.270080   -2.117280    6.621060
  C      3.721770   -3.154220    7.430710
  C      2.465340   -2.981220    8.054560
  C      4.454020   -4.348200    7.592440
  C      5.669140   -4.512050    6.985380
  C      6.208430   -3.490330    6.189370
  C      5.524370   -2.318450    6.011990
  H     -1.858590   -0.949190   -7.535910
  H      0.993730    3.139090   -7.333860
  H      2.095660    2.464500   -9.388130
  H      2.369200    0.873900  -11.248310
  H      0.975310   -1.153280  -11.365240
  H     -0.704640   -1.606910   -9.621940
  H     -3.849120    1.925100   -3.517540
  H     -3.603740    8.170660   -2.053110
  H     -4.595080    6.184520    0.068020
  H     -4.612650   11.100050    5.302900
  H     -5.915110   11.183550    4.083950
  H     -4.305490   11.851150    3.711530
  H     -3.571340    6.275420    1.927160
  H     -3.248480    7.996380    4.425820
  H     -3.295630    4.466290    3.028280
  H     -0.715750    5.181320    7.156970
  H     -1.724350    7.099840    6.019590
  H      0.050120    2.790410    7.005890
  H     -2.587110    1.369680    6.389940
  H     -1.905800   -0.301410    7.863570
  H      3.942180   -0.123960    5.831350
  H      2.069740   -3.785440    8.654980
  H      4.035230   -5.131290    8.207300
  H      6.221740   -5.430560    7.114740
  H      7.168090   -3.637010    5.716710
  H      5.934080   -1.528560    5.399620

 Total Charge           Charge          ....    0
 Multiplicity           Mult            ....    1
 Number of Electrons    NEL             ....  498
 Basis Dimension        Dim             .... 1132

ORBITAL ENERGIES
----------------

  NO   OCC          E(Eh)            E(eV)
   0   2.0000     -88.985774     -2421.4260
   1   2.0000     -88.979804     -2421.2636
   2   2.0000     -24.805397      -674.9892
   3   2.0000     -24.799999      -674.8423
   4   2.0000     -24.798322      -674.7967
   5   2.0000     -19.291552      -524.9498
   6   2.0000     -19.242893      -523.6257
   7   2.0000     -19.242563      -523.6168
   8   2.0000     -19.220252      -523.0096
   9   2.0000     -19.215615      -522.8835
  10   2.0000     -14.647034      -398.5661
  11   2.0000     -14.446177      -393.1005
  12   2.0000     -14.441376      -392.9698
  13   2.0000     -14.415414      -392.2633
  14   2.0000     -14.413574      -392.2133
  15   2.0000     -14.411201      -392.1487
  16   2.0000     -14.410087      -392.1184
  17   2.0000     -10.526770      -286.4480
  18   2.0000     -10.381160      -282.4857
  19   2.0000     -10.371115      -282.2124
  20   2.0000     -10.366149      -282.0773
  21   2.0000     -10.353498      -281.7330
  22   2.0000     -10.350700      -281.6569
  23   2.0000     -10.348582      -281.5992
  24   2.0000     -10.344720      -281.4941
  25   2.0000     -10.340431      -281.3774
  26   2.0000     -10.338476      -281.3242
  27   2.0000     -10.336130      -281.2604
  28   2.0000     -10.332855      -281.1713
  29   2.0000     -10.324311      -280.9388
  30   2.0000     -10.317723      -280.7595
  31   2.0000     -10.317113      -280.7429
  32   2.0000     -10.315900      -280.7099
  33   2.0000     -10.313854      -280.6542
  34   2.0000     -10.312988      -280.6307
  35   2.0000     -10.312926      -280.6290
  36   2.0000     -10.312356      -280.6135
  37   2.0000     -10.309945      -280.5479
  38   2.0000     -10.306836      -280.4633
  39   2.0000     -10.305011      -280.4136
  40   2.0000     -10.304736      -280.4061
  41   2.0000     -10.300117      -280.2804
  42   2.0000     -10.299737      -280.2701
  43   2.0000     -10.299277      -280.2576
  44   2.0000     -10.299173      -280.2547
  45   2.0000     -10.299146      -280.2540
  46   2.0000     -10.298729      -280.2427
  47   2.0000     -10.297255      -280.2026
  48   2.0000     -10.296908      -280.1931
  49   2.0000     -10.296687      -280.1871
  50   2.0000     -10.295179      -280.1461
  51   2.0000     -10.294508      -280.1278
  52   2.0000     -10.294277      -280.1215
  53   2.0000     -10.294209      -280.1197
  54   2.0000     -10.293758      -280.1074
  55   2.0000     -10.293575      -280.1024
  56   2.0000     -10.292839      -280.0824
  57   2.0000     -10.291865      -280.0559
  58   2.0000     -10.291652      -280.0501
  59   2.0000     -10.290718      -280.0247
  60   2.0000     -10.287454      -279.9358
  61   2.0000     -10.287006      -279.9237
  62   2.0000     -10.286733      -279.9162
  63   2.0000     -10.286079      -279.8984
  64   2.0000     -10.285980      -279.8958
  65   2.0000     -10.285558      -279.8843
  66   2.0000     -10.283513      -279.8286
  67   2.0000     -10.282941      -279.8130
  68   2.0000     -10.282769      -279.8084
  69   2.0000     -10.282326      -279.7963
  70   2.0000     -10.280004      -279.7331
  71   2.0000      -8.081609      -219.9118
  72   2.0000      -8.075936      -219.7574
  73   2.0000      -6.051034      -164.6570
  74   2.0000      -6.046790      -164.5415
  75   2.0000      -6.044579      -164.4814
  76   2.0000      -6.043418      -164.4498
  77   2.0000      -6.041231      -164.3903
  78   2.0000      -6.038350      -164.3119
  79   2.0000      -1.391768       -37.8719
  80   2.0000      -1.323693       -36.0195
  81   2.0000      -1.296002       -35.2660
  82   2.0000      -1.289825       -35.0979
  83   2.0000      -1.199746       -32.6467
  84   2.0000      -1.150048       -31.2944
  85   2.0000      -1.142270       -31.0827
  86   2.0000      -1.135794       -30.9065
  87   2.0000      -1.130957       -30.7749
  88   2.0000      -1.018625       -27.7182
  89   2.0000      -1.014024       -27.5930
  90   2.0000      -1.007985       -27.4287
  91   2.0000      -0.999056       -27.1857
  92   2.0000      -0.994562       -27.0634
  93   2.0000      -0.993107       -27.0238
  94   2.0000      -0.990588       -26.9553
  95   2.0000      -0.989214       -26.9179
  96   2.0000      -0.974552       -26.5189
  97   2.0000      -0.968305       -26.3489
  98   2.0000      -0.952527       -25.9196
  99   2.0000      -0.936918       -25.4948
 100   2.0000      -0.930917       -25.3315
 101   2.0000      -0.921885       -25.0858
 102   2.0000      -0.921092       -25.0642
 103   2.0000      -0.910393       -24.7730
 104   2.0000      -0.900398       -24.5011
 105   2.0000      -0.896036       -24.3824
 106   2.0000      -0.894715       -24.3464
 107   2.0000      -0.890235       -24.2245
 108   2.0000      -0.882234       -24.0068
 109   2.0000      -0.878207       -23.8972
 110   2.0000      -0.874554       -23.7978
 111   2.0000      -0.861764       -23.4498
 112   2.0000      -0.852565       -23.1995
 113   2.0000      -0.838148       -22.8072
 114   2.0000      -0.832224       -22.6460
 115   2.0000      -0.829478       -22.5713
 116   2.0000      -0.824905       -22.4468
 117   2.0000      -0.818976       -22.2855
 118   2.0000      -0.801352       -21.8059
 119   2.0000      -0.795547       -21.6479
 120   2.0000      -0.781455       -21.2645
 121   2.0000      -0.766505       -20.8577
 122   2.0000      -0.762548       -20.7500
 123   2.0000      -0.757460       -20.6115
 124   2.0000      -0.746339       -20.3089
 125   2.0000      -0.738860       -20.1054
 126   2.0000      -0.727419       -19.7941
 127   2.0000      -0.713369       -19.4117
 128   2.0000      -0.709924       -19.3180
 129   2.0000      -0.703179       -19.1345
 130   2.0000      -0.701786       -19.0966
 131   2.0000      -0.700112       -19.0510
 132   2.0000      -0.697601       -18.9827
 133   2.0000      -0.694790       -18.9062
 134   2.0000      -0.684091       -18.6151
 135   2.0000      -0.679944       -18.5022
 136   2.0000      -0.676097       -18.3975
 137   2.0000      -0.674283       -18.3482
 138   2.0000      -0.673679       -18.3317
 139   2.0000      -0.665933       -18.1210
 140   2.0000      -0.659155       -17.9365
 141   2.0000      -0.657083       -17.8801
 142   2.0000      -0.646390       -17.5892
 143   2.0000      -0.635860       -17.3026
 144   2.0000      -0.634265       -17.2592
 145   2.0000      -0.633310       -17.2332
 146   2.0000      -0.624952       -17.0058
 147   2.0000      -0.621236       -16.9047
 148   2.0000      -0.611331       -16.6352
 149   2.0000      -0.608564       -16.5599
 150   2.0000      -0.606334       -16.4992
 151   2.0000      -0.604310       -16.4441
 152   2.0000      -0.603141       -16.4123
 153   2.0000      -0.600870       -16.3505
 154   2.0000      -0.593433       -16.1481
 155   2.0000      -0.591402       -16.0929
 156   2.0000      -0.585686       -15.9373
 157   2.0000      -0.582875       -15.8608
 158   2.0000      -0.576605       -15.6902
 159   2.0000      -0.567786       -15.4502
 160   2.0000      -0.563665       -15.3381
 161   2.0000      -0.560438       -15.2503
 162   2.0000      -0.556548       -15.1444
 163   2.0000      -0.553074       -15.0499
 164   2.0000      -0.551556       -15.0086
 165   2.0000      -0.550623       -14.9832
 166   2.0000      -0.546946       -14.8832
 167   2.0000      -0.546118       -14.8606
 168   2.0000      -0.543078       -14.7779
 169   2.0000      -0.541805       -14.7433
 170   2.0000      -0.539866       -14.6905
 171   2.0000      -0.537273       -14.6199
 172   2.0000      -0.533748       -14.5240
 173   2.0000      -0.532309       -14.4849
 174   2.0000      -0.530845       -14.4450
 175   2.0000      -0.528894       -14.3919
 176   2.0000      -0.521535       -14.1917
 177   2.0000      -0.519154       -14.1269
 178   2.0000      -0.518287       -14.1033
 179   2.0000      -0.517193       -14.0735
 180   2.0000      -0.514096       -13.9893
 181   2.0000      -0.513321       -13.9682
 182   2.0000      -0.511345       -13.9144
 183   2.0000      -0.509210       -13.8563
 184   2.0000      -0.507348       -13.8056
 185   2.0000      -0.504814       -13.7367
 186   2.0000      -0.499403       -13.5894
 187   2.0000      -0.497071       -13.5260
 188   2.0000      -0.495977       -13.4962
 189   2.0000      -0.494320       -13.4511
 190   2.0000      -0.491853       -13.3840
 191   2.0000      -0.490062       -13.3353
 192   2.0000      -0.488481       -13.2922
 193   2.0000      -0.487566       -13.2674
 194   2.0000      -0.485563       -13.2129
 195   2.0000      -0.484208       -13.1760
 196   2.0000      -0.480316       -13.0701
 197   2.0000      -0.476781       -12.9739
 198   2.0000      -0.471170       -12.8212
 199   2.0000      -0.466709       -12.6998
 200   2.0000      -0.463507       -12.6127
 201   2.0000      -0.460767       -12.5381
 202   2.0000      -0.457553       -12.4506
 203   2.0000      -0.450478       -12.2581
 204   2.0000      -0.449317       -12.2265
 205   2.0000      -0.444588       -12.0978
 206   2.0000      -0.444322       -12.0906
 207   2.0000      -0.440990       -12.0000
 208   2.0000      -0.440753       -11.9935
 209   2.0000      -0.439895       -11.9702
 210   2.0000      -0.439100       -11.9485
 211   2.0000      -0.436639       -11.8816
 212   2.0000      -0.435094       -11.8395
 213   2.0000      -0.431882       -11.7521
 214   2.0000      -0.430081       -11.7031
 215   2.0000      -0.429188       -11.6788
 216   2.0000      -0.428900       -11.6710
 217   2.0000      -0.425771       -11.5858
 218   2.0000      -0.424053       -11.5391
 219   2.0000      -0.420237       -11.4352
 220   2.0000      -0.417798       -11.3689
 221   2.0000      -0.417648       -11.3648
 222   2.0000      -0.415590       -11.3088
 223   2.0000      -0.407755       -11.0956
 224   2.0000      -0.407072       -11.0770
 225   2.0000      -0.402973       -10.9655
 226   2.0000      -0.397609       -10.8195
 227   2.0000      -0.393343       -10.7034
 228   2.0000      -0.389435       -10.5971
 229   2.0000      -0.382871       -10.4184
 230   2.0000      -0.381710       -10.3869
 231   2.0000      -0.378416       -10.2972
 232   2.0000      -0.375327       -10.2132
 233   2.0000      -0.372242       -10.1292
 234   2.0000      -0.366740        -9.9795
 235   2.0000      -0.360530        -9.8105
 236   2.0000      -0.347995        -9.4694
 237   2.0000      -0.341619        -9.2959
 238   2.0000      -0.339997        -9.2518
 239   2.0000      -0.336369        -9.1531
 240   2.0000      -0.333079        -9.0635
 241   2.0000      -0.326607        -8.8874
 242   2.0000      -0.314840        -8.5672
 243   2.0000      -0.314019        -8.5449
 244   2.0000      -0.302040        -8.2189
 245   2.0000      -0.297301        -8.0900
 246   2.0000      -0.290025        -7.8920
 247   2.0000      -0.288675        -7.8552
 248   2.0000      -0.267720        -7.2850
 249   0.0000      -0.097916        -2.6644
 250   0.0000      -0.089049        -2.4231
 251   0.0000      -0.058769        -1.5992
 252   0.0000      -0.054172        -1.4741
 253   0.0000      -0.045418        -1.2359

MULLIKEN ATOMIC CHARGES
-----------------------
   0 C :    0.282780
   1 C :   -0.297608
   2 C :   -0.184744
   3 N :    0.158813
   4 C :   -0.181811
   5 N :    0.162539
   6 C :    0.041501
   7 C :    0.004016
   8 C :   -0.075471
   9 C :    0.092899
  10 C :    0.094715
  11 C :   -0.077673
  12 C :   -0.016033
  13 C :    0.035145
  14 C :    0.035459
  15 C :   -0.013881
  16 C :    0.138862
  17 O :   -0.132084
  18 C :   -0.104359
  19 C :    0.091966
  20 C :   -0.112920
  21 S :    0.123098
  22 C :   -0.073491
  23 N :   -0.039210
  24 N :   -0.049884
  25 C :    0.081760
  26 C :   -0.065542
  27 C :    0.123851
  28 C :   -0.312675
  29 C :    0.544151
  30 F :   -0.157198
  31 F :   -0.160746
  32 F :   -0.162059
  33 S :    0.127166
  34 C :   -0.022306
  35 O :   -0.273686
  36 C :    0.166502
  37 C :    0.110985
  38 C :   -0.006623
  39 C :   -0.007930
  40 C :    0.116714
  41 C :   -0.032917
  42 C :    0.120621
  43 N :    0.226367
  44 O :   -0.237628
  45 O :   -0.212154
  46 C :    0.058138
  47 C :   -0.011829
  48 C :    0.001986
  49 C :    0.039323
  50 C :   -0.006959
  51 C :    0.006420
  52 C :   -0.088317
  53 C :    0.274356
  54 C :   -0.338636
  55 C :   -0.183057
  56 N :    0.149866
  57 C :   -0.206533
  58 N :    0.166098
  59 C :    0.056334
  60 C :    0.006978
  61 C :    0.160166
  62 O :   -0.147627
  63 C :   -0.083825
  64 C :    0.097150
  65 C :    0.098361
  66 C :   -0.085853
  67 C :   -0.019734
  68 C :    0.037361
  69 C :    0.036916
  70 C :   -0.016819
  71 H :   -0.009403
  72 H :   -0.002268
  73 H :   -0.008612
  74 H :   -0.003060
  75 H :   -0.003768
  76 H :   -0.016600
  77 H :    0.031182
  78 H :    0.024028
  79 H :    0.027392
  80 H :    0.056524
  81 H :    0.043012
  82 H :    0.042653
  83 H :   -0.024068
  84 H :   -0.008248
  85 H :   -0.010251
  86 H :   -0.010451
  87 H :   -0.015485
  88 H :    0.037661
  89 H :    0.008575
  90 H :    0.029423
  91 H :   -0.011792
  92 H :   -0.006669
  93 H :   -0.010073
  94 H :   -0.005717
  95 H :   -0.006206
  96 H :   -0.017322
Sum of atomic charges:   -0.0000000

LOEWDIN ATOMIC CHARGES
----------------------
   0 C :    0.071921
   1 C :   -0.111464
   2 C :   -0.015603
   3 N :   -0.045640
   4 C :   -0.015382
   5 N :   -0.052113
   6 C :   -0.019865
   7 C :   -0.059352
   8 C :    0.035243
   9 C :   -0.008874
  10 C :   -0.003485
  11 C :    0.018642
  12 C :   -0.005653
  13 C :   -0.011419
  14 C :   -0.012462
  15 C :   -0.008400
  16 C :    0.085169
  17 O :   -0.132251
  18 C :   -0.047178
  19 C :    0.029262
  20 C :   -0.156699
  21 S :    0.416936
  22 C :   -0.130640
  23 N :   -0.063911
  24 N :   -0.060581
  25 C :   -0.018913
  26 C :   -0.011403
  27 C :   -0.020075
  28 C :   -0.264602
  29 C :    0.151506
  30 F :   -0.056352
  31 F :   -0.061196
  32 F :   -0.065881
  33 S :    0.452364
  34 C :   -0.078252
  35 O :   -0.073667
  36 C :    0.071736
  37 C :   -0.100071
  38 C :   -0.008457
  39 C :   -0.026422
  40 C :   -0.012131
  41 C :    0.007800
  42 C :   -0.015204
  43 N :    0.280678
  44 O :   -0.205143
  45 O :   -0.184821
  46 C :   -0.018008
  47 C :    0.001959
  48 C :   -0.001108
  49 C :    0.046293
  50 C :   -0.041355
  51 C :    0.067228
  52 C :   -0.081507
  53 C :    0.077430
  54 C :   -0.138256
  55 C :   -0.017495
  56 N :   -0.053386
  57 C :   -0.026332
  58 N :   -0.050434
  59 C :   -0.025974
  60 C :   -0.052755
  61 C :    0.088260
  62 O :   -0.128982
  63 C :    0.031641
  64 C :   -0.007598
  65 C :   -0.006386
  66 C :    0.019546
  67 C :   -0.005769
  68 C :   -0.013966
  69 C :   -0.012493
  70 C :   -0.009519
  71 H :    0.040102
  72 H :    0.039992
  73 H :    0.035085
  74 H :    0.033717
  75 H :    0.033182
  76 H :    0.032210
  77 H :    0.050636
  78 H :    0.044911
  79 H :    0.027071
  80 H :    0.036748
  81 H :    0.020441
  82 H :    0.020368
  83 H :    0.027307
  84 H :    0.026780
  85 H :    0.035376
  86 H :    0.036451
  87 H :    0.032401
  88 H :    0.038363
  89 H :    0.032819
  90 H :    0.047481
  91 H :    0.039289
  92 H :    0.038889
  93 H :    0.034404
  94 H :    0.032804
  95 H :    0.032504
  96 H :    0.031941

  Mayer bond orders larger than 0.100000
B(  0-C ,  1-C ) :   1.7016 B(  0-C ,  6-C ) :   1.0060 B(  0-C , 18-C ) :   1.0044
B(  1-C ,  2-C ) :   1.1386 B(  1-C ,  4-C ) :   1.1521 B(  2-C ,  3-N ) :   2.9892
B(  4-C ,  5-N ) :   3.0069 B(  6-C ,  7-C ) :   1.2105 B(  6-C , 11-C ) :   1.4543
B(  7-C ,  8-C ) :   1.4702 B(  7-C , 16-C ) :   0.9231 B(  8-C ,  9-C ) :   1.1929
B(  8-C , 71-H ) :   1.0148 B(  9-C , 10-C ) :   1.2526 B(  9-C , 15-C ) :   1.2434
B( 10-C , 11-C ) :   1.2094 B( 10-C , 12-C ) :   1.2392 B( 11-C , 72-H ) :   0.9939
B( 12-C , 13-C ) :   1.4921 B( 12-C , 73-H ) :   0.9977 B( 13-C , 14-C ) :   1.2574
B( 13-C , 74-H ) :   0.9889 B( 14-C , 15-C ) :   1.4931 B( 14-C , 75-H ) :   0.9886
B( 15-C , 76-H ) :   0.9973 B( 16-C , 17-O ) :   2.2870 B( 16-C , 18-C ) :   0.9190
B( 18-C , 19-C ) :   1.7666 B( 19-C , 20-C ) :   1.0442 B( 19-C , 77-H ) :   0.9362
B( 20-C , 21-S ) :   1.1043 B( 20-C , 24-N ) :   1.6388 B( 21-S , 22-C ) :   1.1054
B( 21-S , 24-N ) :   0.1042 B( 22-C , 23-N ) :   1.6639 B( 22-C , 25-C ) :   1.1098
B( 23-N , 24-N ) :   1.2369 B( 25-C , 26-C ) :   1.7311 B( 25-C , 78-H ) :   0.9700
B( 26-C , 27-C ) :   1.0612 B( 26-C , 79-H ) :   0.9420 B( 27-C , 28-C ) :   1.5813
B( 27-C , 37-C ) :   1.2192 B( 28-C , 29-C ) :   0.9682 B( 28-C , 33-S ) :   1.0795
B( 29-C , 30-F ) :   1.1640 B( 29-C , 31-F ) :   1.1626 B( 29-C , 32-F ) :   1.1467
B( 33-S , 34-C ) :   1.1333 B( 34-C , 35-O ) :   1.1739 B( 34-C , 37-C ) :   1.4298
B( 35-O , 36-C ) :   0.9314 B( 36-C , 80-H ) :   0.9807 B( 36-C , 81-H ) :   0.9657
B( 36-C , 82-H ) :   0.9664 B( 37-C , 38-C ) :   1.1050 B( 38-C , 39-C ) :   1.7299
B( 38-C , 83-H ) :   0.9520 B( 39-C , 40-C ) :   1.0435 B( 39-C , 84-H ) :   0.9782
B( 40-C , 41-C ) :   1.3067 B( 40-C , 48-C ) :   1.3307 B( 41-C , 42-C ) :   1.4098
B( 41-C , 85-H ) :   0.9854 B( 42-C , 43-N ) :   0.8559 B( 42-C , 46-C ) :   1.3636
B( 43-N , 44-O ) :   1.5302 B( 43-N , 45-O ) :   1.5574 B( 44-O , 45-O ) :   0.2722
B( 46-C , 47-C ) :   1.3447 B( 46-C , 49-C ) :   1.0511 B( 47-C , 48-C ) :   1.3821
B( 47-C , 86-H ) :   0.9939 B( 48-C , 87-H ) :   1.0012 B( 49-C , 50-C ) :   1.7213
B( 49-C , 88-H ) :   0.9379 B( 50-C , 51-C ) :   1.1860 B( 50-C , 89-H ) :   0.9537
B( 51-C , 52-C ) :   1.6459 B( 51-C , 90-H ) :   0.9468 B( 52-C , 53-C ) :   1.0429
B( 52-C , 61-C ) :   0.9284 B( 53-C , 54-C ) :   1.6599 B( 53-C , 59-C ) :   0.9966
B( 54-C , 55-C ) :   1.1400 B( 54-C , 57-C ) :   1.1341 B( 55-C , 56-N ) :   2.9784
B( 57-C , 58-N ) :   3.0165 B( 59-C , 60-C ) :   1.2137 B( 59-C , 66-C ) :   1.4502
B( 60-C , 61-C ) :   0.9494 B( 60-C , 63-C ) :   1.4743 B( 61-C , 62-O ) :   2.1884
B( 63-C , 64-C ) :   1.1807 B( 63-C , 91-H ) :   1.0165 B( 64-C , 65-C ) :   1.2558
B( 64-C , 70-C ) :   1.2459 B( 65-C , 66-C ) :   1.2076 B( 65-C , 67-C ) :   1.2385
B( 66-C , 92-H ) :   0.9924 B( 67-C , 68-C ) :   1.4898 B( 67-C , 93-H ) :   0.9976
B( 68-C , 69-C ) :   1.2600 B( 68-C , 94-H ) :   0.9885 B( 69-C , 70-C ) :   1.4887
B( 69-C , 95-H ) :   0.9886 B( 70-C , 96-H ) :   0.9977

-----------------------------------------------------------------------------
         ABSORPTION SPECTRUM VIA TRANSITION ELECTRIC DIPOLE MOMENTS
-----------------------------------------------------------------------------
State   Energy  Wavelength   fosc         T2         TX        TY        TZ
        (cm-1)    (nm)                  (au**2)     (au)      (au)      (au)
-----------------------------------------------------------------------------
   0   23254.0    430.0   0.850288711  12.03773  -1.05734   2.37346  -2.29923
   1   24099.8    414.9   0.246161391   3.36265   1.21137  -1.36819  -0.15262
   2   25005.4    399.9   0.073668960   0.96990  -0.22130   0.67981   0.67733
   3   25931.1    385.6   0.254779839   3.23460  -0.94492   1.21920   0.92481
   4   26609.8    375.8   0.116963923   1.44706   0.45585  -0.60050  -0.93737
   5   27248.4    367.0   0.186613331   2.25464   1.14367  -0.97256   0.02788
   6   28213.1    354.4   0.040955420   0.47790   0.15383  -0.16654   0.65307
   7   28244.3    354.1   0.021828713   0.25443  -0.02048  -0.48888  -0.12253
   8   29303.4    341.3   0.008723906   0.09801   0.23953   0.11380   0.16639
   9   29423.8    339.9   0.011955932   0.13377   0.17797  -0.07228  -0.31124
  10   30208.2    331.0   0.051985541   0.56654  -0.04144  -0.64590   0.38424
  11   30807.7    324.6   0.081813532   0.87426   0.85802  -0.04670  -0.36862
  12   32287.0    309.7   0.083972867   0.85622  -0.24205   0.21356   0.86720
  13   32927.8    303.7   0.438500634   4.38413   1.07281   0.14261   1.79245
  14   33076.6    302.3   0.933953381   9.29564   1.19299  -2.25432  -1.67047
  15   33608.1    297.5   0.409456897   4.01089   0.37758  -1.39709  -1.38436
  16   34241.5    292.0   0.056710182   0.54523   0.58068  -0.09722  -0.44564
  17   34332.4    291.3   0.586892612   5.62770   2.02706  -0.78152  -0.95286
  18   34397.7    290.7   0.073313569   0.70167  -0.28276  -0.77911  -0.12127
  19   34650.4    288.6   0.019882290   0.18890   0.42802  -0.00180  -0.07549
  20   34765.5    287.6   0.164314137   1.55597   0.23073   0.77432  -0.95035
  21   35109.6    284.8   0.246286646   2.30935   0.73769  -0.69069  -1.13495
  22   35339.3    283.0   0.247342097   2.30418   0.31271  -1.28895   0.73824
  23   35767.8    279.6   0.002474091   0.02277  -0.10742  -0.08872   0.05797
  24   36144.0    276.7   0.183050180   1.66728   0.81409  -0.39326  -0.92190
  25   36717.5    272.3   0.119502148   1.07146   0.39167  -0.86653   0.40888
  26   36877.7    271.2   0.022498975   0.20085  -0.31122   0.06824  -0.31518
  27   37310.5    268.0   0.142097706   1.25381  -0.31309   0.84795   0.66088
  28   37417.8    267.3   0.023850362   0.20984   0.15965  -0.03695  -0.42777
  29   37788.4    264.6   0.067889522   0.59145  -0.28094   0.58721   0.40952
  30   38726.9    258.2   0.022019037   0.18718   0.13677  -0.39473  -0.11254
  31   39000.9    256.4   0.147522805   1.24526  -1.03919   0.22111   0.34127
  32   39336.7    254.2   0.116830718   0.97777   0.31845   0.72166  -0.59629
  33   39434.6    253.6   0.013977201   0.11669   0.10994  -0.27508   0.17009
  34   39613.6    252.4   0.108348794   0.90044  -0.80505  -0.21691   0.45309
  35   40153.0    249.0   0.012301402   0.10086   0.09194   0.11691  -0.28060
  36   40305.4    248.1   0.083647353   0.68323   0.01641   0.79349  -0.23094

FINAL SINGLE POINT ENERGY     -3924.362567424981

DIPOLE MOMENT
-------------
                                X             Y             Z
Electronic contribution:    -35.38892      33.47785     -16.79229
Nuclear contribution   :     36.02556     -31.95825      15.58123
                        -----------------------------------------
Total Dipole Moment    :      0.63664       1.51961      -1.21106
                        -----------------------------------------
Magnitude (a.u.)       :      2.04479
Magnitude (Debye)      :      5.19745

Rotational constants in cm-1:     0.000743     0.000428     0.000290
Rotational constants in MHz :    22.261605    12.825041     8.703767

                             ****ORCA TERMINATED NORMALLY****
TOTAL RUN TIME: 0 days 0 hours 8 minutes 31 seconds 901 msec
