                         Program Version 4.2.0 -  RELEASE  -
|  1> # ORCA input file
|  2> # SCF done       -204.439020666531          0.000961038538
|  3> ! CAM-B3LYP def2-SVP def2/J RIJCOSX Grid4 TightSCF
|  4> %maxcore 5000
|  5> %tddft
|  6>     Mode sTDDFT
|  7>     Ethresh 5.0
|  8>     maxcore 5000
|  9> end
| 10>
| 11> %pal
| 12>   nprocs 6
| 13>   end
| 14> * xyz 0 1
| 15>    C        1.46995         2.22491         1.84227
| 16>    C        0.24504         2.62665         2.30275
| 17>    C       -0.03759         2.87972         3.66147
| 18>    N       -0.31068         3.12868         4.74808
| 19>    C       -0.90266         2.76026         1.49421
| 20>    N       -1.88148         2.83061         0.89896
| 21>    C        2.59402         1.81812         2.67655
| 22>    C        3.48694         1.03256         1.88885
| 23>    C        4.60963         0.46893         2.42420
| 24>    C        4.89956         0.67418         3.79154
| 25>    C        4.02061         1.47262         4.58014
| 26>    C        2.86404         2.04170         4.00071
| 27>    C        4.32273         1.67212         5.94274
| 28>    C        5.43613         1.10726         6.50247
| 29>    C        6.30006         0.32040         5.72582
| 30>    C        6.03783         0.10870         4.39944
| 31>    C        2.99077         0.96834         0.50469
| 32>    O        3.44894         0.35633        -0.43049
| 33>    C        1.80670         1.88403         0.46961
| 34>    C        1.32444         2.30039        -0.72108
| 35>    C        0.42445         3.39548        -0.99348
| 36>    C       -0.48266         3.29997        -2.04449
| 37>    C       -1.39092         4.31507        -2.29150
| 38>    N       -2.36762         4.06207        -3.31441
| 39>    O       -2.05670         3.27745        -4.19020
| 40>    O       -3.44507         4.61059        -3.24542
| 41>    C       -1.39162         5.50993        -1.54512
| 42>    C       -0.42044         5.61189        -0.53496
| 43>    C        0.44676         4.58648        -0.25181
| 44>    C       -2.27177         6.60941        -1.83912
| 45>    C       -2.67296         7.51359        -0.91637
| 46>    C       -3.50845         8.61585        -1.24168
| 47>    N       -3.99456         9.50621        -0.30971
| 48>    C       -3.83484         9.43206         1.12148
| 49>    C       -4.73744         8.36783         1.74157
| 50>    C       -4.78167        10.51426        -0.90246
| 51>    O       -5.30135        11.41694        -0.27888
| 52>    C       -4.75378        10.19294        -2.30941
| 53>    C       -3.96415         9.03113        -2.48796
| 54>    C       -3.93727         8.74448        -3.90579
| 55>    O       -3.35358         7.89716        -4.54876
| 56>    N       -4.75401         9.73896        -4.48773
| 57>    C       -4.92498         9.76190        -5.91902
| 58>    C       -4.09603        10.86230        -6.57617
| 59>    C       -5.23532        10.61312        -3.54492
| 60>    C       -6.07502        11.76041        -3.67624
| 61>    C       -6.74612        12.21892        -4.74951
| 62>    C       -7.57779        13.40236        -4.70838
| 63>    C       -7.28695        14.51925        -3.97398
| 64>    S       -8.41710        15.78901        -4.20455
| 65>    C       -9.32120        14.83707        -5.29193
| 66>    C       -8.77970        13.59315        -5.47432
| 67>    C       -9.47212        12.58363        -6.28067
| 68>    O      -10.36146        12.79249        -7.06339
| 69>    O       -8.99554        11.33920        -6.00197
| 70>    C       -9.52666        10.24681        -6.60011
| 71>    C       -8.98833         9.04571        -6.33405
| 72>    C       -9.45578         7.83630        -6.91733
| 73>    C       -8.83892         6.63620        -6.75394
| 74>    C       -9.25578         5.35739        -7.30959
| 75>    C      -10.44068         5.08824        -7.94231
| 76>    C      -10.80133         3.82071        -8.44717
| 77>    N      -11.16151         2.82159        -8.88311
| 78>    C      -11.48113         6.01446        -8.16468
| 79>    N      -12.37596         6.70220        -8.37820
| 80>    C       -8.20126         4.39287        -7.03573
| 81>    C       -7.18116         5.02688        -6.26612
| 82>    C       -7.54603         6.43001        -6.03317
| 83>    O       -6.91340         7.25694        -5.40891
| 84>    C       -6.05654         4.35922        -5.86807
| 85>    C       -5.89704         3.00471        -6.23970
| 86>    C       -6.91561         2.36214        -7.00321
| 87>    C       -8.06959         3.07666        -7.39385
| 88>    C       -6.74681         1.00987        -7.36405
| 89>    C       -5.62265         0.32267        -6.99412
| 90>    C       -4.61670         0.95842        -6.25167
| 91>    C       -4.75023         2.26985        -5.88212
| 92>    H        5.26730        -0.12996         1.81198
| 93>    H        2.22078         2.64865         4.61862
| 94>    H        3.65262         2.27539         6.53739
| 95>    H        5.65697         1.26274         7.54774
| 96>    H        7.17414        -0.11735         6.18399
| 97>    H        6.69908        -0.49649         3.79687
| 98>    H        1.69927         1.76267        -1.58671
| 99>    H       -0.52901         2.40386        -2.64576
|100>    H       -0.34555         6.53343         0.02068
|101>    H        1.18308         4.70920         0.52944
|102>    H       -2.64504         6.70571        -2.85039
|103>    H       -2.39052         7.39522         0.12024
|104>    H       -4.11379        10.41811         1.50430
|105>    H       -2.78516         9.24494         1.36755
|106>    H       -5.77842         8.59653         1.52753
|107>    H       -4.59987         8.34974         2.81923
|108>    H       -4.51258         7.38121         1.34240
|109>    H       -5.98421         9.85595        -6.16467
|110>    H       -4.58456         8.78300        -6.26880
|111>    H       -4.36593        11.84282        -6.18945
|112>    H       -4.25682        10.85245        -7.65083
|113>    H       -3.03915        10.69469        -6.38303
|114>    H       -6.19658        12.27838        -2.73249
|115>    H       -6.71497        11.70672        -5.69657
|116>    H       -6.44281        14.67289        -3.33175
|117>    H      -10.22173        15.21173        -5.73687
|118>    H      -10.35851        10.41907        -7.27399
|119>    H       -8.15705         8.98576        -5.64696
|120>    H      -10.34183         7.90665        -7.53421
|121>    H       -5.30022         4.85421        -5.27638
|122>    H       -8.81922         2.56527        -7.97662
|123>    H       -7.52376         0.52825        -7.93992
|124>    H       -5.50248        -0.71311        -7.27556
|125>    H       -3.73104         0.40728        -5.97356
|126>    H       -3.97107         2.75868        -5.32051
|127> *
|128>
|129>                          ****END OF INPUT****

CARTESIAN COORDINATES (ANGSTROEM)
---------------------------------
  C      1.469950    2.224910    1.842270
  C      0.245040    2.626650    2.302750
  C     -0.037590    2.879720    3.661470
  N     -0.310680    3.128680    4.748080
  C     -0.902660    2.760260    1.494210
  N     -1.881480    2.830610    0.898960
  C      2.594020    1.818120    2.676550
  C      3.486940    1.032560    1.888850
  C      4.609630    0.468930    2.424200
  C      4.899560    0.674180    3.791540
  C      4.020610    1.472620    4.580140
  C      2.864040    2.041700    4.000710
  C      4.322730    1.672120    5.942740
  C      5.436130    1.107260    6.502470
  C      6.300060    0.320400    5.725820
  C      6.037830    0.108700    4.399440
  C      2.990770    0.968340    0.504690
  O      3.448940    0.356330   -0.430490
  C      1.806700    1.884030    0.469610
  C      1.324440    2.300390   -0.721080
  C      0.424450    3.395480   -0.993480
  C     -0.482660    3.299970   -2.044490
  C     -1.390920    4.315070   -2.291500
  N     -2.367620    4.062070   -3.314410
  O     -2.056700    3.277450   -4.190200
  O     -3.445070    4.610590   -3.245420
  C     -1.391620    5.509930   -1.545120
  C     -0.420440    5.611890   -0.534960
  C      0.446760    4.586480   -0.251810
  C     -2.271770    6.609410   -1.839120
  C     -2.672960    7.513590   -0.916370
  C     -3.508450    8.615850   -1.241680
  N     -3.994560    9.506210   -0.309710
  C     -3.834840    9.432060    1.121480
  C     -4.737440    8.367830    1.741570
  C     -4.781670   10.514260   -0.902460
  O     -5.301350   11.416940   -0.278880
  C     -4.753780   10.192940   -2.309410
  C     -3.964150    9.031130   -2.487960
  C     -3.937270    8.744480   -3.905790
  O     -3.353580    7.897160   -4.548760
  N     -4.754010    9.738960   -4.487730
  C     -4.924980    9.761900   -5.919020
  C     -4.096030   10.862300   -6.576170
  C     -5.235320   10.613120   -3.544920
  C     -6.075020   11.760410   -3.676240
  C     -6.746120   12.218920   -4.749510
  C     -7.577790   13.402360   -4.708380
  C     -7.286950   14.519250   -3.973980
  S     -8.417100   15.789010   -4.204550
  C     -9.321200   14.837070   -5.291930
  C     -8.779700   13.593150   -5.474320
  C     -9.472120   12.583630   -6.280670
  O    -10.361460   12.792490   -7.063390
  O     -8.995540   11.339200   -6.001970
  C     -9.526660   10.246810   -6.600110
  C     -8.988330    9.045710   -6.334050
  C     -9.455780    7.836300   -6.917330
  C     -8.838920    6.636200   -6.753940
  C     -9.255780    5.357390   -7.309590
  C    -10.440680    5.088240   -7.942310
  C    -10.801330    3.820710   -8.447170
  N    -11.161510    2.821590   -8.883110
  C    -11.481130    6.014460   -8.164680
  N    -12.375960    6.702200   -8.378200
  C     -8.201260    4.392870   -7.035730
  C     -7.181160    5.026880   -6.266120
  C     -7.546030    6.430010   -6.033170
  O     -6.913400    7.256940   -5.408910
  C     -6.056540    4.359220   -5.868070
  C     -5.897040    3.004710   -6.239700
  C     -6.915610    2.362140   -7.003210
  C     -8.069590    3.076660   -7.393850
  C     -6.746810    1.009870   -7.364050
  C     -5.622650    0.322670   -6.994120
  C     -4.616700    0.958420   -6.251670
  C     -4.750230    2.269850   -5.882120
  H      5.267300   -0.129960    1.811980
  H      2.220780    2.648650    4.618620
  H      3.652620    2.275390    6.537390
  H      5.656970    1.262740    7.547740
  H      7.174140   -0.117350    6.183990
  H      6.699080   -0.496490    3.796870
  H      1.699270    1.762670   -1.586710
  H     -0.529010    2.403860   -2.645760
  H     -0.345550    6.533430    0.020680
  H      1.183080    4.709200    0.529440
  H     -2.645040    6.705710   -2.850390
  H     -2.390520    7.395220    0.120240
  H     -4.113790   10.418110    1.504300
  H     -2.785160    9.244940    1.367550
  H     -5.778420    8.596530    1.527530
  H     -4.599870    8.349740    2.819230
  H     -4.512580    7.381210    1.342400
  H     -5.984210    9.855950   -6.164670
  H     -4.584560    8.783000   -6.268800
  H     -4.365930   11.842820   -6.189450
  H     -4.256820   10.852450   -7.650830
  H     -3.039150   10.694690   -6.383030
  H     -6.196580   12.278380   -2.732490
  H     -6.714970   11.706720   -5.696570
  H     -6.442810   14.672890   -3.331750
  H    -10.221730   15.211730   -5.736870
  H    -10.358510   10.419070   -7.273990
  H     -8.157050    8.985760   -5.646960
  H    -10.341830    7.906650   -7.534210
  H     -5.300220    4.854210   -5.276380
  H     -8.819220    2.565270   -7.976620
  H     -7.523760    0.528250   -7.939920
  H     -5.502480   -0.713110   -7.275560
  H     -3.731040    0.407280   -5.973560
  H     -3.971070    2.758680   -5.320510

 Total Charge           Charge          ....    0
 Multiplicity           Mult            ....    1
 Number of Electrons    NEL             ....  530
 Basis Dimension        Dim             .... 1257

ORBITAL ENERGIES
----------------

  NO   OCC          E(Eh)            E(eV)
   0   2.0000     -88.977083     -2421.1895
   1   2.0000     -19.297927      -525.1233
   2   2.0000     -19.259787      -524.0854
   3   2.0000     -19.256107      -523.9853
   4   2.0000     -19.226511      -523.1799
   5   2.0000     -19.224391      -523.1223
   6   2.0000     -19.209459      -522.7160
   7   2.0000     -19.188912      -522.1568
   8   2.0000     -19.183049      -521.9973
   9   2.0000     -14.661565      -398.9615
  10   2.0000     -14.448462      -393.1626
  11   2.0000     -14.448359      -393.1598
  12   2.0000     -14.428055      -392.6073
  13   2.0000     -14.426136      -392.5551
  14   2.0000     -14.408776      -392.0827
  15   2.0000     -14.405934      -392.0054
  16   2.0000     -10.424616      -283.6682
  17   2.0000     -10.377356      -282.3822
  18   2.0000     -10.370261      -282.1891
  19   2.0000     -10.367574      -282.1160
  20   2.0000     -10.360034      -281.9109
  21   2.0000     -10.359897      -281.9071
  22   2.0000     -10.357057      -281.8298
  23   2.0000     -10.354694      -281.7655
  24   2.0000     -10.344459      -281.4870
  25   2.0000     -10.335937      -281.2551
  26   2.0000     -10.334867      -281.2260
  27   2.0000     -10.332982      -281.1747
  28   2.0000     -10.331652      -281.1385
  29   2.0000     -10.330097      -281.0962
  30   2.0000     -10.329043      -281.0676
  31   2.0000     -10.327844      -281.0349
  32   2.0000     -10.324640      -280.9477
  33   2.0000     -10.317234      -280.7462
  34   2.0000     -10.315702      -280.7045
  35   2.0000     -10.315066      -280.6872
  36   2.0000     -10.313461      -280.6436
  37   2.0000     -10.312914      -280.6287
  38   2.0000     -10.312229      -280.6100
  39   2.0000     -10.311712      -280.5959
  40   2.0000     -10.311307      -280.5849
  41   2.0000     -10.309013      -280.5225
  42   2.0000     -10.308208      -280.5006
  43   2.0000     -10.307977      -280.4943
  44   2.0000     -10.307784      -280.4891
  45   2.0000     -10.307524      -280.4820
  46   2.0000     -10.306904      -280.4651
  47   2.0000     -10.306330      -280.4495
  48   2.0000     -10.304618      -280.4029
  49   2.0000     -10.300370      -280.2873
  50   2.0000     -10.299815      -280.2722
  51   2.0000     -10.298970      -280.2492
  52   2.0000     -10.297350      -280.2052
  53   2.0000     -10.297090      -280.1981
  54   2.0000     -10.295533      -280.1557
  55   2.0000     -10.295149      -280.1453
  56   2.0000     -10.294926      -280.1392
  57   2.0000     -10.294620      -280.1308
  58   2.0000     -10.294544      -280.1288
  59   2.0000     -10.294002      -280.1140
  60   2.0000     -10.291531      -280.0468
  61   2.0000     -10.290644      -280.0227
  62   2.0000     -10.286793      -279.9179
  63   2.0000     -10.284381      -279.8522
  64   2.0000     -10.283538      -279.8293
  65   2.0000     -10.281391      -279.7709
  66   2.0000     -10.281337      -279.7694
  67   2.0000     -10.281000      -279.7602
  68   2.0000     -10.275279      -279.6046
  69   2.0000     -10.272209      -279.5210
  70   2.0000     -10.271262      -279.4952
  71   2.0000     -10.269272      -279.4411
  72   2.0000     -10.263623      -279.2874
  73   2.0000     -10.260853      -279.2120
  74   2.0000     -10.257609      -279.1237
  75   2.0000     -10.257332      -279.1162
  76   2.0000     -10.254440      -279.0375
  77   2.0000      -8.073306      -219.6858
  78   2.0000      -6.042373      -164.4213
  79   2.0000      -6.037915      -164.3000
  80   2.0000      -6.036111      -164.2509
  81   2.0000      -1.337929       -36.4069
  82   2.0000      -1.225954       -33.3599
  83   2.0000      -1.155462       -31.4417
  84   2.0000      -1.141994       -31.0752
  85   2.0000      -1.128627       -30.7115
  86   2.0000      -1.126950       -30.6659
  87   2.0000      -1.123479       -30.5714
  88   2.0000      -1.121176       -30.5088
  89   2.0000      -1.058289       -28.7975
  90   2.0000      -1.049693       -28.5636
  91   2.0000      -1.030957       -28.0538
  92   2.0000      -1.009485       -27.4695
  93   2.0000      -1.009373       -27.4664
  94   2.0000      -1.008115       -27.4322
  95   2.0000      -1.002764       -27.2866
  96   2.0000      -1.001711       -27.2579
  97   2.0000      -0.987804       -26.8795
  98   2.0000      -0.985174       -26.8079
  99   2.0000      -0.982079       -26.7237
 100   2.0000      -0.958586       -26.0845
 101   2.0000      -0.942775       -25.6542
 102   2.0000      -0.930326       -25.3155
 103   2.0000      -0.924491       -25.1567
 104   2.0000      -0.923935       -25.1415
 105   2.0000      -0.916003       -24.9257
 106   2.0000      -0.910096       -24.7650
 107   2.0000      -0.907350       -24.6902
 108   2.0000      -0.906002       -24.6536
 109   2.0000      -0.891830       -24.2679
 110   2.0000      -0.885668       -24.1003
 111   2.0000      -0.883947       -24.0534
 112   2.0000      -0.870512       -23.6878
 113   2.0000      -0.867007       -23.5925
 114   2.0000      -0.865015       -23.5383
 115   2.0000      -0.855206       -23.2713
 116   2.0000      -0.840970       -22.8840
 117   2.0000      -0.838577       -22.8188
 118   2.0000      -0.836164       -22.7532
 119   2.0000      -0.816801       -22.2263
 120   2.0000      -0.815737       -22.1973
 121   2.0000      -0.813799       -22.1446
 122   2.0000      -0.805290       -21.9131
 123   2.0000      -0.792779       -21.5726
 124   2.0000      -0.783421       -21.3180
 125   2.0000      -0.773862       -21.0579
 126   2.0000      -0.764939       -20.8151
 127   2.0000      -0.756095       -20.5744
 128   2.0000      -0.751080       -20.4379
 129   2.0000      -0.746414       -20.3110
 130   2.0000      -0.737671       -20.0730
 131   2.0000      -0.726086       -19.7578
 132   2.0000      -0.712976       -19.4011
 133   2.0000      -0.708839       -19.2885
 134   2.0000      -0.706915       -19.2361
 135   2.0000      -0.700212       -19.0537
 136   2.0000      -0.695798       -18.9336
 137   2.0000      -0.692123       -18.8336
 138   2.0000      -0.689135       -18.7523
 139   2.0000      -0.687250       -18.7010
 140   2.0000      -0.682181       -18.5631
 141   2.0000      -0.677310       -18.4305
 142   2.0000      -0.669402       -18.2154
 143   2.0000      -0.667495       -18.1635
 144   2.0000      -0.665589       -18.1116
 145   2.0000      -0.661876       -18.0106
 146   2.0000      -0.654072       -17.7982
 147   2.0000      -0.647721       -17.6254
 148   2.0000      -0.646110       -17.5815
 149   2.0000      -0.644081       -17.5263
 150   2.0000      -0.639058       -17.3897
 151   2.0000      -0.626368       -17.0443
 152   2.0000      -0.622217       -16.9314
 153   2.0000      -0.618011       -16.8169
 154   2.0000      -0.614070       -16.7097
 155   2.0000      -0.610194       -16.6042
 156   2.0000      -0.606698       -16.5091
 157   2.0000      -0.605254       -16.4698
 158   2.0000      -0.598880       -16.2964
 159   2.0000      -0.591231       -16.0882
 160   2.0000      -0.589667       -16.0456
 161   2.0000      -0.584272       -15.8988
 162   2.0000      -0.582745       -15.8573
 163   2.0000      -0.578468       -15.7409
 164   2.0000      -0.575471       -15.6594
 165   2.0000      -0.572650       -15.5826
 166   2.0000      -0.568914       -15.4809
 167   2.0000      -0.564431       -15.3590
 168   2.0000      -0.560132       -15.2420
 169   2.0000      -0.558715       -15.2034
 170   2.0000      -0.556660       -15.1475
 171   2.0000      -0.555319       -15.1110
 172   2.0000      -0.552452       -15.0330
 173   2.0000      -0.548847       -14.9349
 174   2.0000      -0.544189       -14.8081
 175   2.0000      -0.537611       -14.6291
 176   2.0000      -0.535121       -14.5614
 177   2.0000      -0.531553       -14.4643
 178   2.0000      -0.531436       -14.4611
 179   2.0000      -0.528777       -14.3888
 180   2.0000      -0.527778       -14.3616
 181   2.0000      -0.526505       -14.3269
 182   2.0000      -0.525157       -14.2903
 183   2.0000      -0.524461       -14.2713
 184   2.0000      -0.523121       -14.2348
 185   2.0000      -0.521721       -14.1967
 186   2.0000      -0.516817       -14.0633
 187   2.0000      -0.514669       -14.0048
 188   2.0000      -0.511898       -13.9295
 189   2.0000      -0.509552       -13.8656
 190   2.0000      -0.507264       -13.8034
 191   2.0000      -0.505943       -13.7674
 192   2.0000      -0.503553       -13.7024
 193   2.0000      -0.499703       -13.5976
 194   2.0000      -0.498491       -13.5646
 195   2.0000      -0.496184       -13.5018
 196   2.0000      -0.495360       -13.4794
 197   2.0000      -0.491930       -13.3861
 198   2.0000      -0.490870       -13.3572
 199   2.0000      -0.489259       -13.3134
 200   2.0000      -0.487632       -13.2691
 201   2.0000      -0.485464       -13.2102
 202   2.0000      -0.484091       -13.1728
 203   2.0000      -0.482053       -13.1173
 204   2.0000      -0.476159       -12.9570
 205   2.0000      -0.474333       -12.9073
 206   2.0000      -0.469919       -12.7872
 207   2.0000      -0.468354       -12.7446
 208   2.0000      -0.463470       -12.6116
 209   2.0000      -0.461986       -12.5713
 210   2.0000      -0.461280       -12.5521
 211   2.0000      -0.459921       -12.5151
 212   2.0000      -0.456017       -12.4088
 213   2.0000      -0.454729       -12.3738
 214   2.0000      -0.452178       -12.3044
 215   2.0000      -0.451014       -12.2727
 216   2.0000      -0.450087       -12.2475
 217   2.0000      -0.449264       -12.2251
 218   2.0000      -0.446791       -12.1578
 219   2.0000      -0.444556       -12.0970
 220   2.0000      -0.443079       -12.0568
 221   2.0000      -0.442495       -12.0409
 222   2.0000      -0.441462       -12.0128
 223   2.0000      -0.439721       -11.9654
 224   2.0000      -0.437569       -11.9068
 225   2.0000      -0.436337       -11.8733
 226   2.0000      -0.435787       -11.8584
 227   2.0000      -0.430039       -11.7019
 228   2.0000      -0.429645       -11.6912
 229   2.0000      -0.427087       -11.6216
 230   2.0000      -0.425822       -11.5872
 231   2.0000      -0.423224       -11.5165
 232   2.0000      -0.422070       -11.4851
 233   2.0000      -0.419309       -11.4100
 234   2.0000      -0.418944       -11.4000
 235   2.0000      -0.414152       -11.2696
 236   2.0000      -0.412658       -11.2290
 237   2.0000      -0.411615       -11.2006
 238   2.0000      -0.406820       -11.0701
 239   2.0000      -0.400770       -10.9055
 240   2.0000      -0.394529       -10.7357
 241   2.0000      -0.393383       -10.7045
 242   2.0000      -0.389080       -10.5874
 243   2.0000      -0.384699       -10.4682
 244   2.0000      -0.378225       -10.2920
 245   2.0000      -0.377708       -10.2780
 246   2.0000      -0.371448       -10.1076
 247   2.0000      -0.369721       -10.0606
 248   2.0000      -0.358020        -9.7422
 249   2.0000      -0.356352        -9.6968
 250   2.0000      -0.352532        -9.5929
 251   2.0000      -0.345216        -9.3938
 252   2.0000      -0.343528        -9.3479
 253   2.0000      -0.333988        -9.0883
 254   2.0000      -0.327692        -8.9170
 255   2.0000      -0.327357        -8.9078
 256   2.0000      -0.326214        -8.8767
 257   2.0000      -0.312892        -8.5142
 258   2.0000      -0.311330        -8.4717
 259   2.0000      -0.309698        -8.4273
 260   2.0000      -0.305807        -8.3214
 261   2.0000      -0.303103        -8.2479
 262   2.0000      -0.294184        -8.0051
 263   2.0000      -0.277890        -7.5618
 264   2.0000      -0.236544        -6.4367
 265   0.0000      -0.106396        -2.8952
 266   0.0000      -0.083633        -2.2758
 267   0.0000      -0.080040        -2.1780
 268   0.0000      -0.064129        -1.7451
 269   0.0000      -0.054927        -1.4946

MULLIKEN ATOMIC CHARGES
-----------------------
   0 C :    0.265075
   1 C :   -0.339101
   2 C :   -0.179797
   3 N :    0.160860
   4 C :   -0.197524
   5 N :    0.182079
   6 C :    0.035576
   7 C :    0.010982
   8 C :   -0.080531
   9 C :    0.097170
  10 C :    0.096239
  11 C :   -0.082997
  12 C :   -0.019078
  13 C :    0.037524
  14 C :    0.037485
  15 C :   -0.015772
  16 C :    0.138488
  17 O :   -0.133168
  18 C :   -0.111826
  19 C :    0.033688
  20 C :    0.042554
  21 C :   -0.027368
  22 C :    0.147154
  23 N :    0.262605
  24 O :   -0.224284
  25 O :   -0.202776
  26 C :    0.090335
  27 C :   -0.036811
  28 C :    0.052878
  29 C :    0.002720
  30 C :   -0.024705
  31 C :    0.129247
  32 N :   -0.268055
  33 C :    0.099805
  34 C :    0.000583
  35 C :    0.146450
  36 O :   -0.201880
  37 C :   -0.049189
  38 C :   -0.053941
  39 C :    0.183932
  40 O :   -0.207504
  41 N :   -0.264929
  42 C :    0.109837
  43 C :    0.001067
  44 C :    0.117234
  45 C :   -0.045156
  46 C :    0.043543
  47 C :    0.091802
  48 C :   -0.131785
  49 S :    0.157583
  50 C :   -0.090574
  51 C :   -0.005330
  52 C :    0.194867
  53 O :   -0.175356
  54 O :   -0.245496
  55 C :    0.175062
  56 C :   -0.007444
  57 C :   -0.040246
  58 C :   -0.078939
  59 C :    0.332524
  60 C :   -0.355901
  61 C :   -0.182727
  62 N :    0.149274
  63 C :   -0.197756
  64 N :    0.148321
  65 C :    0.044658
  66 C :   -0.001193
  67 C :    0.154493
  68 O :   -0.158071
  69 C :   -0.076356
  70 C :    0.100229
  71 C :    0.093713
  72 C :   -0.091712
  73 C :   -0.024548
  74 C :    0.038440
  75 C :    0.036297
  76 C :   -0.005597
  77 H :   -0.007848
  78 H :   -0.004221
  79 H :   -0.007937
  80 H :   -0.000975
  81 H :   -0.001978
  82 H :   -0.013548
  83 H :    0.033102
  84 H :    0.008787
  85 H :   -0.009143
  86 H :    0.001426
  87 H :    0.036966
  88 H :   -0.019946
  89 H :    0.042125
  90 H :    0.015576
  91 H :    0.031482
  92 H :    0.024112
  93 H :    0.021384
  94 H :    0.018629
  95 H :    0.045518
  96 H :    0.017305
  97 H :    0.020421
  98 H :    0.023614
  99 H :    0.008325
 100 H :   -0.000766
 101 H :    0.040116
 102 H :    0.045913
 103 H :    0.047383
 104 H :    0.052254
 105 H :    0.015902
 106 H :   -0.002008
 107 H :   -0.010680
 108 H :   -0.014118
 109 H :   -0.010152
 110 H :   -0.010080
 111 H :   -0.043886
Sum of atomic charges:   -0.0000000

LOEWDIN ATOMIC CHARGES
----------------------
   0 C :    0.066516
   1 C :   -0.132043
   2 C :   -0.019056
   3 N :   -0.045725
   4 C :   -0.019705
   5 N :   -0.040629
   6 C :   -0.025490
   7 C :   -0.059001
   8 C :    0.036137
   9 C :   -0.007812
  10 C :   -0.004738
  11 C :    0.017905
  12 C :   -0.005498
  13 C :   -0.010114
  14 C :   -0.009639
  15 C :   -0.007865
  16 C :    0.084878
  17 O :   -0.134048
  18 C :   -0.079279
  19 C :    0.076087
  20 C :   -0.040530
  21 C :    0.031215
  22 C :   -0.017391
  23 N :    0.293570
  24 O :   -0.195032
  25 O :   -0.167830
  26 C :    0.013262
  27 C :   -0.001170
  28 C :    0.019675
  29 C :    0.022687
  30 C :   -0.029463
  31 C :    0.072417
  32 N :   -0.005924
  33 C :    0.034826
  34 C :   -0.061173
  35 C :    0.077382
  36 O :   -0.204819
  37 C :   -0.119033
  38 C :   -0.115052
  39 C :    0.090907
  40 O :   -0.190026
  41 N :    0.005755
  42 C :    0.036402
  43 C :   -0.064546
  44 C :    0.079801
  45 C :   -0.031961
  46 C :    0.005164
  47 C :   -0.049421
  48 C :   -0.173990
  49 S :    0.484947
  50 C :   -0.137834
  51 C :   -0.113374
  52 C :    0.105535
  53 O :   -0.154418
  54 O :   -0.029564
  55 C :    0.109827
  56 C :   -0.064790
  57 C :    0.069162
  58 C :   -0.089247
  59 C :    0.077588
  60 C :   -0.141248
  61 C :   -0.016931
  62 N :   -0.055740
  63 C :   -0.020800
  64 N :   -0.056001
  65 C :   -0.028920
  66 C :   -0.062453
  67 C :    0.090701
  68 O :   -0.147471
  69 C :    0.044783
  70 C :   -0.008244
  71 C :   -0.006438
  72 C :    0.017458
  73 C :   -0.012024
  74 C :   -0.013777
  75 C :   -0.014923
  76 C :   -0.001856
  77 H :    0.040948
  78 H :    0.039100
  79 H :    0.035147
  80 H :    0.034673
  81 H :    0.034207
  82 H :    0.033205
  83 H :    0.050538
  84 H :    0.044251
  85 H :    0.035447
  86 H :    0.035866
  87 H :    0.036713
  88 H :    0.028423
  89 H :    0.037384
  90 H :    0.019286
  91 H :    0.033318
  92 H :    0.030688
  93 H :    0.023743
  94 H :    0.018897
  95 H :    0.038037
  96 H :    0.020314
  97 H :    0.029813
  98 H :    0.030278
  99 H :    0.044736
 100 H :    0.026858
 101 H :    0.029733
 102 H :    0.035861
 103 H :    0.033098
 104 H :    0.040202
 105 H :    0.042385
 106 H :    0.042878
 107 H :    0.037809
 108 H :    0.032417
 109 H :    0.030871
 110 H :    0.031149
 111 H :    0.021200

  Mayer bond orders larger than 0.100000
B(  0-C ,  1-C ) :   1.6707 B(  0-C ,  6-C ) :   1.0067 B(  0-C , 18-C ) :   1.0066
B(  1-C ,  2-C ) :   1.1325 B(  1-C ,  4-C ) :   1.1591 B(  2-C ,  3-N ) :   2.9870
B(  4-C ,  5-N ) :   3.0107 B(  6-C ,  7-C ) :   1.2118 B(  6-C , 11-C ) :   1.4497
B(  7-C ,  8-C ) :   1.4683 B(  7-C , 16-C ) :   0.9245 B(  8-C ,  9-C ) :   1.1874
B(  8-C , 77-H ) :   1.0169 B(  9-C , 10-C ) :   1.2528 B(  9-C , 15-C ) :   1.2431
B( 10-C , 11-C ) :   1.2083 B( 10-C , 12-C ) :   1.2393 B( 11-C , 78-H ) :   0.9935
B( 12-C , 13-C ) :   1.4912 B( 12-C , 79-H ) :   0.9979 B( 13-C , 14-C ) :   1.2582
B( 13-C , 80-H ) :   0.9888 B( 14-C , 15-C ) :   1.4899 B( 14-C , 81-H ) :   0.9892
B( 15-C , 82-H ) :   0.9984 B( 16-C , 17-O ) :   2.2811 B( 16-C , 18-C ) :   0.9211
B( 18-C , 19-C ) :   1.7479 B( 19-C , 20-C ) :   1.0187 B( 19-C , 83-H ) :   0.9436
B( 20-C , 21-C ) :   1.3089 B( 20-C , 28-C ) :   1.3120 B( 21-C , 22-C ) :   1.3715
B( 21-C , 84-H ) :   0.9985 B( 22-C , 23-N ) :   0.8800 B( 22-C , 26-C ) :   1.3347
B( 23-N , 24-O ) :   1.5195 B( 23-N , 25-O ) :   1.5317 B( 24-O , 25-O ) :   0.2588
B( 26-C , 27-C ) :   1.3249 B( 26-C , 29-C ) :   1.0696 B( 27-C , 28-C ) :   1.4201
B( 27-C , 85-H ) :   0.9898 B( 28-C , 86-H ) :   0.9906 B( 29-C , 30-C ) :   1.6660
B( 29-C , 87-H ) :   0.9244 B( 30-C , 31-C ) :   1.1423 B( 30-C , 88-H ) :   0.9608
B( 31-C , 32-N ) :   1.1550 B( 31-C , 38-C ) :   1.3672 B( 32-N , 33-C ) :   0.9499
B( 32-N , 35-C ) :   1.0362 B( 33-C , 34-C ) :   1.1164 B( 33-C , 89-H ) :   0.9276
B( 33-C , 90-H ) :   0.9499 B( 34-C , 91-H ) :   0.9639 B( 34-C , 92-H ) :   0.9679
B( 34-C , 93-H ) :   0.9691 B( 35-C , 36-O ) :   2.1194 B( 35-C , 37-C ) :   0.9842
B( 37-C , 38-C ) :   1.2352 B( 37-C , 44-C ) :   1.3574 B( 38-C , 39-C ) :   0.9830
B( 39-C , 40-O ) :   2.0219 B( 39-C , 41-N ) :   1.0525 B( 40-O , 87-H ) :   0.1046
B( 41-N , 42-C ) :   0.9419 B( 41-N , 44-C ) :   1.1768 B( 42-C , 43-C ) :   1.1113
B( 42-C , 94-H ) :   0.9461 B( 42-C , 95-H ) :   0.9221 B( 43-C , 96-H ) :   0.9668
B( 43-C , 97-H ) :   0.9685 B( 43-C , 98-H ) :   0.9621 B( 44-C , 45-C ) :   1.1600
B( 45-C , 46-C ) :   1.6779 B( 45-C , 99-H ) :   0.9481 B( 46-C , 47-C ) :   1.0541
B( 46-C ,100-H ) :   0.9521 B( 47-C , 48-C ) :   1.5612 B( 47-C , 51-C ) :   1.2074
B( 48-C , 49-S ) :   1.1666 B( 48-C ,101-H ) :   0.9620 B( 49-S , 50-C ) :   1.2227
B( 50-C , 51-C ) :   1.5374 B( 50-C ,102-H ) :   0.9667 B( 51-C , 52-C ) :   0.9561
B( 52-C , 53-O ) :   2.1674 B( 52-C , 54-O ) :   1.0845 B( 54-O , 55-C ) :   1.0493
B( 55-C , 56-C ) :   1.6304 B( 55-C ,103-H ) :   0.9780 B( 56-C , 57-C ) :   1.1366
B( 56-C ,104-H ) :   0.9580 B( 57-C , 58-C ) :   1.6225 B( 57-C ,105-H ) :   0.9543
B( 58-C , 59-C ) :   1.0430 B( 58-C , 67-C ) :   0.9380 B( 59-C , 60-C ) :   1.6358
B( 59-C , 65-C ) :   1.0000 B( 60-C , 61-C ) :   1.1450 B( 60-C , 63-C ) :   1.1450
B( 61-C , 62-N ) :   2.9672 B( 63-C , 64-N ) :   2.9708 B( 65-C , 66-C ) :   1.2061
B( 65-C , 72-C ) :   1.4447 B( 66-C , 67-C ) :   0.9540 B( 66-C , 69-C ) :   1.4495
B( 67-C , 68-O ) :   2.1659 B( 69-C , 70-C ) :   1.1833 B( 69-C ,106-H ) :   1.0175
B( 70-C , 71-C ) :   1.2445 B( 70-C , 76-C ) :   1.2429 B( 71-C , 72-C ) :   1.2085
B( 71-C , 73-C ) :   1.2428 B( 72-C ,107-H ) :   0.9895 B( 73-C , 74-C ) :   1.4855
B( 73-C ,108-H ) :   0.9970 B( 74-C , 75-C ) :   1.2536 B( 74-C ,109-H ) :   0.9880
B( 75-C , 76-C ) :   1.4878 B( 75-C ,110-H ) :   0.9903 B( 76-C ,111-H ) :   0.9797

-----------------------------------------------------------------------------
         ABSORPTION SPECTRUM VIA TRANSITION ELECTRIC DIPOLE MOMENTS
-----------------------------------------------------------------------------
State   Energy  Wavelength   fosc         T2         TX        TY        TZ
        (cm-1)    (nm)                  (au**2)     (au)      (au)      (au)
-----------------------------------------------------------------------------
   0   14855.9    673.1   0.557857401  12.36229  -1.90495   2.29572  -1.86095
   1   19735.6    506.7   0.022187468   0.37011   0.31803  -0.28750   0.43164
   2   19946.4    501.3   0.004681446   0.07727   0.01448   0.27616   0.02818
   3   22806.3    438.5   0.187715175   2.70970   0.80013  -0.33476   1.39908
   4   25692.6    389.2   0.040128518   0.51419  -0.66822  -0.08680  -0.24522
   5   26160.2    382.3   0.031109831   0.39150   0.32856   0.49129  -0.20537
   6   26514.9    377.1   0.036433563   0.45236  -0.24202   0.10497  -0.61868
   7   26858.1    372.3   0.001254751   0.01538   0.09402  -0.07798   0.02143
   8   27002.8    370.3   0.003861081   0.04707   0.01654  -0.07460   0.20306
   9   27058.3    369.6   0.078293469   0.95258   0.31049  -0.20667   0.90192
  10   27510.8    363.5   0.307602341   3.68097   1.06464  -1.23433   1.01190
  11   28136.9    355.4   0.363023239   4.24751  -0.16832  -2.02624  -0.33696
  12   28582.3    349.9   0.078284590   0.90169   0.78572  -0.49670   0.19393
  13   28707.9    348.3   0.020324637   0.23308  -0.21641   0.29050  -0.31914
  14   28860.1    346.5   0.015254403   0.17401   0.24429   0.30548   0.14497
  15   28981.5    345.0   0.349157878   3.96622  -0.07214  -1.96673  -0.30495
  16   29762.6    336.0   0.033916213   0.37516   0.47151  -0.16639   0.35376
  17   30492.8    327.9   0.011119344   0.12005   0.01534   0.34372   0.04084
  18   30758.9    325.1   0.003515014   0.03762   0.11460  -0.14239   0.06491
  19   31020.4    322.4   0.001355914   0.01439   0.09812  -0.00600   0.06875
  20   31874.7    313.7   0.109104310   1.12687  -0.55297   0.88921   0.17430
  21   32327.7    309.3   0.071039002   0.72343   0.28203  -0.69260  -0.40522
  22   32591.8    306.8   0.003564733   0.03601   0.14398   0.10398  -0.06683
  23   32842.9    304.5   0.198615631   1.99089   1.00695  -0.96434   0.21677
  24   33036.5    302.7   0.083436805   0.83146  -0.73899   0.52478   0.09976
  25   33111.9    302.0   1.726480654  17.16538   3.01487  -2.63291   1.06944
  26   33552.6    298.0   0.013263695   0.13014   0.33461  -0.02952   0.13155
  27   33659.0    297.1   0.606994872   5.93690  -2.16592   0.76997  -0.80798
  28   34104.3    293.2   0.003600120   0.03475   0.04631   0.16551   0.07220
  29   34196.9    292.4   0.369588093   3.55801  -1.20733   1.37982  -0.44323
  30   34228.5    292.2   0.026751933   0.25730  -0.40003  -0.24422  -0.19400
  31   34502.2    289.8   0.159419710   1.52115   0.43961   0.68578   0.92607
  32   34555.3    289.4   0.027581405   0.26277   0.24147  -0.29461   0.34302
  33   35073.5    285.1   0.008331331   0.07820  -0.25233   0.10557  -0.05820
  34   35258.8    283.6   0.004014760   0.03749   0.07711  -0.16500  -0.06568
  35   35415.4    282.4   0.052692664   0.48982  -0.58081   0.35838  -0.15503
  36   35521.0    281.5   0.011045380   0.10237   0.17512  -0.26344  -0.04799
  37   35988.1    277.9   0.076472736   0.69956   0.26827  -0.73843  -0.28690
  38   36191.3    276.3   0.100913082   0.91795  -0.17536   0.73917   0.58381
  39   36398.5    274.7   0.018911858   0.17105   0.02029  -0.40321  -0.08980
  40   37156.6    269.1   0.119079216   1.05506  -0.67188   0.09008  -0.77170
  41   37293.9    268.1   0.006661483   0.05880   0.19311  -0.07890   0.12364
  42   37784.4    264.7   0.003648101   0.03179  -0.05241   0.16742   0.03175
  43   37986.5    263.3   0.049652810   0.43032  -0.16970   0.61786  -0.14059
  44   38040.7    262.9   0.228521453   1.97767   0.52048   1.18227   0.55589
  45   38139.1    262.2   0.080741408   0.69695   0.58781   0.07595   0.58793
  46   38224.5    261.6   0.020392285   0.17563   0.09951   0.16916   0.37029
  47   38321.1    261.0   0.004219434   0.03625  -0.09123  -0.14371  -0.08527
  48   38479.8    259.9   0.073085742   0.62528  -0.63284   0.42310  -0.21397
  49   38625.6    258.9   0.029212301   0.24898   0.28955  -0.26757   0.30585
  50   38790.0    257.8   0.002846149   0.02416  -0.05159   0.03826  -0.14153
  51   39162.5    255.3   0.000127371   0.00107   0.00281  -0.02886   0.01517
  52   39455.1    253.5   0.005383010   0.04492   0.20178   0.00455  -0.06465
  53   39713.4    251.8   0.141394441   1.17212  -0.27948   0.32591   0.99387
  54   39756.2    251.5   0.035460449   0.29364   0.23403  -0.19131  -0.44975
  55   39952.0    250.3   0.058707745   0.48376  -0.32086   0.15339  -0.59773

FINAL SINGLE POINT ENERGY     -3724.392883762947

DIPOLE MOMENT
-------------
                                X             Y             Z
Electronic contribution:    -18.44473      -4.97875     -12.52543
Nuclear contribution   :     23.80457       5.64478      15.45113
                        -----------------------------------------
Total Dipole Moment    :      5.35983       0.66603       2.92570
                        -----------------------------------------
Magnitude (a.u.)       :      6.14257
Magnitude (Debye)      :     15.61317

Rotational constants in cm-1:     0.001223     0.000353     0.000288
Rotational constants in MHz :    36.676748    10.574883     8.644977

                             ****ORCA TERMINATED NORMALLY****
TOTAL RUN TIME: 0 days 0 hours 11 minutes 26 seconds 636 msec
