                         Program Version 4.2.0 -  RELEASE  -
|  1> # ORCA input file
|  2> # SCF done       -201.632223683660          0.000976628806
|  3> ! CAM-B3LYP def2-SVP def2/J RIJCOSX Grid4 TightSCF
|  4> %maxcore 5000
|  5> %tddft
|  6>     Mode sTDDFT
|  7>     Ethresh 5.0
|  8>     maxcore 5000
|  9> end
| 10>
| 11> %pal
| 12>   nprocs 6
| 13>   end
| 14> * xyz 0 1
| 15>    C       -2.09649         1.93127         1.00636
| 16>    C       -2.31678         3.20402         1.45881
| 17>    C       -3.37462         3.56368         2.31971
| 18>    N       -4.20737         3.89925         3.03510
| 19>    C       -1.46156         4.29578         1.20378
| 20>    N       -0.76380         5.20194         1.09362
| 21>    C       -2.80185         0.73908         1.46006
| 22>    C       -1.99097        -0.40127         1.18457
| 23>    C       -2.38113        -1.66024         1.53973
| 24>    C       -3.62436        -1.84003         2.18707
| 25>    C       -4.44801        -0.70652         2.44665
| 26>    C       -4.01575         0.58693         2.07335
| 27>    C       -5.68897        -0.90269         3.08624
| 28>    C       -6.09672        -2.15510         3.45648
| 29>    C       -5.28419        -3.27001         3.20216
| 30>    C       -4.07473        -3.11553         2.58101
| 31>    C       -0.76552         0.02583         0.48333
| 32>    O        0.17754        -0.65179         0.14707
| 33>    C       -0.96345         1.47950         0.21758
| 34>    C       -0.21892         2.12579        -0.71172
| 35>    C       -0.55596         3.37153        -1.32586
| 36>    C        0.44859         4.30709        -1.66959
| 37>    C        0.13802         5.69051        -1.92612
| 38>    N        1.14082         6.58650        -2.00339
| 39>    C        2.37032         6.17004        -1.88149
| 40>    C        2.67355         4.80380        -1.71439
| 41>    N        1.73277         3.90998        -1.60620
| 42>    C       -1.20770         6.12008        -1.96393
| 43>    C       -2.18551         5.10333        -1.97930
| 44>    C       -1.88368         3.75892        -1.56791
| 45>    N       -2.99506         3.02765        -1.44048
| 46>    S       -4.25653         3.93592        -1.82712
| 47>    N       -3.48447         5.28197        -2.20804
| 48>    C       -1.70176         7.40921        -1.57925
| 49>    N       -1.26949         8.65958        -1.89144
| 50>    C       -0.36819         9.01727        -2.96127
| 51>    C       -1.00372         8.75816        -4.32422
| 52>    C       -1.97321         9.64954        -1.16154
| 53>    O       -1.78616        10.83911        -1.29390
| 54>    C       -2.87083         8.89425        -0.31479
| 55>    C       -2.71423         7.52480        -0.62116
| 56>    C       -3.55226         6.77653         0.28498
| 57>    O       -3.76705         5.58123         0.41491
| 58>    N       -4.18419         7.75245         1.07640
| 59>    C       -5.03087         7.34030         2.17069
| 60>    C       -4.31737         7.45288         3.51470
| 61>    C       -3.77562         9.02284         0.73696
| 62>    C       -4.14669        10.28723         1.26292
| 63>    C       -5.04935        10.62243         2.21504
| 64>    C       -5.30876        11.97095         2.58825
| 65>    S       -4.43719        13.30767         1.89365
| 66>    C       -5.34015        14.44595         2.82601
| 67>    C       -5.02169        15.88695         2.79672
| 68>    O       -5.23817        16.61616         3.72943
| 69>    O       -4.44710        16.34423         1.67963
| 70>    C       -6.27431        13.81979         3.63565
| 71>    C       -6.23266        12.41896         3.50617
| 72>    C       -7.20421        14.49980         4.51453
| 73>    C       -7.93160        15.58329         4.18186
| 74>    C       -8.77667        16.37888         5.06768
| 75>    C       -9.19579        16.03526         6.32248
| 76>    C      -10.01695        16.84964         7.13275
| 77>    N      -10.68707        17.45881         7.83756
| 78>    C       -8.91486        14.80960         6.96366
| 79>    N       -8.74578        13.82764         7.53439
| 80>    C       -9.11957        17.60202         4.35732
| 81>    C       -8.64028        17.50820         3.01858
| 82>    C       -7.95207        16.22663         2.83113
| 83>    O       -7.53202        15.76540         1.79187
| 84>    C       -8.82038        18.51631         2.11458
| 85>    C       -9.49235        19.69052         2.51798
| 86>    C       -9.96960        19.79571         3.85728
| 87>    C       -9.77374        18.73437         4.76911
| 88>    C      -10.63566        20.97525         4.24937
| 89>    C      -10.82199        22.00141         3.36387
| 90>    C      -10.35187        21.89658         2.04584
| 91>    C       -9.70143        20.76608         1.63203
| 92>    H       -1.74966        -2.51066         1.32913
| 93>    H       -4.65957         1.42957         2.27217
| 94>    H       -6.30952        -0.04082         3.28313
| 95>    H       -7.04768        -2.29406         3.94904
| 96>    H       -5.62083        -4.25133         3.50221
| 97>    H       -3.44446        -3.97020         2.38296
| 98>    H        0.69688         1.65114        -1.04524
| 99>    H        3.14612         6.91963        -1.95654
|100>    H        3.69334         4.44559        -1.69421
|101>    H        0.55318         8.44168        -2.85234
|102>    H       -0.16095        10.08327        -2.83641
|103>    H       -1.23700         7.70174        -4.44005
|104>    H       -0.31611         9.05202        -5.11221
|105>    H       -1.92214         9.33128        -4.43147
|106>    H       -5.26862         6.28843         1.98526
|107>    H       -5.95953         7.91649         2.15400
|108>    H       -3.44862         6.79922         3.52042
|109>    H       -4.98638         7.13825         4.31054
|110>    H       -3.98743         8.47144         3.70706
|111>    H       -3.60723        11.09461         0.77863
|112>    H       -5.63794         9.88633         2.74014
|113>    H       -4.40035        15.68207         0.97587
|114>    H       -6.88535        11.76028         4.05146
|115>    H       -7.29358        14.06773         5.50288
|116>    H       -8.44570        18.42037         1.10639
|117>    H      -10.14002        18.84716         5.77729
|118>    H      -10.99611        21.05157         5.26466
|119>    H      -11.33250        22.90075         3.67417
|120>    H      -10.50712        22.71668         1.36090
|121>    H       -9.33625        20.67970         0.61918
|122> *
|123>
|124>                          ****END OF INPUT****

CARTESIAN COORDINATES (ANGSTROEM)
---------------------------------
  C     -2.096490    1.931270    1.006360
  C     -2.316780    3.204020    1.458810
  C     -3.374620    3.563680    2.319710
  N     -4.207370    3.899250    3.035100
  C     -1.461560    4.295780    1.203780
  N     -0.763800    5.201940    1.093620
  C     -2.801850    0.739080    1.460060
  C     -1.990970   -0.401270    1.184570
  C     -2.381130   -1.660240    1.539730
  C     -3.624360   -1.840030    2.187070
  C     -4.448010   -0.706520    2.446650
  C     -4.015750    0.586930    2.073350
  C     -5.688970   -0.902690    3.086240
  C     -6.096720   -2.155100    3.456480
  C     -5.284190   -3.270010    3.202160
  C     -4.074730   -3.115530    2.581010
  C     -0.765520    0.025830    0.483330
  O      0.177540   -0.651790    0.147070
  C     -0.963450    1.479500    0.217580
  C     -0.218920    2.125790   -0.711720
  C     -0.555960    3.371530   -1.325860
  C      0.448590    4.307090   -1.669590
  C      0.138020    5.690510   -1.926120
  N      1.140820    6.586500   -2.003390
  C      2.370320    6.170040   -1.881490
  C      2.673550    4.803800   -1.714390
  N      1.732770    3.909980   -1.606200
  C     -1.207700    6.120080   -1.963930
  C     -2.185510    5.103330   -1.979300
  C     -1.883680    3.758920   -1.567910
  N     -2.995060    3.027650   -1.440480
  S     -4.256530    3.935920   -1.827120
  N     -3.484470    5.281970   -2.208040
  C     -1.701760    7.409210   -1.579250
  N     -1.269490    8.659580   -1.891440
  C     -0.368190    9.017270   -2.961270
  C     -1.003720    8.758160   -4.324220
  C     -1.973210    9.649540   -1.161540
  O     -1.786160   10.839110   -1.293900
  C     -2.870830    8.894250   -0.314790
  C     -2.714230    7.524800   -0.621160
  C     -3.552260    6.776530    0.284980
  O     -3.767050    5.581230    0.414910
  N     -4.184190    7.752450    1.076400
  C     -5.030870    7.340300    2.170690
  C     -4.317370    7.452880    3.514700
  C     -3.775620    9.022840    0.736960
  C     -4.146690   10.287230    1.262920
  C     -5.049350   10.622430    2.215040
  C     -5.308760   11.970950    2.588250
  S     -4.437190   13.307670    1.893650
  C     -5.340150   14.445950    2.826010
  C     -5.021690   15.886950    2.796720
  O     -5.238170   16.616160    3.729430
  O     -4.447100   16.344230    1.679630
  C     -6.274310   13.819790    3.635650
  C     -6.232660   12.418960    3.506170
  C     -7.204210   14.499800    4.514530
  C     -7.931600   15.583290    4.181860
  C     -8.776670   16.378880    5.067680
  C     -9.195790   16.035260    6.322480
  C    -10.016950   16.849640    7.132750
  N    -10.687070   17.458810    7.837560
  C     -8.914860   14.809600    6.963660
  N     -8.745780   13.827640    7.534390
  C     -9.119570   17.602020    4.357320
  C     -8.640280   17.508200    3.018580
  C     -7.952070   16.226630    2.831130
  O     -7.532020   15.765400    1.791870
  C     -8.820380   18.516310    2.114580
  C     -9.492350   19.690520    2.517980
  C     -9.969600   19.795710    3.857280
  C     -9.773740   18.734370    4.769110
  C    -10.635660   20.975250    4.249370
  C    -10.821990   22.001410    3.363870
  C    -10.351870   21.896580    2.045840
  C     -9.701430   20.766080    1.632030
  H     -1.749660   -2.510660    1.329130
  H     -4.659570    1.429570    2.272170
  H     -6.309520   -0.040820    3.283130
  H     -7.047680   -2.294060    3.949040
  H     -5.620830   -4.251330    3.502210
  H     -3.444460   -3.970200    2.382960
  H      0.696880    1.651140   -1.045240
  H      3.146120    6.919630   -1.956540
  H      3.693340    4.445590   -1.694210
  H      0.553180    8.441680   -2.852340
  H     -0.160950   10.083270   -2.836410
  H     -1.237000    7.701740   -4.440050
  H     -0.316110    9.052020   -5.112210
  H     -1.922140    9.331280   -4.431470
  H     -5.268620    6.288430    1.985260
  H     -5.959530    7.916490    2.154000
  H     -3.448620    6.799220    3.520420
  H     -4.986380    7.138250    4.310540
  H     -3.987430    8.471440    3.707060
  H     -3.607230   11.094610    0.778630
  H     -5.637940    9.886330    2.740140
  H     -4.400350   15.682070    0.975870
  H     -6.885350   11.760280    4.051460
  H     -7.293580   14.067730    5.502880
  H     -8.445700   18.420370    1.106390
  H    -10.140020   18.847160    5.777290
  H    -10.996110   21.051570    5.264660
  H    -11.332500   22.900750    3.674170
  H    -10.507120   22.716680    1.360900
  H     -9.336250   20.679700    0.619180

 Total Charge           Charge          ....    0
 Multiplicity           Mult            ....    1
 Number of Electrons    NEL             ....  534
 Basis Dimension        Dim             .... 1236

ORBITAL ENERGIES
----------------

  NO   OCC          E(Eh)            E(eV)
   0   2.0000     -89.033562     -2422.7264
   1   2.0000     -88.983187     -2421.3556
   2   2.0000     -19.265715      -524.2467
   3   2.0000     -19.217800      -522.9429
   4   2.0000     -19.207123      -522.6524
   5   2.0000     -19.201339      -522.4950
   6   2.0000     -19.198788      -522.4256
   7   2.0000     -19.195390      -522.3331
   8   2.0000     -14.458835      -393.4449
   9   2.0000     -14.455808      -393.3625
  10   2.0000     -14.438404      -392.8889
  11   2.0000     -14.438340      -392.8872
  12   2.0000     -14.437174      -392.8555
  13   2.0000     -14.434939      -392.7947
  14   2.0000     -14.418105      -392.3366
  15   2.0000     -14.415712      -392.2715
  16   2.0000     -14.406376      -392.0174
  17   2.0000     -14.405725      -391.9997
  18   2.0000     -10.413057      -283.3537
  19   2.0000     -10.379092      -282.4295
  20   2.0000     -10.378123      -282.4031
  21   2.0000     -10.370167      -282.1866
  22   2.0000     -10.358389      -281.8661
  23   2.0000     -10.350286      -281.6456
  24   2.0000     -10.344629      -281.4917
  25   2.0000     -10.344208      -281.4802
  26   2.0000     -10.341823      -281.4153
  27   2.0000     -10.337477      -281.2971
  28   2.0000     -10.334651      -281.2202
  29   2.0000     -10.332221      -281.1540
  30   2.0000     -10.331102      -281.1236
  31   2.0000     -10.330896      -281.1180
  32   2.0000     -10.330525      -281.1079
  33   2.0000     -10.330038      -281.0946
  34   2.0000     -10.329556      -281.0815
  35   2.0000     -10.326436      -280.9966
  36   2.0000     -10.322875      -280.8997
  37   2.0000     -10.320468      -280.8342
  38   2.0000     -10.318397      -280.7778
  39   2.0000     -10.318120      -280.7703
  40   2.0000     -10.315105      -280.6883
  41   2.0000     -10.311992      -280.6036
  42   2.0000     -10.310824      -280.5718
  43   2.0000     -10.310538      -280.5640
  44   2.0000     -10.307495      -280.4812
  45   2.0000     -10.305759      -280.4340
  46   2.0000     -10.304808      -280.4081
  47   2.0000     -10.304781      -280.4073
  48   2.0000     -10.303540      -280.3736
  49   2.0000     -10.302367      -280.3417
  50   2.0000     -10.300884      -280.3013
  51   2.0000     -10.299200      -280.2555
  52   2.0000     -10.298286      -280.2306
  53   2.0000     -10.297999      -280.2228
  54   2.0000     -10.297272      -280.2030
  55   2.0000     -10.296991      -280.1954
  56   2.0000     -10.296115      -280.1715
  57   2.0000     -10.292286      -280.0673
  58   2.0000     -10.291772      -280.0533
  59   2.0000     -10.291011      -280.0326
  60   2.0000     -10.290577      -280.0208
  61   2.0000     -10.290217      -280.0110
  62   2.0000     -10.289619      -279.9948
  63   2.0000     -10.288644      -279.9682
  64   2.0000     -10.286861      -279.9197
  65   2.0000     -10.286270      -279.9036
  66   2.0000     -10.286087      -279.8986
  67   2.0000     -10.285482      -279.8822
  68   2.0000     -10.282586      -279.8034
  69   2.0000     -10.281735      -279.7802
  70   2.0000     -10.281318      -279.7689
  71   2.0000     -10.281097      -279.7629
  72   2.0000     -10.280516      -279.7471
  73   2.0000     -10.269824      -279.4561
  74   2.0000     -10.265848      -279.3479
  75   2.0000     -10.257113      -279.1102
  76   2.0000     -10.257006      -279.1073
  77   2.0000      -8.124090      -221.0677
  78   2.0000      -8.078547      -219.8285
  79   2.0000      -6.094985      -165.8530
  80   2.0000      -6.087449      -165.6479
  81   2.0000      -6.087128      -165.6392
  82   2.0000      -6.047615      -164.5640
  83   2.0000      -6.043602      -164.4548
  84   2.0000      -6.041014      -164.3843
  85   2.0000      -1.189767       -32.3752
  86   2.0000      -1.140173       -31.0257
  87   2.0000      -1.134158       -30.8620
  88   2.0000      -1.132082       -30.8055
  89   2.0000      -1.127453       -30.6796
  90   2.0000      -1.121944       -30.5296
  91   2.0000      -1.101457       -29.9722
  92   2.0000      -1.093308       -29.7504
  93   2.0000      -1.068166       -29.0663
  94   2.0000      -1.058759       -28.8103
  95   2.0000      -1.019334       -27.7375
  96   2.0000      -1.017015       -27.6744
  97   2.0000      -1.010125       -27.4869
  98   2.0000      -1.009618       -27.4731
  99   2.0000      -0.999196       -27.1895
 100   2.0000      -0.994918       -27.0731
 101   2.0000      -0.991191       -26.9717
 102   2.0000      -0.986550       -26.8454
 103   2.0000      -0.984100       -26.7787
 104   2.0000      -0.971695       -26.4412
 105   2.0000      -0.968512       -26.3545
 106   2.0000      -0.961571       -26.1657
 107   2.0000      -0.931136       -25.3375
 108   2.0000      -0.928371       -25.2623
 109   2.0000      -0.921169       -25.0663
 110   2.0000      -0.917536       -24.9674
 111   2.0000      -0.903903       -24.5965
 112   2.0000      -0.900591       -24.5063
 113   2.0000      -0.883702       -24.0468
 114   2.0000      -0.882115       -24.0036
 115   2.0000      -0.879120       -23.9221
 116   2.0000      -0.875052       -23.8114
 117   2.0000      -0.874430       -23.7945
 118   2.0000      -0.870079       -23.6761
 119   2.0000      -0.858008       -23.3476
 120   2.0000      -0.848756       -23.0958
 121   2.0000      -0.839212       -22.8361
 122   2.0000      -0.828712       -22.5504
 123   2.0000      -0.822369       -22.3778
 124   2.0000      -0.817506       -22.2455
 125   2.0000      -0.813069       -22.1247
 126   2.0000      -0.800588       -21.7851
 127   2.0000      -0.787441       -21.4274
 128   2.0000      -0.783277       -21.3141
 129   2.0000      -0.775079       -21.0910
 130   2.0000      -0.762699       -20.7541
 131   2.0000      -0.758121       -20.6295
 132   2.0000      -0.754066       -20.5192
 133   2.0000      -0.746232       -20.3060
 134   2.0000      -0.739048       -20.1105
 135   2.0000      -0.720960       -19.6183
 136   2.0000      -0.714111       -19.4320
 137   2.0000      -0.709253       -19.2998
 138   2.0000      -0.706460       -19.2238
 139   2.0000      -0.704672       -19.1751
 140   2.0000      -0.702442       -19.1144
 141   2.0000      -0.698577       -19.0093
 142   2.0000      -0.695574       -18.9275
 143   2.0000      -0.694487       -18.8979
 144   2.0000      -0.689466       -18.7613
 145   2.0000      -0.680028       -18.5045
 146   2.0000      -0.671956       -18.2848
 147   2.0000      -0.669453       -18.2167
 148   2.0000      -0.665733       -18.1155
 149   2.0000      -0.655751       -17.8439
 150   2.0000      -0.654407       -17.8073
 151   2.0000      -0.646937       -17.6041
 152   2.0000      -0.643278       -17.5045
 153   2.0000      -0.636646       -17.3240
 154   2.0000      -0.630887       -17.1673
 155   2.0000      -0.626603       -17.0507
 156   2.0000      -0.620972       -16.8975
 157   2.0000      -0.610024       -16.5996
 158   2.0000      -0.607196       -16.5226
 159   2.0000      -0.604963       -16.4619
 160   2.0000      -0.601049       -16.3554
 161   2.0000      -0.598442       -16.2844
 162   2.0000      -0.592687       -16.1278
 163   2.0000      -0.588202       -16.0058
 164   2.0000      -0.582968       -15.8634
 165   2.0000      -0.572077       -15.5670
 166   2.0000      -0.571380       -15.5480
 167   2.0000      -0.569795       -15.5049
 168   2.0000      -0.564725       -15.3669
 169   2.0000      -0.561346       -15.2750
 170   2.0000      -0.557279       -15.1643
 171   2.0000      -0.555488       -15.1156
 172   2.0000      -0.553846       -15.0709
 173   2.0000      -0.549640       -14.9565
 174   2.0000      -0.546838       -14.8802
 175   2.0000      -0.544422       -14.8145
 176   2.0000      -0.541218       -14.7273
 177   2.0000      -0.538511       -14.6536
 178   2.0000      -0.538056       -14.6412
 179   2.0000      -0.533431       -14.5154
 180   2.0000      -0.532741       -14.4966
 181   2.0000      -0.531898       -14.4737
 182   2.0000      -0.529467       -14.4075
 183   2.0000      -0.527821       -14.3628
 184   2.0000      -0.526925       -14.3384
 185   2.0000      -0.524425       -14.2703
 186   2.0000      -0.520973       -14.1764
 187   2.0000      -0.519662       -14.1407
 188   2.0000      -0.516161       -14.0454
 189   2.0000      -0.514094       -13.9892
 190   2.0000      -0.511792       -13.9266
 191   2.0000      -0.511140       -13.9088
 192   2.0000      -0.508220       -13.8294
 193   2.0000      -0.507798       -13.8179
 194   2.0000      -0.505770       -13.7627
 195   2.0000      -0.505508       -13.7556
 196   2.0000      -0.502804       -13.6820
 197   2.0000      -0.497265       -13.5313
 198   2.0000      -0.496998       -13.5240
 199   2.0000      -0.492823       -13.4104
 200   2.0000      -0.491198       -13.3662
 201   2.0000      -0.488432       -13.2909
 202   2.0000      -0.484965       -13.1966
 203   2.0000      -0.481444       -13.1008
 204   2.0000      -0.480472       -13.0743
 205   2.0000      -0.479050       -13.0356
 206   2.0000      -0.477498       -12.9934
 207   2.0000      -0.470340       -12.7986
 208   2.0000      -0.468341       -12.7442
 209   2.0000      -0.466167       -12.6851
 210   2.0000      -0.465249       -12.6601
 211   2.0000      -0.462292       -12.5796
 212   2.0000      -0.460168       -12.5218
 213   2.0000      -0.458229       -12.4690
 214   2.0000      -0.451403       -12.2833
 215   2.0000      -0.450268       -12.2524
 216   2.0000      -0.448917       -12.2156
 217   2.0000      -0.446385       -12.1467
 218   2.0000      -0.445552       -12.1241
 219   2.0000      -0.444166       -12.0864
 220   2.0000      -0.441872       -12.0240
 221   2.0000      -0.440079       -11.9752
 222   2.0000      -0.439752       -11.9662
 223   2.0000      -0.436645       -11.8817
 224   2.0000      -0.435978       -11.8636
 225   2.0000      -0.433877       -11.8064
 226   2.0000      -0.433546       -11.7974
 227   2.0000      -0.432422       -11.7668
 228   2.0000      -0.427876       -11.6431
 229   2.0000      -0.427642       -11.6367
 230   2.0000      -0.425199       -11.5703
 231   2.0000      -0.423999       -11.5376
 232   2.0000      -0.421024       -11.4566
 233   2.0000      -0.419544       -11.4164
 234   2.0000      -0.416823       -11.3423
 235   2.0000      -0.412229       -11.2173
 236   2.0000      -0.410856       -11.1800
 237   2.0000      -0.409165       -11.1339
 238   2.0000      -0.407393       -11.0857
 239   2.0000      -0.405315       -11.0292
 240   2.0000      -0.399631       -10.8745
 241   2.0000      -0.398102       -10.8329
 242   2.0000      -0.395740       -10.7686
 243   2.0000      -0.388543       -10.5728
 244   2.0000      -0.387359       -10.5406
 245   2.0000      -0.383333       -10.4310
 246   2.0000      -0.375872       -10.2280
 247   2.0000      -0.372354       -10.1323
 248   2.0000      -0.363820        -9.9001
 249   2.0000      -0.362522        -9.8647
 250   2.0000      -0.353323        -9.6144
 251   2.0000      -0.352469        -9.5912
 252   2.0000      -0.341652        -9.2968
 253   2.0000      -0.340778        -9.2730
 254   2.0000      -0.339722        -9.2443
 255   2.0000      -0.335437        -9.1277
 256   2.0000      -0.329957        -8.9786
 257   2.0000      -0.325432        -8.8555
 258   2.0000      -0.324216        -8.8224
 259   2.0000      -0.316979        -8.6254
 260   2.0000      -0.315865        -8.5951
 261   2.0000      -0.307077        -8.3560
 262   2.0000      -0.299181        -8.1411
 263   2.0000      -0.292919        -7.9707
 264   2.0000      -0.290198        -7.8967
 265   2.0000      -0.284532        -7.7425
 266   2.0000      -0.240336        -6.5399
 267   0.0000      -0.115153        -3.1335
 268   0.0000      -0.091776        -2.4974
 269   0.0000      -0.074810        -2.0357
 270   0.0000      -0.066484        -1.8091
 271   0.0000      -0.057669        -1.5693

MULLIKEN ATOMIC CHARGES
-----------------------
   0 C :    0.317873
   1 C :   -0.349344
   2 C :   -0.152766
   3 N :    0.128570
   4 C :   -0.167895
   5 N :    0.145017
   6 C :    0.027121
   7 C :    0.019130
   8 C :   -0.085946
   9 C :    0.094488
  10 C :    0.095989
  11 C :   -0.083011
  12 C :   -0.019130
  13 C :    0.036676
  14 C :    0.034042
  15 C :   -0.016364
  16 C :    0.130022
  17 O :   -0.138339
  18 C :   -0.094609
  19 C :   -0.009735
  20 C :    0.019954
  21 C :   -0.017391
  22 C :   -0.025911
  23 N :   -0.028435
  24 C :    0.041583
  25 C :    0.033888
  26 N :   -0.007828
  27 C :    0.041514
  28 C :   -0.029183
  29 C :   -0.002340
  30 N :   -0.281128
  31 S :    0.556959
  32 N :   -0.239051
  33 C :    0.080690
  34 N :   -0.236389
  35 C :    0.115573
  36 C :   -0.006173
  37 C :    0.161157
  38 O :   -0.185252
  39 C :   -0.071011
  40 C :   -0.002096
  41 C :    0.159715
  42 O :   -0.239224
  43 N :   -0.252571
  44 C :    0.094762
  45 C :    0.006883
  46 C :    0.123472
  47 C :   -0.045725
  48 C :    0.051040
  49 C :   -0.050558
  50 S :    0.133071
  51 C :   -0.176394
  52 C :    0.184589
  53 O :   -0.185729
  54 O :   -0.144983
  55 C :    0.111073
  56 C :   -0.011258
  57 C :   -0.044620
  58 C :   -0.027783
  59 C :    0.306799
  60 C :   -0.341688
  61 C :   -0.181467
  62 N :    0.152565
  63 C :   -0.192534
  64 N :    0.156785
  65 C :    0.054655
  66 C :    0.008341
  67 C :    0.147856
  68 O :   -0.156502
  69 C :   -0.073113
  70 C :    0.097195
  71 C :    0.096462
  72 C :   -0.082830
  73 C :   -0.016406
  74 C :    0.038496
  75 C :    0.036025
  76 C :   -0.014012
  77 H :   -0.013675
  78 H :   -0.010449
  79 H :   -0.013993
  80 H :   -0.007341
  81 H :   -0.007755
  82 H :   -0.018809
  83 H :    0.032073
  84 H :    0.019565
  85 H :    0.021841
  86 H :    0.034078
  87 H :    0.033242
  88 H :    0.019585
  89 H :    0.019964
  90 H :    0.021445
  91 H :    0.051191
  92 H :    0.018558
  93 H :    0.033525
  94 H :    0.027245
  95 H :    0.015488
  96 H :    0.014942
  97 H :   -0.005646
  98 H :    0.186121
  99 H :   -0.002048
 100 H :    0.032346
 101 H :   -0.013306
 102 H :   -0.007017
 103 H :   -0.008872
 104 H :   -0.004557
 105 H :   -0.003712
 106 H :   -0.017332
Sum of atomic charges:   -0.0000000

LOEWDIN ATOMIC CHARGES
----------------------
   0 C :    0.076807
   1 C :   -0.132170
   2 C :   -0.007377
   3 N :   -0.071622
   4 C :   -0.007527
   5 N :   -0.074970
   6 C :   -0.016967
   7 C :   -0.055258
   8 C :    0.030636
   9 C :   -0.009891
  10 C :   -0.005444
  11 C :    0.013395
  12 C :   -0.008274
  13 C :   -0.014890
  14 C :   -0.015581
  15 C :   -0.009743
  16 C :    0.084204
  17 O :   -0.140314
  18 C :   -0.069839
  19 C :    0.076793
  20 C :   -0.039412
  21 C :    0.010130
  22 C :    0.002129
  23 N :   -0.025758
  24 C :    0.015730
  25 C :    0.016093
  26 N :   -0.029517
  27 C :   -0.027855
  28 C :   -0.035294
  29 C :   -0.043402
  30 N :   -0.288765
  31 S :    0.707651
  32 N :   -0.266227
  33 C :    0.101425
  34 N :    0.014307
  35 C :    0.029974
  36 C :   -0.061581
  37 C :    0.086202
  38 O :   -0.186378
  39 C :   -0.111806
  40 C :   -0.094342
  41 C :    0.092948
  42 O :   -0.207494
  43 N :    0.007661
  44 C :    0.035382
  45 C :   -0.060197
  46 C :    0.075003
  47 C :   -0.035323
  48 C :   -0.014262
  49 C :   -0.157720
  50 S :    0.470005
  51 C :   -0.205611
  52 C :    0.062638
  53 O :   -0.163218
  54 O :   -0.017708
  55 C :   -0.040604
  56 C :   -0.028271
  57 C :    0.076245
  58 C :   -0.061756
  59 C :    0.081839
  60 C :   -0.131510
  61 C :   -0.016595
  62 N :   -0.049415
  63 C :   -0.018817
  64 N :   -0.049635
  65 C :   -0.021667
  66 C :   -0.051513
  67 C :    0.092942
  68 O :   -0.144923
  69 C :    0.038770
  70 C :   -0.006677
  71 C :   -0.003830
  72 C :    0.021678
  73 C :   -0.004656
  74 C :   -0.011717
  75 C :   -0.011353
  76 C :   -0.007955
  77 H :    0.038514
  78 H :    0.037285
  79 H :    0.032963
  80 H :    0.032112
  81 H :    0.031688
  82 H :    0.031308
  83 H :    0.050049
  84 H :    0.029116
  85 H :    0.030568
  86 H :    0.019659
  87 H :    0.031491
  88 H :    0.022431
  89 H :    0.029572
  90 H :    0.027052
  91 H :    0.039463
  92 H :    0.018458
  93 H :    0.034630
  94 H :    0.033965
  95 H :    0.018983
  96 H :    0.038030
  97 H :    0.038180
  98 H :    0.087432
  99 H :    0.038073
 100 H :    0.048048
 101 H :    0.039550
 102 H :    0.039361
 103 H :    0.035068
 104 H :    0.033474
 105 H :    0.033233
 106 H :    0.032286

  Mayer bond orders larger than 0.100000
B(  0-C ,  1-C ) :   1.6559 B(  0-C ,  6-C ) :   0.9993 B(  0-C , 18-C ) :   1.0238
B(  1-C ,  2-C ) :   1.1635 B(  1-C ,  4-C ) :   1.1701 B(  2-C ,  3-N ) :   2.9128
B(  4-C ,  5-N ) :   2.9506 B(  6-C ,  7-C ) :   1.2181 B(  6-C , 11-C ) :   1.4620
B(  7-C ,  8-C ) :   1.4694 B(  7-C , 16-C ) :   0.9157 B(  8-C ,  9-C ) :   1.1857
B(  8-C , 77-H ) :   1.0155 B(  9-C , 10-C ) :   1.2589 B(  9-C , 15-C ) :   1.2427
B( 10-C , 11-C ) :   1.2021 B( 10-C , 12-C ) :   1.2406 B( 11-C , 78-H ) :   0.9940
B( 12-C , 13-C ) :   1.4888 B( 12-C , 79-H ) :   0.9972 B( 13-C , 14-C ) :   1.2611
B( 13-C , 80-H ) :   0.9882 B( 14-C , 15-C ) :   1.4909 B( 14-C , 81-H ) :   0.9884
B( 15-C , 82-H ) :   0.9975 B( 16-C , 17-O ) :   2.2862 B( 16-C , 18-C ) :   0.9387
B( 18-C , 19-C ) :   1.6634 B( 19-C , 20-C ) :   1.1019 B( 19-C , 83-H ) :   0.9445
B( 20-C , 21-C ) :   1.2815 B( 20-C , 27-C ) :   0.1116 B( 20-C , 29-C ) :   1.2138
B( 21-C , 22-C ) :   1.1670 B( 21-C , 26-N ) :   1.4968 B( 22-C , 23-N ) :   1.4492
B( 22-C , 27-C ) :   1.2664 B( 23-N , 24-C ) :   1.6517 B( 24-C , 25-C ) :   1.1983
B( 24-C , 84-H ) :   0.9718 B( 25-C , 26-N ) :   1.6818 B( 25-C , 85-H ) :   0.9755
B( 27-C , 28-C ) :   1.2348 B( 27-C , 33-C ) :   1.0688 B( 28-C , 29-C ) :   1.1049
B( 28-C , 32-N ) :   1.5294 B( 29-C , 30-N ) :   1.4869 B( 30-N , 31-S ) :   1.2965
B( 30-N , 32-N ) :   0.1385 B( 31-S , 32-N ) :   1.3101 B( 33-C , 34-N ) :   1.2535
B( 33-C , 40-C ) :   1.3766 B( 34-N , 35-C ) :   0.9369 B( 34-N , 37-C ) :   1.0167
B( 35-C , 36-C ) :   1.1186 B( 35-C , 86-H ) :   0.9229 B( 35-C , 87-H ) :   0.9281
B( 36-C , 88-H ) :   0.9664 B( 36-C , 89-H ) :   0.9686 B( 36-C , 90-H ) :   0.9673
B( 37-C , 38-O ) :   2.1340 B( 37-C , 39-C ) :   0.9731 B( 39-C , 40-C ) :   1.2508
B( 39-C , 46-C ) :   1.3484 B( 40-C , 41-C ) :   0.9865 B( 41-C , 42-O ) :   1.9534
B( 41-C , 43-N ) :   1.0751 B( 43-N , 44-C ) :   0.9381 B( 43-N , 46-C ) :   1.1707
B( 44-C , 45-C ) :   1.1193 B( 44-C , 91-H ) :   0.9197 B( 44-C , 92-H ) :   0.9488
B( 45-C , 93-H ) :   0.9593 B( 45-C , 94-H ) :   0.9671 B( 45-C , 95-H ) :   0.9669
B( 46-C , 47-C ) :   1.1962 B( 47-C , 48-C ) :   1.5747 B( 47-C , 96-H ) :   0.9398
B( 48-C , 49-C ) :   1.1553 B( 48-C , 97-H ) :   0.9821 B( 49-C , 50-S ) :   1.1253
B( 49-C , 56-C ) :   1.4604 B( 50-S , 51-C ) :   1.1275 B( 51-C , 52-C ) :   0.9182
B( 51-C , 55-C ) :   1.5388 B( 52-C , 53-O ) :   2.1527 B( 52-C , 54-O ) :   1.2651
B( 54-O , 98-H ) :   0.9449 B( 55-C , 56-C ) :   1.2537 B( 55-C , 57-C ) :   1.0190
B( 56-C , 99-H ) :   1.0073 B( 57-C , 58-C ) :   1.7547 B( 57-C ,100-H ) :   0.9335
B( 58-C , 59-C ) :   1.0371 B( 58-C , 67-C ) :   0.9085 B( 59-C , 60-C ) :   1.6600
B( 59-C , 65-C ) :   1.0021 B( 60-C , 61-C ) :   1.1380 B( 60-C , 63-C ) :   1.1421
B( 61-C , 62-N ) :   2.9719 B( 63-C , 64-N ) :   2.9797 B( 65-C , 66-C ) :   1.2108
B( 65-C , 72-C ) :   1.4408 B( 66-C , 67-C ) :   0.9479 B( 66-C , 69-C ) :   1.4635
B( 67-C , 68-O ) :   2.2175 B( 69-C , 70-C ) :   1.1880 B( 69-C ,101-H ) :   1.0147
B( 70-C , 71-C ) :   1.2538 B( 70-C , 76-C ) :   1.2400 B( 71-C , 72-C ) :   1.2126
B( 71-C , 73-C ) :   1.2381 B( 72-C ,102-H ) :   0.9892 B( 73-C , 74-C ) :   1.4932
B( 73-C ,103-H ) :   0.9967 B( 74-C , 75-C ) :   1.2571 B( 74-C ,104-H ) :   0.9879
B( 75-C , 76-C ) :   1.4929 B( 75-C ,105-H ) :   0.9884 B( 76-C ,106-H ) :   0.9973

-----------------------------------------------------------------------------
         ABSORPTION SPECTRUM VIA TRANSITION ELECTRIC DIPOLE MOMENTS
-----------------------------------------------------------------------------
State   Energy  Wavelength   fosc         T2         TX        TY        TZ
        (cm-1)    (nm)                  (au**2)     (au)      (au)      (au)
-----------------------------------------------------------------------------
   0   11265.9    887.6   0.514460160  15.03357  -1.62008   3.39682   0.93303
   1   19191.2    521.1   0.088910891   1.52520   0.41783  -1.14486  -0.19976
   2   19909.0    502.3   0.100561031   1.66286  -0.53510   0.09949   1.16903
   3   20524.6    487.2   0.195533918   3.13634  -0.94309  -0.66965   1.34108
   4   21030.4    475.5   0.241170638   3.77531  -1.05509   1.27704   1.01551
   5   22577.1    442.9   0.193101286   2.81573  -1.02266  -0.52015   1.22448
   6   23677.0    422.4   0.018644917   0.25924  -0.16928  -0.29154  -0.38157
   7   24656.1    405.6   0.006393873   0.08537   0.19050  -0.18754   0.11794
   8   25453.4    392.9   0.044138154   0.57088   0.00738  -0.74794  -0.10681
   9   25679.6    389.4   0.034357269   0.44046   0.47435  -0.44410  -0.13502
  10   26371.8    379.2   0.157931098   1.97153   0.47209  -1.02461  -0.83597
  11   26640.5    375.4   0.040108821   0.49565  -0.01978   0.63926  -0.29429
  12   26848.8    372.5   0.037137075   0.45536   0.08880   0.61889  -0.25387
  13   27506.7    363.5   0.052878088   0.63287  -0.47651   0.53832   0.34061
  14   27666.8    361.4   0.111171426   1.32285  -0.15816   1.09348   0.31958
  15   28378.0    352.4   0.029860470   0.34641   0.10811  -0.46977   0.33770
  16   28874.2    346.3   0.025233905   0.28771  -0.27468   0.20274   0.41370
  17   29183.3    342.7   0.060268304   0.67988  -0.30085  -0.73887  -0.20842
  18   29573.5    338.1   0.113075968   1.25876   0.75927  -0.82594   0.00917
  19   30035.2    332.9   0.105951457   1.16132  -1.03332   0.26553   0.15190
  20   30582.6    327.0   0.108092131   1.16358  -0.68351  -0.83422   0.02163
  21   30687.5    325.9   0.007680505   0.08240  -0.09438  -0.04797  -0.26681
  22   30805.7    324.6   0.244596742   2.61394   0.86614   1.34943  -0.20680
  23   30910.6    323.5   0.061483672   0.65483  -0.60679  -0.44833   0.29262
  24   31091.2    321.6   0.190453134   2.01663   0.81020  -1.10438  -0.37491
  25   31152.2    321.0   0.003610911   0.03816   0.08773  -0.01490  -0.17390
  26   31352.3    319.0   0.122872110   1.29021  -0.64551  -0.89434   0.27145
  27   31606.9    316.4   0.043105798   0.44898  -0.06976  -0.44176   0.49897
  28   31733.0    315.1   0.132367381   1.37324  -0.74908   0.66649   0.60655
  29   32296.9    309.6   0.077670154   0.79171   0.20754  -0.85185   0.15163
  30   33076.3    302.3   0.281779043   2.80458  -0.04301  -1.63586   0.35592
  31   33299.5    300.3   0.111712428   1.10443   0.55876   0.57369  -0.68051
  32   33740.7    296.4   0.231517713   2.25895  -0.00110   0.81816  -1.26077
  33   33912.0    294.9   0.872683617   8.47187   0.99481  -2.55311   0.98175
  34   34346.4    291.2   0.139279868   1.33500   0.15814  -1.08441  -0.36612
  35   34417.2    290.6   0.295223442   2.82391   0.40682  -1.62552  -0.12687
  36   34619.2    288.9   0.031091847   0.29567  -0.48022  -0.20316  -0.15421
  37   34625.3    288.8   0.013774850   0.13097  -0.04159  -0.29710   0.20242
  38   35147.8    284.5   0.054388470   0.50943  -0.54936   0.26183   0.37294
  39   35409.1    282.4   0.011308648   0.10514   0.26940  -0.01617  -0.17973
  40   35624.6    280.7   0.040580308   0.37501   0.05529   0.60017   0.10838
  41   35993.0    277.8   0.104396846   0.95487   0.76063   0.51878   0.32738
  42   36050.5    277.4   0.143472165   1.31018  -0.61845  -0.67601   0.68609
  43   36329.2    275.3   0.379156974   3.43588   0.40974   1.77286  -0.35350
  44   36477.2    274.1   0.025322053   0.22854   0.02596   0.41701  -0.23230
  45   36526.1    273.8   0.021435878   0.19320   0.23198   0.36135   0.09389
  46   36626.2    273.0   0.011863355   0.10663  -0.08853  -0.30845  -0.06046
  47   37054.9    269.9   0.007480090   0.06646   0.12808   0.06161  -0.21508
  48   37225.6    268.6   0.013095298   0.11581  -0.27470   0.19684   0.04008
  49   37374.7    267.6   0.028947135   0.25498   0.32021  -0.20953   0.32946
  50   37761.8    264.8   0.012811359   0.11169  -0.12080  -0.19172   0.24565
  51   37931.9    263.6   0.009462872   0.08213   0.22327   0.04936   0.17275
  52   38082.7    262.6   0.115353270   0.99719   0.57912   0.74012  -0.33769
  53   38192.7    261.8   0.022112730   0.19061   0.28412   0.26348  -0.20116
  54   38327.3    260.9   0.022411695   0.19251   0.12681   0.37154   0.19592
  55   38610.8    259.0   0.012972081   0.11061  -0.14979  -0.29299  -0.04824
  56   38709.3    258.3   0.008565795   0.07285  -0.06506   0.25242  -0.07000
  57   38897.7    257.1   0.010779931   0.09124   0.07484  -0.26626  -0.12141
  58   38949.0    256.7   0.024833640   0.20990   0.44329  -0.01535  -0.11473
  59   39080.7    255.9   0.087051530   0.73331   0.18589  -0.46882  -0.69208
  60   39135.2    255.5   0.179061396   1.50629   0.63106   0.14187  -1.04304
  61   39446.9    253.5   0.016713193   0.13948   0.25107   0.26546  -0.07731
  62   39595.7    252.6   0.022586096   0.18779   0.13790  -0.11135  -0.39544
  63   39632.4    252.3   0.005133019   0.04264  -0.01952  -0.16247   0.12594
  64   40005.4    250.0   0.025139114   0.20687  -0.40777   0.11174   0.16766
  65   40318.9    248.0   0.031537974   0.25751  -0.35421  -0.36339  -0.00042

FINAL SINGLE POINT ENERGY     -4057.189281011204

DIPOLE MOMENT
-------------
                                X             Y             Z
Electronic contribution:      4.71748      -4.80489       0.37539
Nuclear contribution   :     -5.20948       4.21734      -2.94424
                        -----------------------------------------
Total Dipole Moment    :     -0.49200      -0.58755      -2.56885
                        -----------------------------------------
Magnitude (a.u.)       :      2.68072
Magnitude (Debye)      :      6.81386

Rotational constants in cm-1:     0.001670     0.000285     0.000254
Rotational constants in MHz :    50.075203     8.553202     7.616697

                             ****ORCA TERMINATED NORMALLY****
TOTAL RUN TIME: 0 days 0 hours 19 minutes 56 seconds 238 msec
