                         Program Version 4.2.0 -  RELEASE  -
|  1> # ORCA input file
|  2> # SCF done       -193.773883056523          0.000490419284
|  3> ! CAM-B3LYP def2-SVP def2/J RIJCOSX Grid4 TightSCF
|  4> %maxcore 5000
|  5> %tddft
|  6>     Mode sTDDFT
|  7>     Ethresh 5.0
|  8>     maxcore 5000
|  9> end
| 10>
| 11> %pal
| 12>   nprocs 6
| 13>   end
| 14> * xyz 0 1
| 15>    C        3.11647         2.02862         0.60040
| 16>    C        3.28542         3.38365         0.58558
| 17>    C        4.50288         4.02082         0.90806
| 18>    N        5.46807         4.58143         1.17259
| 19>    C        2.29525         4.29613         0.15837
| 20>    N        1.53836         5.06840        -0.22351
| 21>    C        4.16892         1.03807         0.78639
| 22>    C        3.72711        -0.20548         0.24377
| 23>    C        4.52752        -1.31271         0.24581
| 24>    C        5.82055        -1.22748         0.80759
| 25>    C        6.26137         0.00852         1.36548
| 26>    C        5.41504         1.14013         1.34501
| 27>    C        7.55150         0.07683         1.92999
| 28>    C        8.36889        -1.02030         1.94245
| 29>    C        7.93459        -2.23613         1.39266
| 30>    C        6.68835        -2.33740         0.83673
| 31>    C        2.34877        -0.06655        -0.25312
| 32>    O        1.66772        -0.88170        -0.82232
| 33>    C        1.92357         1.30782         0.18159
| 34>    C        0.61040         1.60182         0.27243
| 35>    C        0.00843         2.67085         1.00546
| 36>    C       -1.27798         3.18300         0.93337
| 37>    C       -2.34653         2.64471         0.07575
| 38>    O       -2.14112         2.01926        -0.92940
| 39>    O       -3.56278         2.81875         0.60032
| 40>    C       -1.29432         4.18816         1.94832
| 41>    N       -0.13551         4.20941         2.56983
| 42>    O        0.66364         3.29060         2.00221
| 43>    C       -2.35293         5.11521         2.25355
| 44>    N       -2.57561         5.64483         3.49393
| 45>    C       -1.79052         5.43970         4.68650
| 46>    C       -0.63112         6.42877         4.75975
| 47>    C       -3.66946         6.53542         3.48557
| 48>    O       -4.07106         7.10376         4.48125
| 49>    C       -4.11296         6.54411         2.11005
| 50>    C       -3.28092         5.64642         1.38094
| 51>    C       -3.69116         5.68203        -0.00771
| 52>    O       -3.29968         5.09554        -0.99224
| 53>    N       -4.75893         6.60114        -0.02395
| 54>    C       -5.40741         6.96462        -1.26122
| 55>    C       -4.89813         8.30048        -1.79661
| 56>    C       -5.01667         7.11774         1.22388
| 57>    C       -6.06005         8.04927         1.48702
| 58>    C       -6.32999         8.50194         2.73315
| 59>    C       -7.38268         9.42752         2.99716
| 60>    C       -7.87386         9.94949         4.18965
| 61>    C       -7.48961         9.63130         5.56613
| 62>    O       -7.92617        10.17930         6.55243
| 63>    O       -6.60957         8.63386         5.63045
| 64>    C       -8.91128        10.83786         3.76185
| 65>    N       -9.01829        10.80819         2.45844
| 66>    O       -8.08336         9.96197         1.98189
| 67>    C       -9.79021        11.63143         4.60077
| 68>    C       -9.32176        12.44359         5.56108
| 69>    C      -10.06673        13.14067         6.60514
| 70>    C      -11.41691        13.34160         6.64303
| 71>    C      -12.08568        14.03116         7.67825
| 72>    N      -12.68440        14.58522         8.48523
| 73>    C      -12.32251        12.91391         5.64732
| 74>    N      -13.11460        12.59651         4.88027
| 75>    C       -9.09936        13.58435         7.59802
| 76>    C       -7.78307        13.31051         7.12391
| 77>    C       -7.86010        12.68707         5.79605
| 78>    O       -6.95919        12.47905         5.01768
| 79>    C       -6.67457        13.61181         7.86177
| 80>    C       -6.83290        14.20436         9.13386
| 81>    C       -8.14557        14.48069         9.61621
| 82>    C       -9.27448        14.16233         8.82946
| 83>    C       -8.29097        15.07226        10.88839
| 84>    C       -7.19507        15.37528        11.64887
| 85>    C       -5.90332        15.10148        11.17358
| 86>    C       -5.72627        14.52924         9.94332
| 87>    H        4.17695        -2.24306        -0.17547
| 88>    H        5.76733         2.06073         1.78357
| 89>    H        7.88263         1.01552         2.34899
| 90>    H        9.35562        -0.95756         2.37593
| 91>    H        8.59260        -3.09179         1.41221
| 92>    H        6.34878        -3.27043         0.41175
| 93>    H       -0.08835         0.93246        -0.21736
| 94>    H       -4.22851         2.47192        -0.01440
| 95>    H       -1.41337         4.41598         4.69515
| 96>    H       -2.46642         5.59396         5.53234
| 97>    H        0.03799         6.27793         3.91736
| 98>    H       -0.07731         6.27661         5.68141
| 99>    H       -1.00966         7.44776         4.74264
|100>    H       -6.49075         6.98929        -1.11523
|101>    H       -5.16451         6.17033        -1.97271
|102>    H       -5.09143         9.10529        -1.09106
|103>    H       -5.39306         8.53204        -2.73561
|104>    H       -3.82685         8.24389        -1.97342
|105>    H       -6.66161         8.39018         0.65646
|106>    H       -5.75436         8.17406         3.58639
|107>    H       -6.33829         8.46216         6.54550
|108>    H      -10.84907        11.49802         4.42861
|109>    H       -5.68792        13.39314         7.48127
|110>    H      -10.25502        14.37632         9.22479
|111>    H       -9.28718        15.28152        11.24950
|112>    H       -7.31664        15.82751        12.62171
|113>    H       -5.04968        15.34644        11.78773
|114>    H       -4.73431        14.31676         9.57229
|115> *
|116>
|117>                          ****END OF INPUT****

CARTESIAN COORDINATES (ANGSTROEM)
---------------------------------
  C      3.116470    2.028620    0.600400
  C      3.285420    3.383650    0.585580
  C      4.502880    4.020820    0.908060
  N      5.468070    4.581430    1.172590
  C      2.295250    4.296130    0.158370
  N      1.538360    5.068400   -0.223510
  C      4.168920    1.038070    0.786390
  C      3.727110   -0.205480    0.243770
  C      4.527520   -1.312710    0.245810
  C      5.820550   -1.227480    0.807590
  C      6.261370    0.008520    1.365480
  C      5.415040    1.140130    1.345010
  C      7.551500    0.076830    1.929990
  C      8.368890   -1.020300    1.942450
  C      7.934590   -2.236130    1.392660
  C      6.688350   -2.337400    0.836730
  C      2.348770   -0.066550   -0.253120
  O      1.667720   -0.881700   -0.822320
  C      1.923570    1.307820    0.181590
  C      0.610400    1.601820    0.272430
  C      0.008430    2.670850    1.005460
  C     -1.277980    3.183000    0.933370
  C     -2.346530    2.644710    0.075750
  O     -2.141120    2.019260   -0.929400
  O     -3.562780    2.818750    0.600320
  C     -1.294320    4.188160    1.948320
  N     -0.135510    4.209410    2.569830
  O      0.663640    3.290600    2.002210
  C     -2.352930    5.115210    2.253550
  N     -2.575610    5.644830    3.493930
  C     -1.790520    5.439700    4.686500
  C     -0.631120    6.428770    4.759750
  C     -3.669460    6.535420    3.485570
  O     -4.071060    7.103760    4.481250
  C     -4.112960    6.544110    2.110050
  C     -3.280920    5.646420    1.380940
  C     -3.691160    5.682030   -0.007710
  O     -3.299680    5.095540   -0.992240
  N     -4.758930    6.601140   -0.023950
  C     -5.407410    6.964620   -1.261220
  C     -4.898130    8.300480   -1.796610
  C     -5.016670    7.117740    1.223880
  C     -6.060050    8.049270    1.487020
  C     -6.329990    8.501940    2.733150
  C     -7.382680    9.427520    2.997160
  C     -7.873860    9.949490    4.189650
  C     -7.489610    9.631300    5.566130
  O     -7.926170   10.179300    6.552430
  O     -6.609570    8.633860    5.630450
  C     -8.911280   10.837860    3.761850
  N     -9.018290   10.808190    2.458440
  O     -8.083360    9.961970    1.981890
  C     -9.790210   11.631430    4.600770
  C     -9.321760   12.443590    5.561080
  C    -10.066730   13.140670    6.605140
  C    -11.416910   13.341600    6.643030
  C    -12.085680   14.031160    7.678250
  N    -12.684400   14.585220    8.485230
  C    -12.322510   12.913910    5.647320
  N    -13.114600   12.596510    4.880270
  C     -9.099360   13.584350    7.598020
  C     -7.783070   13.310510    7.123910
  C     -7.860100   12.687070    5.796050
  O     -6.959190   12.479050    5.017680
  C     -6.674570   13.611810    7.861770
  C     -6.832900   14.204360    9.133860
  C     -8.145570   14.480690    9.616210
  C     -9.274480   14.162330    8.829460
  C     -8.290970   15.072260   10.888390
  C     -7.195070   15.375280   11.648870
  C     -5.903320   15.101480   11.173580
  C     -5.726270   14.529240    9.943320
  H      4.176950   -2.243060   -0.175470
  H      5.767330    2.060730    1.783570
  H      7.882630    1.015520    2.348990
  H      9.355620   -0.957560    2.375930
  H      8.592600   -3.091790    1.412210
  H      6.348780   -3.270430    0.411750
  H     -0.088350    0.932460   -0.217360
  H     -4.228510    2.471920   -0.014400
  H     -1.413370    4.415980    4.695150
  H     -2.466420    5.593960    5.532340
  H      0.037990    6.277930    3.917360
  H     -0.077310    6.276610    5.681410
  H     -1.009660    7.447760    4.742640
  H     -6.490750    6.989290   -1.115230
  H     -5.164510    6.170330   -1.972710
  H     -5.091430    9.105290   -1.091060
  H     -5.393060    8.532040   -2.735610
  H     -3.826850    8.243890   -1.973420
  H     -6.661610    8.390180    0.656460
  H     -5.754360    8.174060    3.586390
  H     -6.338290    8.462160    6.545500
  H    -10.849070   11.498020    4.428610
  H     -5.687920   13.393140    7.481270
  H    -10.255020   14.376320    9.224790
  H     -9.287180   15.281520   11.249500
  H     -7.316640   15.827510   12.621710
  H     -5.049680   15.346440   11.787730
  H     -4.734310   14.316760    9.572290

 Total Charge           Charge          ....    0
 Multiplicity           Mult            ....    1
 Number of Electrons    NEL             ....  488
 Basis Dimension        Dim             .... 1148

ORBITAL ENERGIES
----------------

  NO   OCC          E(Eh)            E(eV)
   0   2.0000     -19.343636      -526.3671
   1   2.0000     -19.325476      -525.8729
   2   2.0000     -19.271147      -524.3946
   3   2.0000     -19.269192      -524.3414
   4   2.0000     -19.225971      -523.1653
   5   2.0000     -19.216397      -522.9047
   6   2.0000     -19.213237      -522.8188
   7   2.0000     -19.212795      -522.8067
   8   2.0000     -19.199151      -522.4355
   9   2.0000     -19.198656      -522.4220
  10   2.0000     -14.487744      -394.2316
  11   2.0000     -14.469323      -393.7303
  12   2.0000     -14.461743      -393.5240
  13   2.0000     -14.460952      -393.5025
  14   2.0000     -14.423769      -392.4907
  15   2.0000     -14.419616      -392.3777
  16   2.0000     -14.418303      -392.3420
  17   2.0000     -14.418137      -392.3375
  18   2.0000     -10.420453      -283.5549
  19   2.0000     -10.419842      -283.5383
  20   2.0000     -10.382754      -282.5291
  21   2.0000     -10.380920      -282.4792
  22   2.0000     -10.378555      -282.4148
  23   2.0000     -10.376967      -282.3716
  24   2.0000     -10.368928      -282.1529
  25   2.0000     -10.364948      -282.0446
  26   2.0000     -10.354756      -281.7672
  27   2.0000     -10.351778      -281.6862
  28   2.0000     -10.350770      -281.6588
  29   2.0000     -10.349177      -281.6154
  30   2.0000     -10.348327      -281.5923
  31   2.0000     -10.347558      -281.5714
  32   2.0000     -10.343453      -281.4597
  33   2.0000     -10.331120      -281.1241
  34   2.0000     -10.329327      -281.0753
  35   2.0000     -10.325063      -280.9593
  36   2.0000     -10.321074      -280.8507
  37   2.0000     -10.320323      -280.8303
  38   2.0000     -10.319776      -280.8154
  39   2.0000     -10.319041      -280.7954
  40   2.0000     -10.317158      -280.7442
  41   2.0000     -10.317012      -280.7402
  42   2.0000     -10.313145      -280.6349
  43   2.0000     -10.311858      -280.5999
  44   2.0000     -10.306899      -280.4650
  45   2.0000     -10.306581      -280.4563
  46   2.0000     -10.305004      -280.4134
  47   2.0000     -10.304925      -280.4113
  48   2.0000     -10.304381      -280.3965
  49   2.0000     -10.304365      -280.3960
  50   2.0000     -10.304332      -280.3951
  51   2.0000     -10.303941      -280.3845
  52   2.0000     -10.303733      -280.3788
  53   2.0000     -10.302558      -280.3469
  54   2.0000     -10.298698      -280.2418
  55   2.0000     -10.298458      -280.2353
  56   2.0000     -10.297937      -280.2211
  57   2.0000     -10.297811      -280.2177
  58   2.0000     -10.296704      -280.1876
  59   2.0000     -10.292524      -280.0738
  60   2.0000     -10.292072      -280.0615
  61   2.0000     -10.291809      -280.0544
  62   2.0000     -10.291296      -280.0404
  63   2.0000     -10.289004      -279.9780
  64   2.0000     -10.287432      -279.9353
  65   2.0000     -10.286784      -279.9176
  66   2.0000     -10.286610      -279.9129
  67   2.0000     -10.286142      -279.9001
  68   2.0000     -10.272594      -279.5315
  69   2.0000     -10.269925      -279.4589
  70   2.0000     -10.265658      -279.3428
  71   2.0000     -10.251080      -278.9461
  72   2.0000      -1.283552       -34.9272
  73   2.0000      -1.264607       -34.4117
  74   2.0000      -1.200924       -32.6788
  75   2.0000      -1.199204       -32.6320
  76   2.0000      -1.142173       -31.0801
  77   2.0000      -1.142039       -31.0765
  78   2.0000      -1.135211       -30.8907
  79   2.0000      -1.133867       -30.8541
  80   2.0000      -1.104425       -30.0529
  81   2.0000      -1.102967       -30.0133
  82   2.0000      -1.073621       -29.2147
  83   2.0000      -1.065106       -28.9830
  84   2.0000      -1.026472       -27.9317
  85   2.0000      -1.020354       -27.7652
  86   2.0000      -1.005939       -27.3730
  87   2.0000      -1.000832       -27.2340
  88   2.0000      -0.999883       -27.2082
  89   2.0000      -0.996434       -27.1143
  90   2.0000      -0.993904       -27.0455
  91   2.0000      -0.987181       -26.8626
  92   2.0000      -0.978473       -26.6256
  93   2.0000      -0.971175       -26.4270
  94   2.0000      -0.948532       -25.8109
  95   2.0000      -0.941776       -25.6270
  96   2.0000      -0.932965       -25.3873
  97   2.0000      -0.928574       -25.2678
  98   2.0000      -0.924350       -25.1528
  99   2.0000      -0.903712       -24.5912
 100   2.0000      -0.899699       -24.4821
 101   2.0000      -0.895999       -24.3814
 102   2.0000      -0.888265       -24.1709
 103   2.0000      -0.882033       -24.0013
 104   2.0000      -0.874626       -23.7998
 105   2.0000      -0.868956       -23.6455
 106   2.0000      -0.865191       -23.5431
 107   2.0000      -0.835295       -22.7295
 108   2.0000      -0.833080       -22.6693
 109   2.0000      -0.829214       -22.5641
 110   2.0000      -0.821437       -22.3524
 111   2.0000      -0.811522       -22.0826
 112   2.0000      -0.808611       -22.0034
 113   2.0000      -0.800965       -21.7954
 114   2.0000      -0.782601       -21.2957
 115   2.0000      -0.773142       -21.0383
 116   2.0000      -0.768233       -20.9047
 117   2.0000      -0.763023       -20.7629
 118   2.0000      -0.761407       -20.7190
 119   2.0000      -0.737368       -20.0648
 120   2.0000      -0.731687       -19.9102
 121   2.0000      -0.725476       -19.7412
 122   2.0000      -0.713865       -19.4253
 123   2.0000      -0.713330       -19.4107
 124   2.0000      -0.708769       -19.2866
 125   2.0000      -0.707199       -19.2439
 126   2.0000      -0.705642       -19.2015
 127   2.0000      -0.701881       -19.0991
 128   2.0000      -0.692852       -18.8535
 129   2.0000      -0.684930       -18.6379
 130   2.0000      -0.683429       -18.5970
 131   2.0000      -0.680230       -18.5100
 132   2.0000      -0.678349       -18.4588
 133   2.0000      -0.659281       -17.9399
 134   2.0000      -0.657734       -17.8978
 135   2.0000      -0.651347       -17.7241
 136   2.0000      -0.639668       -17.4063
 137   2.0000      -0.638376       -17.3711
 138   2.0000      -0.623466       -16.9654
 139   2.0000      -0.619927       -16.8691
 140   2.0000      -0.614775       -16.7289
 141   2.0000      -0.614654       -16.7256
 142   2.0000      -0.608171       -16.5492
 143   2.0000      -0.607463       -16.5299
 144   2.0000      -0.604760       -16.4563
 145   2.0000      -0.599837       -16.3224
 146   2.0000      -0.597632       -16.2624
 147   2.0000      -0.589706       -16.0467
 148   2.0000      -0.588092       -16.0028
 149   2.0000      -0.584806       -15.9134
 150   2.0000      -0.581628       -15.8269
 151   2.0000      -0.571140       -15.5415
 152   2.0000      -0.567204       -15.4344
 153   2.0000      -0.565887       -15.3986
 154   2.0000      -0.564833       -15.3699
 155   2.0000      -0.556213       -15.1353
 156   2.0000      -0.553636       -15.0652
 157   2.0000      -0.552960       -15.0468
 158   2.0000      -0.552517       -15.0347
 159   2.0000      -0.550499       -14.9798
 160   2.0000      -0.548902       -14.9364
 161   2.0000      -0.547223       -14.8907
 162   2.0000      -0.547104       -14.8875
 163   2.0000      -0.544110       -14.8060
 164   2.0000      -0.541669       -14.7396
 165   2.0000      -0.540540       -14.7089
 166   2.0000      -0.532871       -14.5001
 167   2.0000      -0.530259       -14.4291
 168   2.0000      -0.527642       -14.3579
 169   2.0000      -0.525971       -14.3124
 170   2.0000      -0.524714       -14.2782
 171   2.0000      -0.523833       -14.2542
 172   2.0000      -0.518897       -14.1199
 173   2.0000      -0.518539       -14.1102
 174   2.0000      -0.515295       -14.0219
 175   2.0000      -0.513302       -13.9677
 176   2.0000      -0.511831       -13.9276
 177   2.0000      -0.509571       -13.8661
 178   2.0000      -0.506672       -13.7873
 179   2.0000      -0.504534       -13.7291
 180   2.0000      -0.502057       -13.6617
 181   2.0000      -0.500756       -13.6263
 182   2.0000      -0.497760       -13.5447
 183   2.0000      -0.497044       -13.5253
 184   2.0000      -0.491716       -13.3803
 185   2.0000      -0.490410       -13.3447
 186   2.0000      -0.489653       -13.3241
 187   2.0000      -0.483956       -13.1691
 188   2.0000      -0.480715       -13.0809
 189   2.0000      -0.476188       -12.9577
 190   2.0000      -0.472969       -12.8701
 191   2.0000      -0.472554       -12.8589
 192   2.0000      -0.466477       -12.6935
 193   2.0000      -0.465656       -12.6712
 194   2.0000      -0.464034       -12.6270
 195   2.0000      -0.455962       -12.4073
 196   2.0000      -0.453632       -12.3439
 197   2.0000      -0.451251       -12.2792
 198   2.0000      -0.450641       -12.2626
 199   2.0000      -0.449180       -12.2228
 200   2.0000      -0.447271       -12.1709
 201   2.0000      -0.446094       -12.1388
 202   2.0000      -0.444697       -12.1008
 203   2.0000      -0.442042       -12.0286
 204   2.0000      -0.441930       -12.0255
 205   2.0000      -0.438636       -11.9359
 206   2.0000      -0.436584       -11.8801
 207   2.0000      -0.435842       -11.8599
 208   2.0000      -0.434501       -11.8234
 209   2.0000      -0.433480       -11.7956
 210   2.0000      -0.431229       -11.7343
 211   2.0000      -0.429459       -11.6862
 212   2.0000      -0.425653       -11.5826
 213   2.0000      -0.422284       -11.4909
 214   2.0000      -0.421606       -11.4725
 215   2.0000      -0.421333       -11.4651
 216   2.0000      -0.417974       -11.3737
 217   2.0000      -0.412964       -11.2373
 218   2.0000      -0.409778       -11.1506
 219   2.0000      -0.405908       -11.0453
 220   2.0000      -0.403356       -10.9759
 221   2.0000      -0.400838       -10.9074
 222   2.0000      -0.394892       -10.7456
 223   2.0000      -0.389182       -10.5902
 224   2.0000      -0.388897       -10.5824
 225   2.0000      -0.387694       -10.5497
 226   2.0000      -0.382302       -10.4030
 227   2.0000      -0.376996       -10.2586
 228   2.0000      -0.375742       -10.2245
 229   2.0000      -0.368812       -10.0359
 230   2.0000      -0.363280        -9.8854
 231   2.0000      -0.355545        -9.6749
 232   2.0000      -0.347012        -9.4427
 233   2.0000      -0.340116        -9.2550
 234   2.0000      -0.338501        -9.2111
 235   2.0000      -0.328992        -8.9523
 236   2.0000      -0.328343        -8.9347
 237   2.0000      -0.323651        -8.8070
 238   2.0000      -0.320017        -8.7081
 239   2.0000      -0.319794        -8.7020
 240   2.0000      -0.314925        -8.5696
 241   2.0000      -0.300362        -8.1733
 242   2.0000      -0.294327        -8.0090
 243   2.0000      -0.255731        -6.9588
 244   0.0000      -0.104302        -2.8382
 245   0.0000      -0.093095        -2.5332
 246   0.0000      -0.090146        -2.4530
 247   0.0000      -0.062993        -1.7141
 248   0.0000      -0.053819        -1.4645

MULLIKEN ATOMIC CHARGES
-----------------------
   0 C :    0.258180
   1 C :   -0.295175
   2 C :   -0.179104
   3 N :    0.158888
   4 C :   -0.194921
   5 N :    0.175790
   6 C :    0.042500
   7 C :    0.007613
   8 C :   -0.077109
   9 C :    0.094836
  10 C :    0.095727
  11 C :   -0.079033
  12 C :   -0.016370
  13 C :    0.039362
  14 C :    0.034987
  15 C :   -0.013740
  16 C :    0.136458
  17 O :   -0.122631
  18 C :   -0.087815
  19 C :    0.031270
  20 C :    0.122318
  21 C :   -0.011949
  22 C :    0.145088
  23 O :   -0.177899
  24 O :   -0.173321
  25 C :   -0.017608
  26 N :    0.013222
  27 O :   -0.163209
  28 C :    0.109549
  29 N :   -0.249921
  30 C :    0.124652
  31 C :   -0.000286
  32 C :    0.163376
  33 O :   -0.205278
  34 C :   -0.071713
  35 C :   -0.011230
  36 C :    0.133714
  37 O :   -0.187630
  38 N :   -0.261556
  39 C :    0.090926
  40 C :    0.003476
  41 C :    0.137386
  42 C :   -0.007047
  43 C :   -0.015905
  44 C :    0.156755
  45 C :   -0.041689
  46 C :    0.149196
  47 O :   -0.209106
  48 O :   -0.141045
  49 C :   -0.008736
  50 N :    0.040059
  51 O :   -0.177591
  52 C :   -0.040555
  53 C :   -0.023450
  54 C :    0.306424
  55 C :   -0.337625
  56 C :   -0.183683
  57 N :    0.156633
  58 C :   -0.192045
  59 N :    0.167033
  60 C :    0.058182
  61 C :    0.018294
  62 C :    0.150687
  63 O :   -0.142831
  64 C :   -0.084140
  65 C :    0.100771
  66 C :    0.101725
  67 C :   -0.092470
  68 C :   -0.021629
  69 C :    0.040455
  70 C :    0.037286
  71 C :   -0.018198
  72 H :   -0.008431
  73 H :   -0.002960
  74 H :   -0.009408
  75 H :   -0.002497
  76 H :   -0.001849
  77 H :   -0.015458
  78 H :    0.048966
  79 H :    0.199270
  80 H :    0.024182
  81 H :    0.029628
  82 H :    0.035671
  83 H :    0.015246
  84 H :    0.021391
  85 H :    0.027854
  86 H :    0.045371
  87 H :    0.019577
  88 H :    0.027803
  89 H :    0.034936
  90 H :    0.000578
  91 H :    0.049804
  92 H :    0.201151
  93 H :    0.049315
  94 H :   -0.014600
  95 H :   -0.007309
  96 H :   -0.009511
  97 H :   -0.004688
  98 H :   -0.004386
  99 H :   -0.017222
Sum of atomic charges:   -0.0000000

LOEWDIN ATOMIC CHARGES
----------------------
   0 C :    0.063694
   1 C :   -0.113846
   2 C :   -0.016524
   3 N :   -0.041023
   4 C :   -0.026008
   5 N :   -0.037160
   6 C :   -0.022275
   7 C :   -0.059797
   8 C :    0.036801
   9 C :   -0.008340
  10 C :   -0.003518
  11 C :    0.018174
  12 C :   -0.005522
  13 C :   -0.009862
  14 C :   -0.010988
  15 C :   -0.007584
  16 C :    0.085361
  17 O :   -0.123196
  18 C :   -0.047740
  19 C :    0.044851
  20 C :    0.060952
  21 C :   -0.082037
  22 C :    0.081946
  23 O :   -0.159680
  24 O :   -0.021709
  25 C :   -0.019370
  26 N :   -0.005798
  27 O :    0.051868
  28 C :    0.066310
  29 N :    0.014759
  30 C :    0.037120
  31 C :   -0.061966
  32 C :    0.081526
  33 O :   -0.195762
  34 C :   -0.119676
  35 C :   -0.108787
  36 C :    0.082048
  37 O :   -0.183715
  38 N :   -0.001383
  39 C :    0.035212
  40 C :   -0.059900
  41 C :    0.083141
  42 C :   -0.017950
  43 C :    0.011127
  44 C :    0.069755
  45 C :   -0.114430
  46 C :    0.088639
  47 O :   -0.183976
  48 O :   -0.007397
  49 C :   -0.018554
  50 N :   -0.015570
  51 O :    0.033771
  52 C :    0.056352
  53 C :   -0.042723
  54 C :    0.078668
  55 C :   -0.124799
  56 C :   -0.016346
  57 N :   -0.045970
  58 C :   -0.020322
  59 N :   -0.040205
  60 C :   -0.021934
  61 C :   -0.047550
  62 C :    0.088748
  63 O :   -0.134433
  64 C :    0.034730
  65 C :   -0.005834
  66 C :   -0.005101
  67 C :    0.021402
  68 C :   -0.004698
  69 C :   -0.012932
  70 C :   -0.011203
  71 C :   -0.009451
  72 H :    0.040753
  73 H :    0.039626
  74 H :    0.034962
  75 H :    0.034282
  76 H :    0.033929
  77 H :    0.032743
  78 H :    0.061280
  79 H :    0.105805
  80 H :    0.024652
  81 H :    0.031068
  82 H :    0.024537
  83 H :    0.028468
  84 H :    0.026487
  85 H :    0.024421
  86 H :    0.038173
  87 H :    0.023605
  88 H :    0.032885
  89 H :    0.034429
  90 H :    0.036209
  91 H :    0.045133
  92 H :    0.109529
  93 H :    0.053322
  94 H :    0.038988
  95 H :    0.039037
  96 H :    0.034761
  97 H :    0.033408
  98 H :    0.033106
  99 H :    0.031989

  Mayer bond orders larger than 0.100000
B(  0-C ,  1-C ) :   1.7040 B(  0-C ,  6-C ) :   1.0040 B(  0-C , 18-C ) :   1.0001
B(  1-C ,  2-C ) :   1.1338 B(  1-C ,  4-C ) :   1.1482 B(  2-C ,  3-N ) :   2.9890
B(  4-C ,  5-N ) :   3.0094 B(  6-C ,  7-C ) :   1.2107 B(  6-C , 11-C ) :   1.4537
B(  7-C ,  8-C ) :   1.4692 B(  7-C , 16-C ) :   0.9252 B(  8-C ,  9-C ) :   1.1916
B(  8-C , 72-H ) :   1.0158 B(  9-C , 10-C ) :   1.2529 B(  9-C , 15-C ) :   1.2432
B( 10-C , 11-C ) :   1.2099 B( 10-C , 12-C ) :   1.2399 B( 11-C , 73-H ) :   0.9931
B( 12-C , 13-C ) :   1.4921 B( 12-C , 74-H ) :   0.9975 B( 13-C , 14-C ) :   1.2582
B( 13-C , 75-H ) :   0.9882 B( 14-C , 15-C ) :   1.4921 B( 14-C , 76-H ) :   0.9888
B( 15-C , 77-H ) :   0.9976 B( 16-C , 17-O ) :   2.2910 B( 16-C , 18-C ) :   0.9094
B( 18-C , 19-C ) :   1.7165 B( 19-C , 20-C ) :   1.0731 B( 19-C , 78-H ) :   0.9314
B( 20-C , 21-C ) :   1.4960 B( 20-C , 27-O ) :   1.1427 B( 21-C , 22-C ) :   0.9186
B( 21-C , 25-C ) :   1.1997 B( 22-C , 23-O ) :   2.1292 B( 22-C , 24-O ) :   1.2735
B( 24-O , 79-H ) :   0.9392 B( 25-C , 26-N ) :   1.6366 B( 25-C , 28-C ) :   0.9957
B( 26-N , 27-O ) :   1.0120 B( 28-C , 29-N ) :   1.2287 B( 28-C , 35-C ) :   1.4511
B( 29-N , 30-C ) :   0.9413 B( 29-N , 32-C ) :   1.0445 B( 30-C , 31-C ) :   1.1185
B( 30-C , 80-H ) :   0.9431 B( 30-C , 81-H ) :   0.9309 B( 31-C , 82-H ) :   0.9613
B( 31-C , 83-H ) :   0.9673 B( 31-C , 84-H ) :   0.9652 B( 32-C , 33-O ) :   2.0384
B( 32-C , 34-C ) :   0.9871 B( 34-C , 35-C ) :   1.2170 B( 34-C , 41-C ) :   1.3681
B( 35-C , 36-C ) :   0.9487 B( 36-C , 37-O ) :   2.1168 B( 36-C , 38-N ) :   1.0424
B( 38-N , 39-C ) :   0.9415 B( 38-N , 41-C ) :   1.1634 B( 39-C , 40-C ) :   1.1236
B( 39-C , 85-H ) :   0.9494 B( 39-C , 86-H ) :   0.9273 B( 40-C , 87-H ) :   0.9687
B( 40-C , 88-H ) :   0.9674 B( 40-C , 89-H ) :   0.9631 B( 41-C , 42-C ) :   1.1117
B( 42-C , 43-C ) :   1.6031 B( 42-C , 90-H ) :   0.9779 B( 43-C , 44-C ) :   1.1371
B( 43-C , 91-H ) :   0.9316 B( 44-C , 45-C ) :   1.3942 B( 44-C , 51-O ) :   1.1775
B( 45-C , 46-C ) :   0.9490 B( 45-C , 49-C ) :   1.1973 B( 46-C , 47-O ) :   2.0800
B( 46-C , 48-O ) :   1.3180 B( 48-O , 92-H ) :   0.9310 B( 49-C , 50-N ) :   1.7169
B( 49-C , 52-C ) :   0.9953 B( 50-N , 51-O ) :   0.9960 B( 52-C , 53-C ) :   1.7977
B( 52-C , 93-H ) :   0.9462 B( 53-C , 54-C ) :   1.0276 B( 53-C , 62-C ) :   0.8916
B( 54-C , 55-C ) :   1.6705 B( 54-C , 60-C ) :   1.0085 B( 55-C , 56-C ) :   1.1371
B( 55-C , 58-C ) :   1.1420 B( 56-C , 57-N ) :   2.9733 B( 58-C , 59-N ) :   2.9858
B( 60-C , 61-C ) :   1.2165 B( 60-C , 67-C ) :   1.4336 B( 61-C , 62-C ) :   0.9416
B( 61-C , 64-C ) :   1.4676 B( 62-C , 63-O ) :   2.2370 B( 64-C , 65-C ) :   1.1842
B( 64-C , 94-H ) :   1.0178 B( 65-C , 66-C ) :   1.2523 B( 65-C , 71-C ) :   1.2407
B( 66-C , 67-C ) :   1.2150 B( 66-C , 68-C ) :   1.2346 B( 67-C , 95-H ) :   0.9910
B( 68-C , 69-C ) :   1.4946 B( 68-C , 96-H ) :   0.9978 B( 69-C , 70-C ) :   1.2549
B( 69-C , 97-H ) :   0.9880 B( 70-C , 71-C ) :   1.4916 B( 70-C , 98-H ) :   0.9891
B( 71-C , 99-H ) :   0.9985

-----------------------------------------------------------------------------
         ABSORPTION SPECTRUM VIA TRANSITION ELECTRIC DIPOLE MOMENTS
-----------------------------------------------------------------------------
State   Energy  Wavelength   fosc         T2         TX        TY        TZ
        (cm-1)    (nm)                  (au**2)     (au)      (au)      (au)
-----------------------------------------------------------------------------
   0   18246.7    548.0   0.100186488   1.80760  -1.06722   0.77133  -0.27143
   1   18645.5    536.3   0.401614241   7.09104   2.08900  -1.63669   0.21992
   2   23941.2    417.7   0.013123990   0.18047  -0.19169   0.00269  -0.37909
   3   25236.1    396.3   0.037398594   0.48788  -0.08742   0.60943  -0.32990
   4   26522.9    377.0   0.018185598   0.22573  -0.41418   0.19716  -0.12374
   5   26912.1    371.6   0.072690158   0.88921  -0.62370  -0.21616  -0.67341
   6   27057.4    369.6   0.032908781   0.40041  -0.52799  -0.32355   0.13017
   7   27504.5    363.6   0.009835360   0.11772   0.30176  -0.15716  -0.04430
   8   28845.0    346.7   0.012268223   0.14002   0.16055  -0.30742   0.14048
   9   28901.7    346.0   0.007857731   0.08951   0.16598  -0.24831   0.01726
  10   29364.7    340.5   0.075628545   0.84788  -0.90196   0.16096  -0.09189
  11   29547.9    338.4   0.358609068   3.99549  -1.90607   0.57465   0.17933
  12   30045.1    332.8   0.126045083   1.38111  -1.04231   0.53418   0.09669
  13   30665.2    326.1   0.064643731   0.69399  -0.48326  -0.17584   0.65539
  14   31637.9    316.1   0.393012887   4.08955   0.28667  -1.31751  -1.50716
  15   32258.5    310.0   0.032772704   0.33446  -0.01703  -0.37827  -0.43713
  16   32413.5    308.5   0.081002427   0.82271  -0.38327  -0.32265  -0.75611
  17   32689.9    305.9   0.219160550   2.20711  -0.79417   0.84169   0.93165
  18   32838.7    304.5   0.306737307   3.07508  -1.53619   0.82088   0.20338
  19   33025.2    302.8   0.252927547   2.52131  -1.05302   0.81604   0.86403
  20   33375.0    299.6   0.809300199   7.98296   1.76151  -2.19145   0.27851
  21   33950.8    294.5   0.267158756   2.59057  -0.30238   0.66117   1.43596
  22   34169.0    292.7   0.069471797   0.66935  -0.33305   0.65672   0.35656
  23   34489.6    289.9   0.368245731   3.51500   1.61191   0.30365   0.90805
  24   34646.4    288.6   0.137350704   1.30511   1.07079  -0.31228   0.24701
  25   34754.8    287.7   0.003052855   0.02892   0.02906  -0.09759   0.13620
  26   35138.6    284.6   0.170370440   1.59619   0.77387   0.29812   0.95312
  27   35395.1    282.5   0.000351297   0.00327   0.03357  -0.02509  -0.03887
  28   35852.4    278.9   0.368292963   3.38182   1.28679   0.57386   1.18181
  29   36033.6    277.5   0.022832627   0.20860   0.20919  -0.33639  -0.22734
  30   36180.7    276.4   0.004018271   0.03656   0.15049  -0.04032  -0.11086
  31   36415.2    274.6   0.003087886   0.02792  -0.13233   0.07987   0.06346
  32   37300.9    268.1   0.016031829   0.14149   0.10911  -0.27918  -0.22726
  33   37443.7    267.1   0.321639588   2.82792  -1.24514   1.12673   0.08961
  34   37666.3    265.5   0.000937626   0.00820   0.01364  -0.08593   0.02499
  35   37697.6    265.3   0.008636701   0.07542   0.03600   0.13592   0.23591
  36   38546.1    259.4   0.087606219   0.74822   0.63942   0.58026   0.05166
  37   38995.2    256.4   0.062646149   0.52888  -0.70346   0.09051   0.16072
  38   39402.5    253.8   0.060720544   0.50733  -0.21665  -0.47978  -0.47979
  39   39700.3    251.9   0.005003018   0.04149  -0.05043  -0.12314  -0.15421
  40   39730.9    251.7   0.000274576   0.00228   0.03011   0.01176   0.03508

FINAL SINGLE POINT ENERGY     -3260.743271755193

DIPOLE MOMENT
-------------
                                X             Y             Z
Electronic contribution:    -19.95297       0.71301      -6.61115
Nuclear contribution   :     23.07055      -3.27980       8.71369
                        -----------------------------------------
Total Dipole Moment    :      3.11757      -2.56678       2.10253
                        -----------------------------------------
Magnitude (a.u.)       :      4.55283
Magnitude (Debye)      :     11.57238

Rotational constants in cm-1:     0.002281     0.000284     0.000261
Rotational constants in MHz :    68.381061     8.517093     7.833312

                             ****ORCA TERMINATED NORMALLY****
TOTAL RUN TIME: 0 days 0 hours 9 minutes 9 seconds 671 msec
