                         Program Version 4.2.0 -  RELEASE  -
|  1> # ORCA input file
|  2> # SCF done       -196.698952147756          0.000887453791
|  3> ! CAM-B3LYP def2-SVP def2/J RIJCOSX Grid4 TightSCF
|  4> %maxcore 5000
|  5> %tddft
|  6>     Mode sTDDFT
|  7>     Ethresh 5.0
|  8>     maxcore 5000
|  9> end
| 10>
| 11> %pal
| 12>   nprocs 6
| 13>   end
| 14> * xyz 0 1
| 15>    C        1.52109         3.41262        -3.09983
| 16>    C        1.95087         2.11819        -2.97056
| 17>    C        2.92862         1.52545        -3.79817
| 18>    N        3.71160         0.98175        -4.43756
| 19>    C        1.47534         1.18275        -2.02753
| 20>    N        1.13930         0.36465        -1.29471
| 21>    C        1.98158         4.35849        -4.11048
| 22>    C        1.22233         5.55837        -3.99129
| 23>    C        1.43269         6.63263        -4.80729
| 24>    C        2.43814         6.55776        -5.79679
| 25>    C        3.20561         5.36350        -5.92070
| 26>    C        2.96062         4.26560        -5.06392
| 27>    C        4.21041         5.30149        -6.90729
| 28>    C        4.44771         6.36713        -7.73257
| 29>    C        3.69160         7.54230        -7.60974
| 30>    C        2.70769         7.63554        -6.66280
| 31>    C        0.26276         5.41439        -2.88921
| 32>    O       -0.57088         6.23026        -2.53737
| 33>    C        0.51133         4.08720        -2.29950
| 34>    C       -0.05570         3.60585        -1.15348
| 35>    C       -0.99696         4.19790        -0.28685
| 36>    S       -1.79569         5.73747        -0.48295
| 37>    C       -2.63994         5.53936         1.01567
| 38>    C       -2.30820         4.32438         1.63401
| 39>    C       -1.39518         3.57853         0.89365
| 40>    C       -2.85290         3.90676         2.86231
| 41>    N       -3.29923         3.56501         3.86122
| 42>    C       -3.53021         6.50852         1.53894
| 43>    C       -3.88184         7.63872         0.87792
| 44>    C       -4.75659         8.62588         1.39679
| 45>    S       -5.44606         8.47004         2.98758
| 46>    C       -6.33338         9.95723         2.80356
| 47>    C       -6.10787        10.53366         1.56510
| 48>    C       -5.20634         9.78889         0.78489
| 49>    C       -4.77228        10.33628        -0.55094
| 50>    C       -3.73973        11.36006        -0.13781
| 51>    O       -3.91496        12.54114        -0.04701
| 52>    C       -2.35329        10.77697         0.27293
| 53>    F       -1.97938         9.74986        -0.50336
| 54>    F       -1.40069        11.70267         0.18707
| 55>    F       -2.36225        10.32758         1.53831
| 56>    C       -5.92040        11.01379        -1.32718
| 57>    C       -7.16227        11.29056        -0.47810
| 58>    C       -6.79110        11.70549         0.94943
| 59>    C       -7.13091        10.44309         3.87531
| 60>    O       -7.77048        11.62395         3.77658
| 61>    C       -8.42664        11.86823         4.93562
| 62>    C       -8.20763        10.81182         5.81704
| 63>    C       -7.37019         9.88700         5.13148
| 64>    C       -6.90384         8.66768         5.64088
| 65>    N       -6.53842         7.67474         6.08240
| 66>    C       -8.70975        10.64979         7.11528
| 67>    N       -9.11066        10.49965         8.17888
| 68>    C       -9.20124        13.05418         5.03807
| 69>    C       -9.77219        13.49386         6.18437
| 70>    C      -10.59058        14.65185         6.30450
| 71>    C      -11.46553        15.15068         5.38769
| 72>    C      -12.28917        16.33379         5.58934
| 73>    C      -11.97834        17.39410         6.39653
| 74>    C      -12.78802        18.54125         6.53278
| 75>    N      -13.41274        19.49245         6.68094
| 76>    C      -10.78504        17.49747         7.14385
| 77>    N       -9.82267        17.65166         7.74991
| 78>    C      -13.44196        16.22913         4.70788
| 79>    C      -13.26856        15.08573         3.87615
| 80>    C      -11.99159        14.42475         4.19629
| 81>    O      -11.50988        13.47258         3.62151
| 82>    C      -14.19982        14.72636         2.94428
| 83>    C      -15.37078        15.50439         2.80538
| 84>    C      -15.55375        16.64616         3.63878
| 85>    C      -14.56966        16.99764         4.59079
| 86>    C      -16.73037        17.40935         3.49607
| 87>    C      -17.68173        17.06342         2.57534
| 88>    C      -17.50045        15.93983         1.75502
| 89>    C      -16.36916        15.17779         1.86657
| 90>    H        0.84340         7.53056        -4.69474
| 91>    H        3.56253         3.37878        -5.18154
| 92>    H        4.78982         4.39452        -6.99811
| 93>    H        5.22033         6.31021        -8.48447
| 94>    H        3.89295         8.37365        -8.26854
| 95>    H        2.12289         8.53822        -6.56303
| 96>    H        0.27104         2.63040        -0.81321
| 97>    H       -1.02275         2.61646         1.20041
| 98>    H       -3.93740         6.31133         2.52377
| 99>    H       -3.47654         7.80361        -0.11139
|100>    H       -4.29737         9.55789        -1.15068
|101>    H       -6.19628        10.38352        -2.17235
|102>    H       -5.54219        11.95863        -1.72163
|103>    H       -7.78195        10.39239        -0.42524
|104>    H       -7.75123        12.07625        -0.95044
|105>    H       -7.68158        11.98118         1.51066
|106>    H       -6.12044        12.56782         0.92245
|107>    H       -9.28468        13.62196         4.12421
|108>    H       -9.56544        12.97148         7.10970
|109>    H      -10.55947        15.12985         7.27741
|110>    H      -14.04722        13.85602         2.32336
|111>    H      -14.73794        17.86131         5.21470
|112>    H      -16.86477        18.27409         4.12903
|113>    H      -18.57996        17.65377         2.47437
|114>    H      -18.26205        15.68055         1.03500
|115>    H      -16.22459        14.31125         1.23804
|116> *
|117>
|118>                          ****END OF INPUT****

CARTESIAN COORDINATES (ANGSTROEM)
---------------------------------
  C      1.521090    3.412620   -3.099830
  C      1.950870    2.118190   -2.970560
  C      2.928620    1.525450   -3.798170
  N      3.711600    0.981750   -4.437560
  C      1.475340    1.182750   -2.027530
  N      1.139300    0.364650   -1.294710
  C      1.981580    4.358490   -4.110480
  C      1.222330    5.558370   -3.991290
  C      1.432690    6.632630   -4.807290
  C      2.438140    6.557760   -5.796790
  C      3.205610    5.363500   -5.920700
  C      2.960620    4.265600   -5.063920
  C      4.210410    5.301490   -6.907290
  C      4.447710    6.367130   -7.732570
  C      3.691600    7.542300   -7.609740
  C      2.707690    7.635540   -6.662800
  C      0.262760    5.414390   -2.889210
  O     -0.570880    6.230260   -2.537370
  C      0.511330    4.087200   -2.299500
  C     -0.055700    3.605850   -1.153480
  C     -0.996960    4.197900   -0.286850
  S     -1.795690    5.737470   -0.482950
  C     -2.639940    5.539360    1.015670
  C     -2.308200    4.324380    1.634010
  C     -1.395180    3.578530    0.893650
  C     -2.852900    3.906760    2.862310
  N     -3.299230    3.565010    3.861220
  C     -3.530210    6.508520    1.538940
  C     -3.881840    7.638720    0.877920
  C     -4.756590    8.625880    1.396790
  S     -5.446060    8.470040    2.987580
  C     -6.333380    9.957230    2.803560
  C     -6.107870   10.533660    1.565100
  C     -5.206340    9.788890    0.784890
  C     -4.772280   10.336280   -0.550940
  C     -3.739730   11.360060   -0.137810
  O     -3.914960   12.541140   -0.047010
  C     -2.353290   10.776970    0.272930
  F     -1.979380    9.749860   -0.503360
  F     -1.400690   11.702670    0.187070
  F     -2.362250   10.327580    1.538310
  C     -5.920400   11.013790   -1.327180
  C     -7.162270   11.290560   -0.478100
  C     -6.791100   11.705490    0.949430
  C     -7.130910   10.443090    3.875310
  O     -7.770480   11.623950    3.776580
  C     -8.426640   11.868230    4.935620
  C     -8.207630   10.811820    5.817040
  C     -7.370190    9.887000    5.131480
  C     -6.903840    8.667680    5.640880
  N     -6.538420    7.674740    6.082400
  C     -8.709750   10.649790    7.115280
  N     -9.110660   10.499650    8.178880
  C     -9.201240   13.054180    5.038070
  C     -9.772190   13.493860    6.184370
  C    -10.590580   14.651850    6.304500
  C    -11.465530   15.150680    5.387690
  C    -12.289170   16.333790    5.589340
  C    -11.978340   17.394100    6.396530
  C    -12.788020   18.541250    6.532780
  N    -13.412740   19.492450    6.680940
  C    -10.785040   17.497470    7.143850
  N     -9.822670   17.651660    7.749910
  C    -13.441960   16.229130    4.707880
  C    -13.268560   15.085730    3.876150
  C    -11.991590   14.424750    4.196290
  O    -11.509880   13.472580    3.621510
  C    -14.199820   14.726360    2.944280
  C    -15.370780   15.504390    2.805380
  C    -15.553750   16.646160    3.638780
  C    -14.569660   16.997640    4.590790
  C    -16.730370   17.409350    3.496070
  C    -17.681730   17.063420    2.575340
  C    -17.500450   15.939830    1.755020
  C    -16.369160   15.177790    1.866570
  H      0.843400    7.530560   -4.694740
  H      3.562530    3.378780   -5.181540
  H      4.789820    4.394520   -6.998110
  H      5.220330    6.310210   -8.484470
  H      3.892950    8.373650   -8.268540
  H      2.122890    8.538220   -6.563030
  H      0.271040    2.630400   -0.813210
  H     -1.022750    2.616460    1.200410
  H     -3.937400    6.311330    2.523770
  H     -3.476540    7.803610   -0.111390
  H     -4.297370    9.557890   -1.150680
  H     -6.196280   10.383520   -2.172350
  H     -5.542190   11.958630   -1.721630
  H     -7.781950   10.392390   -0.425240
  H     -7.751230   12.076250   -0.950440
  H     -7.681580   11.981180    1.510660
  H     -6.120440   12.567820    0.922450
  H     -9.284680   13.621960    4.124210
  H     -9.565440   12.971480    7.109700
  H    -10.559470   15.129850    7.277410
  H    -14.047220   13.856020    2.323360
  H    -14.737940   17.861310    5.214700
  H    -16.864770   18.274090    4.129030
  H    -18.579960   17.653770    2.474370
  H    -18.262050   15.680550    1.035000
  H    -16.224590   14.311250    1.238040

 Total Charge           Charge          ....    0
 Multiplicity           Mult            ....    1
 Number of Electrons    NEL             ....  520
 Basis Dimension        Dim             .... 1188

ORBITAL ENERGIES
----------------

  NO   OCC          E(Eh)            E(eV)
   0   2.0000     -88.983372     -2421.3607
   1   2.0000     -88.982653     -2421.3411
   2   2.0000     -24.828734      -675.6242
   3   2.0000     -24.821038      -675.4148
   4   2.0000     -24.817384      -675.3154
   5   2.0000     -19.340713      -526.2875
   6   2.0000     -19.263224      -524.1790
   7   2.0000     -19.231583      -523.3180
   8   2.0000     -19.227375      -523.2035
   9   2.0000     -14.428224      -392.6119
  10   2.0000     -14.423640      -392.4872
  11   2.0000     -14.423618      -392.4866
  12   2.0000     -14.420878      -392.4120
  13   2.0000     -14.420032      -392.3890
  14   2.0000     -14.419383      -392.3714
  15   2.0000     -14.411010      -392.1435
  16   2.0000     -10.534867      -286.6683
  17   2.0000     -10.407666      -283.2070
  18   2.0000     -10.393133      -282.8115
  19   2.0000     -10.382233      -282.5149
  20   2.0000     -10.379619      -282.4438
  21   2.0000     -10.378889      -282.4239
  22   2.0000     -10.349666      -281.6287
  23   2.0000     -10.349102      -281.6134
  24   2.0000     -10.348258      -281.5904
  25   2.0000     -10.346163      -281.5334
  26   2.0000     -10.345699      -281.5208
  27   2.0000     -10.341879      -281.4168
  28   2.0000     -10.336350      -281.2664
  29   2.0000     -10.335876      -281.2535
  30   2.0000     -10.334321      -281.2112
  31   2.0000     -10.333894      -281.1996
  32   2.0000     -10.332073      -281.1500
  33   2.0000     -10.328261      -281.0463
  34   2.0000     -10.326101      -280.9875
  35   2.0000     -10.326051      -280.9861
  36   2.0000     -10.324565      -280.9457
  37   2.0000     -10.323477      -280.9161
  38   2.0000     -10.323007      -280.9033
  39   2.0000     -10.322849      -280.8990
  40   2.0000     -10.321878      -280.8726
  41   2.0000     -10.321716      -280.8682
  42   2.0000     -10.320179      -280.8264
  43   2.0000     -10.316237      -280.7191
  44   2.0000     -10.315499      -280.6990
  45   2.0000     -10.313825      -280.6534
  46   2.0000     -10.311699      -280.5956
  47   2.0000     -10.310675      -280.5677
  48   2.0000     -10.310652      -280.5671
  49   2.0000     -10.310233      -280.5557
  50   2.0000     -10.310018      -280.5499
  51   2.0000     -10.309650      -280.5398
  52   2.0000     -10.309035      -280.5231
  53   2.0000     -10.306946      -280.4663
  54   2.0000     -10.305213      -280.4191
  55   2.0000     -10.304674      -280.4044
  56   2.0000     -10.304493      -280.3995
  57   2.0000     -10.304358      -280.3958
  58   2.0000     -10.304303      -280.3943
  59   2.0000     -10.304090      -280.3885
  60   2.0000     -10.303601      -280.3752
  61   2.0000     -10.303497      -280.3724
  62   2.0000     -10.296898      -280.1928
  63   2.0000     -10.296682      -280.1870
  64   2.0000     -10.293072      -280.0887
  65   2.0000     -10.292687      -280.0783
  66   2.0000     -10.292597      -280.0758
  67   2.0000     -10.292210      -280.0653
  68   2.0000     -10.292176      -280.0644
  69   2.0000     -10.291857      -280.0557
  70   2.0000     -10.291603      -280.0488
  71   2.0000     -10.291355      -280.0420
  72   2.0000     -10.290579      -280.0209
  73   2.0000     -10.285920      -279.8941
  74   2.0000     -10.284410      -279.8530
  75   2.0000      -8.077377      -219.7966
  76   2.0000      -8.076562      -219.7744
  77   2.0000      -6.046772      -164.5410
  78   2.0000      -6.045893      -164.5171
  79   2.0000      -6.042562      -164.4265
  80   2.0000      -6.041464      -164.3966
  81   2.0000      -6.039299      -164.3377
  82   2.0000      -6.038860      -164.3257
  83   2.0000      -1.412735       -38.4425
  84   2.0000      -1.317563       -35.8527
  85   2.0000      -1.312405       -35.7123
  86   2.0000      -1.260648       -34.3040
  87   2.0000      -1.181721       -32.1563
  88   2.0000      -1.146887       -31.2084
  89   2.0000      -1.142408       -31.0865
  90   2.0000      -1.026090       -27.9213
  91   2.0000      -1.025107       -27.8946
  92   2.0000      -1.024065       -27.8662
  93   2.0000      -1.020147       -27.7596
  94   2.0000      -1.016743       -27.6670
  95   2.0000      -1.006365       -27.3846
  96   2.0000      -1.006294       -27.3827
  97   2.0000      -1.004600       -27.3366
  98   2.0000      -0.999938       -27.2097
  99   2.0000      -0.998558       -27.1721
 100   2.0000      -0.990626       -26.9563
 101   2.0000      -0.978851       -26.6359
 102   2.0000      -0.978684       -26.6314
 103   2.0000      -0.959652       -26.1135
 104   2.0000      -0.957586       -26.0572
 105   2.0000      -0.948519       -25.8105
 106   2.0000      -0.938606       -25.5408
 107   2.0000      -0.932562       -25.3763
 108   2.0000      -0.927465       -25.2376
 109   2.0000      -0.918080       -24.9822
 110   2.0000      -0.908295       -24.7160
 111   2.0000      -0.898087       -24.4382
 112   2.0000      -0.890065       -24.2199
 113   2.0000      -0.889154       -24.1951
 114   2.0000      -0.886538       -24.1239
 115   2.0000      -0.886461       -24.1218
 116   2.0000      -0.869350       -23.6562
 117   2.0000      -0.859655       -23.3924
 118   2.0000      -0.854470       -23.2513
 119   2.0000      -0.843213       -22.9450
 120   2.0000      -0.835449       -22.7337
 121   2.0000      -0.834806       -22.7162
 122   2.0000      -0.832603       -22.6563
 123   2.0000      -0.817763       -22.2525
 124   2.0000      -0.806826       -21.9549
 125   2.0000      -0.800890       -21.7933
 126   2.0000      -0.783521       -21.3207
 127   2.0000      -0.770741       -20.9729
 128   2.0000      -0.768142       -20.9022
 129   2.0000      -0.765706       -20.8359
 130   2.0000      -0.760315       -20.6892
 131   2.0000      -0.753138       -20.4939
 132   2.0000      -0.735641       -20.0178
 133   2.0000      -0.729997       -19.8642
 134   2.0000      -0.726465       -19.7681
 135   2.0000      -0.713106       -19.4046
 136   2.0000      -0.710800       -19.3419
 137   2.0000      -0.710077       -19.3222
 138   2.0000      -0.704673       -19.1751
 139   2.0000      -0.704219       -19.1628
 140   2.0000      -0.697467       -18.9790
 141   2.0000      -0.693933       -18.8829
 142   2.0000      -0.691470       -18.8158
 143   2.0000      -0.687597       -18.7105
 144   2.0000      -0.685041       -18.6409
 145   2.0000      -0.673969       -18.3396
 146   2.0000      -0.669337       -18.2136
 147   2.0000      -0.658133       -17.9087
 148   2.0000      -0.656176       -17.8554
 149   2.0000      -0.649908       -17.6849
 150   2.0000      -0.645620       -17.5682
 151   2.0000      -0.639835       -17.4108
 152   2.0000      -0.636106       -17.3093
 153   2.0000      -0.633854       -17.2480
 154   2.0000      -0.622123       -16.9288
 155   2.0000      -0.619368       -16.8539
 156   2.0000      -0.613606       -16.6971
 157   2.0000      -0.613032       -16.6814
 158   2.0000      -0.608682       -16.5631
 159   2.0000      -0.602760       -16.4019
 160   2.0000      -0.600037       -16.3278
 161   2.0000      -0.592658       -16.1271
 162   2.0000      -0.588669       -16.0185
 163   2.0000      -0.581500       -15.8234
 164   2.0000      -0.580713       -15.8020
 165   2.0000      -0.572262       -15.5720
 166   2.0000      -0.570126       -15.5139
 167   2.0000      -0.569098       -15.4860
 168   2.0000      -0.563431       -15.3317
 169   2.0000      -0.557211       -15.1625
 170   2.0000      -0.555349       -15.1118
 171   2.0000      -0.553900       -15.0724
 172   2.0000      -0.553288       -15.0557
 173   2.0000      -0.551787       -15.0149
 174   2.0000      -0.549184       -14.9440
 175   2.0000      -0.548763       -14.9326
 176   2.0000      -0.545500       -14.8438
 177   2.0000      -0.543846       -14.7988
 178   2.0000      -0.542715       -14.7680
 179   2.0000      -0.535064       -14.5598
 180   2.0000      -0.534711       -14.5502
 181   2.0000      -0.532465       -14.4891
 182   2.0000      -0.531685       -14.4679
 183   2.0000      -0.528579       -14.3834
 184   2.0000      -0.528066       -14.3694
 185   2.0000      -0.524886       -14.2829
 186   2.0000      -0.521064       -14.1789
 187   2.0000      -0.520577       -14.1656
 188   2.0000      -0.519785       -14.1441
 189   2.0000      -0.517916       -14.0932
 190   2.0000      -0.515771       -14.0348
 191   2.0000      -0.513875       -13.9832
 192   2.0000      -0.511525       -13.9193
 193   2.0000      -0.509404       -13.8616
 194   2.0000      -0.507792       -13.8177
 195   2.0000      -0.504474       -13.7274
 196   2.0000      -0.503975       -13.7139
 197   2.0000      -0.501939       -13.6584
 198   2.0000      -0.499464       -13.5911
 199   2.0000      -0.497215       -13.5299
 200   2.0000      -0.494555       -13.4575
 201   2.0000      -0.493171       -13.4199
 202   2.0000      -0.492203       -13.3935
 203   2.0000      -0.490644       -13.3511
 204   2.0000      -0.488055       -13.2806
 205   2.0000      -0.483956       -13.1691
 206   2.0000      -0.483031       -13.1439
 207   2.0000      -0.477901       -13.0043
 208   2.0000      -0.472239       -12.8503
 209   2.0000      -0.471750       -12.8370
 210   2.0000      -0.464266       -12.6333
 211   2.0000      -0.455486       -12.3944
 212   2.0000      -0.454818       -12.3762
 213   2.0000      -0.453301       -12.3350
 214   2.0000      -0.452258       -12.3066
 215   2.0000      -0.450409       -12.2563
 216   2.0000      -0.449391       -12.2285
 217   2.0000      -0.448860       -12.2141
 218   2.0000      -0.447808       -12.1855
 219   2.0000      -0.447471       -12.1763
 220   2.0000      -0.446727       -12.1561
 221   2.0000      -0.442519       -12.0416
 222   2.0000      -0.442102       -12.0302
 223   2.0000      -0.439984       -11.9726
 224   2.0000      -0.439645       -11.9633
 225   2.0000      -0.439286       -11.9536
 226   2.0000      -0.438961       -11.9447
 227   2.0000      -0.434140       -11.8135
 228   2.0000      -0.433790       -11.8040
 229   2.0000      -0.432455       -11.7677
 230   2.0000      -0.430614       -11.7176
 231   2.0000      -0.428960       -11.6726
 232   2.0000      -0.426246       -11.5988
 233   2.0000      -0.424467       -11.5503
 234   2.0000      -0.423614       -11.5271
 235   2.0000      -0.418914       -11.3992
 236   2.0000      -0.415125       -11.2961
 237   2.0000      -0.414114       -11.2686
 238   2.0000      -0.413716       -11.2578
 239   2.0000      -0.411559       -11.1991
 240   2.0000      -0.410103       -11.1595
 241   2.0000      -0.408684       -11.1209
 242   2.0000      -0.399983       -10.8841
 243   2.0000      -0.389219       -10.5912
 244   2.0000      -0.384113       -10.4522
 245   2.0000      -0.382667       -10.4129
 246   2.0000      -0.376321       -10.2402
 247   2.0000      -0.369345       -10.0504
 248   2.0000      -0.355262        -9.6672
 249   2.0000      -0.348393        -9.4803
 250   2.0000      -0.346148        -9.4192
 251   2.0000      -0.342852        -9.3295
 252   2.0000      -0.334855        -9.1119
 253   2.0000      -0.328246        -8.9320
 254   2.0000      -0.324401        -8.8274
 255   2.0000      -0.321923        -8.7600
 256   2.0000      -0.304320        -8.2810
 257   2.0000      -0.300164        -8.1679
 258   2.0000      -0.291866        -7.9421
 259   2.0000      -0.263139        -7.1604
 260   0.0000      -0.114187        -3.1072
 261   0.0000      -0.103614        -2.8195
 262   0.0000      -0.076060        -2.0697
 263   0.0000      -0.066708        -1.8152
 264   0.0000      -0.064518        -1.7556

MULLIKEN ATOMIC CHARGES
-----------------------
   0 C :    0.326019
   1 C :   -0.346613
   2 C :   -0.182034
   3 N :    0.151149
   4 C :   -0.192192
   5 N :    0.149781
   6 C :    0.044226
   7 C :   -0.005009
   8 C :   -0.077174
   9 C :    0.096959
  10 C :    0.094513
  11 C :   -0.078945
  12 C :   -0.018444
  13 C :    0.035634
  14 C :    0.036349
  15 C :   -0.014304
  16 C :    0.173530
  17 O :   -0.182558
  18 C :   -0.093582
  19 C :   -0.011005
  20 C :   -0.044448
  21 S :    0.186596
  22 C :   -0.024219
  23 C :   -0.032146
  24 C :    0.012225
  25 C :   -0.192200
  26 N :    0.150611
  27 C :   -0.022801
  28 C :   -0.001977
  29 C :   -0.045583
  30 S :    0.157768
  31 C :   -0.219878
  32 C :   -0.050726
  33 C :   -0.067972
  34 C :   -0.026754
  35 C :   -0.021396
  36 O :   -0.134256
  37 C :    0.525425
  38 F :   -0.159134
  39 F :   -0.136315
  40 F :   -0.154216
  41 C :    0.120848
  42 C :    0.001066
  43 C :    0.147558
  44 C :    0.190545
  45 O :   -0.182561
  46 C :    0.125900
  47 C :   -0.040028
  48 C :   -0.022429
  49 C :   -0.340307
  50 N :    0.264004
  51 C :   -0.270629
  52 N :    0.230605
  53 C :    0.083001
  54 C :   -0.036298
  55 C :    0.006142
  56 C :   -0.093406
  57 C :    0.279047
  58 C :   -0.329178
  59 C :   -0.178134
  60 N :    0.151900
  61 C :   -0.209950
  62 N :    0.170311
  63 C :    0.055237
  64 C :   -0.003872
  65 C :    0.152136
  66 O :   -0.154079
  67 C :   -0.080313
  68 C :    0.098351
  69 C :    0.096623
  70 C :   -0.081910
  71 C :   -0.019462
  72 C :    0.038484
  73 C :    0.036101
  74 C :   -0.015943
  75 H :   -0.014152
  76 H :   -0.006237
  77 H :   -0.006815
  78 H :   -0.001310
  79 H :   -0.002775
  80 H :   -0.017257
  81 H :    0.014928
  82 H :    0.018523
  83 H :    0.030323
  84 H :    0.008030
  85 H :    0.028142
  86 H :    0.015880
  87 H :    0.013154
  88 H :    0.015210
  89 H :    0.017422
  90 H :    0.016074
  91 H :    0.034320
  92 H :    0.019576
  93 H :    0.030528
  94 H :    0.040870
  95 H :   -0.013480
  96 H :   -0.005122
  97 H :   -0.007910
  98 H :   -0.002627
  99 H :   -0.002939
 100 H :   -0.016624
Sum of atomic charges:   -0.0000000

LOEWDIN ATOMIC CHARGES
----------------------
   0 C :    0.076373
   1 C :   -0.137610
   2 C :   -0.017294
   3 N :   -0.050415
   4 C :   -0.022178
   5 N :   -0.049005
   6 C :   -0.025307
   7 C :   -0.056669
   8 C :    0.033513
   9 C :   -0.008546
  10 C :   -0.005264
  11 C :    0.021472
  12 C :   -0.004439
  13 C :   -0.011167
  14 C :   -0.010860
  15 C :   -0.009299
  16 C :    0.086764
  17 O :   -0.168602
  18 C :   -0.100027
  19 C :    0.058129
  20 C :   -0.180746
  21 S :    0.523995
  22 C :   -0.132030
  23 C :   -0.108347
  24 C :    0.014641
  25 C :   -0.037604
  26 N :   -0.041153
  27 C :   -0.035262
  28 C :   -0.021998
  29 C :   -0.156126
  30 S :    0.487975
  31 C :   -0.195201
  32 C :   -0.023464
  33 C :   -0.056239
  34 C :   -0.050635
  35 C :    0.054804
  36 O :   -0.083530
  37 C :    0.140335
  38 F :   -0.052464
  39 F :   -0.035999
  40 F :   -0.049749
  41 C :   -0.016904
  42 C :   -0.019477
  43 C :   -0.030264
  44 C :    0.066409
  45 O :    0.045324
  46 C :    0.062676
  47 C :   -0.070777
  48 C :   -0.094554
  49 C :   -0.053603
  50 N :   -0.017634
  51 C :   -0.030454
  52 N :   -0.023777
  53 C :    0.021834
  54 C :   -0.021472
  55 C :    0.064726
  56 C :   -0.079863
  57 C :    0.072986
  58 C :   -0.132043
  59 C :   -0.017436
  60 N :   -0.047804
  61 C :   -0.027158
  62 N :   -0.043862
  63 C :   -0.025966
  64 C :   -0.056096
  65 C :    0.085212
  66 O :   -0.140163
  67 C :    0.032989
  68 C :   -0.008111
  69 C :   -0.005235
  70 C :    0.020822
  71 C :   -0.004718
  72 C :   -0.011124
  73 C :   -0.010969
  74 C :   -0.009210
  75 H :    0.038668
  76 H :    0.039849
  77 H :    0.035687
  78 H :    0.034377
  79 H :    0.033725
  80 H :    0.031895
  81 H :    0.052725
  82 H :    0.047781
  83 H :    0.038727
  84 H :    0.026231
  85 H :    0.042331
  86 H :    0.031587
  87 H :    0.030853
  88 H :    0.025431
  89 H :    0.030932
  90 H :    0.030258
  91 H :    0.039437
  92 H :    0.046037
  93 H :    0.044430
  94 H :    0.050352
  95 H :    0.038670
  96 H :    0.039737
  97 H :    0.035352
  98 H :    0.034136
  99 H :    0.033656
 100 H :    0.032054

  Mayer bond orders larger than 0.100000
B(  0-C ,  1-C ) :   1.6317 B(  0-C ,  6-C ) :   0.9885 B(  0-C , 18-C ) :   1.0660
B(  1-C ,  2-C ) :   1.1460 B(  1-C ,  4-C ) :   1.1431 B(  2-C ,  3-N ) :   2.9644
B(  4-C ,  5-N ) :   2.9637 B(  6-C ,  7-C ) :   1.2127 B(  6-C , 11-C ) :   1.4538
B(  7-C ,  8-C ) :   1.4691 B(  7-C , 16-C ) :   0.9619 B(  8-C ,  9-C ) :   1.1795
B(  8-C , 75-H ) :   1.0156 B(  9-C , 10-C ) :   1.2549 B(  9-C , 15-C ) :   1.2463
B( 10-C , 11-C ) :   1.2055 B( 10-C , 12-C ) :   1.2408 B( 11-C , 76-H ) :   0.9890
B( 12-C , 13-C ) :   1.4885 B( 12-C , 77-H ) :   0.9970 B( 13-C , 14-C ) :   1.2614
B( 13-C , 78-H ) :   0.9889 B( 14-C , 15-C ) :   1.4872 B( 14-C , 79-H ) :   0.9885
B( 15-C , 80-H ) :   0.9971 B( 16-C , 17-O ) :   2.1301 B( 16-C , 18-C ) :   0.9659
B( 18-C , 19-C ) :   1.5355 B( 19-C , 20-C ) :   1.2314 B( 19-C , 81-H ) :   0.9386
B( 20-C , 21-S ) :   1.0935 B( 20-C , 24-C ) :   1.3770 B( 21-S , 22-C ) :   1.1239
B( 22-C , 23-C ) :   1.3849 B( 22-C , 27-C ) :   1.2009 B( 23-C , 24-C ) :   1.3216
B( 23-C , 25-C ) :   1.0891 B( 24-C , 82-H ) :   1.0139 B( 25-C , 26-N ) :   3.0293
B( 27-C , 28-C ) :   1.6245 B( 27-C , 83-H ) :   0.9650 B( 28-C , 29-C ) :   1.1658
B( 28-C , 84-H ) :   0.9675 B( 29-C , 30-S ) :   1.1164 B( 29-C , 31-C ) :   0.1172
B( 29-C , 33-C ) :   1.4631 B( 30-S , 31-C ) :   1.1270 B( 31-C , 32-C ) :   1.4919
B( 31-C , 44-C ) :   1.1688 B( 32-C , 33-C ) :   1.2761 B( 32-C , 43-C ) :   1.0822
B( 33-C , 34-C ) :   1.0253 B( 34-C , 35-C ) :   0.8996 B( 34-C , 41-C ) :   1.0419
B( 34-C , 85-H ) :   0.8825 B( 35-C , 36-O ) :   2.1947 B( 35-C , 37-C ) :   0.8668
B( 37-C , 38-F ) :   1.1273 B( 37-C , 39-F ) :   1.1933 B( 37-C , 40-F ) :   1.1452
B( 41-C , 42-C ) :   1.1167 B( 41-C , 86-H ) :   0.9346 B( 41-C , 87-H ) :   0.9134
B( 42-C , 43-C ) :   1.1030 B( 42-C , 88-H ) :   0.9334 B( 42-C , 89-H ) :   0.9389
B( 43-C , 90-H ) :   0.9091 B( 43-C , 91-H ) :   0.8840 B( 44-C , 45-O ) :   1.1799
B( 44-C , 48-C ) :   1.3935 B( 45-O , 46-C ) :   1.1120 B( 46-C , 47-C ) :   1.4044
B( 46-C , 53-C ) :   1.2063 B( 47-C , 48-C ) :   1.3351 B( 47-C , 51-C ) :   1.1603
B( 48-C , 49-C ) :   1.1455 B( 48-C , 50-N ) :   0.1014 B( 49-C , 50-N ) :   3.0066
B( 51-C , 52-N ) :   2.9763 B( 53-C , 54-C ) :   1.6531 B( 53-C , 92-H ) :   0.9278
B( 54-C , 55-C ) :   1.1677 B( 54-C , 93-H ) :   0.9473 B( 55-C , 56-C ) :   1.6462
B( 55-C , 94-H ) :   0.9484 B( 56-C , 57-C ) :   1.0393 B( 56-C , 65-C ) :   0.9343
B( 57-C , 58-C ) :   1.6658 B( 57-C , 63-C ) :   0.9988 B( 58-C , 59-C ) :   1.1369
B( 58-C , 61-C ) :   1.1361 B( 59-C , 60-N ) :   2.9746 B( 61-C , 62-N ) :   3.0141
B( 63-C , 64-C ) :   1.2092 B( 63-C , 70-C ) :   1.4510 B( 64-C , 65-C ) :   0.9517
B( 64-C , 67-C ) :   1.4711 B( 65-C , 66-O ) :   2.2016 B( 67-C , 68-C ) :   1.1826
B( 67-C , 95-H ) :   1.0166 B( 68-C , 69-C ) :   1.2535 B( 68-C , 74-C ) :   1.2440
B( 69-C , 70-C ) :   1.2074 B( 69-C , 71-C ) :   1.2393 B( 70-C , 96-H ) :   0.9923
B( 71-C , 72-C ) :   1.4914 B( 71-C , 97-H ) :   0.9977 B( 72-C , 73-C ) :   1.2582
B( 72-C , 98-H ) :   0.9886 B( 73-C , 74-C ) :   1.4889 B( 73-C , 99-H ) :   0.9892
B( 74-C ,100-H ) :   0.9982

-----------------------------------------------------------------------------
         ABSORPTION SPECTRUM VIA TRANSITION ELECTRIC DIPOLE MOMENTS
-----------------------------------------------------------------------------
State   Energy  Wavelength   fosc         T2         TX        TY        TZ
        (cm-1)    (nm)                  (au**2)     (au)      (au)      (au)
-----------------------------------------------------------------------------
   0   17584.6    568.7   2.258415534  42.28127  -4.41371   3.87787   2.78614
   1   21028.1    475.6   0.126719079   1.98389  -0.10125   0.88186  -1.09360
   2   25132.6    397.9   0.012245993   0.16041  -0.37983  -0.00580  -0.12690
   3   25751.0    388.3   0.024389299   0.31180   0.45541   0.22218  -0.23461
   4   26285.6    380.4   0.026401108   0.33066   0.36294  -0.03336   0.44477
   5   26603.7    375.9   0.014682747   0.18169   0.00686   0.36251  -0.22413
   6   27625.5    362.0   0.039948643   0.47607   0.35203   0.17974  -0.56554
   7   28131.6    355.5   0.013321577   0.15590   0.01697   0.26389  -0.29321
   8   28284.2    353.6   0.043452586   0.50576  -0.01456  -0.62359   0.34158
   9   28621.8    349.4   0.045392682   0.52211  -0.19734   0.67776   0.15431
  10   29314.8    341.1   0.095045804   1.06739  -0.19606  -1.01434  -0.00793
  11   29450.3    339.6   0.078950577   0.88255   0.12606   0.28426   0.88649
  12   30780.7    324.9   0.338232991   3.61754   1.69027  -0.85700   0.16140
  13   32154.5    311.0   0.041907656   0.42907   0.51579  -0.15788  -0.37163
  14   32613.9    306.6   0.195963575   1.97810   0.36535   1.01648  -0.90077
  15   32929.6    303.7   0.050478009   0.50465   0.52275  -0.26734   0.39989
  16   33320.3    300.1   0.592378715   5.85283  -1.69235  -0.41363  -1.67859
  17   33498.2    298.5   0.318145717   3.12665  -0.92926  -1.04145   1.08559
  18   33790.7    295.9   0.259290744   2.52619  -0.84149  -1.13186   0.73279
  19   34294.4    291.6   0.071014071   0.68171  -0.09301  -0.58737   0.57276
  20   34693.7    288.2   0.195050227   1.85085  -0.26593   0.60713  -1.18808
  21   34820.4    287.2   0.022636126   0.21401  -0.15239   0.14497  -0.41204
  22   35046.3    285.3   0.124406168   1.16863  -0.44028  -0.80812   0.56721
  23   35299.2    283.3   0.102274594   0.95385  -0.31299   0.76547  -0.51956
  24   35718.9    280.0   0.031666997   0.29187  -0.09194   0.09863   0.52315
  25   36016.4    277.7   0.012307485   0.11250  -0.01691   0.32885  -0.06378
  26   36675.3    272.7   0.279735770   2.51102  -0.81416   0.78430  -1.11043
  27   37121.2    269.4   0.153478858   1.36114  -0.35620   0.34862  -1.05486
  28   37666.7    265.5   0.070736416   0.61825   0.29815   0.26134  -0.67901
  29   37911.6    263.8   0.068434631   0.59426  -0.40014  -0.21563  -0.62262
  30   38335.7    260.9   0.202202690   1.73644   0.13391  -1.27191   0.31742
  31   38553.6    259.4   0.070294441   0.60025  -0.40798   0.00888  -0.65858
  32   38823.3    257.6   0.373222863   3.16484   0.38218  -1.73077  -0.15231
  33   39413.9    253.7   0.007905793   0.06603   0.15294   0.00162  -0.20650
  34   39903.5    250.6   0.066296994   0.54696  -0.26741  -0.58139  -0.37073
  35   40258.0    248.4   0.030366355   0.24832  -0.27103  -0.23437   0.34632

FINAL SINGLE POINT ENERGY     -4039.609988712973

DIPOLE MOMENT
-------------
                                X             Y             Z
Electronic contribution:     29.00346     -17.05537      27.14443
Nuclear contribution   :    -30.48830      19.27490     -32.65907
                        -----------------------------------------
Total Dipole Moment    :     -1.48484       2.21953      -5.51464
                        -----------------------------------------
Magnitude (a.u.)       :      6.12718
Magnitude (Debye)      :     15.57406

Rotational constants in cm-1:     0.001846     0.000241     0.000228
Rotational constants in MHz :    55.327783     7.214000     6.837480

                             ****ORCA TERMINATED NORMALLY****
TOTAL RUN TIME: 0 days 0 hours 10 minutes 5 seconds 411 msec
