                         Program Version 4.2.0 -  RELEASE  -
|  1> # ORCA input file
|  2> # SCF done       -219.132861152261          0.000691849283
|  3> ! CAM-B3LYP def2-SVP def2/J RIJCOSX Grid4 TightSCF
|  4> %maxcore 5000
|  5> %tddft
|  6>     Mode sTDDFT
|  7>     Ethresh 5.0
|  8>     maxcore 5000
|  9> end
| 10>
| 11> %pal
| 12>   nprocs 6
| 13>   end
| 14> * xyz 0 1
| 15>    C        2.39883         1.83683        -1.63264
| 16>    C        1.09418         1.47062        -1.83580
| 17>    C        0.68645         0.14889        -2.11826
| 18>    N        0.30414        -0.90513        -2.35907
| 19>    C        0.02948         2.38829        -1.87456
| 20>    N       -0.85023         3.12676        -1.90591
| 21>    C        3.55722         0.97048        -1.81062
| 22>    C        4.71043         1.78646        -2.01274
| 23>    C        5.94205         1.24197        -2.24097
| 24>    C        6.08016        -0.16397        -2.26315
| 25>    C        4.93512        -0.98386        -2.03998
| 26>    C        3.66998        -0.39367        -1.81590
| 27>    C        5.09052        -2.38477        -2.05132
| 28>    C        6.31605        -2.95104        -2.27588
| 29>    C        7.44162        -2.14368        -2.49849
| 30>    C        7.32630        -0.77986        -2.49279
| 31>    C        4.33150         3.20340        -1.90865
| 32>    O        5.01190         4.18493        -2.08357
| 33>    C        2.89787         3.18692        -1.46692
| 34>    C        2.36615         4.30504        -0.91493
| 35>    C        1.20408         4.40044        -0.10812
| 36>    S        0.38260         5.92748         0.14064
| 37>    C       -0.84393         5.24533         1.19186
| 38>    C       -0.56401         3.91817         1.36020
| 39>    C        0.54374         3.44857         0.63302
| 40>    O        0.67517         2.12311         0.88442
| 41>    C       -0.34451         1.78052         1.74221
| 42>    O       -0.52383         0.68822         2.15101
| 43>    O       -1.10696         2.86765         2.02407
| 44>    C       -1.83398         6.06451         1.83738
| 45>    C       -1.93456         6.26788         3.19278
| 46>    N       -1.10694         5.72933         4.20795
| 47>    O       -1.33608         6.07792         5.34743
| 48>    O       -0.20394         4.98121         3.87946
| 49>    C       -2.94007         7.27321         3.45753
| 50>    C       -3.46936         7.66518         2.27993
| 51>    C       -2.88015         6.88667         1.20840
| 52>    C       -3.28894         6.79220        -0.09876
| 53>    C       -2.67513         6.01919        -1.14427
| 54>    C       -3.15696         6.44292        -2.33546
| 55>    C       -4.13444         7.48236        -2.11381
| 56>    N       -4.84149         8.02500        -3.20666
| 57>    O       -5.41855         9.09241        -3.07506
| 58>    O       -4.82306         7.38378        -4.24003
| 59>    C       -4.32689         7.64639        -0.74846
| 60>    C       -5.37601         8.27452        -0.03593
| 61>    C       -6.04679         9.40691        -0.39923
| 62>    C       -7.15447         9.98441         0.25398
| 63>    S       -7.52312        11.63070        -0.14170
| 64>    C       -8.88169        11.69700         0.91843
| 65>    C       -9.02071        10.48065         1.61589
| 66>    C       -8.07252         9.49321         1.21027
| 67>    C       -8.17428         8.19424         1.73979
| 68>    C       -9.11202         7.92560         2.70190
| 69>    C       -9.23541         6.54084         3.28041
| 70>    F       -8.36923         5.67921         2.72467
| 71>    F       -8.98591         6.52386         4.60005
| 72>    F      -10.45680         6.01990         3.10770
| 73>    C       -9.96708         8.94405         3.19902
| 74>    C      -10.89161         8.67484         4.23760
| 75>    N      -11.65066         8.49393         5.07513
| 76>    C       -9.91834        10.21020         2.65854
| 77>    C       -9.65366        12.88105         0.98721
| 78>    C      -11.00158        12.96129         1.18342
| 79>    C      -11.76196        14.18709         1.35328
| 80>    C      -11.24923        15.39786         1.73883
| 81>    C      -12.02681        16.56089         1.92251
| 82>    N      -12.60853        17.53767         2.07747
| 83>    C       -9.88939        15.62475         2.03916
| 84>    N       -8.80030        15.85744         2.31798
| 85>    C      -13.16688        13.87279         1.14115
| 86>    C      -13.28936        12.47036         0.91542
| 87>    C      -11.96363        11.84102         0.95927
| 88>    O      -11.69827        10.67312         0.76794
| 89>    C      -14.50046        11.87919         0.69158
| 90>    C      -15.66484        12.67861         0.68279
| 91>    C      -15.54947        14.08348         0.89840
| 92>    C      -14.28257        14.66740         1.12828
| 93>    C      -16.71756        14.87184         0.87781
| 94>    C      -17.94237        14.30177         0.65749
| 95>    C      -18.05518        12.91913         0.44826
| 96>    C      -16.94078        12.12422         0.46140
| 97>    H        6.80166         1.87603        -2.39945
| 98>    H        2.82127        -1.03515        -1.63667
| 99>    H        4.22088        -3.00223        -1.88205
|100>    H        6.42478        -4.02508        -2.28321
|101>    H        8.40073        -2.60743        -2.67341
|102>    H        8.18955        -0.15332        -2.66262
|103>    H        2.93076         5.22075        -1.05378
|104>    H       -3.16737         7.63205         4.44283
|105>    H       -4.19081         8.44561         2.15178
|106>    H       -1.95792         5.23631        -1.01286
|107>    H       -2.89364         6.08423        -3.31234
|108>    H       -5.63849         7.78399         0.88961
|109>    H       -5.67440         9.97344        -1.24123
|110>    H       -7.54362         7.39997         1.37746
|111>    H      -10.55802        10.98548         3.04798
|112>    H       -9.10837        13.79633         0.78715
|113>    H      -14.56768        10.81422         0.52636
|114>    H      -14.22570        15.73348         1.28176
|115>    H      -16.62635        15.93548         1.04135
|116>    H      -18.83135        14.91403         0.64386
|117>    H      -19.02921        12.48671         0.27623
|118>    H      -17.02139        11.05930         0.30106
|119> *
|120>
|121>                          ****END OF INPUT****

CARTESIAN COORDINATES (ANGSTROEM)
---------------------------------
  C      2.398830    1.836830   -1.632640
  C      1.094180    1.470620   -1.835800
  C      0.686450    0.148890   -2.118260
  N      0.304140   -0.905130   -2.359070
  C      0.029480    2.388290   -1.874560
  N     -0.850230    3.126760   -1.905910
  C      3.557220    0.970480   -1.810620
  C      4.710430    1.786460   -2.012740
  C      5.942050    1.241970   -2.240970
  C      6.080160   -0.163970   -2.263150
  C      4.935120   -0.983860   -2.039980
  C      3.669980   -0.393670   -1.815900
  C      5.090520   -2.384770   -2.051320
  C      6.316050   -2.951040   -2.275880
  C      7.441620   -2.143680   -2.498490
  C      7.326300   -0.779860   -2.492790
  C      4.331500    3.203400   -1.908650
  O      5.011900    4.184930   -2.083570
  C      2.897870    3.186920   -1.466920
  C      2.366150    4.305040   -0.914930
  C      1.204080    4.400440   -0.108120
  S      0.382600    5.927480    0.140640
  C     -0.843930    5.245330    1.191860
  C     -0.564010    3.918170    1.360200
  C      0.543740    3.448570    0.633020
  O      0.675170    2.123110    0.884420
  C     -0.344510    1.780520    1.742210
  O     -0.523830    0.688220    2.151010
  O     -1.106960    2.867650    2.024070
  C     -1.833980    6.064510    1.837380
  C     -1.934560    6.267880    3.192780
  N     -1.106940    5.729330    4.207950
  O     -1.336080    6.077920    5.347430
  O     -0.203940    4.981210    3.879460
  C     -2.940070    7.273210    3.457530
  C     -3.469360    7.665180    2.279930
  C     -2.880150    6.886670    1.208400
  C     -3.288940    6.792200   -0.098760
  C     -2.675130    6.019190   -1.144270
  C     -3.156960    6.442920   -2.335460
  C     -4.134440    7.482360   -2.113810
  N     -4.841490    8.025000   -3.206660
  O     -5.418550    9.092410   -3.075060
  O     -4.823060    7.383780   -4.240030
  C     -4.326890    7.646390   -0.748460
  C     -5.376010    8.274520   -0.035930
  C     -6.046790    9.406910   -0.399230
  C     -7.154470    9.984410    0.253980
  S     -7.523120   11.630700   -0.141700
  C     -8.881690   11.697000    0.918430
  C     -9.020710   10.480650    1.615890
  C     -8.072520    9.493210    1.210270
  C     -8.174280    8.194240    1.739790
  C     -9.112020    7.925600    2.701900
  C     -9.235410    6.540840    3.280410
  F     -8.369230    5.679210    2.724670
  F     -8.985910    6.523860    4.600050
  F    -10.456800    6.019900    3.107700
  C     -9.967080    8.944050    3.199020
  C    -10.891610    8.674840    4.237600
  N    -11.650660    8.493930    5.075130
  C     -9.918340   10.210200    2.658540
  C     -9.653660   12.881050    0.987210
  C    -11.001580   12.961290    1.183420
  C    -11.761960   14.187090    1.353280
  C    -11.249230   15.397860    1.738830
  C    -12.026810   16.560890    1.922510
  N    -12.608530   17.537670    2.077470
  C     -9.889390   15.624750    2.039160
  N     -8.800300   15.857440    2.317980
  C    -13.166880   13.872790    1.141150
  C    -13.289360   12.470360    0.915420
  C    -11.963630   11.841020    0.959270
  O    -11.698270   10.673120    0.767940
  C    -14.500460   11.879190    0.691580
  C    -15.664840   12.678610    0.682790
  C    -15.549470   14.083480    0.898400
  C    -14.282570   14.667400    1.128280
  C    -16.717560   14.871840    0.877810
  C    -17.942370   14.301770    0.657490
  C    -18.055180   12.919130    0.448260
  C    -16.940780   12.124220    0.461400
  H      6.801660    1.876030   -2.399450
  H      2.821270   -1.035150   -1.636670
  H      4.220880   -3.002230   -1.882050
  H      6.424780   -4.025080   -2.283210
  H      8.400730   -2.607430   -2.673410
  H      8.189550   -0.153320   -2.662620
  H      2.930760    5.220750   -1.053780
  H     -3.167370    7.632050    4.442830
  H     -4.190810    8.445610    2.151780
  H     -1.957920    5.236310   -1.012860
  H     -2.893640    6.084230   -3.312340
  H     -5.638490    7.783990    0.889610
  H     -5.674400    9.973440   -1.241230
  H     -7.543620    7.399970    1.377460
  H    -10.558020   10.985480    3.047980
  H     -9.108370   13.796330    0.787150
  H    -14.567680   10.814220    0.526360
  H    -14.225700   15.733480    1.281760
  H    -16.626350   15.935480    1.041350
  H    -18.831350   14.914030    0.643860
  H    -19.029210   12.486710    0.276230
  H    -17.021390   11.059300    0.301060

 Total Charge           Charge          ....    0
 Multiplicity           Mult            ....    1
 Number of Electrons    NEL             ....  568
 Basis Dimension        Dim             .... 1266

ORBITAL ENERGIES
----------------

  NO   OCC          E(Eh)            E(eV)
   0   2.0000     -89.007371     -2422.0137
   1   2.0000     -88.994444     -2421.6619
   2   2.0000     -24.810607      -675.1309
   3   2.0000     -24.804435      -674.9630
   4   2.0000     -24.803237      -674.9304
   5   2.0000     -19.330651      -526.0138
   6   2.0000     -19.326701      -525.9063
   7   2.0000     -19.256140      -523.9862
   8   2.0000     -19.253351      -523.9103
   9   2.0000     -19.253033      -523.9017
  10   2.0000     -19.250679      -523.8376
  11   2.0000     -19.238781      -523.5139
  12   2.0000     -19.228623      -523.2374
  13   2.0000     -19.225655      -523.1567
  14   2.0000     -14.663845      -399.0235
  15   2.0000     -14.659896      -398.9160
  16   2.0000     -14.434752      -392.7896
  17   2.0000     -14.425523      -392.5384
  18   2.0000     -14.424091      -392.4995
  19   2.0000     -14.423048      -392.4711
  20   2.0000     -14.414623      -392.2418
  21   2.0000     -10.528358      -286.4912
  22   2.0000     -10.482852      -285.2529
  23   2.0000     -10.379816      -282.4492
  24   2.0000     -10.379106      -282.4298
  25   2.0000     -10.376578      -282.3611
  26   2.0000     -10.375077      -282.3202
  27   2.0000     -10.354760      -281.7673
  28   2.0000     -10.353785      -281.7408
  29   2.0000     -10.352330      -281.7012
  30   2.0000     -10.351118      -281.6682
  31   2.0000     -10.351040      -281.6661
  32   2.0000     -10.350914      -281.6627
  33   2.0000     -10.350694      -281.6567
  34   2.0000     -10.347071      -281.5581
  35   2.0000     -10.346985      -281.5558
  36   2.0000     -10.346977      -281.5556
  37   2.0000     -10.344714      -281.4940
  38   2.0000     -10.343507      -281.4611
  39   2.0000     -10.342706      -281.4393
  40   2.0000     -10.340416      -281.3770
  41   2.0000     -10.340202      -281.3712
  42   2.0000     -10.339198      -281.3439
  43   2.0000     -10.337324      -281.2929
  44   2.0000     -10.336660      -281.2748
  45   2.0000     -10.329096      -281.0690
  46   2.0000     -10.327978      -281.0386
  47   2.0000     -10.326753      -281.0052
  48   2.0000     -10.326212      -280.9905
  49   2.0000     -10.325001      -280.9576
  50   2.0000     -10.324988      -280.9572
  51   2.0000     -10.323334      -280.9122
  52   2.0000     -10.323208      -280.9088
  53   2.0000     -10.322099      -280.8786
  54   2.0000     -10.320013      -280.8218
  55   2.0000     -10.317839      -280.7627
  56   2.0000     -10.314619      -280.6750
  57   2.0000     -10.313193      -280.6362
  58   2.0000     -10.311981      -280.6033
  59   2.0000     -10.311650      -280.5943
  60   2.0000     -10.310624      -280.5663
  61   2.0000     -10.307947      -280.4935
  62   2.0000     -10.305366      -280.4233
  63   2.0000     -10.305243      -280.4199
  64   2.0000     -10.305011      -280.4136
  65   2.0000     -10.304758      -280.4067
  66   2.0000     -10.304433      -280.3979
  67   2.0000     -10.304347      -280.3955
  68   2.0000     -10.303813      -280.3810
  69   2.0000     -10.303416      -280.3702
  70   2.0000     -10.303274      -280.3663
  71   2.0000     -10.298050      -280.2242
  72   2.0000     -10.296961      -280.1945
  73   2.0000     -10.292618      -280.0764
  74   2.0000     -10.292268      -280.0669
  75   2.0000     -10.292023      -280.0602
  76   2.0000     -10.291686      -280.0510
  77   2.0000     -10.291523      -280.0466
  78   2.0000     -10.291288      -280.0402
  79   2.0000     -10.291045      -280.0336
  80   2.0000     -10.290726      -280.0249
  81   2.0000     -10.290160      -280.0095
  82   2.0000      -8.102601      -220.4830
  83   2.0000      -8.088985      -220.1125
  84   2.0000      -6.071350      -165.2098
  85   2.0000      -6.067239      -165.0980
  86   2.0000      -6.065776      -165.0581
  87   2.0000      -6.058689      -164.8653
  88   2.0000      -6.054615      -164.7544
  89   2.0000      -6.050192      -164.6341
  90   2.0000      -1.397037       -38.0153
  91   2.0000      -1.335832       -36.3498
  92   2.0000      -1.331594       -36.2345
  93   2.0000      -1.305520       -35.5250
  94   2.0000      -1.300612       -35.3915
  95   2.0000      -1.296445       -35.2781
  96   2.0000      -1.191190       -32.4139
  97   2.0000      -1.163591       -31.6629
  98   2.0000      -1.153854       -31.3980
  99   2.0000      -1.148950       -31.2645
 100   2.0000      -1.144413       -31.1411
 101   2.0000      -1.141499       -31.0618
 102   2.0000      -1.040105       -28.3027
 103   2.0000      -1.038456       -28.2578
 104   2.0000      -1.031720       -28.0745
 105   2.0000      -1.027915       -27.9710
 106   2.0000      -1.020198       -27.7610
 107   2.0000      -1.010813       -27.5056
 108   2.0000      -1.009688       -27.4750
 109   2.0000      -1.007705       -27.4211
 110   2.0000      -1.005245       -27.3541
 111   2.0000      -1.003168       -27.2976
 112   2.0000      -1.003121       -27.2963
 113   2.0000      -0.981140       -26.6982
 114   2.0000      -0.979134       -26.6436
 115   2.0000      -0.977402       -26.5965
 116   2.0000      -0.946920       -25.7670
 117   2.0000      -0.935603       -25.4591
 118   2.0000      -0.931360       -25.3436
 119   2.0000      -0.925559       -25.1857
 120   2.0000      -0.923270       -25.1235
 121   2.0000      -0.914057       -24.8727
 122   2.0000      -0.901348       -24.5269
 123   2.0000      -0.898119       -24.4391
 124   2.0000      -0.893655       -24.3176
 125   2.0000      -0.892763       -24.2933
 126   2.0000      -0.888835       -24.1864
 127   2.0000      -0.887779       -24.1577
 128   2.0000      -0.882438       -24.0124
 129   2.0000      -0.874710       -23.8021
 130   2.0000      -0.862378       -23.4665
 131   2.0000      -0.857513       -23.3341
 132   2.0000      -0.839175       -22.8351
 133   2.0000      -0.835953       -22.7474
 134   2.0000      -0.834925       -22.7195
 135   2.0000      -0.823439       -22.4069
 136   2.0000      -0.810456       -22.0536
 137   2.0000      -0.805524       -21.9194
 138   2.0000      -0.797824       -21.7099
 139   2.0000      -0.783661       -21.3245
 140   2.0000      -0.771049       -20.9813
 141   2.0000      -0.770376       -20.9630
 142   2.0000      -0.766260       -20.8510
 143   2.0000      -0.759178       -20.6583
 144   2.0000      -0.753513       -20.5041
 145   2.0000      -0.744243       -20.2519
 146   2.0000      -0.740331       -20.1454
 147   2.0000      -0.737401       -20.0657
 148   2.0000      -0.731197       -19.8969
 149   2.0000      -0.718803       -19.5596
 150   2.0000      -0.712629       -19.3916
 151   2.0000      -0.707793       -19.2600
 152   2.0000      -0.706872       -19.2350
 153   2.0000      -0.703500       -19.1432
 154   2.0000      -0.696762       -18.9599
 155   2.0000      -0.693115       -18.8606
 156   2.0000      -0.686770       -18.6880
 157   2.0000      -0.686169       -18.6716
 158   2.0000      -0.684435       -18.6244
 159   2.0000      -0.679754       -18.4971
 160   2.0000      -0.678071       -18.4512
 161   2.0000      -0.670598       -18.2479
 162   2.0000      -0.666218       -18.1287
 163   2.0000      -0.657917       -17.9028
 164   2.0000      -0.654219       -17.8022
 165   2.0000      -0.649566       -17.6756
 166   2.0000      -0.646822       -17.6009
 167   2.0000      -0.645518       -17.5655
 168   2.0000      -0.643302       -17.5051
 169   2.0000      -0.640015       -17.4157
 170   2.0000      -0.637694       -17.3525
 171   2.0000      -0.637150       -17.3377
 172   2.0000      -0.633223       -17.2309
 173   2.0000      -0.631373       -17.1805
 174   2.0000      -0.617365       -16.7994
 175   2.0000      -0.614699       -16.7268
 176   2.0000      -0.614327       -16.7167
 177   2.0000      -0.612113       -16.6564
 178   2.0000      -0.610944       -16.6246
 179   2.0000      -0.601863       -16.3775
 180   2.0000      -0.596681       -16.2365
 181   2.0000      -0.588555       -16.0154
 182   2.0000      -0.586142       -15.9497
 183   2.0000      -0.579162       -15.7598
 184   2.0000      -0.572470       -15.5777
 185   2.0000      -0.568237       -15.4625
 186   2.0000      -0.566244       -15.4083
 187   2.0000      -0.561529       -15.2800
 188   2.0000      -0.557775       -15.1778
 189   2.0000      -0.557563       -15.1721
 190   2.0000      -0.556794       -15.1511
 191   2.0000      -0.554460       -15.0876
 192   2.0000      -0.553971       -15.0743
 193   2.0000      -0.552995       -15.0478
 194   2.0000      -0.550298       -14.9744
 195   2.0000      -0.548277       -14.9194
 196   2.0000      -0.547293       -14.8926
 197   2.0000      -0.546170       -14.8620
 198   2.0000      -0.545201       -14.8357
 199   2.0000      -0.542149       -14.7526
 200   2.0000      -0.540262       -14.7013
 201   2.0000      -0.536913       -14.6101
 202   2.0000      -0.533081       -14.5059
 203   2.0000      -0.531564       -14.4646
 204   2.0000      -0.528606       -14.3841
 205   2.0000      -0.526771       -14.3342
 206   2.0000      -0.525183       -14.2910
 207   2.0000      -0.521489       -14.1904
 208   2.0000      -0.519763       -14.1435
 209   2.0000      -0.518835       -14.1182
 210   2.0000      -0.517128       -14.0718
 211   2.0000      -0.515727       -14.0337
 212   2.0000      -0.515254       -14.0208
 213   2.0000      -0.513665       -13.9775
 214   2.0000      -0.510282       -13.8855
 215   2.0000      -0.509924       -13.8757
 216   2.0000      -0.508431       -13.8351
 217   2.0000      -0.504494       -13.7280
 218   2.0000      -0.502002       -13.6602
 219   2.0000      -0.499695       -13.5974
 220   2.0000      -0.499199       -13.5839
 221   2.0000      -0.498393       -13.5620
 222   2.0000      -0.496826       -13.5193
 223   2.0000      -0.491647       -13.3784
 224   2.0000      -0.491037       -13.3618
 225   2.0000      -0.490547       -13.3485
 226   2.0000      -0.485691       -13.2163
 227   2.0000      -0.482914       -13.1408
 228   2.0000      -0.480133       -13.0651
 229   2.0000      -0.475497       -12.9389
 230   2.0000      -0.472654       -12.8616
 231   2.0000      -0.472173       -12.8485
 232   2.0000      -0.470963       -12.8155
 233   2.0000      -0.464583       -12.6419
 234   2.0000      -0.463043       -12.6000
 235   2.0000      -0.459177       -12.4949
 236   2.0000      -0.457799       -12.4573
 237   2.0000      -0.457072       -12.4376
 238   2.0000      -0.455725       -12.4009
 239   2.0000      -0.452959       -12.3256
 240   2.0000      -0.449339       -12.2271
 241   2.0000      -0.448599       -12.2070
 242   2.0000      -0.445796       -12.1307
 243   2.0000      -0.443270       -12.0620
 244   2.0000      -0.441681       -12.0187
 245   2.0000      -0.441622       -12.0171
 246   2.0000      -0.441429       -12.0119
 247   2.0000      -0.440240       -11.9796
 248   2.0000      -0.438158       -11.9229
 249   2.0000      -0.435512       -11.8509
 250   2.0000      -0.433729       -11.8024
 251   2.0000      -0.430547       -11.7158
 252   2.0000      -0.429044       -11.6749
 253   2.0000      -0.427610       -11.6359
 254   2.0000      -0.420441       -11.4408
 255   2.0000      -0.418489       -11.3877
 256   2.0000      -0.417326       -11.3560
 257   2.0000      -0.412857       -11.2344
 258   2.0000      -0.411050       -11.1852
 259   2.0000      -0.405466       -11.0333
 260   2.0000      -0.401026       -10.9125
 261   2.0000      -0.398899       -10.8546
 262   2.0000      -0.393019       -10.6946
 263   2.0000      -0.392914       -10.6917
 264   2.0000      -0.386594       -10.5198
 265   2.0000      -0.384286       -10.4570
 266   2.0000      -0.382000       -10.3947
 267   2.0000      -0.380146       -10.3443
 268   2.0000      -0.378242       -10.2925
 269   2.0000      -0.369781       -10.0623
 270   2.0000      -0.362376        -9.8608
 271   2.0000      -0.355678        -9.6785
 272   2.0000      -0.348803        -9.4914
 273   2.0000      -0.347455        -9.4547
 274   2.0000      -0.340838        -9.2747
 275   2.0000      -0.337800        -9.1920
 276   2.0000      -0.331469        -9.0197
 277   2.0000      -0.324333        -8.8256
 278   2.0000      -0.323455        -8.8017
 279   2.0000      -0.320272        -8.7151
 280   2.0000      -0.304328        -8.2812
 281   2.0000      -0.301784        -8.2120
 282   2.0000      -0.298928        -8.1343
 283   2.0000      -0.273068        -7.4306
 284   0.0000      -0.146575        -3.9885
 285   0.0000      -0.114665        -3.1202
 286   0.0000      -0.100460        -2.7336
 287   0.0000      -0.078894        -2.1468
 288   0.0000      -0.066691        -1.8148

MULLIKEN ATOMIC CHARGES
-----------------------
   0 C :    0.275235
   1 C :   -0.309819
   2 C :   -0.178735
   3 N :    0.167813
   4 C :   -0.191022
   5 N :    0.167060
   6 C :    0.034220
   7 C :    0.010862
   8 C :   -0.075156
   9 C :    0.091787
  10 C :    0.092863
  11 C :   -0.073500
  12 C :   -0.014892
  13 C :    0.034083
  14 C :    0.038290
  15 C :   -0.013686
  16 C :    0.139049
  17 O :   -0.133917
  18 C :   -0.132641
  19 C :    0.106031
  20 C :   -0.199951
  21 S :    0.195142
  22 C :   -0.342431
  23 C :    0.309959
  24 C :    0.154371
  25 O :   -0.216775
  26 C :    0.307646
  27 O :   -0.104158
  28 O :   -0.188611
  29 C :    0.045215
  30 C :    0.104438
  31 N :    0.262608
  32 O :   -0.226864
  33 O :   -0.239030
  34 C :    0.018320
  35 C :   -0.003651
  36 C :    0.049660
  37 C :    0.034365
  38 C :    0.010049
  39 C :    0.032306
  40 C :    0.067873
  41 N :    0.271206
  42 O :   -0.251435
  43 O :   -0.234994
  44 C :    0.055373
  45 C :   -0.096125
  46 C :    0.078294
  47 C :   -0.122460
  48 S :    0.236620
  49 C :   -0.140869
  50 C :    0.151544
  51 C :    0.122869
  52 C :   -0.093174
  53 C :   -0.048375
  54 C :    0.528052
  55 F :   -0.155020
  56 F :   -0.156553
  57 F :   -0.149820
  58 C :   -0.092274
  59 C :   -0.165874
  60 N :    0.141054
  61 C :    0.011271
  62 C :    0.007576
  63 C :   -0.101089
  64 C :    0.292013
  65 C :   -0.329367
  66 C :   -0.181788
  67 N :    0.155606
  68 C :   -0.207838
  69 N :    0.167538
  70 C :    0.054880
  71 C :   -0.008463
  72 C :    0.135954
  73 O :   -0.142755
  74 C :   -0.072247
  75 C :    0.096308
  76 C :    0.097709
  77 C :   -0.083073
  78 C :   -0.019464
  79 C :    0.037730
  80 C :    0.038141
  81 C :   -0.015209
  82 H :   -0.009214
  83 H :    0.000679
  84 H :   -0.007723
  85 H :   -0.000401
  86 H :   -0.003592
  87 H :   -0.015230
  88 H :    0.025428
  89 H :    0.010963
  90 H :    0.005071
  91 H :    0.007848
  92 H :    0.016387
  93 H :    0.020115
  94 H :    0.031631
  95 H :   -0.001974
  96 H :    0.003846
  97 H :    0.035761
  98 H :   -0.007439
  99 H :   -0.005459
 100 H :   -0.006669
 101 H :   -0.001294
 102 H :   -0.002289
 103 H :   -0.012322
Sum of atomic charges:   -0.0000000

LOEWDIN ATOMIC CHARGES
----------------------
   0 C :    0.069674
   1 C :   -0.132167
   2 C :   -0.019553
   3 N :   -0.039849
   4 C :   -0.003780
   5 N :   -0.058508
   6 C :   -0.022771
   7 C :   -0.059929
   8 C :    0.036638
   9 C :   -0.008558
  10 C :   -0.003902
  11 C :    0.020910
  12 C :   -0.004446
  13 C :   -0.010141
  14 C :   -0.010428
  15 C :   -0.008137
  16 C :    0.085725
  17 O :   -0.134629
  18 C :   -0.073330
  19 C :    0.041566
  20 C :   -0.197362
  21 S :    0.480309
  22 C :   -0.187288
  23 C :    0.013267
  24 C :    0.011499
  25 O :   -0.021112
  26 C :    0.116915
  27 O :   -0.100863
  28 O :   -0.009997
  29 C :   -0.014926
  30 C :   -0.018019
  31 N :    0.282975
  32 O :   -0.191642
  33 O :   -0.202534
  34 C :    0.010797
  35 C :   -0.033718
  36 C :    0.020622
  37 C :    0.056952
  38 C :   -0.037457
  39 C :    0.029766
  40 C :   -0.034275
  41 N :    0.283934
  42 O :   -0.208447
  43 O :   -0.199291
  44 C :    0.011544
  45 C :   -0.033598
  46 C :   -0.005942
  47 C :   -0.152905
  48 S :    0.543880
  49 C :   -0.174348
  50 C :   -0.017603
  51 C :   -0.034324
  52 C :    0.008355
  53 C :   -0.056609
  54 C :    0.168356
  55 F :   -0.055657
  56 F :   -0.054240
  57 F :   -0.048323
  58 C :   -0.049759
  59 C :   -0.039265
  60 N :   -0.033167
  61 C :    0.053661
  62 C :    0.035207
  63 C :   -0.084788
  64 C :    0.071875
  65 C :   -0.132564
  66 C :   -0.018159
  67 N :   -0.045196
  68 C :   -0.025499
  69 N :   -0.047125
  70 C :   -0.027204
  71 C :   -0.057077
  72 C :    0.078101
  73 O :   -0.134847
  74 C :    0.037494
  75 C :   -0.007249
  76 C :   -0.004783
  77 C :    0.021815
  78 C :   -0.004849
  79 C :   -0.009669
  80 C :   -0.008961
  81 C :   -0.007093
  82 H :    0.040451
  83 H :    0.040815
  84 H :    0.035607
  85 H :    0.034641
  86 H :    0.033643
  87 H :    0.032623
  88 H :    0.050033
  89 H :    0.041699
  90 H :    0.032520
  91 H :    0.024360
  92 H :    0.043317
  93 H :    0.033607
  94 H :    0.035748
  95 H :    0.036303
  96 H :    0.043946
  97 H :    0.047681
  98 H :    0.041239
  99 H :    0.039813
 100 H :    0.035552
 101 H :    0.034578
 102 H :    0.034183
 103 H :    0.033661

  Mayer bond orders larger than 0.100000
B(  0-C ,  1-C ) :   1.6510 B(  0-C ,  6-C ) :   1.0052 B(  0-C , 18-C ) :   1.0393
B(  1-C ,  2-C ) :   1.1300 B(  1-C ,  4-C ) :   1.1737 B(  2-C ,  3-N ) :   2.9971
B(  4-C ,  5-N ) :   2.9644 B(  6-C ,  7-C ) :   1.2095 B(  6-C , 11-C ) :   1.4603
B(  7-C ,  8-C ) :   1.4714 B(  7-C , 16-C ) :   0.9244 B(  8-C ,  9-C ) :   1.1889
B(  8-C , 82-H ) :   1.0158 B(  9-C , 10-C ) :   1.2535 B(  9-C , 15-C ) :   1.2446
B( 10-C , 11-C ) :   1.2057 B( 10-C , 12-C ) :   1.2428 B( 11-C , 83-H ) :   0.9934
B( 12-C , 13-C ) :   1.4885 B( 12-C , 84-H ) :   0.9977 B( 13-C , 14-C ) :   1.2600
B( 13-C , 85-H ) :   0.9894 B( 14-C , 15-C ) :   1.4898 B( 14-C , 86-H ) :   0.9889
B( 15-C , 87-H ) :   0.9977 B( 16-C , 17-O ) :   2.2813 B( 16-C , 18-C ) :   0.9212
B( 18-C , 19-C ) :   1.6960 B( 19-C , 20-C ) :   1.1138 B( 19-C , 88-H ) :   0.9327
B( 20-C , 21-S ) :   1.0856 B( 20-C , 22-C ) :   0.1108 B( 20-C , 24-C ) :   1.4849
B( 21-S , 22-C ) :   1.1250 B( 22-C , 23-C ) :   1.5539 B( 22-C , 29-C ) :   0.9829
B( 23-C , 24-C ) :   1.2345 B( 23-C , 28-O ) :   1.1190 B( 24-C , 25-O ) :   1.0969
B( 25-O , 26-C ) :   1.0228 B( 26-C , 27-O ) :   2.2827 B( 26-C , 28-O ) :   1.0692
B( 29-C , 30-C ) :   1.6529 B( 29-C , 36-C ) :   1.0665 B( 30-C , 31-N ) :   0.9237
B( 30-C , 34-C ) :   1.1106 B( 31-N , 32-O ) :   1.5468 B( 31-N , 33-O ) :   1.5190
B( 32-O , 33-O ) :   0.2741 B( 34-C , 35-C ) :   1.6243 B( 34-C , 89-H ) :   1.0139
B( 35-C , 36-C ) :   1.0720 B( 35-C , 90-H ) :   0.9978 B( 36-C , 37-C ) :   1.5702
B( 37-C , 38-C ) :   1.0891 B( 37-C , 44-C ) :   0.9855 B( 38-C , 39-C ) :   1.6097
B( 38-C , 91-H ) :   0.9913 B( 39-C , 40-C ) :   1.0967 B( 39-C , 92-H ) :   1.0132
B( 40-C , 41-N ) :   0.9480 B( 40-C , 44-C ) :   1.5540 B( 41-N , 42-O ) :   1.4809
B( 41-N , 43-O ) :   1.5461 B( 42-O , 43-O ) :   0.2594 B( 44-C , 45-C ) :   1.1740
B( 45-C , 46-C ) :   1.6214 B( 45-C , 93-H ) :   0.9425 B( 46-C , 47-C ) :   1.1628
B( 46-C , 94-H ) :   0.9327 B( 47-C , 48-S ) :   1.1972 B( 47-C , 51-C ) :   1.2853
B( 48-S , 49-C ) :   1.1648 B( 49-C , 50-C ) :   1.2961 B( 49-C , 62-C ) :   1.1700
B( 50-C , 51-C ) :   1.2469 B( 50-C , 61-C ) :   1.1970 B( 51-C , 52-C ) :   1.1813
B( 52-C , 53-C ) :   1.5485 B( 52-C , 95-H ) :   0.9882 B( 53-C , 54-C ) :   0.9393
B( 53-C , 58-C ) :   1.2286 B( 54-C , 55-F ) :   1.1603 B( 54-C , 56-F ) :   1.1601
B( 54-C , 57-F ) :   1.1715 B( 58-C , 59-C ) :   1.0640 B( 58-C , 61-C ) :   1.5625
B( 59-C , 60-N ) :   3.0463 B( 61-C , 96-H ) :   0.9859 B( 62-C , 63-C ) :   1.6168
B( 62-C , 97-H ) :   0.9350 B( 63-C , 64-C ) :   1.0524 B( 63-C , 72-C ) :   0.9358
B( 64-C , 65-C ) :   1.6539 B( 64-C , 70-C ) :   1.0004 B( 65-C , 66-C ) :   1.1411
B( 65-C , 68-C ) :   1.1387 B( 66-C , 67-N ) :   2.9703 B( 68-C , 69-N ) :   2.9993
B( 70-C , 71-C ) :   1.2067 B( 70-C , 77-C ) :   1.4493 B( 71-C , 72-C ) :   0.9492
B( 71-C , 74-C ) :   1.4713 B( 72-C , 73-O ) :   2.2056 B( 74-C , 75-C ) :   1.1814
B( 74-C , 98-H ) :   1.0165 B( 75-C , 76-C ) :   1.2512 B( 75-C , 81-C ) :   1.2452
B( 76-C , 77-C ) :   1.2068 B( 76-C , 78-C ) :   1.2411 B( 77-C , 99-H ) :   0.9905
B( 78-C , 79-C ) :   1.4877 B( 78-C ,100-H ) :   0.9974 B( 79-C , 80-C ) :   1.2601
B( 79-C ,101-H ) :   0.9893 B( 80-C , 81-C ) :   1.4868 B( 80-C ,102-H ) :   0.9895
B( 81-C ,103-H ) :   0.9982

-----------------------------------------------------------------------------
         ABSORPTION SPECTRUM VIA TRANSITION ELECTRIC DIPOLE MOMENTS
-----------------------------------------------------------------------------
State   Energy  Wavelength   fosc         T2         TX        TY        TZ
        (cm-1)    (nm)                  (au**2)     (au)      (au)      (au)
-----------------------------------------------------------------------------
   0   11198.5    893.0   0.489604133  14.39332  -3.05839   2.17205   0.56725
   1   16400.9    609.7   0.101462940   2.03664   0.98417  -0.95960  -0.38370
   2   18507.9    540.3   0.681515930  12.12253   2.43494  -2.44014  -0.48920
   3   20364.4    491.1   0.001468551   0.02374   0.11040   0.01825   0.10592
   4   21949.0    455.6   0.005341152   0.08011  -0.03564   0.07410   0.27083
   5   22713.6    440.3   0.046482169   0.67372  -0.80170   0.17166   0.03902
   6   23077.8    433.3   0.038942319   0.55553  -0.51528   0.24059   0.48180
   7   23901.3    418.4   0.017038519   0.23469   0.48291  -0.00014  -0.03849
   8   23985.2    416.9   0.018360838   0.25201  -0.36091   0.30132   0.17598
   9   25295.0    395.3   0.342660685   4.45970   1.17213  -1.59322  -0.73990
  10   25815.5    387.4   0.112747156   1.43781   0.94110  -0.24150  -0.70272
  11   26382.7    379.0   0.040480684   0.50513   0.29813  -0.04316   0.64373
  12   26574.8    376.3   0.068373750   0.84702  -0.85611   0.20958  -0.26490
  13   26607.9    375.8   0.143175116   1.77146   0.37191  -0.38185  -1.21956
  14   26932.8    371.3   0.083438671   1.01991  -0.27528  -0.94350  -0.23224
  15   27586.9    362.5   0.022685585   0.27072   0.50876  -0.03281   0.10398
  16   27861.7    358.9   0.031527943   0.37253   0.51336   0.02493  -0.32920
  17   28371.0    352.5   0.016200224   0.18798  -0.42088  -0.09866  -0.03330
  18   28514.9    350.7   0.049874997   0.57582  -0.66038  -0.35705  -0.11062
  19   28790.3    347.3   0.052871361   0.60457  -0.27880   0.13668  -0.71286
  20   29099.4    343.6   0.013411386   0.15173  -0.06259  -0.37650   0.07784
  21   29390.9    340.2   0.018843677   0.21107  -0.40510   0.10781   0.18800
  22   29573.1    338.1   0.011511452   0.12815  -0.20588  -0.22484   0.18763
  23   30229.2    330.8   0.006436855   0.07010   0.03123  -0.25835  -0.04879
  24   30319.3    329.8   0.044176971   0.47968   0.00381   0.51887  -0.45874
  25   30570.8    327.1   0.002959279   0.03187   0.09048   0.08769  -0.12646
  26   30984.8    322.7   0.043417756   0.46131  -0.49641   0.07500   0.45745
  27   31261.9    319.9   0.150875637   1.58884   1.22860  -0.27852   0.04248
  28   31968.3    312.8   0.529666707   5.45454   1.31262  -0.04491   1.93120
  29   32046.3    312.0   0.080371830   0.82566  -0.83356  -0.22924   0.27981
  30   32384.8    308.8   0.080224115   0.81553  -0.87869   0.19310   0.07844
  31   33025.6    302.8   0.053572617   0.53403  -0.62418  -0.37999   0.00644
  32   33050.0    302.6   0.079599214   0.79289  -0.02547  -0.63846  -0.62017
  33   33298.3    300.3   0.037664859   0.37238   0.46237  -0.16795   0.36109
  34   33508.2    298.4   0.032066803   0.31505  -0.50041   0.18414  -0.17530
  35   33610.3    297.5   0.345449062   3.38367  -1.50398   1.04979   0.14015
  36   33718.6    296.6   0.170444147   1.66413  -1.06564   0.62813  -0.36604
  37   33780.0    296.0   0.572360215   5.57808  -1.98239   0.64994   1.10715
  38   33943.4    294.6   0.150559960   1.46026   0.46128   0.26912   1.08400
  39   34416.5    290.6   0.174947035   1.67346  -1.17226  -0.49986   0.22228
  40   34617.8    288.9   0.159140311   1.51341   0.79481  -0.90919   0.23466
  41   34923.6    286.3   0.010084665   0.09506  -0.14296  -0.12612  -0.24232
  42   35008.0    285.6   0.047320809   0.44500   0.63466  -0.16216  -0.12612
  43   35048.8    285.3   0.015772867   0.14815   0.26399  -0.21296  -0.18196
  44   35259.5    283.6   0.158285782   1.47789  -0.64149   0.08320  -1.02930
  45   35703.3    280.1   0.095428794   0.87993  -0.53810   0.25778  -0.72383
  46   35854.8    278.9   0.100629801   0.92396   0.63735  -0.31087   0.64893
  47   36026.4    277.6   0.013675421   0.12497   0.15476   0.25175  -0.19401
  48   36330.3    275.3   0.228355590   2.06928   1.14732  -0.39066  -0.77481
  49   36492.8    274.0   0.021635951   0.19518   0.12707  -0.23064  -0.35475
  50   36672.6    272.7   0.058178907   0.52228   0.62733   0.34019  -0.11406
  51   36795.8    271.8   0.036777980   0.32905  -0.27515   0.39679  -0.30968
  52   37058.6    269.8   0.127366800   1.13147  -0.96275  -0.02459   0.45164
  53   37801.5    264.5   0.238787999   2.07960   1.19677   0.48016   0.64558
  54   37895.6    263.9   0.081258839   0.70592   0.51792  -0.57654  -0.32447
  55   38038.4    262.9   0.112276597   0.97172   0.03602   0.39849   0.90091
  56   38101.9    262.5   0.202912894   1.75323   0.47758   1.08144  -0.59635
  57   38563.5    259.3   0.026014641   0.22208  -0.31780  -0.12521  -0.32467
  58   38765.4    258.0   0.009274632   0.07876   0.08221  -0.22626   0.14426
  59   39104.5    255.7   0.067529727   0.56852  -0.08685  -0.65915  -0.35566
  60   39370.1    254.0   0.248497776   2.07793  -0.14289  -1.43411   0.02901
  61   39536.5    252.9   0.015106547   0.12579  -0.00719  -0.35148   0.04686
  62   39864.0    250.9   0.009404053   0.07766   0.22470  -0.14598  -0.07655
  63   39943.3    250.4   0.025798231   0.21263  -0.34029  -0.16983  -0.26075
  64   40229.3    248.6   0.053332573   0.43644  -0.25892   0.33835  -0.50490

FINAL SINGLE POINT ENERGY     -4488.814025389441

DIPOLE MOMENT
-------------
                                X             Y             Z
Electronic contribution:     -5.40243      -0.74565      19.86580
Nuclear contribution   :      6.38856       0.92049     -21.91130
                        -----------------------------------------
Total Dipole Moment    :      0.98614       0.17483      -2.04550
                        -----------------------------------------
Magnitude (a.u.)       :      2.27752
Magnitude (Debye)      :      5.78900

Rotational constants in cm-1:     0.002042     0.000218     0.000214
Rotational constants in MHz :    61.214892     6.526771     6.419635

                             ****ORCA TERMINATED NORMALLY****
TOTAL RUN TIME: 0 days 0 hours 13 minutes 6 seconds 246 msec
