                         Program Version 4.2.0 -  RELEASE  -
|  1> # ORCA input file
|  2> # SCF done       -190.634759806194          0.000673760354
|  3> ! CAM-B3LYP def2-SVP def2/J RIJCOSX Grid4 TightSCF
|  4> %maxcore 5000
|  5> %tddft
|  6>     Mode sTDDFT
|  7>     Ethresh 5.0
|  8>     maxcore 5000
|  9> end
| 10>
| 11> %pal
| 12>   nprocs 6
| 13>   end
| 14> * xyz 0 1
| 15>    C        1.40591         2.42977         4.28217
| 16>    C        2.45047         2.97547         3.58072
| 17>    C        3.56139         2.23542         3.12732
| 18>    N        4.48510         1.67593         2.73886
| 19>    C        2.57321         4.34964         3.30353
| 20>    N        2.72726         5.46759         3.09054
| 21>    C        1.36432         1.06380         4.79593
| 22>    C        0.41272         1.00739         5.85622
| 23>    C        0.19113        -0.14169         6.55890
| 24>    C        0.91409        -1.30787         6.21915
| 25>    C        1.84887        -1.26302         5.14461
| 26>    C        2.06314        -0.05668         4.43780
| 27>    C        2.55716        -2.43495         4.81109
| 28>    C        2.35818        -3.59552         5.50842
| 29>    C        1.43998        -3.63828         6.56798
| 30>    C        0.73299        -2.51907         6.91537
| 31>    C       -0.22669         2.32643         6.00619
| 32>    O       -1.04108         2.67573         6.82993
| 33>    C        0.29938         3.14601         4.87718
| 34>    C       -0.31988         4.31828         4.56339
| 35>    C       -0.26209         5.06561         3.36635
| 36>    S       -0.44544         6.78835         3.45662
| 37>    C       -0.16775         6.96626         1.76007
| 38>    C        0.00590         5.71866         1.13834
| 39>    C       -0.04553         4.64815         2.04839
| 40>    C        0.02895         3.20123         1.73691
| 41>    O        0.91226         2.64684         1.13495
| 42>    O       -1.02497         2.54070         2.23317
| 43>    O        0.13830         5.75038        -0.19710
| 44>    C        0.34997         4.57265        -0.94402
| 45>    C       -0.09084         8.21426         1.12173
| 46>    S        0.21467         8.35628        -0.59223
| 47>    C        0.23643        10.10772        -0.55873
| 48>    C       -0.00023        10.55223         0.74826
| 49>    C       -0.18289         9.48812         1.67310
| 50>    N       -0.40017        10.01877         2.90252
| 51>    C       -0.35970        11.39364         2.78639
| 52>    C       -0.55655        12.23467         3.89039
| 53>    N       -0.72203        12.92952         4.78842
| 54>    C       -0.11709        11.75616         1.47641
| 55>    C        0.49052        10.89323        -1.69146
| 56>    C        0.69492        10.39811        -2.94557
| 57>    C        0.99819        11.19312        -4.06938
| 58>    S        1.25274        12.89874        -3.91029
| 59>    C        1.56567        13.07907        -5.60924
| 60>    C        1.55959        11.82954        -6.26024
| 61>    C        1.23070        10.76931        -5.38579
| 62>    C        1.21985         9.33102        -5.72510
| 63>    O        2.09549         8.74532        -6.31073
| 64>    O        0.12754         8.69841        -5.27101
| 65>    O        1.89987        11.80915        -7.54518
| 66>    C        1.66152        10.68216        -8.36071
| 67>    C        1.88054        14.35116        -6.12277
| 68>    C        1.65506        14.79485        -7.39942
| 69>    C        2.19735        15.99472        -7.99468
| 70>    C        3.22643        16.75552        -7.49779
| 71>    C        3.74695        17.89673        -8.14003
| 72>    N        4.21147        18.83596        -8.61047
| 73>    C        3.91999        16.48793        -6.30008
| 74>    N        4.54081        16.32465        -5.34733
| 75>    C        1.52589        16.20230        -9.27314
| 76>    C        0.59868        15.14042        -9.47374
| 77>    C        0.63629        14.22989        -8.31377
| 78>    O       -0.10111        13.28754        -8.10927
| 79>    C       -0.18004        15.06637       -10.59136
| 80>    C       -0.05881        16.06525       -11.58448
| 81>    C        0.86494        17.13156       -11.39006
| 82>    C        1.65351        17.18561       -10.21714
| 83>    C        0.97462        18.12468       -12.38417
| 84>    C        0.20997        18.06874       -13.51768
| 85>    C       -0.69956        17.01828       -13.70818
| 86>    C       -0.83038        16.03758       -12.76238
| 87>    H       -0.52536        -0.16137         7.36653
| 88>    H        2.76990        -0.04983         3.62274
| 89>    H        3.26614        -2.39560         3.99721
| 90>    H        2.90870        -4.48697         5.24782
| 91>    H        1.29583        -4.56203         7.10801
| 92>    H        0.02495        -2.54587         7.73070
| 93>    H       -0.97378         4.71219         5.33603
| 94>    H       -0.95030         1.59084         2.04586
| 95>    H        0.45956         4.90551        -1.97458
| 96>    H       -0.50967         3.90024        -0.86721
| 97>    H        1.25092         4.04525        -0.62494
| 98>    H       -0.54426         9.51270         3.76046
| 99>    H       -0.03708        12.75761         1.10503
|100>    H        0.53006        11.96354        -1.53243
|101>    H        0.61937         9.33109        -3.09615
|102>    H        0.17779         7.75430        -5.49110
|103>    H        2.37357         9.87947        -8.15560
|104>    H        1.78584        11.03814        -9.38247
|105>    H        0.64168        10.31357        -8.22661
|106>    H        2.30659        15.04309        -5.40544
|107>    H       -0.87935        14.25341       -10.72046
|108>    H        2.33727        18.01054       -10.09438
|109>    H        1.67728        18.93104       -12.23293
|110>    H        0.30195        18.83407       -14.27380
|111>    H       -1.29665        16.99006       -14.60751
|112>    H       -1.53000        15.22652       -12.90376
|113> *
|114>
|115>                          ****END OF INPUT****

CARTESIAN COORDINATES (ANGSTROEM)
---------------------------------
  C      1.405910    2.429770    4.282170
  C      2.450470    2.975470    3.580720
  C      3.561390    2.235420    3.127320
  N      4.485100    1.675930    2.738860
  C      2.573210    4.349640    3.303530
  N      2.727260    5.467590    3.090540
  C      1.364320    1.063800    4.795930
  C      0.412720    1.007390    5.856220
  C      0.191130   -0.141690    6.558900
  C      0.914090   -1.307870    6.219150
  C      1.848870   -1.263020    5.144610
  C      2.063140   -0.056680    4.437800
  C      2.557160   -2.434950    4.811090
  C      2.358180   -3.595520    5.508420
  C      1.439980   -3.638280    6.567980
  C      0.732990   -2.519070    6.915370
  C     -0.226690    2.326430    6.006190
  O     -1.041080    2.675730    6.829930
  C      0.299380    3.146010    4.877180
  C     -0.319880    4.318280    4.563390
  C     -0.262090    5.065610    3.366350
  S     -0.445440    6.788350    3.456620
  C     -0.167750    6.966260    1.760070
  C      0.005900    5.718660    1.138340
  C     -0.045530    4.648150    2.048390
  C      0.028950    3.201230    1.736910
  O      0.912260    2.646840    1.134950
  O     -1.024970    2.540700    2.233170
  O      0.138300    5.750380   -0.197100
  C      0.349970    4.572650   -0.944020
  C     -0.090840    8.214260    1.121730
  S      0.214670    8.356280   -0.592230
  C      0.236430   10.107720   -0.558730
  C     -0.000230   10.552230    0.748260
  C     -0.182890    9.488120    1.673100
  N     -0.400170   10.018770    2.902520
  C     -0.359700   11.393640    2.786390
  C     -0.556550   12.234670    3.890390
  N     -0.722030   12.929520    4.788420
  C     -0.117090   11.756160    1.476410
  C      0.490520   10.893230   -1.691460
  C      0.694920   10.398110   -2.945570
  C      0.998190   11.193120   -4.069380
  S      1.252740   12.898740   -3.910290
  C      1.565670   13.079070   -5.609240
  C      1.559590   11.829540   -6.260240
  C      1.230700   10.769310   -5.385790
  C      1.219850    9.331020   -5.725100
  O      2.095490    8.745320   -6.310730
  O      0.127540    8.698410   -5.271010
  O      1.899870   11.809150   -7.545180
  C      1.661520   10.682160   -8.360710
  C      1.880540   14.351160   -6.122770
  C      1.655060   14.794850   -7.399420
  C      2.197350   15.994720   -7.994680
  C      3.226430   16.755520   -7.497790
  C      3.746950   17.896730   -8.140030
  N      4.211470   18.835960   -8.610470
  C      3.919990   16.487930   -6.300080
  N      4.540810   16.324650   -5.347330
  C      1.525890   16.202300   -9.273140
  C      0.598680   15.140420   -9.473740
  C      0.636290   14.229890   -8.313770
  O     -0.101110   13.287540   -8.109270
  C     -0.180040   15.066370  -10.591360
  C     -0.058810   16.065250  -11.584480
  C      0.864940   17.131560  -11.390060
  C      1.653510   17.185610  -10.217140
  C      0.974620   18.124680  -12.384170
  C      0.209970   18.068740  -13.517680
  C     -0.699560   17.018280  -13.708180
  C     -0.830380   16.037580  -12.762380
  H     -0.525360   -0.161370    7.366530
  H      2.769900   -0.049830    3.622740
  H      3.266140   -2.395600    3.997210
  H      2.908700   -4.486970    5.247820
  H      1.295830   -4.562030    7.108010
  H      0.024950   -2.545870    7.730700
  H     -0.973780    4.712190    5.336030
  H     -0.950300    1.590840    2.045860
  H      0.459560    4.905510   -1.974580
  H     -0.509670    3.900240   -0.867210
  H      1.250920    4.045250   -0.624940
  H     -0.544260    9.512700    3.760460
  H     -0.037080   12.757610    1.105030
  H      0.530060   11.963540   -1.532430
  H      0.619370    9.331090   -3.096150
  H      0.177790    7.754300   -5.491100
  H      2.373570    9.879470   -8.155600
  H      1.785840   11.038140   -9.382470
  H      0.641680   10.313570   -8.226610
  H      2.306590   15.043090   -5.405440
  H     -0.879350   14.253410  -10.720460
  H      2.337270   18.010540  -10.094380
  H      1.677280   18.931040  -12.232930
  H      0.301950   18.834070  -14.273800
  H     -1.296650   16.990060  -14.607510
  H     -1.530000   15.226520  -12.903760

 Total Charge           Charge          ....    0
 Multiplicity           Mult            ....    1
 Number of Electrons    NEL             ....  510
 Basis Dimension        Dim             .... 1150

ORBITAL ENERGIES
----------------

  NO   OCC          E(Eh)            E(eV)
   0   2.0000     -88.992100     -2421.5981
   1   2.0000     -88.976968     -2421.1864
   2   2.0000     -88.968964     -2420.9686
   3   2.0000     -19.288728      -524.8730
   4   2.0000     -19.280359      -524.6452
   5   2.0000     -19.278536      -524.5956
   6   2.0000     -19.261350      -524.1280
   7   2.0000     -19.235384      -523.4214
   8   2.0000     -19.218925      -522.9735
   9   2.0000     -19.218229      -522.9546
  10   2.0000     -19.199406      -522.4424
  11   2.0000     -14.489726      -394.2855
  12   2.0000     -14.422350      -392.4521
  13   2.0000     -14.419121      -392.3642
  14   2.0000     -14.416533      -392.2938
  15   2.0000     -14.401907      -391.8958
  16   2.0000     -14.401466      -391.8838
  17   2.0000     -10.437760      -284.0259
  18   2.0000     -10.422391      -283.6077
  19   2.0000     -10.370553      -282.1971
  20   2.0000     -10.369665      -282.1729
  21   2.0000     -10.365290      -282.0539
  22   2.0000     -10.357627      -281.8454
  23   2.0000     -10.350220      -281.6438
  24   2.0000     -10.346404      -281.5400
  25   2.0000     -10.342968      -281.4465
  26   2.0000     -10.339255      -281.3454
  27   2.0000     -10.337734      -281.3041
  28   2.0000     -10.335687      -281.2483
  29   2.0000     -10.335606      -281.2461
  30   2.0000     -10.334405      -281.2135
  31   2.0000     -10.331285      -281.1286
  32   2.0000     -10.327174      -281.0167
  33   2.0000     -10.326385      -280.9952
  34   2.0000     -10.325780      -280.9788
  35   2.0000     -10.323753      -280.9236
  36   2.0000     -10.321329      -280.8577
  37   2.0000     -10.320620      -280.8383
  38   2.0000     -10.319505      -280.8080
  39   2.0000     -10.318822      -280.7894
  40   2.0000     -10.318446      -280.7792
  41   2.0000     -10.310708      -280.5686
  42   2.0000     -10.307644      -280.4853
  43   2.0000     -10.306581      -280.4563
  44   2.0000     -10.306071      -280.4424
  45   2.0000     -10.305376      -280.4235
  46   2.0000     -10.305058      -280.4149
  47   2.0000     -10.304692      -280.4049
  48   2.0000     -10.302618      -280.3485
  49   2.0000     -10.301880      -280.3284
  50   2.0000     -10.301640      -280.3219
  51   2.0000     -10.301340      -280.3137
  52   2.0000     -10.300344      -280.2866
  53   2.0000     -10.299107      -280.2529
  54   2.0000     -10.297408      -280.2067
  55   2.0000     -10.296102      -280.1712
  56   2.0000     -10.293593      -280.1029
  57   2.0000     -10.290604      -280.0216
  58   2.0000     -10.290319      -280.0138
  59   2.0000     -10.289840      -280.0008
  60   2.0000     -10.289577      -279.9936
  61   2.0000     -10.289094      -279.9805
  62   2.0000     -10.287854      -279.9467
  63   2.0000     -10.287268      -279.9308
  64   2.0000     -10.285536      -279.8837
  65   2.0000     -10.285306      -279.8774
  66   2.0000     -10.281958      -279.7863
  67   2.0000     -10.278348      -279.6881
  68   2.0000     -10.277739      -279.6715
  69   2.0000     -10.277249      -279.6582
  70   2.0000     -10.276922      -279.6493
  71   2.0000     -10.276721      -279.6438
  72   2.0000      -8.087357      -220.0682
  73   2.0000      -8.070308      -219.6043
  74   2.0000      -8.064792      -219.4541
  75   2.0000      -6.056711      -164.8115
  76   2.0000      -6.052716      -164.7028
  77   2.0000      -6.049259      -164.6087
  78   2.0000      -6.039828      -164.3521
  79   2.0000      -6.035495      -164.2342
  80   2.0000      -6.034023      -164.1941
  81   2.0000      -6.032377      -164.1493
  82   2.0000      -6.030178      -164.0895
  83   2.0000      -6.026624      -163.9928
  84   2.0000      -1.219320       -33.1794
  85   2.0000      -1.206521       -32.8311
  86   2.0000      -1.186050       -32.2741
  87   2.0000      -1.170131       -31.8409
  88   2.0000      -1.133390       -30.8411
  89   2.0000      -1.123480       -30.5715
  90   2.0000      -1.112784       -30.2804
  91   2.0000      -1.112264       -30.2662
  92   2.0000      -1.108378       -30.1605
  93   2.0000      -1.025670       -27.9099
  94   2.0000      -1.016671       -27.6650
  95   2.0000      -1.005427       -27.3591
  96   2.0000      -1.003885       -27.3171
  97   2.0000      -1.001942       -27.2642
  98   2.0000      -1.001431       -27.2503
  99   2.0000      -0.995512       -27.0893
 100   2.0000      -0.989440       -26.9240
 101   2.0000      -0.986117       -26.8336
 102   2.0000      -0.980475       -26.6801
 103   2.0000      -0.975214       -26.5369
 104   2.0000      -0.960220       -26.1289
 105   2.0000      -0.934780       -25.4367
 106   2.0000      -0.926120       -25.2010
 107   2.0000      -0.918253       -24.9869
 108   2.0000      -0.909954       -24.7611
 109   2.0000      -0.905849       -24.6494
 110   2.0000      -0.893206       -24.3054
 111   2.0000      -0.888491       -24.1771
 112   2.0000      -0.885188       -24.0872
 113   2.0000      -0.883383       -24.0381
 114   2.0000      -0.875585       -23.8259
 115   2.0000      -0.870060       -23.6755
 116   2.0000      -0.862964       -23.4825
 117   2.0000      -0.861834       -23.4517
 118   2.0000      -0.849666       -23.1206
 119   2.0000      -0.840302       -22.8658
 120   2.0000      -0.832210       -22.6456
 121   2.0000      -0.822797       -22.3894
 122   2.0000      -0.817935       -22.2571
 123   2.0000      -0.814068       -22.1519
 124   2.0000      -0.794946       -21.6316
 125   2.0000      -0.785561       -21.3762
 126   2.0000      -0.772360       -21.0170
 127   2.0000      -0.764122       -20.7928
 128   2.0000      -0.755860       -20.5680
 129   2.0000      -0.751743       -20.4560
 130   2.0000      -0.748565       -20.3695
 131   2.0000      -0.746016       -20.3001
 132   2.0000      -0.733790       -19.9674
 133   2.0000      -0.719736       -19.5850
 134   2.0000      -0.713904       -19.4263
 135   2.0000      -0.707912       -19.2633
 136   2.0000      -0.704776       -19.1779
 137   2.0000      -0.693699       -18.8765
 138   2.0000      -0.691062       -18.8048
 139   2.0000      -0.685894       -18.6641
 140   2.0000      -0.684060       -18.6142
 141   2.0000      -0.678853       -18.4725
 142   2.0000      -0.671058       -18.2604
 143   2.0000      -0.667339       -18.1592
 144   2.0000      -0.662508       -18.0277
 145   2.0000      -0.659604       -17.9487
 146   2.0000      -0.651813       -17.7367
 147   2.0000      -0.641050       -17.4439
 148   2.0000      -0.635901       -17.3037
 149   2.0000      -0.628109       -17.0917
 150   2.0000      -0.622961       -16.9516
 151   2.0000      -0.621204       -16.9038
 152   2.0000      -0.615398       -16.7458
 153   2.0000      -0.611074       -16.6282
 154   2.0000      -0.605504       -16.4766
 155   2.0000      -0.600006       -16.3270
 156   2.0000      -0.596388       -16.2285
 157   2.0000      -0.589343       -16.0368
 158   2.0000      -0.586978       -15.9725
 159   2.0000      -0.583778       -15.8854
 160   2.0000      -0.581062       -15.8115
 161   2.0000      -0.576535       -15.6883
 162   2.0000      -0.573554       -15.6072
 163   2.0000      -0.571057       -15.5392
 164   2.0000      -0.566937       -15.4271
 165   2.0000      -0.564294       -15.3552
 166   2.0000      -0.561067       -15.2674
 167   2.0000      -0.557187       -15.1618
 168   2.0000      -0.556576       -15.1452
 169   2.0000      -0.551885       -15.0176
 170   2.0000      -0.550353       -14.9759
 171   2.0000      -0.548208       -14.9175
 172   2.0000      -0.545685       -14.8488
 173   2.0000      -0.540054       -14.6956
 174   2.0000      -0.538908       -14.6644
 175   2.0000      -0.536218       -14.5912
 176   2.0000      -0.534396       -14.5417
 177   2.0000      -0.530737       -14.4421
 178   2.0000      -0.528942       -14.3932
 179   2.0000      -0.526319       -14.3219
 180   2.0000      -0.523240       -14.2381
 181   2.0000      -0.522081       -14.2065
 182   2.0000      -0.521402       -14.1881
 183   2.0000      -0.516998       -14.0682
 184   2.0000      -0.513292       -13.9674
 185   2.0000      -0.512962       -13.9584
 186   2.0000      -0.509796       -13.8723
 187   2.0000      -0.506422       -13.7804
 188   2.0000      -0.504453       -13.7269
 189   2.0000      -0.501497       -13.6464
 190   2.0000      -0.500072       -13.6076
 191   2.0000      -0.495737       -13.4897
 192   2.0000      -0.494712       -13.4618
 193   2.0000      -0.494607       -13.4589
 194   2.0000      -0.492069       -13.3899
 195   2.0000      -0.487710       -13.2713
 196   2.0000      -0.485628       -13.2146
 197   2.0000      -0.481648       -13.1063
 198   2.0000      -0.481404       -13.0997
 199   2.0000      -0.479386       -13.0448
 200   2.0000      -0.474840       -12.9211
 201   2.0000      -0.472494       -12.8572
 202   2.0000      -0.468819       -12.7572
 203   2.0000      -0.465229       -12.6595
 204   2.0000      -0.458707       -12.4820
 205   2.0000      -0.456299       -12.4165
 206   2.0000      -0.454712       -12.3733
 207   2.0000      -0.453224       -12.3328
 208   2.0000      -0.449188       -12.2230
 209   2.0000      -0.448794       -12.2123
 210   2.0000      -0.445416       -12.1204
 211   2.0000      -0.443852       -12.0778
 212   2.0000      -0.442478       -12.0404
 213   2.0000      -0.437201       -11.8968
 214   2.0000      -0.436464       -11.8768
 215   2.0000      -0.435979       -11.8636
 216   2.0000      -0.434211       -11.8155
 217   2.0000      -0.433336       -11.7917
 218   2.0000      -0.430294       -11.7089
 219   2.0000      -0.428979       -11.6731
 220   2.0000      -0.428428       -11.6581
 221   2.0000      -0.428199       -11.6519
 222   2.0000      -0.424746       -11.5579
 223   2.0000      -0.424397       -11.5484
 224   2.0000      -0.422967       -11.5095
 225   2.0000      -0.421054       -11.4575
 226   2.0000      -0.416325       -11.3288
 227   2.0000      -0.414014       -11.2659
 228   2.0000      -0.412495       -11.2246
 229   2.0000      -0.408432       -11.1140
 230   2.0000      -0.407909       -11.0998
 231   2.0000      -0.404202       -10.9989
 232   2.0000      -0.401788       -10.9332
 233   2.0000      -0.396177       -10.7805
 234   2.0000      -0.393497       -10.7076
 235   2.0000      -0.391533       -10.6542
 236   2.0000      -0.386635       -10.5209
 237   2.0000      -0.379606       -10.3296
 238   2.0000      -0.372937       -10.1481
 239   2.0000      -0.372099       -10.1253
 240   2.0000      -0.364646        -9.9225
 241   2.0000      -0.359178        -9.7737
 242   2.0000      -0.343310        -9.3419
 243   2.0000      -0.339339        -9.2339
 244   2.0000      -0.335099        -9.1185
 245   2.0000      -0.325107        -8.8466
 246   2.0000      -0.322458        -8.7745
 247   2.0000      -0.317782        -8.6473
 248   2.0000      -0.316714        -8.6182
 249   2.0000      -0.306811        -8.3488
 250   2.0000      -0.304296        -8.2803
 251   2.0000      -0.297467        -8.0945
 252   2.0000      -0.286618        -7.7993
 253   2.0000      -0.271934        -7.3997
 254   2.0000      -0.232354        -6.3227
 255   0.0000      -0.110929        -3.0185
 256   0.0000      -0.087133        -2.3710
 257   0.0000      -0.065131        -1.7723
 258   0.0000      -0.056836        -1.5466
 259   0.0000      -0.042316        -1.1515

MULLIKEN ATOMIC CHARGES
-----------------------
   0 C :    0.264287
   1 C :   -0.318808
   2 C :   -0.183796
   3 N :    0.161289
   4 C :   -0.181808
   5 N :    0.166400
   6 C :    0.021321
   7 C :    0.019141
   8 C :   -0.091167
   9 C :    0.098552
  10 C :    0.097901
  11 C :   -0.090784
  12 C :   -0.022958
  13 C :    0.037991
  14 C :    0.035910
  15 C :   -0.018943
  16 C :    0.137696
  17 O :   -0.142880
  18 C :   -0.146130
  19 C :    0.072270
  20 C :   -0.140926
  21 S :    0.156257
  22 C :   -0.111827
  23 C :    0.168742
  24 C :    0.051480
  25 C :    0.083692
  26 O :   -0.186667
  27 O :   -0.159143
  28 O :   -0.318101
  29 C :    0.182011
  30 C :   -0.130030
  31 S :    0.174759
  32 C :   -0.106160
  33 C :    0.117253
  34 C :    0.085741
  35 N :   -0.031254
  36 C :   -0.092071
  37 C :   -0.148998
  38 N :    0.168053
  39 C :   -0.024005
  40 C :    0.001755
  41 C :    0.003432
  42 C :   -0.057067
  43 S :    0.142425
  44 C :   -0.154710
  45 C :    0.248317
  46 C :   -0.016828
  47 C :    0.085482
  48 O :   -0.191370
  49 O :   -0.170778
  50 O :   -0.270574
  51 C :    0.176022
  52 C :    0.017653
  53 C :   -0.095101
  54 C :    0.306551
  55 C :   -0.352269
  56 C :   -0.182313
  57 N :    0.141972
  58 C :   -0.210694
  59 N :    0.153829
  60 C :    0.049500
  61 C :   -0.003662
  62 C :    0.145113
  63 O :   -0.160465
  64 C :   -0.090477
  65 C :    0.100848
  66 C :    0.096938
  67 C :   -0.089846
  68 C :   -0.021892
  69 C :    0.034090
  70 C :    0.034536
  71 C :   -0.020488
  72 H :   -0.010338
  73 H :   -0.002062
  74 H :   -0.008210
  75 H :   -0.003915
  76 H :   -0.004356
  77 H :   -0.015620
  78 H :    0.027087
  79 H :    0.197994
  80 H :    0.032587
  81 H :    0.027808
  82 H :    0.063861
  83 H :    0.133770
  84 H :   -0.009211
  85 H :    0.003036
  86 H :   -0.002073
  87 H :    0.193566
  88 H :    0.060070
  89 H :    0.034336
  90 H :    0.027645
  91 H :    0.028750
  92 H :   -0.020961
  93 H :   -0.009852
  94 H :   -0.010143
  95 H :   -0.007323
  96 H :   -0.009094
  97 H :   -0.021572
Sum of atomic charges:   -0.0000000

LOEWDIN ATOMIC CHARGES
----------------------
   0 C :    0.052673
   1 C :   -0.127252
   2 C :   -0.014809
   3 N :   -0.048543
   4 C :   -0.015333
   5 N :   -0.050010
   6 C :   -0.025366
   7 C :   -0.059259
   8 C :    0.032135
   9 C :   -0.010290
  10 C :   -0.006018
  11 C :    0.013475
  12 C :   -0.006925
  13 C :   -0.012173
  14 C :   -0.013045
  15 C :   -0.009219
  16 C :    0.082843
  17 O :   -0.143605
  18 C :   -0.086850
  19 C :    0.034825
  20 C :   -0.163605
  21 S :    0.475633
  22 C :   -0.190624
  23 C :    0.035603
  24 C :   -0.103483
  25 C :    0.080116
  26 O :   -0.159092
  27 O :   -0.018850
  28 O :   -0.089646
  29 C :    0.080849
  30 C :   -0.206211
  31 S :    0.486351
  32 C :   -0.175189
  33 C :   -0.058937
  34 C :   -0.008787
  35 N :    0.075036
  36 C :   -0.023840
  37 C :   -0.045506
  38 N :   -0.033113
  39 C :   -0.026280
  40 C :   -0.015421
  41 C :   -0.055728
  42 C :   -0.115181
  43 S :    0.461839
  44 C :   -0.213188
  45 C :    0.078352
  46 C :   -0.135553
  47 C :    0.083086
  48 O :   -0.167640
  49 O :   -0.028345
  50 O :   -0.050595
  51 C :    0.079197
  52 C :    0.049266
  53 C :   -0.099732
  54 C :    0.075166
  55 C :   -0.148373
  56 C :   -0.017718
  57 N :   -0.062953
  58 C :   -0.024064
  59 N :   -0.059731
  60 C :   -0.024864
  61 C :   -0.051106
  62 C :    0.077074
  63 O :   -0.154672
  64 C :    0.022917
  65 C :   -0.009370
  66 C :   -0.008414
  67 C :    0.016530
  68 C :   -0.006298
  69 C :   -0.017707
  70 C :   -0.015921
  71 C :   -0.012829
  72 H :    0.039649
  73 H :    0.039735
  74 H :    0.034855
  75 H :    0.033558
  76 H :    0.033133
  77 H :    0.032200
  78 H :    0.047540
  79 H :    0.104589
  80 H :    0.028073
  81 H :    0.017715
  82 H :    0.027320
  83 H :    0.086240
  84 H :    0.038138
  85 H :    0.031237
  86 H :    0.024191
  87 H :    0.101356
  88 H :    0.022735
  89 H :    0.027933
  90 H :    0.019774
  91 H :    0.043676
  92 H :    0.035465
  93 H :    0.038254
  94 H :    0.034094
  95 H :    0.031797
  96 H :    0.031087
  97 H :    0.029953

  Mayer bond orders larger than 0.100000
B(  0-C ,  1-C ) :   1.6501 B(  0-C ,  6-C ) :   1.0012 B(  0-C , 18-C ) :   1.0368
B(  1-C ,  2-C ) :   1.1449 B(  1-C ,  4-C ) :   1.1633 B(  2-C ,  3-N ) :   2.9898
B(  4-C ,  5-N ) :   3.0030 B(  6-C ,  7-C ) :   1.2143 B(  6-C , 11-C ) :   1.4585
B(  7-C ,  8-C ) :   1.4688 B(  7-C , 16-C ) :   0.9202 B(  8-C ,  9-C ) :   1.1809
B(  8-C , 72-H ) :   1.0180 B(  9-C , 10-C ) :   1.2560 B(  9-C , 15-C ) :   1.2440
B( 10-C , 11-C ) :   1.1985 B( 10-C , 12-C ) :   1.2404 B( 11-C , 73-H ) :   0.9966
B( 12-C , 13-C ) :   1.4891 B( 12-C , 74-H ) :   0.9987 B( 13-C , 14-C ) :   1.2596
B( 13-C , 75-H ) :   0.9887 B( 14-C , 15-C ) :   1.4893 B( 14-C , 76-H ) :   0.9888
B( 15-C , 77-H ) :   0.9985 B( 16-C , 17-O ) :   2.2706 B( 16-C , 18-C ) :   0.9470
B( 18-C , 19-C ) :   1.6578 B( 19-C , 20-C ) :   1.1324 B( 19-C , 78-H ) :   0.9268
B( 20-C , 21-S ) :   1.1279 B( 20-C , 22-C ) :   0.1070 B( 20-C , 24-C ) :   1.4153
B( 21-S , 22-C ) :   1.1200 B( 22-C , 23-C ) :   1.3905 B( 22-C , 30-C ) :   1.2479
B( 23-C , 24-C ) :   1.3087 B( 23-C , 28-O ) :   1.2008 B( 24-C , 25-C ) :   0.8754
B( 25-C , 26-O ) :   2.0929 B( 25-C , 27-O ) :   1.2846 B( 27-O , 79-H ) :   0.9409
B( 28-O , 29-C ) :   0.9171 B( 29-C , 80-H ) :   0.9740 B( 29-C , 81-H ) :   0.9679
B( 29-C , 82-H ) :   0.9639 B( 30-C , 31-S ) :   1.1182 B( 30-C , 32-C ) :   0.1052
B( 30-C , 34-C ) :   1.3576 B( 31-S , 32-C ) :   1.0900 B( 32-C , 33-C ) :   1.2780
B( 32-C , 40-C ) :   1.2402 B( 33-C , 34-C ) :   1.2505 B( 33-C , 39-C ) :   1.1851
B( 34-C , 35-N ) :   1.1903 B( 35-N , 36-C ) :   1.1972 B( 35-N , 83-H ) :   0.9286
B( 36-C , 37-C ) :   1.0554 B( 36-C , 39-C ) :   1.5799 B( 37-C , 38-N ) :   3.0539
B( 39-C , 84-H ) :   1.0130 B( 40-C , 41-C ) :   1.5722 B( 40-C , 85-H ) :   0.9715
B( 41-C , 42-C ) :   1.2107 B( 41-C , 86-H ) :   0.9569 B( 42-C , 43-S ) :   1.1615
B( 42-C , 46-C ) :   1.4150 B( 43-S , 44-C ) :   1.0737 B( 44-C , 45-C ) :   1.3792
B( 44-C , 52-C ) :   1.2192 B( 45-C , 46-C ) :   1.2619 B( 45-C , 50-O ) :   1.2724
B( 46-C , 47-C ) :   0.8806 B( 47-C , 48-O ) :   2.1270 B( 47-C , 49-O ) :   1.2375
B( 49-O , 87-H ) :   0.9425 B( 50-O , 51-C ) :   0.9121 B( 51-C , 88-H ) :   0.9626
B( 51-C , 89-H ) :   0.9754 B( 51-C , 90-H ) :   0.9646 B( 52-C , 53-C ) :   1.5573
B( 52-C , 91-H ) :   0.9277 B( 53-C , 54-C ) :   1.0960 B( 53-C , 62-C ) :   0.9655
B( 54-C , 55-C ) :   1.6170 B( 54-C , 60-C ) :   0.9833 B( 55-C , 56-C ) :   1.1485
B( 55-C , 58-C ) :   1.1449 B( 56-C , 57-N ) :   2.9625 B( 58-C , 59-N ) :   2.9904
B( 60-C , 61-C ) :   1.2158 B( 60-C , 67-C ) :   1.4563 B( 61-C , 62-C ) :   0.9325
B( 61-C , 64-C ) :   1.4797 B( 62-C , 63-O ) :   2.2125 B( 64-C , 65-C ) :   1.1738
B( 64-C , 92-H ) :   1.0157 B( 65-C , 66-C ) :   1.2613 B( 65-C , 71-C ) :   1.2462
B( 66-C , 67-C ) :   1.1995 B( 66-C , 68-C ) :   1.2414 B( 67-C , 93-H ) :   0.9903
B( 68-C , 69-C ) :   1.4880 B( 68-C , 94-H ) :   0.9972 B( 69-C , 70-C ) :   1.2622
B( 69-C , 95-H ) :   0.9880 B( 70-C , 71-C ) :   1.4879 B( 70-C , 96-H ) :   0.9880
B( 71-C , 97-H ) :   0.9970

-----------------------------------------------------------------------------
         ABSORPTION SPECTRUM VIA TRANSITION ELECTRIC DIPOLE MOMENTS
-----------------------------------------------------------------------------
State   Energy  Wavelength   fosc         T2         TX        TY        TZ
        (cm-1)    (nm)                  (au**2)     (au)      (au)      (au)
-----------------------------------------------------------------------------
   0   12210.9    818.9   1.706112990  45.99776   0.09844   4.97272  -4.61087
   1   17535.1    570.3   0.371209525   6.96926   1.16947   1.02061  -2.13541
   2   21904.9    456.5   0.019729349   0.29652  -0.51643   0.04085   0.16776
   3   22893.1    436.8   0.032383959   0.46569  -0.17912   0.02728   0.65792
   4   24695.8    404.9   0.022446427   0.29923   0.07418   0.49451   0.22178
   5   25465.6    392.7   0.076373072   0.98733  -0.58723  -0.34322   0.72435
   6   26226.5    381.3   0.018733075   0.23515   0.05103  -0.46542  -0.12621
   7   26555.6    376.6   0.058918094   0.73041  -0.26278  -0.31127  -0.75131
   8   26844.2    372.5   0.165620100   2.03113   0.28312  -1.26981  -0.58187
   9   27634.1    361.9   0.040484816   0.48231   0.62530   0.08707   0.28935
  10   27838.1    359.2   0.110602416   1.30798  -0.61680   0.87291  -0.40690
  11   28689.7    348.6   0.029721225   0.34105  -0.00539  -0.42799  -0.39729
  12   29039.2    344.4   0.013201018   0.14966  -0.29630  -0.18197   0.16957
  13   29220.7    342.2   0.020472128   0.23065   0.10123   0.44416  -0.15206
  14   30436.6    328.6   0.017224792   0.18631  -0.37125  -0.19605  -0.10024
  15   30774.7    324.9   0.016143309   0.17269  -0.09372  -0.00216   0.40485
  16   31106.3    321.5   0.084663680   0.89603   0.41765  -0.81913  -0.22502
  17   31291.6    319.6   0.121236650   1.27550   0.39717  -0.36277   0.99305
  18   31799.4    314.5   0.268770949   2.78252   0.47450   1.05491   1.20189
  19   32207.3    310.5   0.068695557   0.70218  -0.31921  -0.72777   0.26576
  20   32793.7    304.9   0.432492343   4.34174  -0.77640   1.01290  -1.64711
  21   33097.3    302.1   0.514298676   5.11563   0.23505   2.02885  -0.97167
  22   33198.3    301.2   0.132801118   1.31693  -0.37960  -1.06195   0.21236
  23   33696.5    296.8   0.133265693   1.30199  -0.45477   0.08776  -1.04282
  24   33900.3    295.0   0.042218175   0.40999   0.24030  -0.55772  -0.20297
  25   34267.2    291.8   0.080120352   0.76973  -0.13827  -0.06739   0.86375
  26   34607.7    289.0   0.026357570   0.25073  -0.23133   0.44367   0.01936
  27   35147.8    284.5   0.045325689   0.42454   0.18027  -0.17725   0.60052
  28   35544.1    281.3   0.089533697   0.82927  -0.68547  -0.20343  -0.56392
  29   35776.2    279.5   0.054237147   0.49909   0.31040   0.51556  -0.37006
  30   36187.6    276.3   0.056976538   0.51834  -0.43071  -0.57277   0.06899
  31   36232.1    276.0   0.051510102   0.46803  -0.31024  -0.60972   0.00512
  32   36632.6    273.0   0.091999539   0.82679   0.57070  -0.70731   0.02825
  33   36788.8    271.8   0.074350183   0.66534   0.61272  -0.10664   0.52776
  34   37545.9    266.3   0.286684963   2.51373  -0.79069  -0.78391  -1.12873
  35   37686.8    265.3   0.022989960   0.20083   0.24252   0.29894  -0.22946
  36   37948.3    263.5   0.058980026   0.51167   0.31326   0.40075  -0.50292
  37   38188.5    261.9   0.041836991   0.36066   0.07150   0.06765  -0.59243
  38   38296.5    261.1   0.093027850   0.79970   0.29273  -0.38481   0.75229
  39   38717.7    258.3   0.018494520   0.15726  -0.01635   0.00694   0.39616
  40   39208.7    255.0   0.006991808   0.05871  -0.14157  -0.18978  -0.05147
  41   39426.5    253.6   0.109506432   0.91438   0.77756   0.19041  -0.52300
  42   39744.0    251.6   0.206227456   1.70825   0.73257   1.05165   0.25615
  43   40048.5    249.7   0.016771882   0.13787  -0.24884   0.17395   0.21375

FINAL SINGLE POINT ENERGY     -4232.145130513120

DIPOLE MOMENT
-------------
                                X             Y             Z
Electronic contribution:      3.19549      14.99384      28.42460
Nuclear contribution   :     -6.74181     -20.19242     -28.98683
                        -----------------------------------------
Total Dipole Moment    :     -3.54632      -5.19858      -0.56224
                        -----------------------------------------
Magnitude (a.u.)       :      6.31805
Magnitude (Debye)      :     16.05920

Rotational constants in cm-1:     0.002441     0.000243     0.000232
Rotational constants in MHz :    73.179677     7.296170     6.951446

                             ****ORCA TERMINATED NORMALLY****
TOTAL RUN TIME: 0 days 0 hours 10 minutes 32 seconds 923 msec
