                         Program Version 4.2.0 -  RELEASE  -
|  1> # ORCA input file
|  2> # SCF done       -194.120955914436          0.000331849183
|  3> ! CAM-B3LYP def2-SVP def2/J RIJCOSX Grid4 TightSCF
|  4> %maxcore 5000
|  5> %tddft
|  6>     Mode sTDDFT
|  7>     Ethresh 5.0
|  8>     maxcore 5000
|  9> end
| 10>
| 11> %pal
| 12>   nprocs 6
| 13>   end
| 14> * xyz 0 1
| 15>    C        2.32414         2.60375         4.50285
| 16>    C        1.58432         2.51513         5.64734
| 17>    C        2.12090         2.17036         6.90715
| 18>    N        2.51150         1.90098         7.95120
| 19>    C        0.18205         2.67288         5.67540
| 20>    N       -0.96275         2.74354         5.72114
| 21>    C        3.72756         2.26809         4.33772
| 22>    C        4.01732         2.16920         2.94320
| 23>    C        5.26342         1.83902         2.49099
| 24>    C        6.29371         1.59758         3.42635
| 25>    C        6.01329         1.70392         4.82113
| 26>    C        4.71469         2.04195         5.26184
| 27>    C        7.05241         1.46264         5.74342
| 28>    C        8.30754         1.13040         5.31168
| 29>    C        8.58220         1.02502         3.93949
| 30>    C        7.59727         1.25361         3.01703
| 31>    C        2.80980         2.47421         2.16537
| 32>    O        2.63400         2.37159         0.97448
| 33>    C        1.80431         2.93489         3.17876
| 34>    C        0.70097         3.64038         2.88952
| 35>    C        0.26219         3.96517         1.53657
| 36>    C        0.94539         4.70602         0.60904
| 37>    C        2.24853         5.41639         0.75006
| 38>    F        2.73550         5.38607         2.00133
| 39>    F        3.21010         4.93455        -0.04587
| 40>    F        2.12906         6.72107         0.43516
| 41>    S        0.09583         4.88345        -0.87925
| 42>    C       -1.22035         3.94415        -0.25781
| 43>    C       -2.32100         3.70525        -1.08245
| 44>    N       -3.21470         3.52468        -1.78090
| 45>    C       -1.01015         3.52249         1.04894
| 46>    C       -1.87954         2.72843         1.86571
| 47>    C       -3.10530         2.26675         1.54026
| 48>    C       -3.89914         1.48811         2.42748
| 49>    S       -3.36254         1.05885         4.02657
| 50>    C       -4.82095         0.17256         4.34816
| 51>    C       -5.67976         0.22991         3.24425
| 52>    C       -5.15256         0.97080         2.17532
| 53>    C       -6.95064        -0.36610         3.16775
| 54>    N       -7.99450        -0.82785         3.05332
| 55>    C       -4.95112        -0.47433         5.59994
| 56>    C       -5.97715        -1.28068         5.98263
| 57>    C       -6.04000        -1.94131         7.23433
| 58>    C       -7.00205        -2.85091         7.61813
| 59>    C       -6.69198        -3.34656         8.91665
| 60>    C       -5.46757        -2.63344         9.34321
| 61>    C       -5.08973        -1.80795         8.33705
| 62>    C       -4.81531        -2.72546        10.57993
| 63>    N       -4.25665        -2.73776        11.58313
| 64>    C       -7.34054        -4.32854         9.62469
| 65>    C       -6.91904        -4.91076        10.86080
| 66>    C       -7.79656        -5.91125        11.20952
| 67>    C       -8.84941        -5.95149        10.19971
| 68>    C       -8.57550        -5.03191         9.23891
| 69>    C       -9.35199        -4.79615         8.09829
| 70>    N      -10.00695        -4.62733         7.17024
| 71>    C       -7.80817        -6.76070        12.34781
| 72>    C       -6.75502        -7.13131        13.12982
| 73>    C       -6.84912        -7.91128        14.35355
| 74>    C       -7.99030        -8.17348        15.06670
| 75>    C       -8.01956        -8.92083        16.26329
| 76>    N       -8.11518        -9.52604        17.23406
| 77>    C       -9.28698        -7.72832        14.73331
| 78>    N      -10.36948        -7.39628        14.54069
| 79>    C       -5.50089        -8.30497        14.74140
| 80>    C       -4.58116        -7.75437        13.80491
| 81>    C       -5.31090        -6.99869        12.77387
| 82>    O       -4.82748        -6.45801        11.80473
| 83>    C       -3.23368        -7.94329        13.91677
| 84>    C       -2.73348        -8.70626        14.99497
| 85>    C       -3.64734        -9.26986        15.93213
| 86>    C       -5.03760        -9.05847        15.78819
| 87>    C       -3.13748       -10.03475        17.00116
| 88>    C       -1.79065       -10.23146        17.14120
| 89>    C       -0.89186        -9.67377        16.21941
| 90>    C       -1.35314        -8.92729        15.16927
| 91>    H        5.45978         1.76801         1.43159
| 92>    H        4.53038         2.12410         6.32181
| 93>    H        6.83575         1.54322         6.79838
| 94>    H        9.09637         0.94683         6.02539
| 95>    H        9.57840         0.76216         3.61722
| 96>    H        7.80317         1.17421         1.95987
| 97>    H        0.05320         3.99721         3.68101
| 98>    H       -1.49152         2.48964         2.84849
| 99>    H       -3.54243         2.47111         0.57374
|100>    H       -5.67465         1.12013         1.24653
|101>    H       -4.12628        -0.30534         6.27942
|102>    H       -6.79686        -1.46967         5.30377
|103>    H       -7.83725        -3.16733         7.02419
|104>    H       -4.24033        -1.15102         8.35305
|105>    H       -6.05645        -4.59782        11.41193
|106>    H       -9.68802        -6.62333        10.22222
|107>    H       -8.78325        -7.17113        12.58525
|108>    H       -2.55920        -7.50994        13.19335
|109>    H       -5.70222        -9.50304        16.51170
|110>    H       -3.83300       -10.46051        17.70945
|111>    H       -1.40997       -10.81771        17.96406
|112>    H        0.16770        -9.83880        16.34577
|113>    H       -0.66646        -8.49494        14.45634
|114> *
|115>
|116>                          ****END OF INPUT****

CARTESIAN COORDINATES (ANGSTROEM)
---------------------------------
  C      2.324140    2.603750    4.502850
  C      1.584320    2.515130    5.647340
  C      2.120900    2.170360    6.907150
  N      2.511500    1.900980    7.951200
  C      0.182050    2.672880    5.675400
  N     -0.962750    2.743540    5.721140
  C      3.727560    2.268090    4.337720
  C      4.017320    2.169200    2.943200
  C      5.263420    1.839020    2.490990
  C      6.293710    1.597580    3.426350
  C      6.013290    1.703920    4.821130
  C      4.714690    2.041950    5.261840
  C      7.052410    1.462640    5.743420
  C      8.307540    1.130400    5.311680
  C      8.582200    1.025020    3.939490
  C      7.597270    1.253610    3.017030
  C      2.809800    2.474210    2.165370
  O      2.634000    2.371590    0.974480
  C      1.804310    2.934890    3.178760
  C      0.700970    3.640380    2.889520
  C      0.262190    3.965170    1.536570
  C      0.945390    4.706020    0.609040
  C      2.248530    5.416390    0.750060
  F      2.735500    5.386070    2.001330
  F      3.210100    4.934550   -0.045870
  F      2.129060    6.721070    0.435160
  S      0.095830    4.883450   -0.879250
  C     -1.220350    3.944150   -0.257810
  C     -2.321000    3.705250   -1.082450
  N     -3.214700    3.524680   -1.780900
  C     -1.010150    3.522490    1.048940
  C     -1.879540    2.728430    1.865710
  C     -3.105300    2.266750    1.540260
  C     -3.899140    1.488110    2.427480
  S     -3.362540    1.058850    4.026570
  C     -4.820950    0.172560    4.348160
  C     -5.679760    0.229910    3.244250
  C     -5.152560    0.970800    2.175320
  C     -6.950640   -0.366100    3.167750
  N     -7.994500   -0.827850    3.053320
  C     -4.951120   -0.474330    5.599940
  C     -5.977150   -1.280680    5.982630
  C     -6.040000   -1.941310    7.234330
  C     -7.002050   -2.850910    7.618130
  C     -6.691980   -3.346560    8.916650
  C     -5.467570   -2.633440    9.343210
  C     -5.089730   -1.807950    8.337050
  C     -4.815310   -2.725460   10.579930
  N     -4.256650   -2.737760   11.583130
  C     -7.340540   -4.328540    9.624690
  C     -6.919040   -4.910760   10.860800
  C     -7.796560   -5.911250   11.209520
  C     -8.849410   -5.951490   10.199710
  C     -8.575500   -5.031910    9.238910
  C     -9.351990   -4.796150    8.098290
  N    -10.006950   -4.627330    7.170240
  C     -7.808170   -6.760700   12.347810
  C     -6.755020   -7.131310   13.129820
  C     -6.849120   -7.911280   14.353550
  C     -7.990300   -8.173480   15.066700
  C     -8.019560   -8.920830   16.263290
  N     -8.115180   -9.526040   17.234060
  C     -9.286980   -7.728320   14.733310
  N    -10.369480   -7.396280   14.540690
  C     -5.500890   -8.304970   14.741400
  C     -4.581160   -7.754370   13.804910
  C     -5.310900   -6.998690   12.773870
  O     -4.827480   -6.458010   11.804730
  C     -3.233680   -7.943290   13.916770
  C     -2.733480   -8.706260   14.994970
  C     -3.647340   -9.269860   15.932130
  C     -5.037600   -9.058470   15.788190
  C     -3.137480  -10.034750   17.001160
  C     -1.790650  -10.231460   17.141200
  C     -0.891860   -9.673770   16.219410
  C     -1.353140   -8.927290   15.169270
  H      5.459780    1.768010    1.431590
  H      4.530380    2.124100    6.321810
  H      6.835750    1.543220    6.798380
  H      9.096370    0.946830    6.025390
  H      9.578400    0.762160    3.617220
  H      7.803170    1.174210    1.959870
  H      0.053200    3.997210    3.681010
  H     -1.491520    2.489640    2.848490
  H     -3.542430    2.471110    0.573740
  H     -5.674650    1.120130    1.246530
  H     -4.126280   -0.305340    6.279420
  H     -6.796860   -1.469670    5.303770
  H     -7.837250   -3.167330    7.024190
  H     -4.240330   -1.151020    8.353050
  H     -6.056450   -4.597820   11.411930
  H     -9.688020   -6.623330   10.222220
  H     -8.783250   -7.171130   12.585250
  H     -2.559200   -7.509940   13.193350
  H     -5.702220   -9.503040   16.511700
  H     -3.833000  -10.460510   17.709450
  H     -1.409970  -10.817710   17.964060
  H      0.167700   -9.838800   16.345770
  H     -0.666460   -8.494940   14.456340

 Total Charge           Charge          ....    0
 Multiplicity           Mult            ....    1
 Number of Electrons    NEL             ....  520
 Basis Dimension        Dim             .... 1187

ORBITAL ENERGIES
----------------

  NO   OCC          E(Eh)            E(eV)
   0   2.0000     -89.004286     -2421.9298
   1   2.0000     -88.982922     -2421.3484
   2   2.0000     -24.825280      -675.5302
   3   2.0000     -24.814695      -675.2422
   4   2.0000     -24.813814      -675.2182
   5   2.0000     -19.236939      -523.4637
   6   2.0000     -19.217790      -522.9426
   7   2.0000     -14.440816      -392.9546
   8   2.0000     -14.435584      -392.8122
   9   2.0000     -14.429877      -392.6569
  10   2.0000     -14.417169      -392.3111
  11   2.0000     -14.415783      -392.2734
  12   2.0000     -14.415187      -392.2572
  13   2.0000     -14.412270      -392.1778
  14   2.0000     -14.405250      -391.9868
  15   2.0000     -10.545130      -286.9476
  16   2.0000     -10.388254      -282.6788
  17   2.0000     -10.369567      -282.1703
  18   2.0000     -10.366997      -282.1003
  19   2.0000     -10.363135      -281.9952
  20   2.0000     -10.354884      -281.7707
  21   2.0000     -10.348387      -281.5939
  22   2.0000     -10.344255      -281.4815
  23   2.0000     -10.343679      -281.4658
  24   2.0000     -10.341832      -281.4155
  25   2.0000     -10.341000      -281.3929
  26   2.0000     -10.340634      -281.3830
  27   2.0000     -10.337123      -281.2874
  28   2.0000     -10.332776      -281.1691
  29   2.0000     -10.332397      -281.1588
  30   2.0000     -10.332215      -281.1539
  31   2.0000     -10.331819      -281.1431
  32   2.0000     -10.328282      -281.0468
  33   2.0000     -10.327081      -281.0142
  34   2.0000     -10.326382      -280.9951
  35   2.0000     -10.324565      -280.9457
  36   2.0000     -10.324278      -280.9379
  37   2.0000     -10.322557      -280.8911
  38   2.0000     -10.321328      -280.8576
  39   2.0000     -10.319665      -280.8124
  40   2.0000     -10.318383      -280.7775
  41   2.0000     -10.317129      -280.7434
  42   2.0000     -10.315786      -280.7068
  43   2.0000     -10.315500      -280.6990
  44   2.0000     -10.315013      -280.6858
  45   2.0000     -10.314753      -280.6787
  46   2.0000     -10.314638      -280.6756
  47   2.0000     -10.314315      -280.6668
  48   2.0000     -10.313573      -280.6466
  49   2.0000     -10.313554      -280.6461
  50   2.0000     -10.312255      -280.6107
  51   2.0000     -10.311770      -280.5975
  52   2.0000     -10.309247      -280.5289
  53   2.0000     -10.307726      -280.4875
  54   2.0000     -10.307715      -280.4872
  55   2.0000     -10.307205      -280.4733
  56   2.0000     -10.306537      -280.4551
  57   2.0000     -10.305048      -280.4146
  58   2.0000     -10.305038      -280.4143
  59   2.0000     -10.303305      -280.3672
  60   2.0000     -10.302322      -280.3404
  61   2.0000     -10.301295      -280.3125
  62   2.0000     -10.300807      -280.2992
  63   2.0000     -10.300627      -280.2943
  64   2.0000     -10.300223      -280.2833
  65   2.0000     -10.298068      -280.2247
  66   2.0000     -10.297817      -280.2178
  67   2.0000     -10.297145      -280.1996
  68   2.0000     -10.296946      -280.1941
  69   2.0000     -10.296548      -280.1833
  70   2.0000     -10.289531      -279.9924
  71   2.0000     -10.288660      -279.9687
  72   2.0000     -10.286915      -279.9212
  73   2.0000     -10.286268      -279.9036
  74   2.0000     -10.286096      -279.8989
  75   2.0000     -10.285585      -279.8850
  76   2.0000      -8.099454      -220.3973
  77   2.0000      -8.078343      -219.8229
  78   2.0000      -6.068814      -165.1408
  79   2.0000      -6.064473      -165.0227
  80   2.0000      -6.061522      -164.9424
  81   2.0000      -6.047425      -164.5588
  82   2.0000      -6.043376      -164.4486
  83   2.0000      -6.040669      -164.3750
  84   2.0000      -1.409772       -38.3619
  85   2.0000      -1.313833       -35.7512
  86   2.0000      -1.306085       -35.5404
  87   2.0000      -1.153386       -31.3852
  88   2.0000      -1.133633       -30.8477
  89   2.0000      -1.041758       -28.3477
  90   2.0000      -1.038542       -28.2602
  91   2.0000      -1.022363       -27.8199
  92   2.0000      -1.020309       -27.7640
  93   2.0000      -1.019562       -27.7437
  94   2.0000      -1.018881       -27.7252
  95   2.0000      -1.015426       -27.6311
  96   2.0000      -1.008976       -27.4556
  97   2.0000      -1.002340       -27.2751
  98   2.0000      -0.999058       -27.1858
  99   2.0000      -0.994700       -27.0672
 100   2.0000      -0.994647       -27.0657
 101   2.0000      -0.989682       -26.9306
 102   2.0000      -0.988206       -26.8905
 103   2.0000      -0.982621       -26.7385
 104   2.0000      -0.971487       -26.4355
 105   2.0000      -0.945574       -25.7304
 106   2.0000      -0.941306       -25.6143
 107   2.0000      -0.932395       -25.3718
 108   2.0000      -0.926348       -25.2072
 109   2.0000      -0.921589       -25.0777
 110   2.0000      -0.906961       -24.6797
 111   2.0000      -0.904384       -24.6095
 112   2.0000      -0.898201       -24.4413
 113   2.0000      -0.893570       -24.3153
 114   2.0000      -0.883811       -24.0497
 115   2.0000      -0.880566       -23.9614
 116   2.0000      -0.874676       -23.8011
 117   2.0000      -0.868670       -23.6377
 118   2.0000      -0.860306       -23.4101
 119   2.0000      -0.852809       -23.2061
 120   2.0000      -0.845481       -23.0067
 121   2.0000      -0.839812       -22.8524
 122   2.0000      -0.828578       -22.5467
 123   2.0000      -0.827272       -22.5112
 124   2.0000      -0.811496       -22.0819
 125   2.0000      -0.806216       -21.9383
 126   2.0000      -0.800058       -21.7707
 127   2.0000      -0.781014       -21.2525
 128   2.0000      -0.775170       -21.0935
 129   2.0000      -0.762650       -20.7528
 130   2.0000      -0.759701       -20.6725
 131   2.0000      -0.750630       -20.4257
 132   2.0000      -0.739258       -20.1162
 133   2.0000      -0.734248       -19.9799
 134   2.0000      -0.724915       -19.7259
 135   2.0000      -0.720928       -19.6175
 136   2.0000      -0.719944       -19.5907
 137   2.0000      -0.714442       -19.4410
 138   2.0000      -0.704050       -19.1582
 139   2.0000      -0.699379       -19.0311
 140   2.0000      -0.697259       -18.9734
 141   2.0000      -0.696600       -18.9555
 142   2.0000      -0.695416       -18.9232
 143   2.0000      -0.690107       -18.7788
 144   2.0000      -0.680995       -18.5308
 145   2.0000      -0.679695       -18.4954
 146   2.0000      -0.677767       -18.4430
 147   2.0000      -0.673068       -18.3151
 148   2.0000      -0.662353       -18.0235
 149   2.0000      -0.657859       -17.9012
 150   2.0000      -0.651476       -17.7276
 151   2.0000      -0.643822       -17.5193
 152   2.0000      -0.637068       -17.3355
 153   2.0000      -0.630953       -17.1691
 154   2.0000      -0.627694       -17.0804
 155   2.0000      -0.624020       -16.9804
 156   2.0000      -0.621526       -16.9126
 157   2.0000      -0.612494       -16.6668
 158   2.0000      -0.608870       -16.5682
 159   2.0000      -0.606631       -16.5073
 160   2.0000      -0.595533       -16.2053
 161   2.0000      -0.584553       -15.9065
 162   2.0000      -0.580210       -15.7883
 163   2.0000      -0.574123       -15.6227
 164   2.0000      -0.571308       -15.5461
 165   2.0000      -0.570502       -15.5242
 166   2.0000      -0.563791       -15.3415
 167   2.0000      -0.562967       -15.3191
 168   2.0000      -0.562317       -15.3014
 169   2.0000      -0.558899       -15.2084
 170   2.0000      -0.556466       -15.1422
 171   2.0000      -0.553175       -15.0526
 172   2.0000      -0.550140       -14.9701
 173   2.0000      -0.546787       -14.8788
 174   2.0000      -0.543655       -14.7936
 175   2.0000      -0.540490       -14.7075
 176   2.0000      -0.539758       -14.6876
 177   2.0000      -0.538646       -14.6573
 178   2.0000      -0.535654       -14.5759
 179   2.0000      -0.532177       -14.4813
 180   2.0000      -0.529789       -14.4163
 181   2.0000      -0.528466       -14.3803
 182   2.0000      -0.526033       -14.3141
 183   2.0000      -0.525367       -14.2959
 184   2.0000      -0.524527       -14.2731
 185   2.0000      -0.521766       -14.1980
 186   2.0000      -0.519171       -14.1274
 187   2.0000      -0.518849       -14.1186
 188   2.0000      -0.517645       -14.0858
 189   2.0000      -0.517416       -14.0796
 190   2.0000      -0.514255       -13.9936
 191   2.0000      -0.513251       -13.9663
 192   2.0000      -0.511377       -13.9153
 193   2.0000      -0.507618       -13.8130
 194   2.0000      -0.502579       -13.6759
 195   2.0000      -0.502459       -13.6726
 196   2.0000      -0.500888       -13.6299
 197   2.0000      -0.499022       -13.5791
 198   2.0000      -0.497737       -13.5441
 199   2.0000      -0.496523       -13.5111
 200   2.0000      -0.494582       -13.4583
 201   2.0000      -0.490641       -13.3510
 202   2.0000      -0.487881       -13.2759
 203   2.0000      -0.484287       -13.1781
 204   2.0000      -0.483317       -13.1517
 205   2.0000      -0.480040       -13.0626
 206   2.0000      -0.474076       -12.9003
 207   2.0000      -0.473302       -12.8792
 208   2.0000      -0.468638       -12.7523
 209   2.0000      -0.466481       -12.6936
 210   2.0000      -0.464810       -12.6481
 211   2.0000      -0.463797       -12.6206
 212   2.0000      -0.457804       -12.4575
 213   2.0000      -0.457624       -12.4526
 214   2.0000      -0.455540       -12.3959
 215   2.0000      -0.453547       -12.3416
 216   2.0000      -0.452987       -12.3264
 217   2.0000      -0.449621       -12.2348
 218   2.0000      -0.449459       -12.2304
 219   2.0000      -0.447330       -12.1725
 220   2.0000      -0.446774       -12.1573
 221   2.0000      -0.445348       -12.1185
 222   2.0000      -0.444985       -12.1087
 223   2.0000      -0.441581       -12.0160
 224   2.0000      -0.441095       -12.0028
 225   2.0000      -0.440939       -11.9986
 226   2.0000      -0.438476       -11.9315
 227   2.0000      -0.435734       -11.8569
 228   2.0000      -0.434237       -11.8162
 229   2.0000      -0.433627       -11.7996
 230   2.0000      -0.432866       -11.7789
 231   2.0000      -0.430823       -11.7233
 232   2.0000      -0.427465       -11.6319
 233   2.0000      -0.425458       -11.5773
 234   2.0000      -0.420124       -11.4322
 235   2.0000      -0.419973       -11.4281
 236   2.0000      -0.418494       -11.3878
 237   2.0000      -0.417043       -11.3483
 238   2.0000      -0.410650       -11.1743
 239   2.0000      -0.409196       -11.1348
 240   2.0000      -0.406070       -11.0497
 241   2.0000      -0.397936       -10.8284
 242   2.0000      -0.396278       -10.7833
 243   2.0000      -0.394063       -10.7230
 244   2.0000      -0.378463       -10.2985
 245   2.0000      -0.375628       -10.2213
 246   2.0000      -0.364607        -9.9215
 247   2.0000      -0.354095        -9.6354
 248   2.0000      -0.347357        -9.4521
 249   2.0000      -0.343267        -9.3408
 250   2.0000      -0.340902        -9.2764
 251   2.0000      -0.335614        -9.1325
 252   2.0000      -0.330962        -9.0059
 253   2.0000      -0.328807        -8.9473
 254   2.0000      -0.317427        -8.6376
 255   2.0000      -0.311908        -8.4874
 256   2.0000      -0.310702        -8.4546
 257   2.0000      -0.298134        -8.1126
 258   2.0000      -0.288640        -7.8543
 259   2.0000      -0.265808        -7.2330
 260   0.0000      -0.135019        -3.6741
 261   0.0000      -0.107951        -2.9375
 262   0.0000      -0.084645        -2.3033
 263   0.0000      -0.076859        -2.0914
 264   0.0000      -0.073484        -1.9996

MULLIKEN ATOMIC CHARGES
-----------------------
   0 C :    0.289400
   1 C :   -0.326232
   2 C :   -0.181834
   3 N :    0.166631
   4 C :   -0.179197
   5 N :    0.142110
   6 C :    0.051884
   7 C :    0.003699
   8 C :   -0.071263
   9 C :    0.096428
  10 C :    0.098626
  11 C :   -0.082561
  12 C :   -0.018950
  13 C :    0.038726
  14 C :    0.041010
  15 C :   -0.015857
  16 C :    0.133975
  17 O :   -0.128906
  18 C :   -0.023176
  19 C :   -0.116575
  20 C :    0.071807
  21 C :   -0.242674
  22 C :    0.554151
  23 F :   -0.158216
  24 F :   -0.146167
  25 F :   -0.159754
  26 S :    0.266493
  27 C :   -0.328505
  28 C :   -0.167276
  29 N :    0.127398
  30 C :    0.238344
  31 C :   -0.067879
  32 C :    0.050501
  33 C :   -0.052397
  34 S :    0.168708
  35 C :   -0.050166
  36 C :   -0.064339
  37 C :    0.015438
  38 C :   -0.172879
  39 N :    0.130867
  40 C :    0.044523
  41 C :   -0.005866
  42 C :    0.110684
  43 C :   -0.102025
  44 C :    0.127545
  45 C :   -0.082486
  46 C :   -0.006903
  47 C :   -0.168837
  48 N :    0.137764
  49 C :    0.070409
  50 C :   -0.031050
  51 C :    0.078380
  52 C :    0.001186
  53 C :   -0.083966
  54 C :   -0.187461
  55 N :    0.143886
  56 C :   -0.024282
  57 C :   -0.070859
  58 C :    0.308724
  59 C :   -0.346053
  60 C :   -0.180134
  61 N :    0.150349
  62 C :   -0.195835
  63 N :    0.159375
  64 C :    0.052017
  65 C :   -0.010615
  66 C :    0.149327
  67 O :   -0.139132
  68 C :   -0.072295
  69 C :    0.096129
  70 C :    0.096476
  71 C :   -0.081659
  72 C :   -0.017675
  73 C :    0.036684
  74 C :    0.035319
  75 C :   -0.015405
  76 H :   -0.004330
  77 H :   -0.000493
  78 H :   -0.005550
  79 H :    0.001832
  80 H :    0.000248
  81 H :   -0.011138
  82 H :    0.055583
  83 H :    0.007339
  84 H :    0.012276
  85 H :    0.008304
  86 H :   -0.007933
  87 H :    0.015521
  88 H :    0.015809
  89 H :    0.007654
  90 H :    0.020304
  91 H :    0.007662
  92 H :    0.021471
  93 H :   -0.010072
  94 H :   -0.008528
  95 H :   -0.008155
  96 H :   -0.004540
  97 H :   -0.004273
  98 H :   -0.016621
Sum of atomic charges:   -0.0000000

LOEWDIN ATOMIC CHARGES
----------------------
   0 C :    0.078624
   1 C :   -0.128235
   2 C :   -0.020062
   3 N :   -0.037577
   4 C :   -0.014772
   5 N :   -0.056425
   6 C :   -0.026296
   7 C :   -0.056784
   8 C :    0.040176
   9 C :   -0.005437
  10 C :   -0.003709
  11 C :    0.024214
  12 C :   -0.003888
  13 C :   -0.007668
  14 C :   -0.006315
  15 C :   -0.006650
  16 C :    0.079573
  17 O :   -0.125372
  18 C :   -0.057159
  19 C :    0.055171
  20 C :   -0.037461
  21 C :   -0.212613
  22 C :    0.149539
  23 F :   -0.051227
  24 F :   -0.047601
  25 F :   -0.062966
  26 S :    0.532525
  27 C :   -0.216792
  28 C :   -0.053307
  29 N :   -0.042110
  30 C :   -0.010525
  31 C :   -0.040926
  32 C :   -0.003244
  33 C :   -0.165079
  34 S :    0.491444
  35 C :   -0.136713
  36 C :   -0.100137
  37 C :   -0.011591
  38 C :   -0.030628
  39 N :   -0.046035
  40 C :   -0.028214
  41 C :    0.004302
  42 C :   -0.004072
  43 C :   -0.019926
  44 C :    0.054758
  45 C :   -0.069522
  46 C :    0.055474
  47 C :   -0.031575
  48 N :   -0.050937
  49 C :    0.026248
  50 C :    0.046168
  51 C :   -0.043080
  52 C :    0.060162
  53 C :   -0.088967
  54 C :   -0.033242
  55 N :   -0.058379
  56 C :    0.068010
  57 C :   -0.075459
  58 C :    0.074383
  59 C :   -0.134456
  60 C :   -0.016526
  61 N :   -0.050581
  62 C :   -0.023803
  63 N :   -0.048199
  64 C :   -0.026486
  65 C :   -0.055380
  66 C :    0.085208
  67 O :   -0.128783
  68 C :    0.035366
  69 C :   -0.007532
  70 C :   -0.005541
  71 C :    0.020002
  72 C :   -0.005170
  73 C :   -0.012806
  74 C :   -0.011773
  75 C :   -0.008734
  76 H :    0.042572
  77 H :    0.040681
  78 H :    0.036129
  79 H :    0.035846
  80 H :    0.035247
  81 H :    0.034270
  82 H :    0.049939
  83 H :    0.025290
  84 H :    0.044915
  85 H :    0.045166
  86 H :    0.031918
  87 H :    0.045955
  88 H :    0.040321
  89 H :    0.037421
  90 H :    0.037002
  91 H :    0.040407
  92 H :    0.047010
  93 H :    0.040304
  94 H :    0.038981
  95 H :    0.035041
  96 H :    0.033342
  97 H :    0.033007
  98 H :    0.032339

  Mayer bond orders larger than 0.100000
B(  0-C ,  1-C ) :   1.6805 B(  0-C ,  6-C ) :   1.0113 B(  0-C , 18-C ) :   1.0022
B(  1-C ,  2-C ) :   1.1278 B(  1-C ,  4-C ) :   1.1521 B(  2-C ,  3-N ) :   2.9870
B(  4-C ,  5-N ) :   2.9504 B(  6-C ,  7-C ) :   1.2087 B(  6-C , 11-C ) :   1.4384
B(  7-C ,  8-C ) :   1.4668 B(  7-C , 16-C ) :   0.9359 B(  8-C ,  9-C ) :   1.1884
B(  8-C , 76-H ) :   1.0168 B(  9-C , 10-C ) :   1.2488 B(  9-C , 15-C ) :   1.2428
B( 10-C , 11-C ) :   1.2138 B( 10-C , 12-C ) :   1.2362 B( 11-C , 77-H ) :   0.9933
B( 12-C , 13-C ) :   1.4916 B( 12-C , 78-H ) :   0.9985 B( 13-C , 14-C ) :   1.2574
B( 13-C , 79-H ) :   0.9889 B( 14-C , 15-C ) :   1.4908 B( 14-C , 80-H ) :   0.9887
B( 15-C , 81-H ) :   0.9987 B( 16-C , 17-O ) :   2.2545 B( 16-C , 18-C ) :   0.9048
B( 18-C , 19-C ) :   1.7961 B( 19-C , 20-C ) :   0.9878 B( 19-C , 82-H ) :   0.9268
B( 20-C , 21-C ) :   1.6103 B( 20-C , 30-C ) :   1.2227 B( 21-C , 22-C ) :   0.9443
B( 21-C , 26-S ) :   1.1412 B( 21-C , 27-C ) :   0.1206 B( 22-C , 23-F ) :   1.1340
B( 22-C , 24-F ) :   1.1915 B( 22-C , 25-F ) :   1.1771 B( 26-S , 27-C ) :   1.1574
B( 27-C , 28-C ) :   1.2124 B( 27-C , 30-C ) :   1.4594 B( 28-C , 29-N ) :   2.9405
B( 30-C , 31-C ) :   1.1309 B( 31-C , 32-C ) :   1.6627 B( 31-C , 83-H ) :   0.9424
B( 32-C , 33-C ) :   1.1432 B( 32-C , 84-H ) :   0.9686 B( 33-C , 34-S ) :   1.1199
B( 33-C , 37-C ) :   1.4504 B( 34-S , 35-C ) :   1.1491 B( 35-C , 36-C ) :   1.4344
B( 35-C , 40-C ) :   1.1594 B( 36-C , 37-C ) :   1.2889 B( 36-C , 38-C ) :   1.1159
B( 37-C , 85-H ) :   1.0111 B( 38-C , 39-N ) :   2.9729 B( 40-C , 41-C ) :   1.6217
B( 40-C , 86-H ) :   0.9448 B( 41-C , 42-C ) :   1.1419 B( 41-C , 87-H ) :   0.9667
B( 42-C , 43-C ) :   1.5148 B( 42-C , 46-C ) :   1.0229 B( 43-C , 44-C ) :   1.1144
B( 43-C , 88-H ) :   1.0107 B( 44-C , 45-C ) :   1.0870 B( 44-C , 49-C ) :   1.4244
B( 45-C , 46-C ) :   1.7078 B( 45-C , 47-C ) :   1.0846 B( 46-C , 89-H ) :   1.0138
B( 47-C , 48-N ) :   2.9697 B( 49-C , 50-C ) :   1.1131 B( 49-C , 53-C ) :   1.1108
B( 50-C , 51-C ) :   1.5453 B( 50-C , 90-H ) :   0.9849 B( 51-C , 52-C ) :   1.0365
B( 51-C , 56-C ) :   1.1148 B( 52-C , 53-C ) :   1.6583 B( 52-C , 91-H ) :   1.0237
B( 53-C , 54-C ) :   1.0883 B( 54-C , 55-N ) :   2.9764 B( 56-C , 57-C ) :   1.6147
B( 56-C , 92-H ) :   0.9422 B( 57-C , 58-C ) :   1.0540 B( 57-C , 66-C ) :   0.9281
B( 58-C , 59-C ) :   1.6409 B( 58-C , 64-C ) :   0.9931 B( 59-C , 60-C ) :   1.1457
B( 59-C , 62-C ) :   1.1386 B( 60-C , 61-N ) :   2.9638 B( 62-C , 63-N ) :   2.9829
B( 64-C , 65-C ) :   1.2110 B( 64-C , 71-C ) :   1.4458 B( 65-C , 66-C ) :   0.9445
B( 65-C , 68-C ) :   1.4745 B( 66-C , 67-O ) :   2.2224 B( 68-C , 69-C ) :   1.1811
B( 68-C , 93-H ) :   1.0150 B( 69-C , 70-C ) :   1.2540 B( 69-C , 75-C ) :   1.2441
B( 70-C , 71-C ) :   1.2103 B( 70-C , 72-C ) :   1.2383 B( 71-C , 94-H ) :   0.9892
B( 72-C , 73-C ) :   1.4913 B( 72-C , 95-H ) :   0.9970 B( 73-C , 74-C ) :   1.2585
B( 73-C , 96-H ) :   0.9880 B( 74-C , 75-C ) :   1.4906 B( 74-C , 97-H ) :   0.9888
B( 75-C , 98-H ) :   0.9973

-----------------------------------------------------------------------------
         ABSORPTION SPECTRUM VIA TRANSITION ELECTRIC DIPOLE MOMENTS
-----------------------------------------------------------------------------
State   Energy  Wavelength   fosc         T2         TX        TY        TZ
        (cm-1)    (nm)                  (au**2)     (au)      (au)      (au)
-----------------------------------------------------------------------------
   0   13386.8    747.0   0.889079775  21.86447  -1.53507  -2.98894   3.25181
   1   16468.9    607.2   0.012112739   0.24213   0.32558   0.20347  -0.30779
   2   20732.1    482.3   0.035032385   0.55629  -0.69062  -0.27247   0.07140
   3   21348.4    468.4   0.108381553   1.67134   0.60790   0.66499  -0.92714
   4   21786.2    459.0   0.489069838   7.39035  -0.68437  -1.60206   2.08696
   5   23450.6    426.4   0.005854764   0.08219  -0.02722   0.05399  -0.28024
   6   24919.4    401.3   0.155943531   2.06018   0.81492   0.82400  -0.84682
   7   25846.7    386.9   0.621688077   7.91850   1.27666   1.67808  -1.86352
   8   26307.3    380.1   0.352931430   4.41662   0.44702  -1.26474   1.61778
   9   26580.4    376.2   0.098775445   1.22339  -0.96139   0.41073  -0.36113
  10   27019.7    370.1   0.025374430   0.30917   0.20760   0.32268  -0.40243
  11   27392.4    365.1   0.054846203   0.65916  -0.53476   0.00156   0.61090
  12   28805.4    347.2   0.024469116   0.27965   0.49361   0.16308  -0.09697
  13   29371.0    340.5   0.075676125   0.84823   0.68340   0.10916  -0.60768
  14   29800.5    335.6   0.070779409   0.78191  -0.67320   0.50856  -0.26475
  15   29925.5    334.2   0.002549905   0.02805   0.07195   0.10714  -0.10675
  16   30027.8    333.0   0.131837625   1.44541   1.14522  -0.24966   0.26749
  17   30288.6    330.2   0.090450877   0.98313   0.55066  -0.43870   0.69817
  18   30331.2    329.7   0.012828990   0.13924  -0.30197   0.21475  -0.04403
  19   31023.6    322.3   0.101630446   1.07847  -0.59893   0.47362  -0.70387
  20   31418.3    318.3   0.175315932   1.83702  -1.34154  -0.13201  -0.14097
  21   31972.2    312.8   0.104151414   1.07243  -0.34799   0.40799  -0.88593
  22   32164.5    310.9   0.005019803   0.05138  -0.12460   0.02608   0.18754
  23   32790.7    305.0   0.074107980   0.74403   0.37882   0.15737  -0.75879
  24   32871.9    304.2   0.003064953   0.03070  -0.14184   0.05060  -0.08954
  25   33177.8    301.4   0.091826646   0.91117   0.39288   0.16553  -0.85406
  26   33414.0    299.3   0.093657786   0.92276  -0.78718  -0.09931   0.54153
  27   34146.8    292.9   0.058037339   0.55954   0.65628  -0.22496   0.27971
  28   34304.5    291.5   1.049153364  10.06847  -3.05866   0.83736   0.10907
  29   34892.3    286.6   0.001381231   0.01303  -0.03279  -0.06781   0.08578
  30   35003.8    285.7   0.028407974   0.26718  -0.15798  -0.22154   0.43948
  31   35044.5    285.4   0.088067695   0.82732   0.57800  -0.52848   0.46254
  32   35354.4    282.9   0.041419424   0.38569  -0.60771  -0.12644  -0.01990
  33   35622.2    280.7   0.667235096   6.16643  -2.47373   0.21325  -0.04015
  34   35763.3    279.6   0.109766507   1.01043   0.97257  -0.25067   0.04138
  35   36431.9    274.5   0.012376285   0.11184  -0.18675   0.21371  -0.17688
  36   36595.0    273.3   0.030086315   0.27066   0.20667  -0.28950  -0.37965
  37   36837.0    271.5   0.012440099   0.11118   0.20284   0.26156   0.04027
  38   37160.3    269.1   0.025609862   0.22688   0.26245  -0.17807   0.35539
  39   37874.3    264.0   0.027669501   0.24051   0.28970  -0.14211   0.36930
  40   37985.2    263.3   0.051395119   0.44543  -0.63391  -0.20740  -0.02409
  41   38086.3    262.6   0.014009319   0.12109  -0.32366   0.00832  -0.12755
  42   38232.0    261.6   0.005492888   0.04730   0.05922  -0.12783  -0.16568
  43   38519.1    259.6   0.070258304   0.60048  -0.09657   0.06361  -0.76623
  44   38554.8    259.4   0.030241720   0.25823   0.09203   0.14539   0.47814
  45   38955.0    256.7   0.103554595   0.87515   0.28627   0.00418   0.89061
  46   39087.3    255.8   0.117121237   0.98645   0.81983  -0.07420   0.55572
  47   39179.0    255.2   0.026301369   0.22100   0.32532  -0.10613   0.32235
  48   39343.6    254.2   0.027057809   0.22641  -0.40646   0.00045  -0.24738
  49   39455.7    253.4   0.046678810   0.38948   0.57749   0.15941  -0.17486
  50   39875.8    250.8   0.030721305   0.25363   0.43063   0.23699  -0.10967
  51   40047.5    249.7   0.094771767   0.77907   0.00321   0.47095  -0.74651

FINAL SINGLE POINT ENERGY     -4018.237698136494

DIPOLE MOMENT
-------------
                                X             Y             Z
Electronic contribution:     -0.21555      51.13187     -48.22618
Nuclear contribution   :      7.08714     -50.40316      47.32985
                        -----------------------------------------
Total Dipole Moment    :      6.87159       0.72871      -0.89633
                        -----------------------------------------
Magnitude (a.u.)       :      6.96801
Magnitude (Debye)      :     17.71127

Rotational constants in cm-1:     0.001145     0.000256     0.000214
Rotational constants in MHz :    34.334971     7.675471     6.424304

                             ****ORCA TERMINATED NORMALLY****
TOTAL RUN TIME: 0 days 0 hours 10 minutes 14 seconds 88 msec
