                         Program Version 4.2.0 -  RELEASE  -
|  1> # ORCA input file
|  2> # SCF done       -196.268637938044          0.000661555158
|  3> ! CAM-B3LYP def2-SVP def2/J RIJCOSX Grid4 TightSCF
|  4> %maxcore 5000
|  5> %tddft
|  6>     Mode sTDDFT
|  7>     Ethresh 5.0
|  8>     maxcore 5000
|  9> end
| 10>
| 11> %pal
| 12>   nprocs 6
| 13>   end
| 14> * xyz 0 1
| 15>    C        2.64492         2.32828         3.67141
| 16>    C        3.26066         2.97983         4.70640
| 17>    C        4.13715         2.35270         5.61823
| 18>    N        4.85369         1.90126         6.39272
| 19>    C        3.15967         4.36036         4.98358
| 20>    N        3.14574         5.47496         5.25934
| 21>    C        2.84457         0.93022         3.31635
| 22>    C        2.21818         0.69204         2.06068
| 23>    C        2.24670        -0.53348         1.45907
| 24>    C        2.90730        -1.60130         2.10559
| 25>    C        3.52671        -1.37476         3.36919
| 26>    C        3.48724        -0.09262         3.96313
| 27>    C        4.17538        -2.45046         4.00940
| 28>    C        4.21247        -3.68985         3.43068
| 29>    C        3.60373        -3.91116         2.18607
| 30>    C        2.96563        -2.88904         1.53723
| 31>    C        1.57735         1.92685         1.58228
| 32>    O        1.01558         2.07052         0.51745
| 33>    C        1.75516         2.91925         2.67769
| 34>    C        1.10825         4.10483         2.86168
| 35>    C        0.22050         4.82067         2.02108
| 36>    S       -0.60805         6.19068         2.73043
| 37>    C       -1.43379         6.54510         1.25640
| 38>    C       -1.05270         5.63919         0.25677
| 39>    C       -0.12806         4.68067         0.69222
| 40>    C       -1.51985         5.65133        -1.06956
| 41>    N       -1.87596         5.62904        -2.16038
| 42>    C       -2.35661         7.62549         1.21420
| 43>    C       -3.07850         7.98739         0.13127
| 44>    C       -4.02496         9.06815         0.14746
| 45>    C       -4.74260         9.43803        -1.03743
| 46>    C       -4.69307         8.94975        -2.31985
| 47>    S       -5.83118         9.72069        -3.33003
| 48>    C       -6.40587        10.71343        -2.07050
| 49>    C       -5.73001        10.47533        -0.89757
| 50>    C       -5.84171        11.08111         0.38620
| 51>    N       -5.09516        10.68467         1.38896
| 52>    N       -4.24929         9.70413         1.27768
| 53>    C       -6.77442        12.18150         0.61928
| 54>    C       -7.85318        12.08421         1.49736
| 55>    C       -8.33827        10.90218         2.24847
| 56>    O       -7.94765         9.77877         2.24814
| 57>    O       -9.43684        11.31609         2.96351
| 58>    C       -9.72844        12.63515         2.71831
| 59>    O      -10.63724        13.19066         3.25343
| 60>    C       -8.72681        13.13852         1.73890
| 61>    C       -8.62978        14.40500         1.11957
| 62>    C       -7.52805        14.50518         0.23775
| 63>    C       -6.66090        13.43012         0.01018
| 64>    C       -5.62834        13.86356        -0.95701
| 65>    O       -4.71413        13.25751        -1.42375
| 66>    O       -5.90488        15.16563        -1.27390
| 67>    C       -7.01347        15.62066        -0.60016
| 68>    O       -7.39321        16.74244        -0.74134
| 69>    C       -9.67396        15.35379         1.38118
| 70>    C       -9.81290        16.61762         0.92803
| 71>    C      -10.99096        17.38803         1.18939
| 72>    C      -12.26222        16.91181         1.16309
| 73>    C      -13.46550        17.67708         1.46279
| 74>    C      -13.51878        18.82368         2.20746
| 75>    C      -14.71278        19.51440         2.50661
| 76>    N      -15.64994        20.12028         2.77337
| 77>    C      -12.40053        19.44692         2.80303
| 78>    N      -11.53969        19.99466         3.32856
| 79>    C      -14.60447        16.95507         0.91651
| 80>    C      -14.13997        15.72600         0.36641
| 81>    C      -12.68387        15.61524         0.54038
| 82>    O      -11.98622        14.69062         0.18688
| 83>    C      -14.99102        14.82838        -0.21348
| 84>    C      -16.37032        15.12498        -0.27118
| 85>    C      -16.84196        16.35702         0.26929
| 86>    C      -15.93800        17.26677         0.86312
| 87>    C      -18.22059        16.64438         0.20104
| 88>    C      -19.09275        15.75811        -0.37015
| 89>    C      -18.62766        14.54492        -0.90005
| 90>    C      -17.29567        14.23485        -0.85136
| 91>    H        1.76744        -0.68588         0.50339
| 92>    H        3.96026         0.04518         4.92238
| 93>    H        4.64413        -2.27497         4.96649
| 94>    H        4.71151        -4.50726         3.92906
| 95>    H        3.64251        -4.89559         1.74439
| 96>    H        2.49491        -3.05319         0.57899
| 97>    H        1.25505         4.58685         3.82177
| 98>    H        0.26605         3.90716         0.05798
| 99>    H       -2.49088         8.18708         2.12887
|100>    H       -2.97406         7.45841        -0.80225
|101>    H       -4.06412         8.18071        -2.72138
|102>    H       -7.18894        11.42102        -2.25499
|103>    H      -10.44709        14.96889         2.03067
|104>    H       -9.02677        17.11798         0.38248
|105>    H      -10.83186        18.44775         1.35206
|106>    H      -14.61446        13.90155        -0.62012
|107>    H      -16.32347        18.19381         1.25710
|108>    H      -18.57446        17.57836         0.61202
|109>    H      -20.14685        15.98666        -0.41642
|110>    H      -19.33017        13.85762        -1.34698
|111>    H      -16.93161        13.30245        -1.25727
|112> *
|113>
|114>                          ****END OF INPUT****

CARTESIAN COORDINATES (ANGSTROEM)
---------------------------------
  C      2.644920    2.328280    3.671410
  C      3.260660    2.979830    4.706400
  C      4.137150    2.352700    5.618230
  N      4.853690    1.901260    6.392720
  C      3.159670    4.360360    4.983580
  N      3.145740    5.474960    5.259340
  C      2.844570    0.930220    3.316350
  C      2.218180    0.692040    2.060680
  C      2.246700   -0.533480    1.459070
  C      2.907300   -1.601300    2.105590
  C      3.526710   -1.374760    3.369190
  C      3.487240   -0.092620    3.963130
  C      4.175380   -2.450460    4.009400
  C      4.212470   -3.689850    3.430680
  C      3.603730   -3.911160    2.186070
  C      2.965630   -2.889040    1.537230
  C      1.577350    1.926850    1.582280
  O      1.015580    2.070520    0.517450
  C      1.755160    2.919250    2.677690
  C      1.108250    4.104830    2.861680
  C      0.220500    4.820670    2.021080
  S     -0.608050    6.190680    2.730430
  C     -1.433790    6.545100    1.256400
  C     -1.052700    5.639190    0.256770
  C     -0.128060    4.680670    0.692220
  C     -1.519850    5.651330   -1.069560
  N     -1.875960    5.629040   -2.160380
  C     -2.356610    7.625490    1.214200
  C     -3.078500    7.987390    0.131270
  C     -4.024960    9.068150    0.147460
  C     -4.742600    9.438030   -1.037430
  C     -4.693070    8.949750   -2.319850
  S     -5.831180    9.720690   -3.330030
  C     -6.405870   10.713430   -2.070500
  C     -5.730010   10.475330   -0.897570
  C     -5.841710   11.081110    0.386200
  N     -5.095160   10.684670    1.388960
  N     -4.249290    9.704130    1.277680
  C     -6.774420   12.181500    0.619280
  C     -7.853180   12.084210    1.497360
  C     -8.338270   10.902180    2.248470
  O     -7.947650    9.778770    2.248140
  O     -9.436840   11.316090    2.963510
  C     -9.728440   12.635150    2.718310
  O    -10.637240   13.190660    3.253430
  C     -8.726810   13.138520    1.738900
  C     -8.629780   14.405000    1.119570
  C     -7.528050   14.505180    0.237750
  C     -6.660900   13.430120    0.010180
  C     -5.628340   13.863560   -0.957010
  O     -4.714130   13.257510   -1.423750
  O     -5.904880   15.165630   -1.273900
  C     -7.013470   15.620660   -0.600160
  O     -7.393210   16.742440   -0.741340
  C     -9.673960   15.353790    1.381180
  C     -9.812900   16.617620    0.928030
  C    -10.990960   17.388030    1.189390
  C    -12.262220   16.911810    1.163090
  C    -13.465500   17.677080    1.462790
  C    -13.518780   18.823680    2.207460
  C    -14.712780   19.514400    2.506610
  N    -15.649940   20.120280    2.773370
  C    -12.400530   19.446920    2.803030
  N    -11.539690   19.994660    3.328560
  C    -14.604470   16.955070    0.916510
  C    -14.139970   15.726000    0.366410
  C    -12.683870   15.615240    0.540380
  O    -11.986220   14.690620    0.186880
  C    -14.991020   14.828380   -0.213480
  C    -16.370320   15.124980   -0.271180
  C    -16.841960   16.357020    0.269290
  C    -15.938000   17.266770    0.863120
  C    -18.220590   16.644380    0.201040
  C    -19.092750   15.758110   -0.370150
  C    -18.627660   14.544920   -0.900050
  C    -17.295670   14.234850   -0.851360
  H      1.767440   -0.685880    0.503390
  H      3.960260    0.045180    4.922380
  H      4.644130   -2.274970    4.966490
  H      4.711510   -4.507260    3.929060
  H      3.642510   -4.895590    1.744390
  H      2.494910   -3.053190    0.578990
  H      1.255050    4.586850    3.821770
  H      0.266050    3.907160    0.057980
  H     -2.490880    8.187080    2.128870
  H     -2.974060    7.458410   -0.802250
  H     -4.064120    8.180710   -2.721380
  H     -7.188940   11.421020   -2.254990
  H    -10.447090   14.968890    2.030670
  H     -9.026770   17.117980    0.382480
  H    -10.831860   18.447750    1.352060
  H    -14.614460   13.901550   -0.620120
  H    -16.323470   18.193810    1.257100
  H    -18.574460   17.578360    0.612020
  H    -20.146850   15.986660   -0.416420
  H    -19.330170   13.857620   -1.346980
  H    -16.931610   13.302450   -1.257270

 Total Charge           Charge          ....    0
 Multiplicity           Mult            ....    1
 Number of Electrons    NEL             ....  520
 Basis Dimension        Dim             .... 1177

ORBITAL ENERGIES
----------------

  NO   OCC          E(Eh)            E(eV)
   0   2.0000     -88.994631     -2421.6670
   1   2.0000     -88.987960     -2421.4855
   2   2.0000     -19.308877      -525.4213
   3   2.0000     -19.302276      -525.2416
   4   2.0000     -19.258584      -524.0527
   5   2.0000     -19.253993      -523.9278
   6   2.0000     -19.251521      -523.8605
   7   2.0000     -19.247560      -523.7527
   8   2.0000     -19.226135      -523.1697
   9   2.0000     -19.225828      -523.1614
  10   2.0000     -14.443364      -393.0239
  11   2.0000     -14.435959      -392.8224
  12   2.0000     -14.421403      -392.4263
  13   2.0000     -14.420659      -392.4061
  14   2.0000     -14.420490      -392.4015
  15   2.0000     -14.420471      -392.4010
  16   2.0000     -14.418459      -392.3462
  17   2.0000     -10.453697      -284.4596
  18   2.0000     -10.447106      -284.2802
  19   2.0000     -10.446180      -284.2550
  20   2.0000     -10.441754      -284.1346
  21   2.0000     -10.378459      -282.4122
  22   2.0000     -10.377127      -282.3760
  23   2.0000     -10.357378      -281.8386
  24   2.0000     -10.350701      -281.6569
  25   2.0000     -10.350118      -281.6410
  26   2.0000     -10.350101      -281.6406
  27   2.0000     -10.347492      -281.5696
  28   2.0000     -10.347142      -281.5600
  29   2.0000     -10.347138      -281.5599
  30   2.0000     -10.346759      -281.5496
  31   2.0000     -10.345907      -281.5264
  32   2.0000     -10.344321      -281.4833
  33   2.0000     -10.343935      -281.4728
  34   2.0000     -10.340195      -281.3710
  35   2.0000     -10.334940      -281.2280
  36   2.0000     -10.333213      -281.1810
  37   2.0000     -10.331119      -281.1240
  38   2.0000     -10.327764      -281.0327
  39   2.0000     -10.323865      -280.9267
  40   2.0000     -10.323463      -280.9157
  41   2.0000     -10.322988      -280.9028
  42   2.0000     -10.322716      -280.8954
  43   2.0000     -10.321898      -280.8731
  44   2.0000     -10.321073      -280.8507
  45   2.0000     -10.320123      -280.8248
  46   2.0000     -10.319704      -280.8134
  47   2.0000     -10.311999      -280.6038
  48   2.0000     -10.310176      -280.5542
  49   2.0000     -10.309671      -280.5404
  50   2.0000     -10.308169      -280.4995
  51   2.0000     -10.307458      -280.4802
  52   2.0000     -10.307419      -280.4791
  53   2.0000     -10.307285      -280.4755
  54   2.0000     -10.306421      -280.4520
  55   2.0000     -10.305873      -280.4371
  56   2.0000     -10.304239      -280.3926
  57   2.0000     -10.304075      -280.3881
  58   2.0000     -10.303811      -280.3809
  59   2.0000     -10.303394      -280.3696
  60   2.0000     -10.301878      -280.3284
  61   2.0000     -10.301741      -280.3246
  62   2.0000     -10.301667      -280.3226
  63   2.0000     -10.301264      -280.3116
  64   2.0000     -10.301083      -280.3067
  65   2.0000     -10.300006      -280.2774
  66   2.0000     -10.295979      -280.1678
  67   2.0000     -10.293476      -280.0997
  68   2.0000     -10.292354      -280.0692
  69   2.0000     -10.291874      -280.0561
  70   2.0000     -10.291513      -280.0463
  71   2.0000     -10.290999      -280.0323
  72   2.0000     -10.290190      -280.0103
  73   2.0000     -10.289710      -279.9973
  74   2.0000     -10.289461      -279.9905
  75   2.0000     -10.288964      -279.9770
  76   2.0000      -8.090071      -220.1420
  77   2.0000      -8.083724      -219.9693
  78   2.0000      -6.058857      -164.8699
  79   2.0000      -6.054286      -164.7455
  80   2.0000      -6.053693      -164.7293
  81   2.0000      -6.052731      -164.7032
  82   2.0000      -6.048690      -164.5932
  83   2.0000      -6.046161      -164.5244
  84   2.0000      -1.260055       -34.2878
  85   2.0000      -1.252186       -34.0737
  86   2.0000      -1.184394       -32.2290
  87   2.0000      -1.177495       -32.0413
  88   2.0000      -1.145933       -31.1824
  89   2.0000      -1.141469       -31.0609
  90   2.0000      -1.141225       -31.0543
  91   2.0000      -1.139599       -31.0101
  92   2.0000      -1.123711       -30.5777
  93   2.0000      -1.031276       -28.0624
  94   2.0000      -1.026056       -27.9204
  95   2.0000      -1.024363       -27.8743
  96   2.0000      -1.022308       -27.8184
  97   2.0000      -1.010894       -27.5078
  98   2.0000      -1.004637       -27.3376
  99   2.0000      -1.003386       -27.3035
 100   2.0000      -0.999673       -27.2025
 101   2.0000      -0.999364       -27.1941
 102   2.0000      -0.997645       -27.1473
 103   2.0000      -0.978518       -26.6268
 104   2.0000      -0.976188       -26.5634
 105   2.0000      -0.968065       -26.3424
 106   2.0000      -0.945057       -25.7163
 107   2.0000      -0.941285       -25.6137
 108   2.0000      -0.933781       -25.4095
 109   2.0000      -0.929844       -25.3023
 110   2.0000      -0.921615       -25.0784
 111   2.0000      -0.914488       -24.8845
 112   2.0000      -0.900019       -24.4908
 113   2.0000      -0.893310       -24.3082
 114   2.0000      -0.887992       -24.1635
 115   2.0000      -0.885180       -24.0870
 116   2.0000      -0.884427       -24.0665
 117   2.0000      -0.883443       -24.0397
 118   2.0000      -0.868350       -23.6290
 119   2.0000      -0.851436       -23.1687
 120   2.0000      -0.843435       -22.9510
 121   2.0000      -0.834652       -22.7120
 122   2.0000      -0.833646       -22.6847
 123   2.0000      -0.832208       -22.6455
 124   2.0000      -0.822925       -22.3929
 125   2.0000      -0.815954       -22.2032
 126   2.0000      -0.798243       -21.7213
 127   2.0000      -0.795444       -21.6451
 128   2.0000      -0.786064       -21.3899
 129   2.0000      -0.770560       -20.9680
 130   2.0000      -0.768309       -20.9067
 131   2.0000      -0.767058       -20.8727
 132   2.0000      -0.760182       -20.6856
 133   2.0000      -0.744125       -20.2487
 134   2.0000      -0.737727       -20.0746
 135   2.0000      -0.732058       -19.9203
 136   2.0000      -0.713744       -19.4220
 137   2.0000      -0.710641       -19.3375
 138   2.0000      -0.708151       -19.2698
 139   2.0000      -0.705860       -19.2074
 140   2.0000      -0.702801       -19.1242
 141   2.0000      -0.696999       -18.9663
 142   2.0000      -0.689592       -18.7647
 143   2.0000      -0.684325       -18.6214
 144   2.0000      -0.681499       -18.5445
 145   2.0000      -0.677841       -18.4450
 146   2.0000      -0.671726       -18.2786
 147   2.0000      -0.665299       -18.1037
 148   2.0000      -0.662053       -18.0154
 149   2.0000      -0.656498       -17.8642
 150   2.0000      -0.655507       -17.8373
 151   2.0000      -0.640080       -17.4175
 152   2.0000      -0.639839       -17.4109
 153   2.0000      -0.631115       -17.1735
 154   2.0000      -0.622183       -16.9305
 155   2.0000      -0.619193       -16.8491
 156   2.0000      -0.617367       -16.7994
 157   2.0000      -0.612841       -16.6763
 158   2.0000      -0.611248       -16.6329
 159   2.0000      -0.609354       -16.5814
 160   2.0000      -0.608201       -16.5500
 161   2.0000      -0.604873       -16.4594
 162   2.0000      -0.595752       -16.2112
 163   2.0000      -0.591628       -16.0990
 164   2.0000      -0.586574       -15.9615
 165   2.0000      -0.581250       -15.8166
 166   2.0000      -0.575500       -15.6601
 167   2.0000      -0.568977       -15.4827
 168   2.0000      -0.564831       -15.3698
 169   2.0000      -0.562072       -15.2948
 170   2.0000      -0.559036       -15.2121
 171   2.0000      -0.556101       -15.1323
 172   2.0000      -0.552913       -15.0455
 173   2.0000      -0.551394       -15.0042
 174   2.0000      -0.550777       -14.9874
 175   2.0000      -0.549514       -14.9530
 176   2.0000      -0.544324       -14.8118
 177   2.0000      -0.543016       -14.7762
 178   2.0000      -0.541746       -14.7417
 179   2.0000      -0.539878       -14.6908
 180   2.0000      -0.537056       -14.6140
 181   2.0000      -0.534122       -14.5342
 182   2.0000      -0.530166       -14.4266
 183   2.0000      -0.528588       -14.3836
 184   2.0000      -0.527060       -14.3420
 185   2.0000      -0.525024       -14.2866
 186   2.0000      -0.523005       -14.2317
 187   2.0000      -0.520038       -14.1510
 188   2.0000      -0.519263       -14.1299
 189   2.0000      -0.518204       -14.1011
 190   2.0000      -0.516449       -14.0533
 191   2.0000      -0.516036       -14.0421
 192   2.0000      -0.515395       -14.0246
 193   2.0000      -0.513322       -13.9682
 194   2.0000      -0.511568       -13.9205
 195   2.0000      -0.506508       -13.7828
 196   2.0000      -0.503314       -13.6959
 197   2.0000      -0.502956       -13.6861
 198   2.0000      -0.500021       -13.6063
 199   2.0000      -0.497852       -13.5472
 200   2.0000      -0.496904       -13.5214
 201   2.0000      -0.494802       -13.4642
 202   2.0000      -0.490849       -13.3567
 203   2.0000      -0.490627       -13.3506
 204   2.0000      -0.479903       -13.0588
 205   2.0000      -0.479375       -13.0445
 206   2.0000      -0.477690       -12.9986
 207   2.0000      -0.473688       -12.8897
 208   2.0000      -0.471292       -12.8245
 209   2.0000      -0.469593       -12.7783
 210   2.0000      -0.460636       -12.5345
 211   2.0000      -0.455412       -12.3924
 212   2.0000      -0.453806       -12.3487
 213   2.0000      -0.452501       -12.3132
 214   2.0000      -0.451164       -12.2768
 215   2.0000      -0.449277       -12.2255
 216   2.0000      -0.448141       -12.1945
 217   2.0000      -0.447270       -12.1708
 218   2.0000      -0.445728       -12.1289
 219   2.0000      -0.444104       -12.0847
 220   2.0000      -0.440995       -12.0001
 221   2.0000      -0.439636       -11.9631
 222   2.0000      -0.438750       -11.9390
 223   2.0000      -0.437636       -11.9087
 224   2.0000      -0.437429       -11.9030
 225   2.0000      -0.433139       -11.7863
 226   2.0000      -0.431550       -11.7431
 227   2.0000      -0.430459       -11.7134
 228   2.0000      -0.428574       -11.6621
 229   2.0000      -0.425010       -11.5651
 230   2.0000      -0.423843       -11.5334
 231   2.0000      -0.423637       -11.5278
 232   2.0000      -0.417576       -11.3628
 233   2.0000      -0.416347       -11.3294
 234   2.0000      -0.414571       -11.2811
 235   2.0000      -0.413628       -11.2554
 236   2.0000      -0.410112       -11.1597
 237   2.0000      -0.407818       -11.0973
 238   2.0000      -0.404658       -11.0113
 239   2.0000      -0.395437       -10.7604
 240   2.0000      -0.393023       -10.6947
 241   2.0000      -0.389491       -10.5986
 242   2.0000      -0.387279       -10.5384
 243   2.0000      -0.383296       -10.4300
 244   2.0000      -0.380161       -10.3447
 245   2.0000      -0.374482       -10.1902
 246   2.0000      -0.364426        -9.9165
 247   2.0000      -0.354400        -9.6437
 248   2.0000      -0.351007        -9.5514
 249   2.0000      -0.349664        -9.5148
 250   2.0000      -0.345421        -9.3994
 251   2.0000      -0.343676        -9.3519
 252   2.0000      -0.324336        -8.8256
 253   2.0000      -0.321903        -8.7594
 254   2.0000      -0.311393        -8.4734
 255   2.0000      -0.308642        -8.3986
 256   2.0000      -0.302476        -8.2308
 257   2.0000      -0.298193        -8.1143
 258   2.0000      -0.296580        -8.0703
 259   2.0000      -0.277279        -7.5451
 260   0.0000      -0.113513        -3.0889
 261   0.0000      -0.106548        -2.8993
 262   0.0000      -0.104092        -2.8325
 263   0.0000      -0.078794        -2.1441
 264   0.0000      -0.070096        -1.9074

MULLIKEN ATOMIC CHARGES
-----------------------
   0 C :    0.298453
   1 C :   -0.342624
   2 C :   -0.181828
   3 N :    0.151423
   4 C :   -0.200657
   5 N :    0.163714
   6 C :    0.048164
   7 C :   -0.002233
   8 C :   -0.078210
   9 C :    0.096996
  10 C :    0.095343
  11 C :   -0.078096
  12 C :   -0.017726
  13 C :    0.037923
  14 C :    0.036110
  15 C :   -0.013528
  16 C :    0.163122
  17 O :   -0.153458
  18 C :   -0.088228
  19 C :    0.059268
  20 C :   -0.108547
  21 S :    0.191186
  22 C :   -0.039911
  23 C :   -0.087637
  24 C :    0.037443
  25 C :   -0.157019
  26 N :    0.112994
  27 C :    0.084472
  28 C :   -0.043238
  29 C :    0.044033
  30 C :    0.054234
  31 C :   -0.142391
  32 S :    0.199804
  33 C :   -0.143857
  34 C :    0.156690
  35 C :   -0.098654
  36 N :   -0.018645
  37 N :   -0.067772
  38 C :   -0.028480
  39 C :   -0.055254
  40 C :    0.245244
  41 O :   -0.080941
  42 O :   -0.227856
  43 C :    0.249582
  44 O :   -0.100132
  45 C :   -0.071600
  46 C :    0.054030
  47 C :   -0.075774
  48 C :   -0.053869
  49 C :    0.232003
  50 O :   -0.089121
  51 O :   -0.220314
  52 C :    0.247296
  53 O :   -0.097873
  54 C :    0.031173
  55 C :    0.002637
  56 C :   -0.004171
  57 C :   -0.090673
  58 C :    0.288380
  59 C :   -0.324254
  60 C :   -0.179931
  61 N :    0.152253
  62 C :   -0.208055
  63 N :    0.169456
  64 C :    0.054791
  65 C :   -0.006373
  66 C :    0.156947
  67 O :   -0.150020
  68 C :   -0.075365
  69 C :    0.098702
  70 C :    0.097656
  71 C :   -0.082904
  72 C :   -0.017547
  73 C :    0.035828
  74 C :    0.038258
  75 C :   -0.015319
  76 H :   -0.011904
  77 H :   -0.006949
  78 H :   -0.009092
  79 H :   -0.003219
  80 H :   -0.003768
  81 H :   -0.016647
  82 H :    0.016635
  83 H :    0.029257
  84 H :    0.016213
  85 H :   -0.007861
  86 H :    0.050920
  87 H :    0.023277
  88 H :    0.025655
  89 H :    0.037982
  90 H :    0.043201
  91 H :   -0.014028
  92 H :   -0.006459
  93 H :   -0.007586
  94 H :   -0.001626
  95 H :   -0.002364
  96 H :   -0.017158
Sum of atomic charges:   -0.0000000

LOEWDIN ATOMIC CHARGES
----------------------
   0 C :    0.075962
   1 C :   -0.136750
   2 C :   -0.017218
   3 N :   -0.049745
   4 C :   -0.026398
   5 N :   -0.047005
   6 C :   -0.026601
   7 C :   -0.056241
   8 C :    0.034219
   9 C :   -0.007981
  10 C :   -0.005429
  11 C :    0.020890
  12 C :   -0.004780
  13 C :   -0.011575
  14 C :   -0.010945
  15 C :   -0.008666
  16 C :    0.089305
  17 O :   -0.138349
  18 C :   -0.084327
  19 C :    0.046106
  20 C :   -0.180174
  21 S :    0.496882
  22 C :   -0.123934
  23 C :   -0.109891
  24 C :    0.020834
  25 C :   -0.020031
  26 N :   -0.060822
  27 C :   -0.005633
  28 C :   -0.004805
  29 C :    0.011202
  30 C :   -0.058725
  31 C :   -0.180643
  32 S :    0.540032
  33 C :   -0.194289
  34 C :   -0.055660
  35 C :   -0.008169
  36 N :   -0.040442
  37 N :   -0.056059
  38 C :    0.028659
  39 C :   -0.025451
  40 C :    0.107736
  41 O :   -0.080184
  42 O :   -0.051281
  43 C :    0.113110
  44 O :   -0.091631
  45 C :   -0.034624
  46 C :    0.036373
  47 C :   -0.041628
  48 C :   -0.036931
  49 C :    0.101711
  50 O :   -0.087160
  51 O :   -0.047236
  52 C :    0.116783
  53 O :   -0.088941
  54 C :    0.015714
  55 C :    0.000204
  56 C :    0.067449
  57 C :   -0.073599
  58 C :    0.073006
  59 C :   -0.128107
  60 C :   -0.016715
  61 N :   -0.046197
  62 C :   -0.025099
  63 N :   -0.041992
  64 C :   -0.025968
  65 C :   -0.056346
  66 C :    0.087912
  67 O :   -0.138648
  68 C :    0.035669
  69 C :   -0.007574
  70 C :   -0.004526
  71 C :    0.021276
  72 C :   -0.004426
  73 C :   -0.010802
  74 C :   -0.010262
  75 C :   -0.008523
  76 H :    0.039505
  77 H :    0.039385
  78 H :    0.035079
  79 H :    0.033875
  80 H :    0.033441
  81 H :    0.032332
  82 H :    0.044585
  83 H :    0.043137
  84 H :    0.041590
  85 H :    0.035380
  86 H :    0.034573
  87 H :    0.024182
  88 H :    0.037870
  89 H :    0.035805
  90 H :    0.049082
  91 H :    0.038808
  92 H :    0.039576
  93 H :    0.035437
  94 H :    0.034395
  95 H :    0.033896
  96 H :    0.032170

  Mayer bond orders larger than 0.100000
B(  0-C ,  1-C ) :   1.6442 B(  0-C ,  6-C ) :   0.9885 B(  0-C , 18-C ) :   1.0576
B(  1-C ,  2-C ) :   1.1442 B(  1-C ,  4-C ) :   1.1353 B(  2-C ,  3-N ) :   2.9709
B(  4-C ,  5-N ) :   2.9932 B(  6-C ,  7-C ) :   1.2148 B(  6-C , 11-C ) :   1.4491
B(  7-C ,  8-C ) :   1.4687 B(  7-C , 16-C ) :   0.9568 B(  8-C ,  9-C ) :   1.1806
B(  8-C , 76-H ) :   1.0160 B(  9-C , 10-C ) :   1.2549 B(  9-C , 15-C ) :   1.2445
B( 10-C , 11-C ) :   1.2085 B( 10-C , 12-C ) :   1.2392 B( 11-C , 77-H ) :   0.9899
B( 12-C , 13-C ) :   1.4904 B( 12-C , 78-H ) :   0.9970 B( 13-C , 14-C ) :   1.2593
B( 13-C , 79-H ) :   0.9887 B( 14-C , 15-C ) :   1.4886 B( 14-C , 80-H ) :   0.9890
B( 15-C , 81-H ) :   0.9976 B( 16-C , 17-O ) :   2.1709 B( 16-C , 18-C ) :   0.9317
B( 18-C , 19-C ) :   1.6367 B( 19-C , 20-C ) :   1.1730 B( 19-C , 82-H ) :   0.9188
B( 20-C , 21-S ) :   1.1076 B( 20-C , 24-C ) :   1.4472 B( 21-S , 22-C ) :   1.1818
B( 22-C , 23-C ) :   1.4118 B( 22-C , 27-C ) :   1.0976 B( 23-C , 24-C ) :   1.3018
B( 23-C , 25-C ) :   1.1125 B( 24-C , 83-H ) :   0.9801 B( 25-C , 26-N ) :   2.9767
B( 27-C , 28-C ) :   1.7043 B( 27-C , 84-H ) :   0.9575 B( 28-C , 29-C ) :   1.1201
B( 28-C , 85-H ) :   0.9520 B( 29-C , 30-C ) :   1.0792 B( 29-C , 37-N ) :   1.6945
B( 30-C , 31-C ) :   1.4645 B( 30-C , 34-C ) :   1.2133 B( 31-C , 32-S ) :   1.2418
B( 31-C , 86-H ) :   0.9497 B( 32-S , 33-C ) :   1.2362 B( 33-C , 34-C ) :   1.4376
B( 33-C , 87-H ) :   0.9487 B( 34-C , 35-C ) :   1.1226 B( 35-C , 36-N ) :   1.7252
B( 35-C , 38-C ) :   0.9612 B( 36-N , 37-N ) :   1.1937 B( 38-C , 39-C ) :   1.4339
B( 38-C , 48-C ) :   1.4252 B( 39-C , 40-C ) :   0.8868 B( 39-C , 45-C ) :   1.3506
B( 40-C , 41-O ) :   2.2855 B( 40-C , 42-O ) :   1.0459 B( 42-O , 43-C ) :   1.0659
B( 43-C , 44-O ) :   2.2090 B( 43-C , 45-C ) :   0.9076 B( 45-C , 46-C ) :   1.3199
B( 46-C , 47-C ) :   1.2765 B( 46-C , 54-C ) :   1.1796 B( 47-C , 48-C ) :   1.3502
B( 47-C , 52-C ) :   0.9061 B( 48-C , 49-C ) :   0.8895 B( 49-C , 50-O ) :   2.2594
B( 49-C , 51-O ) :   1.0595 B( 51-O , 52-C ) :   1.0619 B( 52-C , 53-O ) :   2.1939
B( 54-C , 55-C ) :   1.6925 B( 54-C , 88-H ) :   0.9330 B( 55-C , 56-C ) :   1.1042
B( 55-C , 89-H ) :   0.9283 B( 56-C , 57-C ) :   1.6879 B( 56-C , 90-H ) :   0.9432
B( 57-C , 58-C ) :   1.0376 B( 57-C , 66-C ) :   0.9214 B( 58-C , 59-C ) :   1.6656
B( 58-C , 64-C ) :   1.0004 B( 59-C , 60-C ) :   1.1405 B( 59-C , 62-C ) :   1.1336
B( 60-C , 61-N ) :   2.9694 B( 62-C , 63-N ) :   3.0054 B( 64-C , 65-C ) :   1.2092
B( 64-C , 71-C ) :   1.4450 B( 65-C , 66-C ) :   0.9539 B( 65-C , 68-C ) :   1.4693
B( 66-C , 67-O ) :   2.2156 B( 68-C , 69-C ) :   1.1851 B( 68-C , 91-H ) :   1.0152
B( 69-C , 70-C ) :   1.2497 B( 69-C , 75-C ) :   1.2436 B( 70-C , 71-C ) :   1.2107
B( 70-C , 72-C ) :   1.2395 B( 71-C , 92-H ) :   0.9903 B( 72-C , 73-C ) :   1.4911
B( 72-C , 93-H ) :   0.9971 B( 73-C , 74-C ) :   1.2573 B( 73-C , 94-H ) :   0.9890
B( 74-C , 75-C ) :   1.4916 B( 74-C , 95-H ) :   0.9886 B( 75-C , 96-H ) :   0.9971

-----------------------------------------------------------------------------
         ABSORPTION SPECTRUM VIA TRANSITION ELECTRIC DIPOLE MOMENTS
-----------------------------------------------------------------------------
State   Energy  Wavelength   fosc         T2         TX        TY        TZ
        (cm-1)    (nm)                  (au**2)     (au)      (au)      (au)
-----------------------------------------------------------------------------
   0   19787.1    505.4   0.045390695   0.75520   0.65226  -0.55572   0.14464
   1   20934.6    477.7   1.844747028  29.00997   3.84682  -3.65310   0.93102
   2   21317.6    469.1   0.208084709   3.21350  -0.93490   1.33577  -0.74511
   3   22756.7    439.4   0.074127920   1.07238   0.47726  -0.18021  -0.90118
   4   22822.0    438.2   0.006148936   0.08870   0.00829  -0.02448  -0.29670
   5   24486.4    408.4   0.065167323   0.87615  -0.62225   0.42054  -0.55866
   6   25247.9    396.1   0.034551071   0.45052  -0.57589  -0.17133  -0.29918
   7   25382.2    394.0   0.041464192   0.53780   0.27156   0.53150  -0.42610
   8   26157.4    382.3   0.120834662   1.52080   0.43906  -1.15113   0.05402
   9   26341.2    379.6   0.007227271   0.09033  -0.11658   0.27615  -0.02185
  10   27869.7    358.8   0.022686746   0.26799  -0.14405   0.08871  -0.48925
  11   28321.9    353.1   0.029311490   0.34071  -0.03648  -0.47331  -0.33965
  12   28399.4    352.1   0.005599637   0.06491  -0.22272   0.00578   0.12360
  13   28822.6    346.9   0.141652960   1.61796  -0.80724   0.93329  -0.30870
  14   29433.5    339.7   0.433464104   4.84827   1.56946  -1.49977  -0.36844
  15   29505.1    338.9   0.050351832   0.56182   0.70802  -0.17952  -0.16821
  16   30088.5    332.4   0.003294113   0.03604  -0.10049   0.14190  -0.07621
  17   31084.8    321.7   0.002914889   0.03087  -0.07127   0.04702  -0.15356
  18   31297.2    319.5   0.201935442   2.12414  -0.16167  -1.35424  -0.51383
  19   31584.1    316.6   0.076307635   0.79538   0.85220   0.14913   0.21655
  20   31662.6    315.8   0.397563851   4.13367  -1.95169   0.03252  -0.56880
  21   32042.0    312.1   0.059839711   0.61482  -0.08548  -0.76560  -0.14615
  22   32852.3    304.4   0.330791093   3.31485   1.41677   0.87324   0.73828
  23   33146.7    301.7   0.111961692   1.11200   1.00603   0.05494   0.31126
  24   33343.4    299.9   0.037371607   0.36898  -0.03734  -0.50814  -0.33073
  25   33447.8    299.0   0.573539475   5.64510  -0.05125  -2.28394  -0.65277
  26   34235.4    292.1   0.004624731   0.04447   0.10795   0.00803  -0.18098
  27   34727.6    288.0   0.028986108   0.27478   0.12333  -0.00984   0.50939
  28   34763.7    287.7   0.008791401   0.08325   0.06689   0.19374  -0.20309
  29   34867.0    286.8   0.047645791   0.44987  -0.00945   0.46286   0.48533
  30   34904.0    286.5   0.006494867   0.06126  -0.20888   0.00863  -0.13249
  31   35001.7    285.7   0.014114097   0.13275   0.08162  -0.32874  -0.13425
  32   35154.1    284.5   0.001377647   0.01290  -0.01922   0.10649  -0.03453
  33   35620.1    280.7   0.004450424   0.04113   0.06365  -0.18297  -0.06002
  34   35746.0    279.8   0.001670798   0.01539   0.07648  -0.07143   0.06660
  35   35837.5    279.0   0.003913281   0.03595  -0.11617   0.14984   0.00078
  36   35988.5    277.9   0.045020845   0.41184  -0.02317   0.59912   0.22881
  37   36120.3    276.9   0.035415899   0.32279   0.15071  -0.54714  -0.02668
  38   36536.0    273.7   0.063130789   0.56885  -0.00030  -0.66582  -0.35431
  39   36821.8    271.6   0.113619783   1.01584   0.11842   0.63822   0.77103
  40   37074.7    269.7   0.022497633   0.19977   0.23234   0.12906   0.35935
  41   37199.0    268.8   0.005287138   0.04679   0.11914   0.03961   0.17615
  42   37448.0    267.0   0.007069323   0.06215   0.20442  -0.13363  -0.05004
  43   37597.4    266.0   0.050744121   0.44433  -0.17636   0.63342  -0.10957
  44   37761.4    264.8   0.170181763   1.48368   0.39971   0.98193   0.59977
  45   38102.6    262.4   0.041586557   0.35931  -0.36115  -0.25746  -0.40324
  46   38464.6    260.0   0.056786925   0.48603  -0.26203   0.63067  -0.14006
  47   38515.9    259.6   0.202479978   1.73068  -0.07934   1.16531   0.60534
  48   38839.2    257.5   0.239054102   2.02629   0.38526   0.80255   1.11076
  49   39097.8    255.8   0.057239526   0.48197   0.29435   0.31134   0.54626
  50   39139.0    255.5   0.025839727   0.21735  -0.13746  -0.27125  -0.35338
  51   39748.0    251.6   0.004562815   0.03779  -0.07947  -0.12504  -0.12586
  52   39762.4    251.5   0.032134064   0.26605  -0.27268   0.10372  -0.42537
  53   39893.6    250.7   0.022017837   0.18170   0.19056   0.11632   0.36312
  54   40091.5    249.4   0.020100863   0.16506   0.32382  -0.23052  -0.08403

FINAL SINGLE POINT ENERGY     -4037.997678604303

DIPOLE MOMENT
-------------
                                X             Y             Z
Electronic contribution:      8.39369      27.12859       3.40680
Nuclear contribution   :    -10.35918     -30.36560      -6.34153
                        -----------------------------------------
Total Dipole Moment    :     -1.96548      -3.23701      -2.93472
                        -----------------------------------------
Magnitude (a.u.)       :      4.79103
Magnitude (Debye)      :     12.17783

Rotational constants in cm-1:     0.002196     0.000189     0.000187
Rotational constants in MHz :    65.827104     5.677647     5.620966

                             ****ORCA TERMINATED NORMALLY****
TOTAL RUN TIME: 0 days 0 hours 12 minutes 37 seconds 382 msec
