                         Program Version 4.2.0 -  RELEASE  -
|  1> # ORCA input file
|  2> # SCF done       -199.234300090658          0.000758738307
|  3> ! CAM-B3LYP def2-SVP def2/J RIJCOSX Grid4 TightSCF
|  4> %maxcore 5000
|  5> %tddft
|  6>     Mode sTDDFT
|  7>     Ethresh 5.0
|  8>     maxcore 5000
|  9> end
| 10>
| 11> %pal
| 12>   nprocs 6
| 13>   end
| 14> * xyz 0 1
| 15>    C       -0.76857         0.13653        -1.93027
| 16>    C       -1.61425        -0.59129        -1.13550
| 17>    C       -2.18061        -1.82813        -1.51280
| 18>    N       -2.67384        -2.83553        -1.75610
| 19>    C       -2.04186        -0.23870         0.16261
| 20>    N       -2.43115        -0.03331         1.22324
| 21>    C       -0.31723        -0.25359        -3.26250
| 22>    C        0.56047         0.75333        -3.76011
| 23>    C        1.15082         0.65828        -4.98796
| 24>    C        0.88590        -0.47225        -5.79229
| 25>    C        0.00859        -1.48351        -5.30418
| 26>    C       -0.58843        -1.35594        -4.02844
| 27>    C       -0.24842        -2.60807        -6.11382
| 28>    C        0.33271        -2.73015        -7.34699
| 29>    C        1.19633        -1.73424        -7.82652
| 30>    C        1.46714        -0.62899        -7.06582
| 31>    C        0.68640         1.81646        -2.75828
| 32>    O        1.35261         2.83560        -2.85396
| 33>    C       -0.14629         1.41223        -1.61783
| 34>    C       -0.28837         2.11710        -0.45349
| 35>    C        0.29788         3.33055        -0.05875
| 36>    S        1.34416         4.34759        -1.00754
| 37>    C        1.50036         5.48726         0.29258
| 38>    C        0.81213         5.06408         1.43218
| 39>    C        0.10850         3.87786         1.22184
| 40>    S       -1.02613         3.15442         2.34609
| 41>    C       -1.28839         4.38665         3.62130
| 42>    O       -2.34124         4.39564         4.18114
| 43>    C       -0.12923         5.23165         4.09477
| 44>    O       -0.04514         5.52605         5.25580
| 45>    S        1.11762         5.79795         2.99378
| 46>    C        2.15886         6.74124         0.16854
| 47>    N        3.24948         7.01361        -0.61895
| 48>    C        3.99070         6.10047        -1.45637
| 49>    C        3.50024         6.13043        -2.90070
| 50>    C        3.65198         8.35869        -0.50392
| 51>    O        4.61405         8.81990        -1.08678
| 52>    C        2.69869         8.94547         0.40691
| 53>    C        1.79456         7.92644         0.80102
| 54>    C        0.78356         8.52866         1.64119
| 55>    O       -0.21297         8.07006         2.16361
| 56>    N        1.17545         9.87163         1.74768
| 57>    C        0.45688        10.78612         2.60261
| 58>    C        1.13126        10.92905         3.96471
| 59>    C        2.31515        10.13517         1.02474
| 60>    C        2.93936        11.40769         0.97971
| 61>    C        4.05655        11.64191         0.24653
| 62>    C        4.74289        12.88609         0.20598
| 63>    S        6.11719        13.06323        -0.84631
| 64>    C        6.37259        14.68800        -0.33045
| 65>    C        7.55170        15.46315        -0.77380
| 66>    O        8.09122        16.27240        -0.06710
| 67>    O        8.01484        15.18656        -1.99584
| 68>    C        5.43789        15.07604         0.61803
| 69>    C        4.52936        14.04542         0.92006
| 70>    C        5.37601        16.37367         1.25605
| 71>    C        5.53443        17.56391         0.64519
| 72>    C        5.59346        18.87288         1.29010
| 73>    C        5.28548        19.15818         2.59120
| 74>    C        5.36920        20.44847         3.15934
| 75>    N        5.41197        21.46983         3.68027
| 76>    C        4.79631        18.22934         3.53462
| 77>    N        4.37066        17.53602         4.34483
| 78>    C        6.01405        19.83504         0.28267
| 79>    C        6.07191        19.18271        -0.98326
| 80>    C        5.72290        17.76745        -0.82408
| 81>    O        5.57422        16.94474        -1.70279
| 82>    C        6.42992        19.84760        -2.12185
| 83>    C        6.76154        21.21770        -2.04388
| 84>    C        6.71591        21.87545        -0.77979
| 85>    C        6.33711        21.16380         0.38035
| 86>    C        7.05377        23.24287        -0.71318
| 87>    C        7.41732        23.92952        -1.83933
| 88>    C        7.46047        23.28160        -3.08335
| 89>    C        7.14047        21.95489        -3.18340
| 90>    H        1.81270         1.43549        -5.34023
| 91>    H       -1.24661        -2.14003        -3.69037
| 92>    H       -0.91366        -3.37247        -5.74019
| 93>    H        0.12974        -3.59561        -7.95956
| 94>    H        1.64611        -1.84692        -8.80149
| 95>    H        2.13153         0.14097        -7.42985
| 96>    H       -0.93206         1.69150         0.30743
| 97>    H        3.91810         5.09224        -1.04433
| 98>    H        5.03341         6.43084        -1.42434
| 99>    H        2.46671         5.80136        -2.96843
|100>    H        4.11217         5.46752        -3.50461
|101>    H        3.58151         7.13983        -3.29588
|102>    H       -0.54119        10.35888         2.73276
|103>    H        0.36221        11.75517         2.10563
|104>    H        1.16442         9.96392         4.46394
|105>    H        0.56693        11.61998         4.58450
|106>    H        2.14876        11.29983         3.86112
|107>    H        2.49944        12.20186         1.56387
|108>    H        4.47511        10.84120        -0.34955
|109>    H        7.43498        14.59635        -2.49628
|110>    H        3.73605        14.16688         1.63516
|111>    H        5.17452        16.33825         2.31892
|112>    H        6.46680        19.33001        -3.06883
|113>    H        6.31772        21.68839         1.32247
|114>    H        7.01876        23.73721         0.24649
|115>    H        7.67418        24.97637        -1.77816
|116>    H        7.74937        23.83935        -3.96155
|117>    H        7.17331        21.45068        -4.13804
|118> *
|119>
|120>                          ****END OF INPUT****

CARTESIAN COORDINATES (ANGSTROEM)
---------------------------------
  C     -0.768570    0.136530   -1.930270
  C     -1.614250   -0.591290   -1.135500
  C     -2.180610   -1.828130   -1.512800
  N     -2.673840   -2.835530   -1.756100
  C     -2.041860   -0.238700    0.162610
  N     -2.431150   -0.033310    1.223240
  C     -0.317230   -0.253590   -3.262500
  C      0.560470    0.753330   -3.760110
  C      1.150820    0.658280   -4.987960
  C      0.885900   -0.472250   -5.792290
  C      0.008590   -1.483510   -5.304180
  C     -0.588430   -1.355940   -4.028440
  C     -0.248420   -2.608070   -6.113820
  C      0.332710   -2.730150   -7.346990
  C      1.196330   -1.734240   -7.826520
  C      1.467140   -0.628990   -7.065820
  C      0.686400    1.816460   -2.758280
  O      1.352610    2.835600   -2.853960
  C     -0.146290    1.412230   -1.617830
  C     -0.288370    2.117100   -0.453490
  C      0.297880    3.330550   -0.058750
  S      1.344160    4.347590   -1.007540
  C      1.500360    5.487260    0.292580
  C      0.812130    5.064080    1.432180
  C      0.108500    3.877860    1.221840
  S     -1.026130    3.154420    2.346090
  C     -1.288390    4.386650    3.621300
  O     -2.341240    4.395640    4.181140
  C     -0.129230    5.231650    4.094770
  O     -0.045140    5.526050    5.255800
  S      1.117620    5.797950    2.993780
  C      2.158860    6.741240    0.168540
  N      3.249480    7.013610   -0.618950
  C      3.990700    6.100470   -1.456370
  C      3.500240    6.130430   -2.900700
  C      3.651980    8.358690   -0.503920
  O      4.614050    8.819900   -1.086780
  C      2.698690    8.945470    0.406910
  C      1.794560    7.926440    0.801020
  C      0.783560    8.528660    1.641190
  O     -0.212970    8.070060    2.163610
  N      1.175450    9.871630    1.747680
  C      0.456880   10.786120    2.602610
  C      1.131260   10.929050    3.964710
  C      2.315150   10.135170    1.024740
  C      2.939360   11.407690    0.979710
  C      4.056550   11.641910    0.246530
  C      4.742890   12.886090    0.205980
  S      6.117190   13.063230   -0.846310
  C      6.372590   14.688000   -0.330450
  C      7.551700   15.463150   -0.773800
  O      8.091220   16.272400   -0.067100
  O      8.014840   15.186560   -1.995840
  C      5.437890   15.076040    0.618030
  C      4.529360   14.045420    0.920060
  C      5.376010   16.373670    1.256050
  C      5.534430   17.563910    0.645190
  C      5.593460   18.872880    1.290100
  C      5.285480   19.158180    2.591200
  C      5.369200   20.448470    3.159340
  N      5.411970   21.469830    3.680270
  C      4.796310   18.229340    3.534620
  N      4.370660   17.536020    4.344830
  C      6.014050   19.835040    0.282670
  C      6.071910   19.182710   -0.983260
  C      5.722900   17.767450   -0.824080
  O      5.574220   16.944740   -1.702790
  C      6.429920   19.847600   -2.121850
  C      6.761540   21.217700   -2.043880
  C      6.715910   21.875450   -0.779790
  C      6.337110   21.163800    0.380350
  C      7.053770   23.242870   -0.713180
  C      7.417320   23.929520   -1.839330
  C      7.460470   23.281600   -3.083350
  C      7.140470   21.954890   -3.183400
  H      1.812700    1.435490   -5.340230
  H     -1.246610   -2.140030   -3.690370
  H     -0.913660   -3.372470   -5.740190
  H      0.129740   -3.595610   -7.959560
  H      1.646110   -1.846920   -8.801490
  H      2.131530    0.140970   -7.429850
  H     -0.932060    1.691500    0.307430
  H      3.918100    5.092240   -1.044330
  H      5.033410    6.430840   -1.424340
  H      2.466710    5.801360   -2.968430
  H      4.112170    5.467520   -3.504610
  H      3.581510    7.139830   -3.295880
  H     -0.541190   10.358880    2.732760
  H      0.362210   11.755170    2.105630
  H      1.164420    9.963920    4.463940
  H      0.566930   11.619980    4.584500
  H      2.148760   11.299830    3.861120
  H      2.499440   12.201860    1.563870
  H      4.475110   10.841200   -0.349550
  H      7.434980   14.596350   -2.496280
  H      3.736050   14.166880    1.635160
  H      5.174520   16.338250    2.318920
  H      6.466800   19.330010   -3.068830
  H      6.317720   21.688390    1.322470
  H      7.018760   23.737210    0.246490
  H      7.674180   24.976370   -1.778160
  H      7.749370   23.839350   -3.961550
  H      7.173310   21.450680   -4.138040

 Total Charge           Charge          ....    0
 Multiplicity           Mult            ....    1
 Number of Electrons    NEL             ....  540
 Basis Dimension        Dim             .... 1206

ORBITAL ENERGIES
----------------

  NO   OCC          E(Eh)            E(eV)
   0   2.0000     -88.990756     -2421.5616
   1   2.0000     -88.986624     -2421.4491
   2   2.0000     -88.970497     -2421.0103
   3   2.0000     -88.965568     -2420.8762
   4   2.0000     -19.270729      -524.3832
   5   2.0000     -19.247298      -523.7456
   6   2.0000     -19.233702      -523.3756
   7   2.0000     -19.233200      -523.3620
   8   2.0000     -19.223438      -523.0963
   9   2.0000     -19.206723      -522.6415
  10   2.0000     -19.202237      -522.5194
  11   2.0000     -19.199086      -522.4337
  12   2.0000     -14.465150      -393.6167
  13   2.0000     -14.464704      -393.6046
  14   2.0000     -14.422756      -392.4631
  15   2.0000     -14.421853      -392.4386
  16   2.0000     -14.419677      -392.3794
  17   2.0000     -14.419043      -392.3621
  18   2.0000     -10.418452      -283.5005
  19   2.0000     -10.406798      -283.1834
  20   2.0000     -10.399207      -282.9768
  21   2.0000     -10.383453      -282.5481
  22   2.0000     -10.382312      -282.5171
  23   2.0000     -10.380165      -282.4587
  24   2.0000     -10.375506      -282.3319
  25   2.0000     -10.354743      -281.7669
  26   2.0000     -10.354289      -281.7545
  27   2.0000     -10.348786      -281.6048
  28   2.0000     -10.348375      -281.5936
  29   2.0000     -10.347181      -281.5611
  30   2.0000     -10.346233      -281.5353
  31   2.0000     -10.345426      -281.5134
  32   2.0000     -10.336900      -281.2813
  33   2.0000     -10.336350      -281.2664
  34   2.0000     -10.336296      -281.2649
  35   2.0000     -10.334855      -281.2257
  36   2.0000     -10.331126      -281.1242
  37   2.0000     -10.329875      -281.0902
  38   2.0000     -10.325167      -280.9621
  39   2.0000     -10.323666      -280.9212
  40   2.0000     -10.323550      -280.9181
  41   2.0000     -10.322021      -280.8765
  42   2.0000     -10.321801      -280.8705
  43   2.0000     -10.316145      -280.7166
  44   2.0000     -10.313781      -280.6523
  45   2.0000     -10.312879      -280.6277
  46   2.0000     -10.312742      -280.6240
  47   2.0000     -10.309780      -280.5434
  48   2.0000     -10.309554      -280.5372
  49   2.0000     -10.307684      -280.4863
  50   2.0000     -10.307649      -280.4854
  51   2.0000     -10.305788      -280.4347
  52   2.0000     -10.305095      -280.4159
  53   2.0000     -10.304669      -280.4043
  54   2.0000     -10.304099      -280.3888
  55   2.0000     -10.303792      -280.3804
  56   2.0000     -10.302620      -280.3486
  57   2.0000     -10.302172      -280.3364
  58   2.0000     -10.301960      -280.3306
  59   2.0000     -10.301644      -280.3220
  60   2.0000     -10.300963      -280.3034
  61   2.0000     -10.296703      -280.1875
  62   2.0000     -10.293097      -280.0894
  63   2.0000     -10.292602      -280.0759
  64   2.0000     -10.292089      -280.0620
  65   2.0000     -10.291603      -280.0487
  66   2.0000     -10.290988      -280.0320
  67   2.0000     -10.290401      -280.0160
  68   2.0000     -10.289907      -280.0026
  69   2.0000     -10.289659      -279.9959
  70   2.0000     -10.289046      -279.9792
  71   2.0000     -10.277305      -279.6597
  72   2.0000     -10.270468      -279.4736
  73   2.0000     -10.268906      -279.4311
  74   2.0000     -10.262686      -279.2619
  75   2.0000      -8.086301      -220.0394
  76   2.0000      -8.078889      -219.8377
  77   2.0000      -8.066939      -219.5126
  78   2.0000      -8.061850      -219.3741
  79   2.0000      -6.055352      -164.7745
  80   2.0000      -6.051175      -164.6608
  81   2.0000      -6.048919      -164.5994
  82   2.0000      -6.048539      -164.5891
  83   2.0000      -6.043797      -164.4601
  84   2.0000      -6.040913      -164.3816
  85   2.0000      -6.036736      -164.2679
  86   2.0000      -6.032407      -164.1501
  87   2.0000      -6.031773      -164.1329
  88   2.0000      -6.027629      -164.0201
  89   2.0000      -6.027212      -164.0088
  90   2.0000      -6.022518      -163.8810
  91   2.0000      -1.195187       -32.5227
  92   2.0000      -1.178666       -32.0731
  93   2.0000      -1.147803       -31.2333
  94   2.0000      -1.146175       -31.1890
  95   2.0000      -1.144136       -31.1335
  96   2.0000      -1.139396       -31.0045
  97   2.0000      -1.136850       -30.9353
  98   2.0000      -1.107142       -30.1269
  99   2.0000      -1.075303       -29.2605
 100   2.0000      -1.067759       -29.0552
 101   2.0000      -1.027434       -27.9579
 102   2.0000      -1.023900       -27.8617
 103   2.0000      -1.023391       -27.8479
 104   2.0000      -1.015653       -27.6373
 105   2.0000      -1.005548       -27.3624
 106   2.0000      -1.003642       -27.3105
 107   2.0000      -0.999171       -27.1888
 108   2.0000      -0.998699       -27.1760
 109   2.0000      -0.978569       -26.6282
 110   2.0000      -0.975815       -26.5533
 111   2.0000      -0.943622       -25.6773
 112   2.0000      -0.938135       -25.5280
 113   2.0000      -0.934916       -25.4404
 114   2.0000      -0.932619       -25.3778
 115   2.0000      -0.926488       -25.2110
 116   2.0000      -0.924308       -25.1517
 117   2.0000      -0.910574       -24.7780
 118   2.0000      -0.903050       -24.5732
 119   2.0000      -0.888271       -24.1711
 120   2.0000      -0.887631       -24.1537
 121   2.0000      -0.884674       -24.0732
 122   2.0000      -0.882261       -24.0075
 123   2.0000      -0.878051       -23.8930
 124   2.0000      -0.861819       -23.4513
 125   2.0000      -0.852338       -23.1933
 126   2.0000      -0.846210       -23.0265
 127   2.0000      -0.838701       -22.8222
 128   2.0000      -0.834356       -22.7040
 129   2.0000      -0.832673       -22.6582
 130   2.0000      -0.827457       -22.5163
 131   2.0000      -0.819015       -22.2865
 132   2.0000      -0.801965       -21.8226
 133   2.0000      -0.789221       -21.4758
 134   2.0000      -0.771465       -20.9926
 135   2.0000      -0.770458       -20.9652
 136   2.0000      -0.767276       -20.8786
 137   2.0000      -0.766946       -20.8696
 138   2.0000      -0.750008       -20.4087
 139   2.0000      -0.737047       -20.0561
 140   2.0000      -0.730862       -19.8878
 141   2.0000      -0.723704       -19.6930
 142   2.0000      -0.715700       -19.4752
 143   2.0000      -0.714117       -19.4321
 144   2.0000      -0.711927       -19.3725
 145   2.0000      -0.708785       -19.2870
 146   2.0000      -0.705513       -19.1980
 147   2.0000      -0.702988       -19.1293
 148   2.0000      -0.696989       -18.9660
 149   2.0000      -0.687692       -18.7130
 150   2.0000      -0.687418       -18.7056
 151   2.0000      -0.678458       -18.4618
 152   2.0000      -0.676936       -18.4204
 153   2.0000      -0.661341       -17.9960
 154   2.0000      -0.659174       -17.9370
 155   2.0000      -0.655998       -17.8506
 156   2.0000      -0.645637       -17.5687
 157   2.0000      -0.638988       -17.3877
 158   2.0000      -0.633818       -17.2471
 159   2.0000      -0.626176       -17.0391
 160   2.0000      -0.622377       -16.9358
 161   2.0000      -0.614982       -16.7345
 162   2.0000      -0.612779       -16.6746
 163   2.0000      -0.612638       -16.6707
 164   2.0000      -0.609895       -16.5961
 165   2.0000      -0.599577       -16.3153
 166   2.0000      -0.597262       -16.2523
 167   2.0000      -0.592209       -16.1148
 168   2.0000      -0.583994       -15.8913
 169   2.0000      -0.578542       -15.7429
 170   2.0000      -0.577116       -15.7041
 171   2.0000      -0.574028       -15.6201
 172   2.0000      -0.566187       -15.4067
 173   2.0000      -0.561347       -15.2750
 174   2.0000      -0.556988       -15.1564
 175   2.0000      -0.556110       -15.1325
 176   2.0000      -0.554411       -15.0863
 177   2.0000      -0.552090       -15.0231
 178   2.0000      -0.551306       -15.0018
 179   2.0000      -0.549964       -14.9653
 180   2.0000      -0.547958       -14.9107
 181   2.0000      -0.547897       -14.9090
 182   2.0000      -0.544748       -14.8234
 183   2.0000      -0.542236       -14.7550
 184   2.0000      -0.540220       -14.7001
 185   2.0000      -0.539406       -14.6780
 186   2.0000      -0.538219       -14.6457
 187   2.0000      -0.535566       -14.5735
 188   2.0000      -0.534193       -14.5361
 189   2.0000      -0.532874       -14.5002
 190   2.0000      -0.527511       -14.3543
 191   2.0000      -0.525816       -14.3082
 192   2.0000      -0.523944       -14.2572
 193   2.0000      -0.522177       -14.2091
 194   2.0000      -0.518497       -14.1090
 195   2.0000      -0.518212       -14.1013
 196   2.0000      -0.516523       -14.0553
 197   2.0000      -0.514172       -13.9913
 198   2.0000      -0.512618       -13.9490
 199   2.0000      -0.511405       -13.9160
 200   2.0000      -0.506862       -13.7924
 201   2.0000      -0.504483       -13.7277
 202   2.0000      -0.503695       -13.7062
 203   2.0000      -0.502325       -13.6690
 204   2.0000      -0.501325       -13.6418
 205   2.0000      -0.497654       -13.5418
 206   2.0000      -0.494059       -13.4440
 207   2.0000      -0.491142       -13.3647
 208   2.0000      -0.488072       -13.2811
 209   2.0000      -0.485092       -13.2000
 210   2.0000      -0.480190       -13.0666
 211   2.0000      -0.475650       -12.9431
 212   2.0000      -0.473935       -12.8964
 213   2.0000      -0.472036       -12.8448
 214   2.0000      -0.470099       -12.7920
 215   2.0000      -0.468673       -12.7533
 216   2.0000      -0.465886       -12.6774
 217   2.0000      -0.462489       -12.5850
 218   2.0000      -0.459347       -12.4995
 219   2.0000      -0.455602       -12.3976
 220   2.0000      -0.454494       -12.3674
 221   2.0000      -0.453499       -12.3403
 222   2.0000      -0.449909       -12.2427
 223   2.0000      -0.449344       -12.2273
 224   2.0000      -0.448898       -12.2151
 225   2.0000      -0.447449       -12.1757
 226   2.0000      -0.447077       -12.1656
 227   2.0000      -0.444548       -12.0968
 228   2.0000      -0.443487       -12.0679
 229   2.0000      -0.441070       -12.0021
 230   2.0000      -0.439558       -11.9610
 231   2.0000      -0.438277       -11.9261
 232   2.0000      -0.436752       -11.8846
 233   2.0000      -0.435110       -11.8400
 234   2.0000      -0.433508       -11.7963
 235   2.0000      -0.432609       -11.7719
 236   2.0000      -0.431699       -11.7471
 237   2.0000      -0.429226       -11.6798
 238   2.0000      -0.427670       -11.6375
 239   2.0000      -0.424896       -11.5620
 240   2.0000      -0.417748       -11.3675
 241   2.0000      -0.415326       -11.3016
 242   2.0000      -0.414909       -11.2903
 243   2.0000      -0.410861       -11.1801
 244   2.0000      -0.410538       -11.1713
 245   2.0000      -0.404299       -11.0015
 246   2.0000      -0.399258       -10.8644
 247   2.0000      -0.392559       -10.6821
 248   2.0000      -0.390417       -10.6238
 249   2.0000      -0.388624       -10.5750
 250   2.0000      -0.381584       -10.3834
 251   2.0000      -0.380289       -10.3482
 252   2.0000      -0.368369       -10.0238
 253   2.0000      -0.361991        -9.8503
 254   2.0000      -0.359286        -9.7767
 255   2.0000      -0.349591        -9.5128
 256   2.0000      -0.347383        -9.4528
 257   2.0000      -0.345194        -9.3932
 258   2.0000      -0.339058        -9.2262
 259   2.0000      -0.334571        -9.1041
 260   2.0000      -0.329398        -8.9634
 261   2.0000      -0.324999        -8.8437
 262   2.0000      -0.324623        -8.8334
 263   2.0000      -0.320664        -8.7257
 264   2.0000      -0.306274        -8.3341
 265   2.0000      -0.305157        -8.3037
 266   2.0000      -0.297628        -8.0989
 267   2.0000      -0.296607        -8.0711
 268   2.0000      -0.294044        -8.0013
 269   2.0000      -0.248976        -6.7750
 270   0.0000      -0.113781        -3.0961
 271   0.0000      -0.096398        -2.6231
 272   0.0000      -0.083246        -2.2652
 273   0.0000      -0.067740        -1.8433
 274   0.0000      -0.063561        -1.7296

MULLIKEN ATOMIC CHARGES
-----------------------
   0 C :    0.330616
   1 C :   -0.353022
   2 C :   -0.183224
   3 N :    0.153815
   4 C :   -0.192788
   5 N :    0.159684
   6 C :    0.050352
   7 C :   -0.001519
   8 C :   -0.082066
   9 C :    0.098048
  10 C :    0.099264
  11 C :   -0.085870
  12 C :   -0.020644
  13 C :    0.039542
  14 C :    0.038198
  15 C :   -0.017874
  16 C :    0.173016
  17 O :   -0.189214
  18 C :   -0.095166
  19 C :   -0.044619
  20 C :   -0.069087
  21 S :    0.209440
  22 C :   -0.156148
  23 C :   -0.014180
  24 C :   -0.025903
  25 S :    0.086490
  26 C :    0.081582
  27 O :   -0.103837
  28 C :    0.098047
  29 O :   -0.148304
  30 S :    0.129126
  31 C :    0.108005
  32 N :   -0.255897
  33 C :    0.096642
  34 C :    0.006467
  35 C :    0.170844
  36 O :   -0.217905
  37 C :   -0.083915
  38 C :   -0.049850
  39 C :    0.146400
  40 O :   -0.190991
  41 N :   -0.255890
  42 C :    0.096856
  43 C :    0.001687
  44 C :    0.148683
  45 C :   -0.030870
  46 C :    0.095664
  47 C :   -0.084695
  48 S :    0.170194
  49 C :   -0.187826
  50 C :    0.186841
  51 O :   -0.183449
  52 O :   -0.144057
  53 C :    0.114260
  54 C :   -0.015446
  55 C :   -0.054320
  56 C :   -0.022508
  57 C :    0.308272
  58 C :   -0.345310
  59 C :   -0.180292
  60 N :    0.152460
  61 C :   -0.187326
  62 N :    0.154967
  63 C :    0.055575
  64 C :    0.004653
  65 C :    0.156178
  66 O :   -0.161815
  67 C :   -0.074687
  68 C :    0.097979
  69 C :    0.098991
  70 C :   -0.085134
  71 C :   -0.019663
  72 C :    0.039530
  73 C :    0.038085
  74 C :   -0.014162
  75 H :   -0.013569
  76 H :   -0.008031
  77 H :   -0.006518
  78 H :   -0.002522
  79 H :   -0.003954
  80 H :   -0.017272
  81 H :    0.031587
  82 H :    0.030097
  83 H :    0.037797
  84 H :    0.026527
  85 H :    0.023403
  86 H :    0.028602
  87 H :    0.047993
  88 H :    0.024677
  89 H :    0.036936
  90 H :    0.030584
  91 H :    0.013970
  92 H :   -0.024672
  93 H :    0.011124
  94 H :    0.185508
  95 H :   -0.000608
  96 H :    0.030843
  97 H :   -0.012545
  98 H :   -0.006009
  99 H :   -0.008119
 100 H :   -0.002406
 101 H :   -0.003859
 102 H :   -0.016544
Sum of atomic charges:   -0.0000000

LOEWDIN ATOMIC CHARGES
----------------------
   0 C :    0.073681
   1 C :   -0.135257
   2 C :   -0.016609
   3 N :   -0.049998
   4 C :   -0.025708
   5 N :   -0.042082
   6 C :   -0.024296
   7 C :   -0.057043
   8 C :    0.034103
   9 C :   -0.008933
  10 C :   -0.004847
  11 C :    0.021011
  12 C :   -0.004432
  13 C :   -0.010787
  14 C :   -0.010687
  15 C :   -0.009178
  16 C :    0.088806
  17 O :   -0.173367
  18 C :   -0.096878
  19 C :    0.047686
  20 C :   -0.203296
  21 S :    0.547432
  22 C :   -0.190655
  23 C :   -0.207806
  24 C :   -0.178370
  25 S :    0.388728
  26 C :   -0.091246
  27 O :   -0.075721
  28 C :   -0.111558
  29 O :   -0.113474
  30 S :    0.437039
  31 C :    0.035187
  32 N :    0.004764
  33 C :    0.030280
  34 C :   -0.062682
  35 C :    0.079193
  36 O :   -0.207020
  37 C :   -0.129566
  38 C :   -0.114725
  39 C :    0.070013
  40 O :   -0.193982
  41 N :    0.003404
  42 C :    0.036915
  43 C :   -0.060081
  44 C :    0.089017
  45 C :   -0.046118
  46 C :    0.019602
  47 C :   -0.167288
  48 S :    0.483552
  49 C :   -0.206205
  50 C :    0.061018
  51 O :   -0.159911
  52 O :   -0.016227
  53 C :   -0.041549
  54 C :   -0.022628
  55 C :    0.075009
  56 C :   -0.062333
  57 C :    0.081327
  58 C :   -0.130837
  59 C :   -0.016725
  60 N :   -0.047616
  61 C :   -0.018475
  62 N :   -0.049663
  63 C :   -0.022071
  64 C :   -0.052748
  65 C :    0.094740
  66 O :   -0.146338
  67 C :    0.039364
  68 C :   -0.006808
  69 C :   -0.003452
  70 C :    0.022036
  71 C :   -0.004464
  72 C :   -0.010617
  73 C :   -0.010481
  74 C :   -0.007724
  75 H :    0.038846
  76 H :    0.039695
  77 H :    0.035794
  78 H :    0.034199
  79 H :    0.033513
  80 H :    0.031908
  81 H :    0.041228
  82 H :    0.018541
  83 H :    0.036011
  84 H :    0.014972
  85 H :    0.031964
  86 H :    0.030291
  87 H :    0.039965
  88 H :    0.023492
  89 H :    0.034952
  90 H :    0.033623
  91 H :    0.021565
  92 H :    0.029664
  93 H :    0.037952
  94 H :    0.089165
  95 H :    0.036308
  96 H :    0.048141
  97 H :    0.039694
  98 H :    0.039708
  99 H :    0.035378
 100 H :    0.034169
 101 H :    0.033486
 102 H :    0.032434

  Mayer bond orders larger than 0.100000
B(  0-C ,  1-C ) :   1.6303 B(  0-C ,  6-C ) :   0.9851 B(  0-C , 18-C ) :   1.0702
B(  1-C ,  2-C ) :   1.1513 B(  1-C ,  4-C ) :   1.1439 B(  2-C ,  3-N ) :   2.9616
B(  4-C ,  5-N ) :   2.9614 B(  6-C ,  7-C ) :   1.2127 B(  6-C , 11-C ) :   1.4536
B(  7-C ,  8-C ) :   1.4627 B(  7-C , 16-C ) :   0.9676 B(  8-C ,  9-C ) :   1.1782
B(  8-C , 75-H ) :   1.0174 B(  9-C , 10-C ) :   1.2558 B(  9-C , 15-C ) :   1.2445
B( 10-C , 11-C ) :   1.2019 B( 10-C , 12-C ) :   1.2410 B( 11-C , 76-H ) :   0.9901
B( 12-C , 13-C ) :   1.4864 B( 12-C , 77-H ) :   0.9979 B( 13-C , 14-C ) :   1.2620
B( 13-C , 78-H ) :   0.9885 B( 14-C , 15-C ) :   1.4872 B( 14-C , 79-H ) :   0.9885
B( 15-C , 80-H ) :   0.9979 B( 16-C , 17-O ) :   2.1034 B( 16-C , 18-C ) :   0.9735
B( 18-C , 19-C ) :   1.5601 B( 19-C , 20-C ) :   1.2431 B( 19-C , 81-H ) :   0.9262
B( 20-C , 21-S ) :   1.0955 B( 20-C , 22-C ) :   0.1098 B( 20-C , 24-C ) :   1.4371
B( 21-S , 22-C ) :   1.1047 B( 22-C , 23-C ) :   1.4936 B( 22-C , 31-C ) :   1.1014
B( 23-C , 24-C ) :   1.3390 B( 23-C , 30-S ) :   1.0086 B( 24-C , 25-S ) :   1.0217
B( 25-S , 26-C ) :   1.0066 B( 25-S , 27-O ) :   0.1187 B( 26-C , 27-O ) :   2.2026
B( 26-C , 28-C ) :   0.7718 B( 28-C , 29-O ) :   2.1331 B( 28-C , 30-S ) :   1.0622
B( 29-O , 30-S ) :   0.1378 B( 31-C , 32-N ) :   1.1943 B( 31-C , 38-C ) :   1.3862
B( 32-N , 33-C ) :   0.9394 B( 32-N , 35-C ) :   1.0548 B( 33-C , 34-C ) :   1.1181
B( 33-C , 82-H ) :   0.9462 B( 33-C , 83-H ) :   0.9295 B( 34-C , 84-H ) :   0.9631
B( 34-C , 85-H ) :   0.9661 B( 34-C , 86-H ) :   0.9636 B( 35-C , 36-O ) :   2.0108
B( 35-C , 37-C ) :   0.9993 B( 36-O , 93-H ) :   0.1185 B( 37-C , 38-C ) :   1.2443
B( 37-C , 44-C ) :   1.3213 B( 38-C , 39-C ) :   0.9708 B( 39-C , 40-O ) :   2.1166
B( 39-C , 41-N ) :   1.0385 B( 41-N , 42-C ) :   0.9406 B( 41-N , 44-C ) :   1.1718
B( 42-C , 43-C ) :   1.1211 B( 42-C , 87-H ) :   0.9272 B( 42-C , 88-H ) :   0.9499
B( 43-C , 89-H ) :   0.9632 B( 43-C , 90-H ) :   0.9679 B( 43-C , 91-H ) :   0.9686
B( 44-C , 45-C ) :   1.1676 B( 45-C , 46-C ) :   1.6291 B( 45-C , 92-H ) :   0.9637
B( 46-C , 47-C ) :   1.1161 B( 46-C , 93-H ) :   0.9343 B( 47-C , 48-S ) :   1.1396
B( 47-C , 54-C ) :   1.4690 B( 48-S , 49-C ) :   1.1476 B( 49-C , 50-C ) :   0.9071
B( 49-C , 53-C ) :   1.5214 B( 50-C , 51-O ) :   2.1574 B( 50-C , 52-O ) :   1.2628
B( 52-O , 94-H ) :   0.9460 B( 53-C , 54-C ) :   1.2732 B( 53-C , 55-C ) :   1.0272
B( 54-C , 95-H ) :   0.9998 B( 55-C , 56-C ) :   1.7434 B( 55-C , 96-H ) :   0.9328
B( 56-C , 57-C ) :   1.0380 B( 56-C , 65-C ) :   0.9115 B( 57-C , 58-C ) :   1.6566
B( 57-C , 63-C ) :   1.0036 B( 58-C , 59-C ) :   1.1385 B( 58-C , 61-C ) :   1.1427
B( 59-C , 60-N ) :   2.9700 B( 61-C , 62-N ) :   2.9741 B( 63-C , 64-C ) :   1.2102
B( 63-C , 70-C ) :   1.4364 B( 64-C , 65-C ) :   0.9505 B( 64-C , 67-C ) :   1.4618
B( 65-C , 66-O ) :   2.2056 B( 67-C , 68-C ) :   1.1840 B( 67-C , 97-H ) :   1.0163
B( 68-C , 69-C ) :   1.2540 B( 68-C , 74-C ) :   1.2421 B( 69-C , 70-C ) :   1.2137
B( 69-C , 71-C ) :   1.2355 B( 70-C , 98-H ) :   0.9905 B( 71-C , 72-C ) :   1.4923
B( 71-C , 99-H ) :   0.9980 B( 72-C , 73-C ) :   1.2573 B( 72-C ,100-H ) :   0.9882
B( 73-C , 74-C ) :   1.4904 B( 73-C ,101-H ) :   0.9887 B( 74-C ,102-H ) :   0.9982

-----------------------------------------------------------------------------
         ABSORPTION SPECTRUM VIA TRANSITION ELECTRIC DIPOLE MOMENTS
-----------------------------------------------------------------------------
State   Energy  Wavelength   fosc         T2         TX        TY        TZ
        (cm-1)    (nm)                  (au**2)     (au)      (au)      (au)
-----------------------------------------------------------------------------
   0   14421.1    693.4   1.164708511  26.58853  -1.33034  -4.83854  -1.18626
   1   20735.1    482.3   0.026143519   0.41508   0.28267   0.06330  -0.57548
   2   21456.8    466.1   0.098895563   1.51736  -0.03143  -1.18640   0.32987
   3   22941.9    435.9   0.128349160   1.84179  -0.35137   0.42739   1.23922
   4   23565.1    424.4   0.277219447   3.87284   0.81750   1.66978   0.64528
   5   25327.3    394.8   0.066706995   0.86708   0.31676   0.82421   0.29567
   6   26012.8    384.4   0.017605412   0.22281   0.23976  -0.33104  -0.23610
   7   26350.7    379.5   0.128086296   1.60025   0.29798  -0.43682  -1.14919
   8   26545.8    376.7   0.044843468   0.55613   0.13760   0.59573   0.42698
   9   26642.4    375.3   0.035380304   0.43718  -0.23322  -0.51041   0.34968
  10   27289.3    366.4   0.007680905   0.09266   0.06066   0.22357   0.19747
  11   27686.6    361.2   0.008416035   0.10007   0.09590   0.26194  -0.14921
  12   27924.0    358.1   0.358365138   4.22498   1.25041   1.55402  -0.49647
  13   28410.7    352.0   0.076162800   0.88254  -0.22644  -0.63129  -0.65783
  14   28586.2    349.8   0.036241646   0.41738  -0.37085  -0.46894   0.24482
  15   28733.8    348.0   0.009002567   0.10315   0.16359   0.01709  -0.27585
  16   28787.7    347.4   0.015772245   0.18037   0.05140   0.38151   0.17938
  17   29950.8    333.9   0.001479282   0.01626  -0.10928  -0.06570  -0.00109
  18   30454.5    328.4   0.030434850   0.32900   0.22970   0.28041   0.44453
  19   30721.8    325.5   0.065329291   0.70006   0.10485  -0.45700  -0.69298
  20   31086.0    321.7   0.101758314   1.07766   0.74692  -0.30906  -0.65135
  21   31446.7    318.0   0.269588288   2.82229   0.40285   1.62916  -0.07647
  22   31876.2    313.7   0.021692801   0.22404   0.20328   0.34802   0.24818
  23   32029.2    312.2   0.032304760   0.33204  -0.21646  -0.45913   0.27274
  24   32063.7    311.9   0.138661859   1.42370   0.36795   0.05636  -1.13364
  25   32405.1    308.6   0.114365479   1.16187  -0.61124  -0.16565   0.87225
  26   32609.3    306.7   0.713862442   7.20690   1.06775  -0.30516  -2.44411
  27   33429.6    299.1   0.004656581   0.04586  -0.05004   0.17122   0.11848
  28   33634.6    297.3   0.106153953   1.03902  -0.47201  -0.85229   0.29971
  29   33842.0    295.5   0.978425972   9.51803  -0.76952  -2.07626   2.14826
  30   34520.9    289.7   0.010595961   0.10105  -0.22329  -0.17500  -0.14341
  31   34602.0    289.0   0.012353529   0.11753  -0.21774  -0.25779   0.06058
  32   34700.1    288.2   0.263185160   2.49693   0.49685   1.49641   0.10407
  33   35062.6    285.2   0.078079149   0.73311   0.24910  -0.50839  -0.64234
  34   35288.3    283.4   0.013169618   0.12286   0.03403   0.33263   0.10516
  35   35491.3    281.8   0.090387916   0.83842  -0.10784  -0.58281  -0.69795
  36   35643.4    280.6   0.114895471   1.06120   0.33511  -0.18934  -0.95554
  37   35846.5    279.0   0.007690699   0.07063   0.02437   0.25142   0.08262
  38   36104.5    277.0   0.143269432   1.30638  -0.99890  -0.54960   0.08074
  39   36355.9    275.1   0.166903480   1.51136  -0.95189  -0.37629   0.68093
  40   36613.0    273.1   0.069141475   0.62170  -0.49549  -0.00781   0.61329
  41   36760.4    272.0   0.004378001   0.03921  -0.15195  -0.11476  -0.05430
  42   36900.9    271.0   0.041950547   0.37426  -0.28227  -0.02753   0.54206
  43   36970.1    270.5   0.090928534   0.80970  -0.14366   0.17059   0.87176
  44   37344.1    267.8   0.001945148   0.01715   0.01071   0.10368   0.07926
  45   38154.3    262.1   0.015453154   0.13334   0.01481  -0.11562  -0.34605
  46   38355.1    260.7   0.044524540   0.38217   0.22606   0.57491  -0.02324
  47   38435.6    260.2   0.093891533   0.80421   0.68868   0.33193  -0.46878
  48   38682.1    258.5   0.278531246   2.37050   0.93517   1.16591  -0.36961
  49   38777.5    257.9   0.142619934   1.21081  -0.43003   0.52273   0.86755
  50   39286.8    254.5   0.007411973   0.06211   0.06488  -0.05744  -0.23367
  51   39340.5    254.2   0.005466795   0.04575  -0.14807  -0.15434   0.00148
  52   39387.4    253.9   0.118278850   0.98861  -0.27113  -0.72344  -0.62589
  53   39793.0    251.3   0.001698946   0.01406   0.04403   0.10514   0.03259
  54   39942.0    250.4   0.006719218   0.05538   0.12064   0.02089  -0.20098

FINAL SINGLE POINT ENERGY     -4707.578277933976

DIPOLE MOMENT
-------------
                                X             Y             Z
Electronic contribution:    -13.50852     -21.68635      25.59081
Nuclear contribution   :     15.41230      22.61667     -30.88344
                        -----------------------------------------
Total Dipole Moment    :      1.90378       0.93032      -5.29262
                        -----------------------------------------
Magnitude (a.u.)       :      5.70103
Magnitude (Debye)      :     14.49087

Rotational constants in cm-1:     0.001751     0.000231     0.000208
Rotational constants in MHz :    52.480177     6.925513     6.246815

                             ****ORCA TERMINATED NORMALLY****
TOTAL RUN TIME: 0 days 0 hours 10 minutes 22 seconds 577 msec
