                         Program Version 4.2.0 -  RELEASE  -
|  1> # ORCA input file
|  2> # SCF done       -194.103373781310          0.002876299045
|  3> ! CAM-B3LYP def2-SVP def2/J RIJCOSX Grid4 TightSCF
|  4> %maxcore 5000
|  5> %tddft
|  6>     Mode sTDDFT
|  7>     Ethresh 5.0
|  8>     maxcore 5000
|  9> end
| 10>
| 11> %pal
| 12>   nprocs 6
| 13>   end
| 14> * xyz 0 1
| 15>    C       -1.76310         7.67451        -0.17665
| 16>    C       -2.61001         6.76202        -0.73397
| 17>    C       -2.40381         6.18084        -2.00137
| 18>    N       -2.24114         5.67285        -3.01739
| 19>    C       -3.81078         6.38608        -0.09113
| 20>    N       -4.81499         6.14557         0.40666
| 21>    C       -0.67808         8.38191        -0.83964
| 22>    C       -0.47577         9.62261        -0.16335
| 23>    C        0.44219        10.53350        -0.60336
| 24>    C        1.23297        10.22383        -1.73149
| 25>    C        1.05823         8.97098        -2.39055
| 26>    C        0.08066         8.05875        -1.93195
| 27>    C        1.87713         8.66410        -3.49560
| 28>    C        2.82635         9.54895        -3.92927
| 29>    C        2.99710        10.78188        -3.28212
| 30>    C        2.21512        11.11423        -2.20931
| 31>    C       -1.34957         9.69393         1.01685
| 32>    O       -1.48693        10.59910         1.80202
| 33>    C       -1.97100         8.32675         1.10922
| 34>    C       -2.37849         7.87056         2.30004
| 35>    C       -2.59539         6.45302         2.76150
| 36>    C       -2.17960         6.41009         4.20267
| 37>    N       -2.97703         6.57104         5.23134
| 38>    S       -2.10288         6.51658         6.59853
| 39>    N       -0.65922         6.27542         5.88871
| 40>    C       -0.82210         6.24152         4.58671
| 41>    C        0.27428         6.03003         3.59556
| 42>    C       -0.33277         5.32175         2.42483
| 43>    C       -1.68762         5.50023         2.04338
| 44>    N       -2.01001         4.76209         1.00539
| 45>    S       -0.71758         3.91939         0.50870
| 46>    N        0.30922         4.48580         1.63888
| 47>    C        0.83258         7.33442         3.10025
| 48>    S        0.54038         8.86385         3.86844
| 49>    C        1.52423         9.75291         2.73122
| 50>    C        2.04354         8.88265         1.78526
| 51>    C        1.63393         7.52391         2.00730
| 52>    N        2.16793         6.74193         1.02769
| 53>    C        2.91712         7.55746         0.20159
| 54>    C        3.56229         7.07010        -0.94211
| 55>    N        4.06714         6.69453        -1.90224
| 56>    C        2.86748         8.86443         0.63137
| 57>    C        1.69519        11.15483         2.93016
| 58>    C        2.46779        11.95450         2.18670
| 59>    C        2.71356        13.41234         2.48662
| 60>    C        4.19354        13.61859         2.63621
| 61>    N        5.00656        13.97412         1.66979
| 62>    S        6.51565        14.09273         2.26421
| 63>    N        6.14975        13.68729         3.79424
| 64>    C        4.86356        13.44849         3.87849
| 65>    C        4.14285        12.99810         5.10932
| 66>    C        2.76982        13.60894         5.03009
| 67>    C        2.10746        13.81859         3.78942
| 68>    N        0.93788        14.39392         3.93484
| 69>    S        0.66664        14.65110         5.51823
| 70>    N        2.06579        14.02770         6.05358
| 71>    C        4.00185        11.50371         5.05921
| 72>    C        3.54077        10.73270         6.05370
| 73>    C        3.23229         9.30533         5.97275
| 74>    C        3.66610         8.43383         5.01383
| 75>    C        3.36325         7.05628         4.99920
| 76>    N        3.16460         5.92779         4.91782
| 77>    C        4.47548         8.77366         3.90828
| 78>    N        5.12026         8.96635         2.97765
| 79>    C        2.40076         8.97993         7.11882
| 80>    C        2.34101        10.11194         7.98413
| 81>    C        3.13058        11.21601         7.41036
| 82>    O        3.41794        12.26799         7.92578
| 83>    C        1.61562        10.09469         9.14051
| 84>    C        0.89266         8.92985         9.48284
| 85>    C        0.94079         7.79825         8.61749
| 86>    C        1.70646         7.83926         7.43199
| 87>    C        0.21012         6.64343         8.96602
| 88>    C       -0.54005         6.61042        10.11017
| 89>    C       -0.58754         7.72499        10.96152
| 90>    C        0.11509         8.85890        10.65589
| 91>    H        0.57088        11.47213        -0.08503
| 92>    H       -0.03721         7.11680        -2.44600
| 93>    H        1.74478         7.71399        -3.99005
| 94>    H        3.45212         9.30144        -4.77283
| 95>    H        3.75097        11.46797        -3.63781
| 96>    H        2.34117        12.06273        -1.70760
| 97>    H       -2.44946         8.61455         3.08695
| 98>    H       -3.64642         6.16921         2.63801
| 99>    H        1.08611         5.43512         4.03550
|100>    H        2.08831         5.73898         0.96937
|101>    H        3.37430         9.68326         0.16464
|102>    H        1.14319        11.56078         3.76772
|103>    H        3.01562        11.56905         1.34095
|104>    H        2.32846        14.02729         1.66652
|105>    H        4.63778        13.30954         6.03194
|106>    H        4.22928        11.05404         4.10175
|107>    H        1.58592        10.96393         9.78054
|108>    H        1.70306         6.97381         6.78971
|109>    H        0.25860         5.78974         8.30733
|110>    H       -1.09759         5.72337        10.36951
|111>    H       -1.18296         7.68048        11.86141
|112>    H        0.08298         9.71920        11.30888
|113> *
|114>
|115>                          ****END OF INPUT****

CARTESIAN COORDINATES (ANGSTROEM)
---------------------------------
  C     -1.763100    7.674510   -0.176650
  C     -2.610010    6.762020   -0.733970
  C     -2.403810    6.180840   -2.001370
  N     -2.241140    5.672850   -3.017390
  C     -3.810780    6.386080   -0.091130
  N     -4.814990    6.145570    0.406660
  C     -0.678080    8.381910   -0.839640
  C     -0.475770    9.622610   -0.163350
  C      0.442190   10.533500   -0.603360
  C      1.232970   10.223830   -1.731490
  C      1.058230    8.970980   -2.390550
  C      0.080660    8.058750   -1.931950
  C      1.877130    8.664100   -3.495600
  C      2.826350    9.548950   -3.929270
  C      2.997100   10.781880   -3.282120
  C      2.215120   11.114230   -2.209310
  C     -1.349570    9.693930    1.016850
  O     -1.486930   10.599100    1.802020
  C     -1.971000    8.326750    1.109220
  C     -2.378490    7.870560    2.300040
  C     -2.595390    6.453020    2.761500
  C     -2.179600    6.410090    4.202670
  N     -2.977030    6.571040    5.231340
  S     -2.102880    6.516580    6.598530
  N     -0.659220    6.275420    5.888710
  C     -0.822100    6.241520    4.586710
  C      0.274280    6.030030    3.595560
  C     -0.332770    5.321750    2.424830
  C     -1.687620    5.500230    2.043380
  N     -2.010010    4.762090    1.005390
  S     -0.717580    3.919390    0.508700
  N      0.309220    4.485800    1.638880
  C      0.832580    7.334420    3.100250
  S      0.540380    8.863850    3.868440
  C      1.524230    9.752910    2.731220
  C      2.043540    8.882650    1.785260
  C      1.633930    7.523910    2.007300
  N      2.167930    6.741930    1.027690
  C      2.917120    7.557460    0.201590
  C      3.562290    7.070100   -0.942110
  N      4.067140    6.694530   -1.902240
  C      2.867480    8.864430    0.631370
  C      1.695190   11.154830    2.930160
  C      2.467790   11.954500    2.186700
  C      2.713560   13.412340    2.486620
  C      4.193540   13.618590    2.636210
  N      5.006560   13.974120    1.669790
  S      6.515650   14.092730    2.264210
  N      6.149750   13.687290    3.794240
  C      4.863560   13.448490    3.878490
  C      4.142850   12.998100    5.109320
  C      2.769820   13.608940    5.030090
  C      2.107460   13.818590    3.789420
  N      0.937880   14.393920    3.934840
  S      0.666640   14.651100    5.518230
  N      2.065790   14.027700    6.053580
  C      4.001850   11.503710    5.059210
  C      3.540770   10.732700    6.053700
  C      3.232290    9.305330    5.972750
  C      3.666100    8.433830    5.013830
  C      3.363250    7.056280    4.999200
  N      3.164600    5.927790    4.917820
  C      4.475480    8.773660    3.908280
  N      5.120260    8.966350    2.977650
  C      2.400760    8.979930    7.118820
  C      2.341010   10.111940    7.984130
  C      3.130580   11.216010    7.410360
  O      3.417940   12.267990    7.925780
  C      1.615620   10.094690    9.140510
  C      0.892660    8.929850    9.482840
  C      0.940790    7.798250    8.617490
  C      1.706460    7.839260    7.431990
  C      0.210120    6.643430    8.966020
  C     -0.540050    6.610420   10.110170
  C     -0.587540    7.724990   10.961520
  C      0.115090    8.858900   10.655890
  H      0.570880   11.472130   -0.085030
  H     -0.037210    7.116800   -2.446000
  H      1.744780    7.713990   -3.990050
  H      3.452120    9.301440   -4.772830
  H      3.750970   11.467970   -3.637810
  H      2.341170   12.062730   -1.707600
  H     -2.449460    8.614550    3.086950
  H     -3.646420    6.169210    2.638010
  H      1.086110    5.435120    4.035500
  H      2.088310    5.738980    0.969370
  H      3.374300    9.683260    0.164640
  H      1.143190   11.560780    3.767720
  H      3.015620   11.569050    1.340950
  H      2.328460   14.027290    1.666520
  H      4.637780   13.309540    6.031940
  H      4.229280   11.054040    4.101750
  H      1.585920   10.963930    9.780540
  H      1.703060    6.973810    6.789710
  H      0.258600    5.789740    8.307330
  H     -1.097590    5.723370   10.369510
  H     -1.182960    7.680480   11.861410
  H      0.082980    9.719200   11.308880

 Total Charge           Charge          ....    0
 Multiplicity           Mult            ....    1
 Number of Electrons    NEL             ....  546
 Basis Dimension        Dim             .... 1194

ORBITAL ENERGIES
----------------

  NO   OCC          E(Eh)            E(eV)
   0   2.0000     -89.027708     -2422.5671
   1   2.0000     -89.025933     -2422.5188
   2   2.0000     -89.012085     -2422.1420
   3   2.0000     -89.011991     -2422.1394
   4   2.0000     -88.978815     -2421.2367
   5   2.0000     -19.224068      -523.1135
   6   2.0000     -19.223140      -523.0882
   7   2.0000     -14.471012      -393.7762
   8   2.0000     -14.458834      -393.4449
   9   2.0000     -14.457713      -393.4144
  10   2.0000     -14.457006      -393.3951
  11   2.0000     -14.454583      -393.3292
  12   2.0000     -14.443086      -393.0164
  13   2.0000     -14.442632      -393.0040
  14   2.0000     -14.441636      -392.9769
  15   2.0000     -14.440772      -392.9534
  16   2.0000     -14.427594      -392.5948
  17   2.0000     -14.424650      -392.5147
  18   2.0000     -14.423563      -392.4851
  19   2.0000     -14.418869      -392.3574
  20   2.0000     -14.415065      -392.2539
  21   2.0000     -10.373433      -282.2754
  22   2.0000     -10.373405      -282.2747
  23   2.0000     -10.351794      -281.6866
  24   2.0000     -10.351259      -281.6721
  25   2.0000     -10.349885      -281.6347
  26   2.0000     -10.349686      -281.6293
  27   2.0000     -10.347631      -281.5734
  28   2.0000     -10.346312      -281.5375
  29   2.0000     -10.345388      -281.5123
  30   2.0000     -10.344865      -281.4981
  31   2.0000     -10.343783      -281.4686
  32   2.0000     -10.334664      -281.2205
  33   2.0000     -10.332431      -281.1598
  34   2.0000     -10.332165      -281.1525
  35   2.0000     -10.331823      -281.1432
  36   2.0000     -10.331358      -281.1305
  37   2.0000     -10.327477      -281.0249
  38   2.0000     -10.327475      -281.0249
  39   2.0000     -10.326999      -281.0119
  40   2.0000     -10.325468      -280.9703
  41   2.0000     -10.325402      -280.9685
  42   2.0000     -10.324500      -280.9439
  43   2.0000     -10.324437      -280.9422
  44   2.0000     -10.319389      -280.8048
  45   2.0000     -10.318466      -280.7797
  46   2.0000     -10.317739      -280.7600
  47   2.0000     -10.316814      -280.7348
  48   2.0000     -10.315315      -280.6940
  49   2.0000     -10.313427      -280.6426
  50   2.0000     -10.309129      -280.5257
  51   2.0000     -10.308332      -280.5040
  52   2.0000     -10.308129      -280.4984
  53   2.0000     -10.307784      -280.4891
  54   2.0000     -10.304663      -280.4041
  55   2.0000     -10.303388      -280.3694
  56   2.0000     -10.302653      -280.3494
  57   2.0000     -10.302147      -280.3357
  58   2.0000     -10.300326      -280.2861
  59   2.0000     -10.299636      -280.2673
  60   2.0000     -10.299037      -280.2510
  61   2.0000     -10.298762      -280.2436
  62   2.0000     -10.297479      -280.2086
  63   2.0000     -10.295556      -280.1563
  64   2.0000     -10.293541      -280.1015
  65   2.0000     -10.293418      -280.0981
  66   2.0000     -10.293295      -280.0948
  67   2.0000     -10.292884      -280.0836
  68   2.0000     -10.292722      -280.0792
  69   2.0000     -10.291785      -280.0537
  70   2.0000     -10.290933      -280.0305
  71   2.0000     -10.289748      -279.9983
  72   2.0000     -10.286852      -279.9195
  73   2.0000     -10.286333      -279.9054
  74   2.0000     -10.284197      -279.8472
  75   2.0000     -10.283559      -279.8299
  76   2.0000      -8.120134      -220.9601
  77   2.0000      -8.118226      -220.9082
  78   2.0000      -8.104963      -220.5473
  79   2.0000      -8.104846      -220.5441
  80   2.0000      -8.071501      -219.6367
  81   2.0000      -6.091881      -165.7685
  82   2.0000      -6.089915      -165.7150
  83   2.0000      -6.084205      -165.5596
  84   2.0000      -6.082209      -165.5053
  85   2.0000      -6.081111      -165.4754
  86   2.0000      -6.079368      -165.4280
  87   2.0000      -6.076653      -165.3541
  88   2.0000      -6.076534      -165.3509
  89   2.0000      -6.069019      -165.1464
  90   2.0000      -6.068835      -165.1414
  91   2.0000      -6.065995      -165.0641
  92   2.0000      -6.065967      -165.0633
  93   2.0000      -6.040933      -164.3821
  94   2.0000      -6.036681      -164.2665
  95   2.0000      -6.034010      -164.1938
  96   2.0000      -1.142833       -31.0981
  97   2.0000      -1.139918       -31.0188
  98   2.0000      -1.138565       -30.9819
  99   2.0000      -1.137227       -30.9455
 100   2.0000      -1.128245       -30.7011
 101   2.0000      -1.122960       -30.5573
 102   2.0000      -1.097827       -29.8734
 103   2.0000      -1.028508       -27.9871
 104   2.0000      -1.024331       -27.8735
 105   2.0000      -1.007094       -27.4044
 106   2.0000      -1.005980       -27.3741
 107   2.0000      -1.004539       -27.3349
 108   2.0000      -1.003118       -27.2962
 109   2.0000      -1.000453       -27.2237
 110   2.0000      -0.997023       -27.1304
 111   2.0000      -0.992136       -26.9974
 112   2.0000      -0.991033       -26.9674
 113   2.0000      -0.989915       -26.9370
 114   2.0000      -0.980584       -26.6830
 115   2.0000      -0.977214       -26.5913
 116   2.0000      -0.976566       -26.5737
 117   2.0000      -0.970571       -26.4106
 118   2.0000      -0.967701       -26.3325
 119   2.0000      -0.931613       -25.3505
 120   2.0000      -0.926777       -25.2189
 121   2.0000      -0.919395       -25.0180
 122   2.0000      -0.911879       -24.8135
 123   2.0000      -0.902932       -24.5700
 124   2.0000      -0.894180       -24.3319
 125   2.0000      -0.887859       -24.1599
 126   2.0000      -0.885355       -24.0917
 127   2.0000      -0.880790       -23.9675
 128   2.0000      -0.880429       -23.9577
 129   2.0000      -0.877180       -23.8693
 130   2.0000      -0.865283       -23.5455
 131   2.0000      -0.855099       -23.2684
 132   2.0000      -0.852813       -23.2062
 133   2.0000      -0.839466       -22.8430
 134   2.0000      -0.835176       -22.7263
 135   2.0000      -0.829939       -22.5838
 136   2.0000      -0.819843       -22.3091
 137   2.0000      -0.807895       -21.9839
 138   2.0000      -0.783301       -21.3147
 139   2.0000      -0.779713       -21.2171
 140   2.0000      -0.773183       -21.0394
 141   2.0000      -0.769361       -20.9354
 142   2.0000      -0.761887       -20.7320
 143   2.0000      -0.746801       -20.3215
 144   2.0000      -0.734044       -19.9744
 145   2.0000      -0.725785       -19.7496
 146   2.0000      -0.718586       -19.5537
 147   2.0000      -0.712007       -19.3747
 148   2.0000      -0.710785       -19.3414
 149   2.0000      -0.704952       -19.1827
 150   2.0000      -0.703170       -19.1342
 151   2.0000      -0.701303       -19.0834
 152   2.0000      -0.699310       -19.0292
 153   2.0000      -0.693322       -18.8663
 154   2.0000      -0.690191       -18.7811
 155   2.0000      -0.687320       -18.7029
 156   2.0000      -0.685450       -18.6520
 157   2.0000      -0.681616       -18.5477
 158   2.0000      -0.680656       -18.5216
 159   2.0000      -0.674345       -18.3499
 160   2.0000      -0.658594       -17.9213
 161   2.0000      -0.646658       -17.5965
 162   2.0000      -0.644643       -17.5416
 163   2.0000      -0.637510       -17.3475
 164   2.0000      -0.633224       -17.2309
 165   2.0000      -0.630249       -17.1500
 166   2.0000      -0.627215       -17.0674
 167   2.0000      -0.622835       -16.9482
 168   2.0000      -0.613871       -16.7043
 169   2.0000      -0.612061       -16.6550
 170   2.0000      -0.607973       -16.5438
 171   2.0000      -0.600236       -16.3333
 172   2.0000      -0.597850       -16.2683
 173   2.0000      -0.595581       -16.2066
 174   2.0000      -0.589431       -16.0392
 175   2.0000      -0.577558       -15.7162
 176   2.0000      -0.573152       -15.5963
 177   2.0000      -0.565410       -15.3856
 178   2.0000      -0.564558       -15.3624
 179   2.0000      -0.561209       -15.2713
 180   2.0000      -0.559858       -15.2345
 181   2.0000      -0.557211       -15.1625
 182   2.0000      -0.552979       -15.0473
 183   2.0000      -0.552046       -15.0219
 184   2.0000      -0.549134       -14.9427
 185   2.0000      -0.548824       -14.9343
 186   2.0000      -0.547777       -14.9058
 187   2.0000      -0.546168       -14.8620
 188   2.0000      -0.543509       -14.7896
 189   2.0000      -0.539690       -14.6857
 190   2.0000      -0.538456       -14.6521
 191   2.0000      -0.536781       -14.6066
 192   2.0000      -0.532403       -14.4874
 193   2.0000      -0.528994       -14.3947
 194   2.0000      -0.528298       -14.3757
 195   2.0000      -0.526573       -14.3288
 196   2.0000      -0.523799       -14.2533
 197   2.0000      -0.522484       -14.2175
 198   2.0000      -0.520222       -14.1560
 199   2.0000      -0.519159       -14.1270
 200   2.0000      -0.516293       -14.0490
 201   2.0000      -0.513350       -13.9690
 202   2.0000      -0.512053       -13.9337
 203   2.0000      -0.509028       -13.8514
 204   2.0000      -0.506046       -13.7702
 205   2.0000      -0.503225       -13.6935
 206   2.0000      -0.498396       -13.5621
 207   2.0000      -0.496717       -13.5164
 208   2.0000      -0.493461       -13.4277
 209   2.0000      -0.491547       -13.3757
 210   2.0000      -0.489299       -13.3145
 211   2.0000      -0.484820       -13.1926
 212   2.0000      -0.481741       -13.1088
 213   2.0000      -0.475261       -12.9325
 214   2.0000      -0.473654       -12.8888
 215   2.0000      -0.470310       -12.7978
 216   2.0000      -0.468713       -12.7543
 217   2.0000      -0.467395       -12.7185
 218   2.0000      -0.462720       -12.5913
 219   2.0000      -0.459858       -12.5134
 220   2.0000      -0.457178       -12.4404
 221   2.0000      -0.454885       -12.3780
 222   2.0000      -0.454054       -12.3554
 223   2.0000      -0.452088       -12.3019
 224   2.0000      -0.448595       -12.2069
 225   2.0000      -0.447925       -12.1887
 226   2.0000      -0.446926       -12.1615
 227   2.0000      -0.445445       -12.1212
 228   2.0000      -0.442940       -12.0530
 229   2.0000      -0.442499       -12.0410
 230   2.0000      -0.441297       -12.0083
 231   2.0000      -0.438315       -11.9272
 232   2.0000      -0.435986       -11.8638
 233   2.0000      -0.434791       -11.8313
 234   2.0000      -0.433894       -11.8068
 235   2.0000      -0.428197       -11.6518
 236   2.0000      -0.427686       -11.6379
 237   2.0000      -0.424529       -11.5520
 238   2.0000      -0.422737       -11.5033
 239   2.0000      -0.420157       -11.4330
 240   2.0000      -0.419177       -11.4064
 241   2.0000      -0.418017       -11.3748
 242   2.0000      -0.412924       -11.2362
 243   2.0000      -0.411645       -11.2014
 244   2.0000      -0.406366       -11.0578
 245   2.0000      -0.406060       -11.0495
 246   2.0000      -0.401478       -10.9248
 247   2.0000      -0.398527       -10.8445
 248   2.0000      -0.397265       -10.8101
 249   2.0000      -0.392373       -10.6770
 250   2.0000      -0.386876       -10.5274
 251   2.0000      -0.385516       -10.4904
 252   2.0000      -0.380453       -10.3527
 253   2.0000      -0.379813       -10.3352
 254   2.0000      -0.376663       -10.2495
 255   2.0000      -0.376059       -10.2331
 256   2.0000      -0.370489       -10.0815
 257   2.0000      -0.365746        -9.9525
 258   2.0000      -0.359247        -9.7756
 259   2.0000      -0.351378        -9.5615
 260   2.0000      -0.349674        -9.5151
 261   2.0000      -0.347035        -9.4433
 262   2.0000      -0.345073        -9.3899
 263   2.0000      -0.342285        -9.3141
 264   2.0000      -0.338567        -9.2129
 265   2.0000      -0.334560        -9.1038
 266   2.0000      -0.332737        -9.0542
 267   2.0000      -0.324293        -8.8245
 268   2.0000      -0.318944        -8.6789
 269   2.0000      -0.306389        -8.3373
 270   2.0000      -0.300584        -8.1793
 271   2.0000      -0.293238        -7.9794
 272   2.0000      -0.259666        -7.0659
 273   0.0000      -0.093662        -2.5487
 274   0.0000      -0.085521        -2.3272
 275   0.0000      -0.062828        -1.7096
 276   0.0000      -0.061433        -1.6717
 277   0.0000      -0.055221        -1.5026

MULLIKEN ATOMIC CHARGES
-----------------------
   0 C :    0.226668
   1 C :   -0.315129
   2 C :   -0.191781
   3 N :    0.172231
   4 C :   -0.143012
   5 N :    0.149815
   6 C :    0.053903
   7 C :    0.029433
   8 C :   -0.088024
   9 C :    0.095059
  10 C :    0.086716
  11 C :   -0.085752
  12 C :    0.001873
  13 C :    0.043076
  14 C :    0.034760
  15 C :   -0.027725
  16 C :    0.153603
  17 O :   -0.134590
  18 C :   -0.065800
  19 C :   -0.046403
  20 C :    0.290842
  21 C :   -0.123988
  22 N :   -0.238708
  23 S :    0.459017
  24 N :   -0.268354
  25 C :   -0.156872
  26 C :    0.413228
  27 C :   -0.107030
  28 C :   -0.116025
  29 N :   -0.264125
  30 S :    0.485787
  31 N :   -0.305204
  32 C :   -0.369832
  33 S :    0.146146
  34 C :   -0.240680
  35 C :    0.208379
  36 C :    0.142189
  37 N :   -0.040192
  38 C :   -0.103618
  39 C :   -0.142379
  40 N :    0.171000
  41 C :   -0.017788
  42 C :    0.173876
  43 C :   -0.169703
  44 C :    0.344685
  45 C :   -0.114135
  46 N :   -0.273206
  47 S :    0.459467
  48 N :   -0.246499
  49 C :   -0.102430
  50 C :    0.234685
  51 C :   -0.085705
  52 C :   -0.176968
  53 N :   -0.247875
  54 S :    0.452494
  55 N :   -0.235556
  56 C :   -0.114527
  57 C :   -0.040011
  58 C :    0.341833
  59 C :   -0.365432
  60 C :   -0.159150
  61 N :    0.143200
  62 C :   -0.181067
  63 N :    0.161035
  64 C :    0.055704
  65 C :   -0.001770
  66 C :    0.143737
  67 O :   -0.112782
  68 C :   -0.087050
  69 C :    0.105239
  70 C :    0.084160
  71 C :   -0.078332
  72 C :   -0.035599
  73 C :    0.035352
  74 C :    0.039626
  75 C :   -0.019934
  76 H :   -0.014181
  77 H :   -0.008563
  78 H :   -0.008814
  79 H :   -0.000506
  80 H :   -0.002926
  81 H :   -0.018618
  82 H :    0.039673
  83 H :    0.059108
  84 H :    0.044674
  85 H :    0.130716
  86 H :   -0.012306
  87 H :   -0.002308
  88 H :   -0.005781
  89 H :    0.022243
  90 H :    0.049465
  91 H :    0.060353
  92 H :   -0.008936
  93 H :    0.000371
  94 H :   -0.001340
  95 H :   -0.004357
  96 H :   -0.002289
  97 H :   -0.013755
Sum of atomic charges:   -0.0000000

LOEWDIN ATOMIC CHARGES
----------------------
   0 C :    0.056734
   1 C :   -0.119550
   2 C :   -0.021347
   3 N :   -0.040917
   4 C :   -0.015006
   5 N :   -0.049569
   6 C :   -0.022477
   7 C :   -0.057237
   8 C :    0.037908
   9 C :   -0.010321
  10 C :   -0.005669
  11 C :    0.014537
  12 C :    0.003484
  13 C :   -0.005882
  14 C :   -0.009472
  15 C :   -0.018526
  16 C :    0.089262
  17 O :   -0.131606
  18 C :   -0.068748
  19 C :    0.065927
  20 C :   -0.024977
  21 C :   -0.049273
  22 N :   -0.256861
  23 S :    0.600765
  24 N :   -0.256979
  25 C :   -0.058886
  26 C :   -0.028912
  27 C :   -0.038167
  28 C :   -0.043996
  29 N :   -0.239298
  30 S :    0.600671
  31 N :   -0.278066
  32 C :   -0.219773
  33 S :    0.480522
  34 C :   -0.188951
  35 C :   -0.057812
  36 C :   -0.011912
  37 N :    0.065459
  38 C :   -0.018461
  39 C :   -0.036506
  40 N :   -0.040700
  41 C :   -0.024360
  42 C :   -0.034057
  43 C :   -0.027669
  44 C :   -0.020435
  45 C :   -0.051560
  46 N :   -0.270564
  47 S :    0.588329
  48 N :   -0.259303
  49 C :   -0.055107
  50 C :   -0.021613
  51 C :   -0.051357
  52 C :   -0.053663
  53 N :   -0.261839
  54 S :    0.584334
  55 N :   -0.253084
  56 C :    0.086278
  57 C :   -0.077637
  58 C :    0.080073
  59 C :   -0.138362
  60 C :   -0.002457
  61 N :   -0.059026
  62 C :   -0.017139
  63 N :   -0.049237
  64 C :   -0.031664
  65 C :   -0.055147
  66 C :    0.080787
  67 O :   -0.113470
  68 C :    0.031669
  69 C :   -0.006002
  70 C :   -0.007314
  71 C :    0.027807
  72 C :   -0.016755
  73 C :   -0.015819
  74 C :   -0.010492
  75 C :   -0.008032
  76 H :    0.037935
  77 H :    0.038271
  78 H :    0.035996
  79 H :    0.035826
  80 H :    0.034180
  81 H :    0.030441
  82 H :    0.040689
  83 H :    0.071509
  84 H :    0.056833
  85 H :    0.082677
  86 H :    0.032813
  87 H :    0.029999
  88 H :    0.026932
  89 H :    0.056765
  90 H :    0.067287
  91 H :    0.040051
  92 H :    0.040360
  93 H :    0.035922
  94 H :    0.029818
  95 H :    0.033053
  96 H :    0.033984
  97 H :    0.033136

  Mayer bond orders larger than 0.100000
B(  0-C ,  1-C ) :   1.7254 B(  0-C ,  6-C ) :   1.0018 B(  0-C , 18-C ) :   0.9743
B(  1-C ,  2-C ) :   1.1456 B(  1-C ,  4-C ) :   1.1195 B(  2-C ,  3-N ) :   3.0035
B(  4-C ,  5-N ) :   2.9809 B(  6-C ,  7-C ) :   1.2131 B(  6-C , 11-C ) :   1.4434
B(  7-C ,  8-C ) :   1.4622 B(  7-C , 16-C ) :   0.9285 B(  8-C ,  9-C ) :   1.1750
B(  8-C , 76-H ) :   1.0183 B(  9-C , 10-C ) :   1.2564 B(  9-C , 15-C ) :   1.2475
B( 10-C , 11-C ) :   1.2000 B( 10-C , 12-C ) :   1.2416 B( 11-C , 77-H ) :   1.0020
B( 12-C , 13-C ) :   1.4837 B( 12-C , 78-H ) :   0.9983 B( 13-C , 14-C ) :   1.2559
B( 13-C , 79-H ) :   0.9904 B( 14-C , 15-C ) :   1.4766 B( 14-C , 80-H ) :   0.9915
B( 15-C , 81-H ) :   1.0011 B( 16-C , 17-O ) :   2.2569 B( 16-C , 18-C ) :   0.9234
B( 18-C , 19-C ) :   1.8148 B( 19-C , 20-C ) :   1.0445 B( 19-C , 82-H ) :   0.9321
B( 20-C , 21-C ) :   0.9868 B( 20-C , 28-C ) :   0.9845 B( 20-C , 83-H ) :   0.7973
B( 21-C , 22-N ) :   1.7060 B( 21-C , 25-C ) :   1.2049 B( 22-N , 23-S ) :   1.2136
B( 22-N , 24-N ) :   0.1184 B( 23-S , 24-N ) :   1.1891 B( 24-N , 25-C ) :   1.6807
B( 25-C , 26-C ) :   0.9466 B( 26-C , 27-C ) :   0.9955 B( 26-C , 32-C ) :   1.0160
B( 26-C , 84-H ) :   0.8074 B( 27-C , 28-C ) :   1.2110 B( 27-C , 31-N ) :   1.6441
B( 28-C , 29-N ) :   1.6587 B( 29-N , 30-S ) :   1.2090 B( 29-N , 31-N ) :   0.1161
B( 30-S , 31-N ) :   1.1786 B( 32-C , 33-S ) :   1.1240 B( 32-C , 34-C ) :   0.1256
B( 32-C , 36-C ) :   1.4714 B( 33-S , 34-C ) :   1.1543 B( 34-C , 35-C ) :   1.3111
B( 34-C , 42-C ) :   1.1091 B( 35-C , 36-C ) :   1.2278 B( 35-C , 41-C ) :   1.1505
B( 36-C , 37-N ) :   1.1813 B( 37-N , 38-C ) :   1.1904 B( 37-N , 85-H ) :   0.9117
B( 38-C , 39-C ) :   1.0645 B( 38-C , 41-C ) :   1.6066 B( 39-C , 40-N ) :   3.0291
B( 41-C , 86-H ) :   0.9997 B( 42-C , 43-C ) :   1.7726 B( 42-C , 87-H ) :   0.9224
B( 43-C , 44-C ) :   1.0270 B( 43-C , 88-H ) :   0.9789 B( 44-C , 45-C ) :   0.9660
B( 44-C , 52-C ) :   0.9752 B( 44-C , 89-H ) :   0.8252 B( 45-C , 46-N ) :   1.6834
B( 45-C , 49-C ) :   1.2049 B( 46-N , 47-S ) :   1.2018 B( 46-N , 48-N ) :   0.1177
B( 47-S , 48-N ) :   1.2065 B( 48-N , 49-C ) :   1.7162 B( 49-C , 50-C ) :   0.9584
B( 50-C , 51-C ) :   1.0040 B( 50-C , 56-C ) :   1.0456 B( 50-C , 90-H ) :   0.8577
B( 51-C , 52-C ) :   1.1955 B( 51-C , 55-N ) :   1.6920 B( 52-C , 53-N ) :   1.7046
B( 53-N , 54-S ) :   1.1975 B( 53-N , 55-N ) :   0.1180 B( 54-S , 55-N ) :   1.2045
B( 56-C , 57-C ) :   1.7857 B( 56-C , 91-H ) :   0.9230 B( 57-C , 58-C ) :   1.0261
B( 57-C , 66-C ) :   0.9009 B( 58-C , 59-C ) :   1.6535 B( 58-C , 64-C ) :   1.0005
B( 59-C , 60-C ) :   1.1562 B( 59-C , 62-C ) :   1.1497 B( 60-C , 61-N ) :   2.9030
B( 62-C , 63-N ) :   2.9379 B( 64-C , 65-C ) :   1.2107 B( 64-C , 71-C ) :   1.4217
B( 65-C , 66-C ) :   0.9292 B( 65-C , 68-C ) :   1.4710 B( 66-C , 67-O ) :   2.2616
B( 68-C , 69-C ) :   1.1823 B( 68-C , 92-H ) :   1.0166 B( 69-C , 70-C ) :   1.2533
B( 69-C , 75-C ) :   1.2407 B( 70-C , 71-C ) :   1.2210 B( 70-C , 72-C ) :   1.2406
B( 71-C , 93-H ) :   0.9904 B( 72-C , 73-C ) :   1.4781 B( 72-C , 94-H ) :   0.9913
B( 73-C , 74-C ) :   1.2561 B( 73-C , 95-H ) :   0.9905 B( 74-C , 75-C ) :   1.4897
B( 74-C , 96-H ) :   0.9891 B( 75-C , 97-H ) :   0.9974

-----------------------------------------------------------------------------
         ABSORPTION SPECTRUM VIA TRANSITION ELECTRIC DIPOLE MOMENTS
-----------------------------------------------------------------------------
State   Energy  Wavelength   fosc         T2         TX        TY        TZ
        (cm-1)    (nm)                  (au**2)     (au)      (au)      (au)
-----------------------------------------------------------------------------
   0   17443.7    573.3   0.004949238   0.09341  -0.13990   0.17945  -0.20403
   1   19720.8    507.1   0.005011345   0.08366  -0.10242   0.09942  -0.25156
   2   23371.4    427.9   0.003533952   0.04978  -0.13560   0.15761  -0.08093
   3   26479.0    377.7   0.173078232   2.15187  -0.31624  -1.36571  -0.43209
   4   26978.0    370.7   0.024367926   0.29736  -0.54409   0.02020   0.03025
   5   27188.8    367.8   0.052333470   0.63367   0.07542   0.78660   0.09613
   6   27368.2    365.4   0.103630718   1.24657   0.66762   0.57545  -0.68536
   7   27706.2    360.9   0.026246633   0.31187  -0.42607  -0.02385   0.36023
   8   29299.3    341.3   0.042595667   0.47861   0.57456   0.37403  -0.09269
   9   29443.1    339.6   0.001920549   0.02147  -0.06416   0.09826   0.08777
  10   29858.9    334.9   0.104355400   1.15058  -0.18263   0.93213   0.49836
  11   30190.4    331.2   0.070358375   0.76722  -0.41067  -0.59643   0.49279
  12   30370.3    329.3   0.078491491   0.85084   0.42113  -0.16555  -0.80380
  13   31148.6    321.0   0.101223977   1.06985  -0.62532  -0.80268   0.18580
  14   32001.0    312.5   0.003314384   0.03410  -0.03733   0.06879   0.16725
  15   32928.3    303.7   0.011304223   0.11302   0.32483   0.07007  -0.05095
  16   33294.8    300.3   0.110101592   1.08866   0.78054   0.63620   0.27325
  17   33397.0    299.4   0.056263474   0.55462  -0.35602  -0.57560   0.31073
  18   33523.2    298.3   0.061908751   0.60797   0.34108  -0.30862  -0.62960
  19   33937.8    294.7   0.020593536   0.19977  -0.08011   0.41209   0.15339
  20   34121.1    293.1   0.273717365   2.64092   0.61847  -1.21745  -0.88104
  21   34243.9    292.0   0.228039334   2.19231   1.02361   0.98851   0.40911
  22   34818.4    287.2   0.500062504   4.72815  -1.06324  -0.88264   1.67887
  23   35036.8    285.4   0.049308968   0.46332   0.30137   0.16748  -0.58689
  24   35137.3    284.6   0.245358696   2.29884  -1.02015  -0.71582   0.86356
  25   35517.5    281.6   0.028392433   0.26317  -0.27184  -0.27340   0.33841
  26   36050.4    277.4   0.043016162   0.39282   0.36385   0.47982  -0.17381
  27   36107.0    277.0   0.221976862   2.02392   1.06618   0.10576  -0.93595
  28   36425.8    274.5   0.089178734   0.80599  -0.57017  -0.09932   0.68632
  29   36770.5    272.0   0.058626075   0.52489   0.26171   0.60897  -0.29249
  30   37148.9    269.2   0.036004177   0.31907   0.07226   0.54433   0.13248
  31   37198.6    268.8   0.001461806   0.01294  -0.08205   0.01727   0.07685
  32   37298.4    268.1   0.026894919   0.23739   0.15957  -0.02109  -0.45987
  33   37449.9    267.0   0.018774011   0.16504   0.24514  -0.01164  -0.32374
  34   37646.0    265.6   0.146280956   1.27922   1.03844   0.33546  -0.29719
  35   38215.8    261.7   0.045608417   0.39290  -0.56090  -0.18961   0.20574
  36   38254.1    261.4   0.049278844   0.42409  -0.24933  -0.16519   0.57848
  37   38493.5    259.8   0.018862597   0.16132  -0.00019  -0.06801   0.39585
  38   38628.5    258.9   0.002205319   0.01879   0.05748  -0.03068   0.12062
  39   38683.7    258.5   0.034988876   0.29777  -0.06121  -0.35550   0.40944
  40   39026.4    256.2   0.018229735   0.15378  -0.06106   0.38705   0.01554
  41   39285.5    254.5   0.007019693   0.05882  -0.11836   0.15897  -0.13981
  42   39679.2    252.0   0.010221922   0.08481  -0.22434  -0.17179  -0.07049
  43   39772.8    251.4   0.053436262   0.44231  -0.56310  -0.15597   0.31764
  44   39840.3    251.0   0.011594173   0.09581   0.20000  -0.05552  -0.22962
  45   40326.8    248.0   0.033410288   0.27275   0.13340  -0.20300  -0.46232

FINAL SINGLE POINT ENERGY     -5012.451134332286

DIPOLE MOMENT
-------------
                                X             Y             Z
Electronic contribution:     -3.99158      -2.42492       0.56450
Nuclear contribution   :      4.09430       3.04842       1.54098
                        -----------------------------------------
Total Dipole Moment    :      0.10272       0.62350       2.10547
                        -----------------------------------------
Magnitude (a.u.)       :      2.19825
Magnitude (Debye)      :      5.58752

Rotational constants in cm-1:     0.001163     0.000952     0.000648
Rotational constants in MHz :    34.857691    28.526256    19.411952

                             ****ORCA TERMINATED NORMALLY****
TOTAL RUN TIME: 0 days 0 hours 13 minutes 2 seconds 378 msec
