                         Program Version 4.2.0 -  RELEASE  -
|  1> # ORCA input file
|  2> # SCF done       -203.373202573213          0.000576440546
|  3> ! CAM-B3LYP def2-SVP def2/J RIJCOSX Grid4 TightSCF
|  4> %maxcore 5000
|  5> %tddft
|  6>     Mode sTDDFT
|  7>     Ethresh 5.0
|  8>     maxcore 5000
|  9> end
| 10>
| 11> %pal
| 12>   nprocs 6
| 13>   end
| 14> * xyz 0 1
| 15>    C       -1.93240         1.90971        -4.04086
| 16>    C       -3.17176         2.24468        -3.56866
| 17>    C       -4.32305         1.45058        -3.75633
| 18>    N       -5.28794         0.84390        -3.88544
| 19>    C       -3.41687         3.38000        -2.77043
| 20>    N       -3.64949         4.26837        -2.08070
| 21>    C       -1.55581         0.64651        -4.65488
| 22>    C       -0.13693         0.50466        -4.58236
| 23>    C        0.49557        -0.61217        -5.04980
| 24>    C       -0.27230        -1.64959        -5.62394
| 25>    C       -1.68773        -1.50394        -5.71757
| 26>    C       -2.31711        -0.33878        -5.22441
| 27>    C       -2.44010        -2.54415        -6.30033
| 28>    C       -1.82750        -3.67658        -6.76363
| 29>    C       -0.43502        -3.82052        -6.66798
| 30>    C        0.32588        -2.82870        -6.11099
| 31>    C        0.44560         1.70651        -3.96855
| 32>    O        1.59586         1.93188        -3.67602
| 33>    C       -0.70392         2.65202        -3.81516
| 34>    C       -0.47569         3.97012        -3.63566
| 35>    C       -1.39004         5.06485        -3.76819
| 36>    C       -2.24975         5.37808        -4.79953
| 37>    N       -2.51010         4.65518        -5.98131
| 38>    O       -2.03998         3.53314        -6.09936
| 39>    O       -3.19833         5.19643        -6.82528
| 40>    C       -2.85290         6.67204        -4.55357
| 41>    C       -2.35080         7.17165        -3.40631
| 42>    C       -1.41703         6.21841        -2.85026
| 43>    C       -0.78817         6.26628        -1.63225
| 44>    C       -0.37902         5.12778        -0.85863
| 45>    C       -0.13226         5.52874         0.41475
| 46>    C       -0.27401         6.95790         0.49033
| 47>    N       -0.00332         7.68209         1.66792
| 48>    O       -0.09928         8.89898         1.64187
| 49>    O        0.31213         7.04232         2.65374
| 50>    C       -0.62773         7.45317        -0.75808
| 51>    C       -0.67045         8.80869        -1.14379
| 52>    C       -0.50085         9.26046        -2.41870
| 53>    C       -0.56627        10.62251        -2.77937
| 54>    S       -0.81570        11.87905        -1.59985
| 55>    C       -0.76598        13.12863        -2.81344
| 56>    C       -0.57382        12.57492        -4.08289
| 57>    C       -0.45308        11.16157        -4.05910
| 58>    C       -0.19138        10.36612        -5.26682
| 59>    O       -0.23661         9.15585        -5.30258
| 60>    C        0.18604        11.19912        -6.46944
| 61>    C       -0.64505        12.47276        -6.57656
| 62>    C       -0.56720        13.32523        -5.33283
| 63>    O       -0.53920        14.53812        -5.39001
| 64>    C       -0.94059        14.46802        -2.37873
| 65>    S       -0.78929        15.89016        -3.37573
| 66>    C       -1.11925        16.92296        -2.02356
| 67>    C       -1.34403        16.17895        -0.85585
| 68>    C       -1.23658        14.80662        -1.06409
| 69>    C       -1.64724        16.76287         0.38804
| 70>    N       -1.89660        17.23907         1.40040
| 71>    C       -1.15661        18.33397        -2.10805
| 72>    C       -0.94079        19.04437        -3.24793
| 73>    C       -0.98373        20.45799        -3.24978
| 74>    C       -0.77415        21.24736        -4.34350
| 75>    C       -0.80345        22.69943        -4.38819
| 76>    C       -1.02885        23.55225        -3.33882
| 77>    C       -1.03936        24.95931        -3.45055
| 78>    N       -1.06217        26.10687        -3.46733
| 79>    C       -1.27823        23.17332        -2.00272
| 80>    N       -1.48661        22.95484        -0.89481
| 81>    C       -0.54068        23.10728        -5.76377
| 82>    C       -0.34437        21.94134        -6.55778
| 83>    C       -0.47652        20.74282        -5.71391
| 84>    O       -0.36511        19.58915        -6.06974
| 85>    C       -0.07770        22.01408        -7.89492
| 86>    C        0.00670        23.28130        -8.51307
| 87>    C       -0.18898        24.45330        -7.72641
| 88>    C       -0.46374        24.34637        -6.34407
| 89>    C       -0.10296        25.71369        -8.35234
| 90>    C        0.16358        25.81351        -9.69069
| 91>    C        0.35608        24.65893       -10.46430
| 92>    C        0.27934        23.41988        -9.88822
| 93>    H        1.56948        -0.70406        -4.98204
| 94>    H       -3.38760        -0.24556        -5.31927
| 95>    H       -3.51176        -2.42980        -6.36943
| 96>    H       -2.41266        -4.46860        -7.20622
| 97>    H        0.03158        -4.72090        -7.03849
| 98>    H        1.39824        -2.93403        -6.03562
| 99>    H        0.54997         4.23983        -3.39528
|100>    H       -3.58537         7.10811        -5.20489
|101>    H       -2.65927         8.07203        -2.91464
|102>    H       -0.40621         4.11435        -1.20651
|103>    H        0.12976         4.91603         1.25677
|104>    H       -0.76444         9.52908        -0.33870
|105>    H       -0.28866         8.57528        -3.22791
|106>    H        0.07964        10.58838        -7.36711
|107>    H        1.24442        11.45845        -6.36467
|108>    H       -1.69837        12.21202        -6.72225
|109>    H       -0.33067        13.07391        -7.43094
|110>    H       -1.37403        14.07763        -0.28406
|111>    H       -1.37006        18.85994        -1.18346
|112>    H       -0.72929        18.53221        -4.17637
|113>    H       -1.19978        20.92817        -2.29865
|114>    H        0.06710        21.11372        -8.47343
|115>    H       -0.60697        25.25324        -5.77878
|116>    H       -0.25182        26.59947        -7.75244
|117>    H        0.22764        26.78322       -10.16099
|118>    H        0.56548        24.75647       -11.51900
|119>    H        0.42664        22.52755       -10.47885
|120> *
|121>
|122>                          ****END OF INPUT****

CARTESIAN COORDINATES (ANGSTROEM)
---------------------------------
  C     -1.932400    1.909710   -4.040860
  C     -3.171760    2.244680   -3.568660
  C     -4.323050    1.450580   -3.756330
  N     -5.287940    0.843900   -3.885440
  C     -3.416870    3.380000   -2.770430
  N     -3.649490    4.268370   -2.080700
  C     -1.555810    0.646510   -4.654880
  C     -0.136930    0.504660   -4.582360
  C      0.495570   -0.612170   -5.049800
  C     -0.272300   -1.649590   -5.623940
  C     -1.687730   -1.503940   -5.717570
  C     -2.317110   -0.338780   -5.224410
  C     -2.440100   -2.544150   -6.300330
  C     -1.827500   -3.676580   -6.763630
  C     -0.435020   -3.820520   -6.667980
  C      0.325880   -2.828700   -6.110990
  C      0.445600    1.706510   -3.968550
  O      1.595860    1.931880   -3.676020
  C     -0.703920    2.652020   -3.815160
  C     -0.475690    3.970120   -3.635660
  C     -1.390040    5.064850   -3.768190
  C     -2.249750    5.378080   -4.799530
  N     -2.510100    4.655180   -5.981310
  O     -2.039980    3.533140   -6.099360
  O     -3.198330    5.196430   -6.825280
  C     -2.852900    6.672040   -4.553570
  C     -2.350800    7.171650   -3.406310
  C     -1.417030    6.218410   -2.850260
  C     -0.788170    6.266280   -1.632250
  C     -0.379020    5.127780   -0.858630
  C     -0.132260    5.528740    0.414750
  C     -0.274010    6.957900    0.490330
  N     -0.003320    7.682090    1.667920
  O     -0.099280    8.898980    1.641870
  O      0.312130    7.042320    2.653740
  C     -0.627730    7.453170   -0.758080
  C     -0.670450    8.808690   -1.143790
  C     -0.500850    9.260460   -2.418700
  C     -0.566270   10.622510   -2.779370
  S     -0.815700   11.879050   -1.599850
  C     -0.765980   13.128630   -2.813440
  C     -0.573820   12.574920   -4.082890
  C     -0.453080   11.161570   -4.059100
  C     -0.191380   10.366120   -5.266820
  O     -0.236610    9.155850   -5.302580
  C      0.186040   11.199120   -6.469440
  C     -0.645050   12.472760   -6.576560
  C     -0.567200   13.325230   -5.332830
  O     -0.539200   14.538120   -5.390010
  C     -0.940590   14.468020   -2.378730
  S     -0.789290   15.890160   -3.375730
  C     -1.119250   16.922960   -2.023560
  C     -1.344030   16.178950   -0.855850
  C     -1.236580   14.806620   -1.064090
  C     -1.647240   16.762870    0.388040
  N     -1.896600   17.239070    1.400400
  C     -1.156610   18.333970   -2.108050
  C     -0.940790   19.044370   -3.247930
  C     -0.983730   20.457990   -3.249780
  C     -0.774150   21.247360   -4.343500
  C     -0.803450   22.699430   -4.388190
  C     -1.028850   23.552250   -3.338820
  C     -1.039360   24.959310   -3.450550
  N     -1.062170   26.106870   -3.467330
  C     -1.278230   23.173320   -2.002720
  N     -1.486610   22.954840   -0.894810
  C     -0.540680   23.107280   -5.763770
  C     -0.344370   21.941340   -6.557780
  C     -0.476520   20.742820   -5.713910
  O     -0.365110   19.589150   -6.069740
  C     -0.077700   22.014080   -7.894920
  C      0.006700   23.281300   -8.513070
  C     -0.188980   24.453300   -7.726410
  C     -0.463740   24.346370   -6.344070
  C     -0.102960   25.713690   -8.352340
  C      0.163580   25.813510   -9.690690
  C      0.356080   24.658930  -10.464300
  C      0.279340   23.419880   -9.888220
  H      1.569480   -0.704060   -4.982040
  H     -3.387600   -0.245560   -5.319270
  H     -3.511760   -2.429800   -6.369430
  H     -2.412660   -4.468600   -7.206220
  H      0.031580   -4.720900   -7.038490
  H      1.398240   -2.934030   -6.035620
  H      0.549970    4.239830   -3.395280
  H     -3.585370    7.108110   -5.204890
  H     -2.659270    8.072030   -2.914640
  H     -0.406210    4.114350   -1.206510
  H      0.129760    4.916030    1.256770
  H     -0.764440    9.529080   -0.338700
  H     -0.288660    8.575280   -3.227910
  H      0.079640   10.588380   -7.367110
  H      1.244420   11.458450   -6.364670
  H     -1.698370   12.212020   -6.722250
  H     -0.330670   13.073910   -7.430940
  H     -1.374030   14.077630   -0.284060
  H     -1.370060   18.859940   -1.183460
  H     -0.729290   18.532210   -4.176370
  H     -1.199780   20.928170   -2.298650
  H      0.067100   21.113720   -8.473430
  H     -0.606970   25.253240   -5.778780
  H     -0.251820   26.599470   -7.752440
  H      0.227640   26.783220  -10.160990
  H      0.565480   24.756470  -11.519000
  H      0.426640   22.527550  -10.478850

 Total Charge           Charge          ....    0
 Multiplicity           Mult            ....    1
 Number of Electrons    NEL             ....  538
 Basis Dimension        Dim             .... 1235

ORBITAL ENERGIES
----------------

  NO   OCC          E(Eh)            E(eV)
   0   2.0000     -88.998967     -2421.7850
   1   2.0000     -88.988236     -2421.4930
   2   2.0000     -19.252758      -523.8942
   3   2.0000     -19.251587      -523.8623
   4   2.0000     -19.244273      -523.6633
   5   2.0000     -19.243027      -523.6294
   6   2.0000     -19.236705      -523.4573
   7   2.0000     -19.232952      -523.3552
   8   2.0000     -19.225113      -523.1419
   9   2.0000     -19.218596      -522.9646
  10   2.0000     -14.660037      -398.9199
  11   2.0000     -14.653037      -398.7294
  12   2.0000     -14.425270      -392.5316
  13   2.0000     -14.421867      -392.4389
  14   2.0000     -14.416757      -392.2999
  15   2.0000     -14.415388      -392.2626
  16   2.0000     -14.414960      -392.2510
  17   2.0000     -10.388429      -282.6835
  18   2.0000     -10.387006      -282.6448
  19   2.0000     -10.375306      -282.3264
  20   2.0000     -10.369018      -282.1553
  21   2.0000     -10.360930      -281.9352
  22   2.0000     -10.351074      -281.6670
  23   2.0000     -10.349313      -281.6191
  24   2.0000     -10.347884      -281.5802
  25   2.0000     -10.347191      -281.5614
  26   2.0000     -10.343270      -281.4547
  27   2.0000     -10.343202      -281.4528
  28   2.0000     -10.341240      -281.3995
  29   2.0000     -10.338269      -281.3186
  30   2.0000     -10.337383      -281.2945
  31   2.0000     -10.337082      -281.2863
  32   2.0000     -10.333274      -281.1827
  33   2.0000     -10.332211      -281.1538
  34   2.0000     -10.331705      -281.1400
  35   2.0000     -10.329786      -281.0878
  36   2.0000     -10.328005      -281.0393
  37   2.0000     -10.327625      -281.0290
  38   2.0000     -10.323808      -280.9251
  39   2.0000     -10.319103      -280.7971
  40   2.0000     -10.318868      -280.7907
  41   2.0000     -10.318488      -280.7803
  42   2.0000     -10.317786      -280.7612
  43   2.0000     -10.316830      -280.7352
  44   2.0000     -10.315216      -280.6913
  45   2.0000     -10.315199      -280.6908
  46   2.0000     -10.314658      -280.6761
  47   2.0000     -10.314572      -280.6738
  48   2.0000     -10.312852      -280.6270
  49   2.0000     -10.311512      -280.5905
  50   2.0000     -10.309274      -280.5296
  51   2.0000     -10.308287      -280.5028
  52   2.0000     -10.303826      -280.3814
  53   2.0000     -10.303433      -280.3707
  54   2.0000     -10.303251      -280.3657
  55   2.0000     -10.302984      -280.3585
  56   2.0000     -10.302304      -280.3400
  57   2.0000     -10.301768      -280.3253
  58   2.0000     -10.301483      -280.3176
  59   2.0000     -10.300595      -280.2934
  60   2.0000     -10.300554      -280.2923
  61   2.0000     -10.298912      -280.2476
  62   2.0000     -10.298595      -280.2390
  63   2.0000     -10.297819      -280.2179
  64   2.0000     -10.297369      -280.2056
  65   2.0000     -10.296419      -280.1798
  66   2.0000     -10.295764      -280.1620
  67   2.0000     -10.295460      -280.1537
  68   2.0000     -10.294381      -280.1243
  69   2.0000     -10.291272      -280.0398
  70   2.0000     -10.290766      -280.0260
  71   2.0000     -10.290413      -280.0164
  72   2.0000     -10.289798      -279.9996
  73   2.0000     -10.289433      -279.9897
  74   2.0000     -10.287961      -279.9496
  75   2.0000     -10.287401      -279.9344
  76   2.0000     -10.286982      -279.9230
  77   2.0000     -10.286445      -279.9084
  78   2.0000      -8.094089      -220.2514
  79   2.0000      -8.081055      -219.8967
  80   2.0000      -6.063270      -164.9900
  81   2.0000      -6.059123      -164.8771
  82   2.0000      -6.056367      -164.8021
  83   2.0000      -6.050415      -164.6402
  84   2.0000      -6.045906      -164.5175
  85   2.0000      -6.043381      -164.4488
  86   2.0000      -1.331143       -36.2222
  87   2.0000      -1.323335       -36.0098
  88   2.0000      -1.156281       -31.4640
  89   2.0000      -1.150443       -31.3051
  90   2.0000      -1.148497       -31.2522
  91   2.0000      -1.140813       -31.0431
  92   2.0000      -1.140104       -31.0238
  93   2.0000      -1.133292       -30.8384
  94   2.0000      -1.035400       -28.1747
  95   2.0000      -1.031286       -28.0627
  96   2.0000      -1.023296       -27.8453
  97   2.0000      -1.018747       -27.7215
  98   2.0000      -1.017306       -27.6823
  99   2.0000      -1.007430       -27.4136
 100   2.0000      -1.005704       -27.3666
 101   2.0000      -1.000452       -27.2237
 102   2.0000      -0.999326       -27.1930
 103   2.0000      -0.994168       -27.0527
 104   2.0000      -0.993491       -27.0343
 105   2.0000      -0.977547       -26.6004
 106   2.0000      -0.972580       -26.4653
 107   2.0000      -0.943648       -25.6780
 108   2.0000      -0.941750       -25.6263
 109   2.0000      -0.931612       -25.3505
 110   2.0000      -0.929602       -25.2958
 111   2.0000      -0.921302       -25.0699
 112   2.0000      -0.919940       -25.0328
 113   2.0000      -0.912962       -24.8429
 114   2.0000      -0.900263       -24.4974
 115   2.0000      -0.891821       -24.2677
 116   2.0000      -0.888622       -24.1806
 117   2.0000      -0.887257       -24.1435
 118   2.0000      -0.882632       -24.0176
 119   2.0000      -0.882102       -24.0032
 120   2.0000      -0.878617       -23.9084
 121   2.0000      -0.868120       -23.6227
 122   2.0000      -0.864432       -23.5224
 123   2.0000      -0.841489       -22.8981
 124   2.0000      -0.834048       -22.6956
 125   2.0000      -0.831766       -22.6335
 126   2.0000      -0.829272       -22.5656
 127   2.0000      -0.824075       -22.4242
 128   2.0000      -0.809981       -22.0407
 129   2.0000      -0.797877       -21.7113
 130   2.0000      -0.785719       -21.3805
 131   2.0000      -0.783003       -21.3066
 132   2.0000      -0.766678       -20.8624
 133   2.0000      -0.762839       -20.7579
 134   2.0000      -0.752652       -20.4807
 135   2.0000      -0.742420       -20.2023
 136   2.0000      -0.737059       -20.0564
 137   2.0000      -0.726112       -19.7585
 138   2.0000      -0.721787       -19.6408
 139   2.0000      -0.716170       -19.4880
 140   2.0000      -0.709004       -19.2930
 141   2.0000      -0.706269       -19.2186
 142   2.0000      -0.703693       -19.1485
 143   2.0000      -0.702040       -19.1035
 144   2.0000      -0.692896       -18.8547
 145   2.0000      -0.684833       -18.6353
 146   2.0000      -0.683797       -18.6071
 147   2.0000      -0.679955       -18.5025
 148   2.0000      -0.676895       -18.4192
 149   2.0000      -0.662692       -18.0328
 150   2.0000      -0.658100       -17.9078
 151   2.0000      -0.653795       -17.7907
 152   2.0000      -0.650721       -17.7070
 153   2.0000      -0.644720       -17.5437
 154   2.0000      -0.642782       -17.4910
 155   2.0000      -0.639341       -17.3974
 156   2.0000      -0.636839       -17.3293
 157   2.0000      -0.634328       -17.2609
 158   2.0000      -0.630427       -17.1548
 159   2.0000      -0.630227       -17.1493
 160   2.0000      -0.622991       -16.9524
 161   2.0000      -0.613437       -16.6925
 162   2.0000      -0.613166       -16.6851
 163   2.0000      -0.607650       -16.5350
 164   2.0000      -0.605786       -16.4843
 165   2.0000      -0.603804       -16.4304
 166   2.0000      -0.600279       -16.3344
 167   2.0000      -0.597231       -16.2515
 168   2.0000      -0.589969       -16.0539
 169   2.0000      -0.587964       -15.9993
 170   2.0000      -0.583251       -15.8711
 171   2.0000      -0.575196       -15.6519
 172   2.0000      -0.570226       -15.5166
 173   2.0000      -0.564311       -15.3557
 174   2.0000      -0.561115       -15.2687
 175   2.0000      -0.557942       -15.1824
 176   2.0000      -0.555377       -15.1126
 177   2.0000      -0.552105       -15.0235
 178   2.0000      -0.549369       -14.9491
 179   2.0000      -0.547653       -14.9024
 180   2.0000      -0.546519       -14.8715
 181   2.0000      -0.545011       -14.8305
 182   2.0000      -0.543327       -14.7847
 183   2.0000      -0.541878       -14.7453
 184   2.0000      -0.541301       -14.7295
 185   2.0000      -0.538440       -14.6517
 186   2.0000      -0.538149       -14.6438
 187   2.0000      -0.533733       -14.5236
 188   2.0000      -0.531299       -14.4574
 189   2.0000      -0.528336       -14.3767
 190   2.0000      -0.525296       -14.2940
 191   2.0000      -0.522391       -14.2150
 192   2.0000      -0.521450       -14.1894
 193   2.0000      -0.519552       -14.1377
 194   2.0000      -0.517776       -14.0894
 195   2.0000      -0.517169       -14.0729
 196   2.0000      -0.515362       -14.0237
 197   2.0000      -0.514168       -13.9912
 198   2.0000      -0.510709       -13.8971
 199   2.0000      -0.509201       -13.8561
 200   2.0000      -0.504575       -13.7302
 201   2.0000      -0.503575       -13.7030
 202   2.0000      -0.500144       -13.6096
 203   2.0000      -0.497634       -13.5413
 204   2.0000      -0.494841       -13.4653
 205   2.0000      -0.492595       -13.4042
 206   2.0000      -0.490820       -13.3559
 207   2.0000      -0.489109       -13.3093
 208   2.0000      -0.488168       -13.2837
 209   2.0000      -0.487800       -13.2737
 210   2.0000      -0.487403       -13.2629
 211   2.0000      -0.479443       -13.0463
 212   2.0000      -0.476634       -12.9699
 213   2.0000      -0.473316       -12.8796
 214   2.0000      -0.470913       -12.8142
 215   2.0000      -0.469740       -12.7823
 216   2.0000      -0.465531       -12.6677
 217   2.0000      -0.464524       -12.6403
 218   2.0000      -0.458162       -12.4672
 219   2.0000      -0.454458       -12.3664
 220   2.0000      -0.453243       -12.3334
 221   2.0000      -0.450551       -12.2601
 222   2.0000      -0.448937       -12.2162
 223   2.0000      -0.445035       -12.1100
 224   2.0000      -0.444771       -12.1028
 225   2.0000      -0.443750       -12.0751
 226   2.0000      -0.443278       -12.0622
 227   2.0000      -0.440980       -11.9997
 228   2.0000      -0.440368       -11.9830
 229   2.0000      -0.439730       -11.9657
 230   2.0000      -0.436297       -11.8722
 231   2.0000      -0.434938       -11.8353
 232   2.0000      -0.433571       -11.7981
 233   2.0000      -0.433004       -11.7826
 234   2.0000      -0.429997       -11.7008
 235   2.0000      -0.426751       -11.6125
 236   2.0000      -0.425779       -11.5860
 237   2.0000      -0.420059       -11.4304
 238   2.0000      -0.418434       -11.3862
 239   2.0000      -0.416769       -11.3409
 240   2.0000      -0.416116       -11.3231
 241   2.0000      -0.412134       -11.2147
 242   2.0000      -0.406382       -11.0582
 243   2.0000      -0.397221       -10.8089
 244   2.0000      -0.396197       -10.7811
 245   2.0000      -0.392782       -10.6881
 246   2.0000      -0.389531       -10.5997
 247   2.0000      -0.383582       -10.4378
 248   2.0000      -0.382952       -10.4207
 249   2.0000      -0.378563       -10.3012
 250   2.0000      -0.372058       -10.1242
 251   2.0000      -0.370756       -10.0888
 252   2.0000      -0.366235        -9.9658
 253   2.0000      -0.362740        -9.8706
 254   2.0000      -0.358740        -9.7618
 255   2.0000      -0.351833        -9.5739
 256   2.0000      -0.350099        -9.5267
 257   2.0000      -0.347559        -9.4576
 258   2.0000      -0.344906        -9.3854
 259   2.0000      -0.342504        -9.3200
 260   2.0000      -0.337291        -9.1781
 261   2.0000      -0.335948        -9.1416
 262   2.0000      -0.321408        -8.7460
 263   2.0000      -0.318127        -8.6567
 264   2.0000      -0.311429        -8.4744
 265   2.0000      -0.299956        -8.1622
 266   2.0000      -0.298158        -8.1133
 267   2.0000      -0.291479        -7.9316
 268   2.0000      -0.267704        -7.2846
 269   0.0000      -0.142555        -3.8791
 270   0.0000      -0.111486        -3.0337
 271   0.0000      -0.096965        -2.6385
 272   0.0000      -0.077791        -2.1168
 273   0.0000      -0.064949        -1.7673

MULLIKEN ATOMIC CHARGES
-----------------------
   0 C :    0.337531
   1 C :   -0.356970
   2 C :   -0.179459
   3 N :    0.163052
   4 C :   -0.188333
   5 N :    0.166174
   6 C :    0.035796
   7 C :    0.017886
   8 C :   -0.084920
   9 C :    0.099800
  10 C :    0.095186
  11 C :   -0.075382
  12 C :   -0.018125
  13 C :    0.038154
  14 C :    0.038044
  15 C :   -0.018105
  16 C :    0.133336
  17 O :   -0.131287
  18 C :   -0.080418
  19 C :   -0.064458
  20 C :   -0.000081
  21 C :    0.108620
  22 N :    0.265847
  23 O :   -0.249597
  24 O :   -0.228772
  25 C :    0.029706
  26 C :    0.038875
  27 C :    0.061393
  28 C :    0.026648
  29 C :    0.009752
  30 C :    0.031905
  31 C :    0.091154
  32 N :    0.271396
  33 O :   -0.254862
  34 O :   -0.239318
  35 C :    0.042215
  36 C :   -0.040978
  37 C :   -0.012559
  38 C :   -0.109765
  39 S :    0.161129
  40 C :   -0.076154
  41 C :    0.028436
  42 C :    0.046546
  43 C :    0.008208
  44 O :   -0.165939
  45 C :    0.046116
  46 C :    0.046242
  47 C :    0.019871
  48 O :   -0.184807
  49 C :   -0.056760
  50 S :    0.222659
  51 C :   -0.030703
  52 C :   -0.017143
  53 C :   -0.023449
  54 C :   -0.193616
  55 N :    0.150749
  56 C :    0.004855
  57 C :   -0.000967
  58 C :   -0.049310
  59 C :   -0.058671
  60 C :    0.335820
  61 C :   -0.350198
  62 C :   -0.183391
  63 N :    0.147286
  64 C :   -0.191005
  65 N :    0.154467
  66 C :    0.047047
  67 C :   -0.004114
  68 C :    0.147697
  69 O :   -0.147817
  70 C :   -0.078541
  71 C :    0.098631
  72 C :    0.094986
  73 C :   -0.082352
  74 C :   -0.017969
  75 C :    0.036261
  76 C :    0.035983
  77 C :   -0.016796
  78 H :   -0.008923
  79 H :   -0.001117
  80 H :   -0.007031
  81 H :   -0.002169
  82 H :   -0.003661
  83 H :   -0.014846
  84 H :    0.041611
  85 H :    0.001774
  86 H :    0.006630
  87 H :    0.005084
  88 H :    0.012122
  89 H :    0.030958
  90 H :    0.052573
  91 H :    0.029643
  92 H :    0.053993
  93 H :    0.053727
  94 H :    0.031624
  95 H :    0.019181
  96 H :    0.031174
  97 H :    0.038182
  98 H :    0.015525
  99 H :   -0.014221
 100 H :   -0.009006
 101 H :   -0.007931
 102 H :   -0.004787
 103 H :   -0.004134
 104 H :   -0.018351
Sum of atomic charges:   -0.0000000

LOEWDIN ATOMIC CHARGES
----------------------
   0 C :    0.079917
   1 C :   -0.132930
   2 C :   -0.018220
   3 N :   -0.043576
   4 C :   -0.016655
   5 N :   -0.050432
   6 C :   -0.018081
   7 C :   -0.056173
   8 C :    0.035495
   9 C :   -0.007094
  10 C :   -0.003362
  11 C :    0.024723
  12 C :   -0.004437
  13 C :   -0.010442
  14 C :   -0.010377
  15 C :   -0.008550
  16 C :    0.085707
  17 O :   -0.134641
  18 C :   -0.055591
  19 C :    0.044975
  20 C :   -0.001138
  21 C :   -0.014314
  22 N :    0.283740
  23 O :   -0.205299
  24 O :   -0.194427
  25 C :    0.008837
  26 C :   -0.011052
  27 C :    0.046173
  28 C :    0.049688
  29 C :   -0.034133
  30 C :    0.031722
  31 C :   -0.043283
  32 N :    0.285036
  33 O :   -0.218101
  34 O :   -0.204069
  35 C :    0.017254
  36 C :   -0.016354
  37 C :   -0.009818
  38 C :   -0.133023
  39 S :    0.495491
  40 C :   -0.124027
  41 C :   -0.103104
  42 C :   -0.083977
  43 C :    0.083558
  44 O :   -0.137693
  45 C :   -0.046505
  46 C :   -0.044668
  47 C :    0.083915
  48 O :   -0.153268
  49 C :   -0.189266
  50 S :    0.546743
  51 C :   -0.154989
  52 C :   -0.091219
  53 C :   -0.024684
  54 C :   -0.036101
  55 N :   -0.038911
  56 C :    0.007870
  57 C :   -0.017701
  58 C :    0.064066
  59 C :   -0.084201
  60 C :    0.073533
  61 C :   -0.135048
  62 C :   -0.016552
  63 N :   -0.052243
  64 C :   -0.022019
  65 N :   -0.046737
  66 C :   -0.025382
  67 C :   -0.056201
  68 C :    0.084471
  69 O :   -0.142588
  70 C :    0.032229
  71 C :   -0.008214
  72 C :   -0.005821
  73 C :    0.019568
  74 C :   -0.004914
  75 C :   -0.012944
  76 C :   -0.012124
  77 C :   -0.009856
  78 H :    0.040436
  79 H :    0.040803
  80 H :    0.035621
  81 H :    0.034258
  82 H :    0.033579
  83 H :    0.032696
  84 H :    0.052844
  85 H :    0.038727
  86 H :    0.034001
  87 H :    0.033736
  88 H :    0.042177
  89 H :    0.030283
  90 H :    0.041999
  91 H :    0.044749
  92 H :    0.050297
  93 H :    0.050846
  94 H :    0.045750
  95 H :    0.034782
  96 H :    0.048062
  97 H :    0.031319
  98 H :    0.044124
  99 H :    0.038583
 100 H :    0.039089
 101 H :    0.035147
 102 H :    0.033327
 103 H :    0.032986
 104 H :    0.031595

  Mayer bond orders larger than 0.100000
B(  0-C ,  1-C ) :   1.6689 B(  0-C ,  6-C ) :   1.0109 B(  0-C , 18-C ) :   0.9940
B(  1-C ,  2-C ) :   1.1319 B(  1-C ,  4-C ) :   1.1715 B(  2-C ,  3-N ) :   2.9915
B(  4-C ,  5-N ) :   2.9817 B(  6-C ,  7-C ) :   1.2121 B(  6-C , 11-C ) :   1.4526
B(  7-C ,  8-C ) :   1.4608 B(  7-C , 16-C ) :   0.9243 B(  8-C ,  9-C ) :   1.1891
B(  8-C , 78-H ) :   1.0170 B(  9-C , 10-C ) :   1.2525 B(  9-C , 15-C ) :   1.2416
B( 10-C , 11-C ) :   1.2065 B( 10-C , 12-C ) :   1.2383 B( 11-C , 79-H ) :   0.9940
B( 12-C , 13-C ) :   1.4905 B( 12-C , 80-H ) :   0.9982 B( 13-C , 14-C ) :   1.2587
B( 13-C , 81-H ) :   0.9884 B( 14-C , 15-C ) :   1.4916 B( 14-C , 82-H ) :   0.9880
B( 15-C , 83-H ) :   0.9984 B( 16-C , 17-O ) :   2.2871 B( 16-C , 18-C ) :   0.9226
B( 18-C , 19-C ) :   1.7848 B( 19-C , 20-C ) :   0.9973 B( 19-C , 84-H ) :   0.9242
B( 20-C , 21-C ) :   1.5886 B( 20-C , 27-C ) :   1.0468 B( 21-C , 22-N ) :   0.9358
B( 21-C , 25-C ) :   1.1187 B( 22-N , 23-O ) :   1.4925 B( 22-N , 24-O ) :   1.5457
B( 23-O , 24-O ) :   0.2675 B( 25-C , 26-C ) :   1.6184 B( 25-C , 85-H ) :   1.0077
B( 26-C , 27-C ) :   1.1065 B( 26-C , 86-H ) :   0.9902 B( 27-C , 28-C ) :   1.5273
B( 28-C , 29-C ) :   1.1379 B( 28-C , 35-C ) :   0.9894 B( 29-C , 30-C ) :   1.5624
B( 29-C , 87-H ) :   0.9950 B( 30-C , 31-C ) :   1.1278 B( 30-C , 88-H ) :   1.0115
B( 31-C , 32-N ) :   0.9461 B( 31-C , 35-C ) :   1.5153 B( 32-N , 33-O ) :   1.4917
B( 32-N , 34-O ) :   1.5417 B( 33-O , 34-O ) :   0.2616 B( 35-C , 36-C ) :   1.2085
B( 36-C , 37-C ) :   1.5229 B( 36-C , 89-H ) :   0.9443 B( 37-C , 38-C ) :   1.2169
B( 37-C , 90-H ) :   0.9476 B( 38-C , 39-S ) :   1.1128 B( 38-C , 42-C ) :   1.4701
B( 39-S , 40-C ) :   1.1663 B( 40-C , 41-C ) :   1.4555 B( 40-C , 49-C ) :   1.1852
B( 41-C , 42-C ) :   1.1981 B( 41-C , 47-C ) :   0.9554 B( 42-C , 43-C ) :   0.9282
B( 43-C , 44-O ) :   2.1523 B( 43-C , 45-C ) :   1.0274 B( 45-C , 46-C ) :   1.0542
B( 45-C , 91-H ) :   0.9114 B( 45-C , 92-H ) :   0.9286 B( 46-C , 47-C ) :   1.0380
B( 46-C , 93-H ) :   0.9256 B( 46-C , 94-H ) :   0.9117 B( 47-C , 48-O ) :   2.0985
B( 49-C , 50-S ) :   1.1378 B( 49-C , 53-C ) :   1.4114 B( 50-S , 51-C ) :   1.1044
B( 51-C , 52-C ) :   1.3967 B( 51-C , 56-C ) :   1.1675 B( 52-C , 53-C ) :   1.3448
B( 52-C , 54-C ) :   1.0872 B( 53-C , 95-H ) :   0.9919 B( 54-C , 55-N ) :   3.0240
B( 56-C , 57-C ) :   1.5546 B( 56-C , 96-H ) :   0.9753 B( 57-C , 58-C ) :   1.1559
B( 57-C , 97-H ) :   0.9801 B( 58-C , 59-C ) :   1.5474 B( 58-C , 98-H ) :   0.9636
B( 59-C , 60-C ) :   1.0612 B( 59-C , 68-C ) :   0.9361 B( 60-C , 61-C ) :   1.6303
B( 60-C , 66-C ) :   0.9878 B( 61-C , 62-C ) :   1.1468 B( 61-C , 64-C ) :   1.1441
B( 62-C , 63-N ) :   2.9606 B( 64-C , 65-N ) :   2.9618 B( 66-C , 67-C ) :   1.2159
B( 66-C , 73-C ) :   1.4479 B( 67-C , 68-C ) :   0.9452 B( 67-C , 70-C ) :   1.4691
B( 68-C , 69-O ) :   2.2052 B( 70-C , 71-C ) :   1.1809 B( 70-C , 99-H ) :   1.0160
B( 71-C , 72-C ) :   1.2561 B( 71-C , 77-C ) :   1.2418 B( 72-C , 73-C ) :   1.2078
B( 72-C , 74-C ) :   1.2389 B( 73-C ,100-H ) :   0.9890 B( 74-C , 75-C ) :   1.4892
B( 74-C ,101-H ) :   0.9978 B( 75-C , 76-C ) :   1.2587 B( 75-C ,102-H ) :   0.9892
B( 76-C , 77-C ) :   1.4898 B( 76-C ,103-H ) :   0.9886 B( 77-C ,104-H ) :   0.9979

-----------------------------------------------------------------------------
         ABSORPTION SPECTRUM VIA TRANSITION ELECTRIC DIPOLE MOMENTS
-----------------------------------------------------------------------------
State   Energy  Wavelength   fosc         T2         TX        TY        TZ
        (cm-1)    (nm)                  (au**2)     (au)      (au)      (au)
-----------------------------------------------------------------------------
   0   11463.5    872.3   0.435617748  12.51019  -0.26166  -3.51328   0.31401
   1   16137.8    619.7   0.005315484   0.10844  -0.02733   0.18208  -0.27301
   2   18780.8    532.5   1.150980144  20.17573  -0.06276   4.32528  -1.20986
   3   19501.6    512.8   0.066411491   1.12111  -0.30626   1.00971   0.08826
   4   20288.7    492.9   0.222104184   3.60395  -0.13411  -1.84238   0.43773
   5   23133.6    432.3   0.025211219   0.35878  -0.14608   0.48069   0.32615
   6   23247.0    430.2   0.032564827   0.46117  -0.20229  -0.55438  -0.33602
   7   24479.3    408.5   0.044042964   0.59231  -0.14975  -0.68274   0.32210
   8   24637.0    405.9   0.027492846   0.36737   0.11850  -0.21135   0.55557
   9   24873.6    402.0   0.008711300   0.11530   0.03623  -0.33684  -0.02283
  10   25447.1    393.0   0.132090253   1.70887  -0.28292  -1.13624  -0.58120
  11   26145.5    382.5   0.000061673   0.00078   0.01630   0.02236  -0.00333
  12   26568.7    376.4   0.074919264   0.92832  -0.11789   0.72370  -0.62505
  13   26675.4    374.9   0.004330540   0.05344   0.14993   0.15468   0.08391
  14   27113.7    368.8   0.007235474   0.08785  -0.18946  -0.22774   0.00946
  15   27364.7    365.4   0.003478975   0.04185  -0.09078  -0.12353  -0.13547
  16   27451.2    364.3   0.015968105   0.19150  -0.18769   0.09847   0.38285
  17   28144.8    355.3   0.117379236   1.37299   0.10715   1.06959   0.46636
  18   28213.1    354.4   0.081411479   0.94997  -0.18238   0.61398   0.73467
  19   28339.9    352.9   0.051850286   0.60232   0.36347  -0.67924   0.09403
  20   28586.6    349.8   0.001250735   0.01440  -0.07252  -0.05985  -0.07458
  21   28826.5    346.9   0.077029123   0.87971  -0.20407  -0.53949   0.73960
  22   29727.9    336.4   0.022708213   0.25147   0.07647   0.04156   0.49386
  23   30082.7    332.4   0.164587286   1.80117   0.52101   0.53180   1.11665
  24   30275.1    330.3   0.048246747   0.52464   0.17251  -0.02935   0.70286
  25   30620.7    326.6   0.146239880   1.57227  -0.42095  -0.02229   1.18092
  26   31232.1    320.2   0.480367023   5.06346   0.10151  -0.73934   2.12286
  27   31424.2    318.2   0.029424084   0.30826  -0.01852  -0.17727   0.52582
  28   31547.2    317.0   0.032833006   0.34263  -0.31035   0.37222   0.32827
  29   31891.0    313.6   0.075041241   0.77465   0.07055  -0.19632  -0.85506
  30   31991.6    312.6   0.022681642   0.23341  -0.05329  -0.32917  -0.34959
  31   32127.8    311.3   0.016713008   0.17126  -0.25445  -0.16458  -0.28182
  32   32149.5    311.0   0.027415626   0.28074  -0.24694  -0.22326  -0.41221
  33   32203.8    310.5   0.019350122   0.19781   0.01507  -0.31248   0.31613
  34   32492.7    307.8   0.071217113   0.72156   0.07436   0.31001   0.78736
  35   33290.1    300.4   0.019642286   0.19425  -0.09799  -0.26983   0.33442
  36   33327.8    300.1   0.041220880   0.40718   0.10798  -0.01858  -0.62863
  37   33356.1    299.8   0.348524353   3.43981  -0.39122  -0.19424   1.80251
  38   33770.5    296.1   0.204023437   1.98893   0.01717   0.81804  -1.14867
  39   33946.0    294.6   0.024477908   0.23739   0.11244  -0.19676  -0.43131
  40   34098.1    293.3   0.426220803   4.11510  -1.13278   1.48615   0.78947
  41   34315.4    291.4   0.112093426   1.07539  -0.30831   0.93377   0.32926
  42   34528.0    289.6   0.143080878   1.36422  -0.13143  -0.44484   1.07194
  43   34681.9    288.3   0.000248149   0.00236  -0.01397   0.00872   0.04565
  44   34719.0    288.0   0.003124789   0.02963   0.14006  -0.09567   0.02935
  45   34994.6    285.8   0.182648656   1.71827  -0.56318   1.00712   0.62193
  46   35100.1    284.9   0.045504193   0.42679   0.07836  -0.64856  -0.00438
  47   35242.6    283.7   0.456507980   4.26438   0.12836   0.25410  -2.04532
  48   35362.1    282.8   0.058569360   0.54527  -0.42244   0.08604  -0.59950
  49   35850.3    278.9   0.031390455   0.28826   0.02036   0.26954  -0.46388
  50   36056.3    277.3   0.018798162   0.17164  -0.40524  -0.02986   0.08080
  51   36258.5    275.8   0.029638253   0.26910  -0.15729   0.49073  -0.05957
  52   36491.8    274.0   0.057586201   0.51952   0.19910  -0.55724  -0.41153
  53   36524.7    273.8   0.175474040   1.58162   0.44083  -0.05732   1.17643
  54   36724.0    272.3   0.022688312   0.20339   0.09476   0.27139   0.34750
  55   36856.2    271.3   0.061968598   0.55352  -0.00963  -0.13930  -0.73077
  56   36982.9    270.4   0.024104353   0.21457  -0.17139   0.31044   0.29804
  57   37012.7    270.2   0.076123446   0.67708   0.07809   0.80200   0.16667
  58   37564.4    266.2   0.014956211   0.13108   0.24634   0.24769   0.09508
  59   37931.9    263.6   0.126298664   1.09615   0.35777  -0.90260  -0.39173
  60   38381.0    260.5   0.013067573   0.11209   0.16867  -0.18719   0.22045
  61   38447.2    260.1   0.237688543   2.03526  -0.82724   1.01088   0.57363
  62   38590.2    259.1   0.115951890   0.98918   0.06131   0.66842   0.73392
  63   38793.5    257.8   0.005949395   0.05049   0.14649  -0.07980  -0.15053
  64   39124.1    255.6   0.038171326   0.32119   0.16448  -0.43938   0.31795
  65   39247.3    254.8   0.140458083   1.17818  -0.11643   0.73826   0.78714
  66   39508.8    253.1   0.006228577   0.05190   0.09052   0.17223   0.11850
  67   39723.4    251.7   0.041866111   0.34697  -0.14940   0.05653  -0.56697
  68   39858.7    250.9   0.042851297   0.35393  -0.26337  -0.51332  -0.14515
  69   40158.6    249.0   0.082989969   0.68033  -0.06882  -0.80920   0.14418

FINAL SINGLE POINT ENERGY     -4117.432165100696

DIPOLE MOMENT
-------------
                                X             Y             Z
Electronic contribution:     -6.33886       2.01141      29.01853
Nuclear contribution   :      7.97318      -4.44916     -33.71195
                        -----------------------------------------
Total Dipole Moment    :      1.63432      -2.43774      -4.69342
                        -----------------------------------------
Magnitude (a.u.)       :      5.53550
Magnitude (Debye)      :     14.07013

Rotational constants in cm-1:     0.001895     0.000209     0.000194
Rotational constants in MHz :    56.818045     6.252712     5.803509

                             ****ORCA TERMINATED NORMALLY****
TOTAL RUN TIME: 0 days 0 hours 12 minutes 6 seconds 21 msec
