                         Program Version 4.2.0 -  RELEASE  -
|  1> # ORCA input file
|  2> # SCF done       -188.893365870160          0.000604027242
|  3> ! CAM-B3LYP def2-SVP def2/J RIJCOSX Grid4 TightSCF
|  4> %maxcore 5000
|  5> %tddft
|  6>     Mode sTDDFT
|  7>     Ethresh 5.0
|  8>     maxcore 5000
|  9> end
| 10>
| 11> %pal
| 12>   nprocs 6
| 13>   end
| 14> * xyz 0 1
| 15>    C        3.74753         7.43095        -3.12013
| 16>    C        3.51301         6.68373        -4.24224
| 17>    C        4.52034         6.28062        -5.14806
| 18>    N        5.28344         5.87841        -5.90433
| 19>    C        2.27529         6.14166        -4.65339
| 20>    N        1.32200         5.63131        -5.04161
| 21>    C        5.05604         7.91956        -2.70106
| 22>    C        4.91524         8.57938        -1.44828
| 23>    C        5.98429         9.09187        -0.77047
| 24>    C        7.27283         8.97729        -1.33672
| 25>    C        7.41862         8.35815        -2.61202
| 26>    C        6.29285         7.82857        -3.28404
| 27>    C        8.70509         8.28336        -3.18495
| 28>    C        9.79662         8.78488        -2.52785
| 29>    C        9.65311         9.37982        -1.26569
| 30>    C        8.41780         9.47506        -0.68363
| 31>    C        3.49962         8.60067        -1.05671
| 32>    O        3.04215         9.13621        -0.06755
| 33>    C        2.77509         7.84324        -2.11039
| 34>    C        1.44888         7.53824        -2.16890
| 35>    C        0.36546         7.85122        -1.31011
| 36>    S       -1.21011         7.32135        -1.86241
| 37>    C       -2.00450         8.02574        -0.49940
| 38>    C       -1.06853         8.61446         0.35601
| 39>    C        0.25188         8.51515        -0.10588
| 40>    C       -1.40125         9.27204         1.55445
| 41>    N       -1.67131         9.79407         2.53904
| 42>    C       -3.42666         8.02610        -0.45676
| 43>    C       -4.19170         8.38719         0.59531
| 44>    C       -5.61692         8.53580         0.56822
| 45>    S       -6.50964         8.19227         2.02277
| 46>    C       -7.97744         8.67296         1.28260
| 47>    C       -7.80642         9.09838        -0.00101
| 48>    C       -6.45788         9.00661        -0.42468
| 49>    C       -5.98898         9.56945        -1.74280
| 50>    C       -7.16210         9.98379        -2.64438
| 51>    C       -8.29103        10.64449        -1.86215
| 52>    C       -8.88725         9.63732        -0.88183
| 53>    N       -5.12739        10.70226        -1.44036
| 54>    C       -3.84276        10.83479        -1.79868
| 55>    C       -3.20139        10.17544        -2.80877
| 56>    C       -1.81119        10.27878        -3.02380
| 57>    C       -0.84785        10.90534        -2.24863
| 58>    C        0.42529        10.67828        -2.80151
| 59>    C        0.20808         9.85660        -4.01910
| 60>    C       -1.12116         9.62020        -4.13029
| 61>    C        1.19878         9.34199        -4.85930
| 62>    N        1.99937         8.88415        -5.54518
| 63>    C        1.65271        11.09352        -2.31606
| 64>    C        2.92041        10.96024        -2.93480
| 65>    C        3.89517        11.53435        -2.12427
| 66>    C        3.23392        12.02205        -0.92958
| 67>    C        1.89934        11.77478        -1.04078
| 68>    C        0.93053        12.09189        -0.08402
| 69>    N        0.12644        12.35998         0.69243
| 70>    C        5.24782        11.57141        -2.53026
| 71>    C        6.39446        12.01278        -1.92644
| 72>    C        7.70454        11.94689        -2.55726
| 73>    C        8.01741        11.40960        -3.78021
| 74>    C        9.32132        11.38362        -4.31796
| 75>    N       10.35085        11.33022        -4.82397
| 76>    C        7.13659        10.77360        -4.67973
| 77>    N        6.51658        10.22198        -5.47475
| 78>    C        8.68006        12.52008        -1.63641
| 79>    C        8.00595        12.88655        -0.44043
| 80>    C        6.56778        12.59422        -0.57162
| 81>    O        5.73435        12.79117         0.28684
| 82>    C        8.66306        13.41257         0.63367
| 83>    C       10.06044        13.60323         0.55804
| 84>    C       10.74377        13.25379        -0.64188
| 85>    C       10.03245        12.71317        -1.73760
| 86>    C       12.13878        13.44761        -0.70803
| 87>    C       12.82661        13.95804         0.35896
| 88>    C       12.15201        14.30054         1.54045
| 89>    C       10.79795        14.12776         1.63743
| 90>    H        5.84519         9.58073         0.18269
| 91>    H        6.44080         7.36770        -4.24679
| 92>    H        8.81060         7.82497        -4.15704
| 93>    H       10.77484         8.72824        -2.98012
| 94>    H       10.52381         9.76861        -0.75862
| 95>    H        8.29993         9.93677         0.28645
| 96>    H        1.13398         6.96230        -3.03076
| 97>    H        1.09372         8.93035         0.41870
| 98>    H       -3.89952         7.68996        -1.36870
| 99>    H       -3.72531         8.57321         1.55270
|100>    H       -8.89286         8.62282         1.83786
|101>    H       -5.38975         8.83429        -2.28229
|102>    H       -7.55122         9.09238        -3.14034
|103>    H       -6.78234        10.65950        -3.41249
|104>    H       -9.06167        10.99072        -2.55161
|105>    H       -7.91363        11.51252        -1.31789
|106>    H       -9.34490         8.81516        -1.44044
|107>    H       -9.66723        10.09818        -0.27423
|108>    H       -5.45430        11.28613        -0.68509
|109>    H       -3.28894        11.57015        -1.23061
|110>    H       -3.74760         9.51953        -3.47133
|111>    H       -1.02270        11.46778        -1.35403
|112>    H       -1.60545         9.04059        -4.89476
|113>    H        3.09886        10.52052        -3.89802
|114>    H        3.72699        12.48797        -0.09983
|115>    H        5.37838        11.15899        -3.52438
|116>    H        8.12282        13.67558         1.53126
|117>    H       10.58242        12.46038        -2.62925
|118>    H       12.65376        13.18218        -1.61964
|119>    H       13.89526        14.10089         0.29868
|120>    H       12.71047        14.70201         2.37282
|121>    H       10.27233        14.39004         2.54401
|122> *
|123>
|124>                          ****END OF INPUT****

CARTESIAN COORDINATES (ANGSTROEM)
---------------------------------
  C      3.747530    7.430950   -3.120130
  C      3.513010    6.683730   -4.242240
  C      4.520340    6.280620   -5.148060
  N      5.283440    5.878410   -5.904330
  C      2.275290    6.141660   -4.653390
  N      1.322000    5.631310   -5.041610
  C      5.056040    7.919560   -2.701060
  C      4.915240    8.579380   -1.448280
  C      5.984290    9.091870   -0.770470
  C      7.272830    8.977290   -1.336720
  C      7.418620    8.358150   -2.612020
  C      6.292850    7.828570   -3.284040
  C      8.705090    8.283360   -3.184950
  C      9.796620    8.784880   -2.527850
  C      9.653110    9.379820   -1.265690
  C      8.417800    9.475060   -0.683630
  C      3.499620    8.600670   -1.056710
  O      3.042150    9.136210   -0.067550
  C      2.775090    7.843240   -2.110390
  C      1.448880    7.538240   -2.168900
  C      0.365460    7.851220   -1.310110
  S     -1.210110    7.321350   -1.862410
  C     -2.004500    8.025740   -0.499400
  C     -1.068530    8.614460    0.356010
  C      0.251880    8.515150   -0.105880
  C     -1.401250    9.272040    1.554450
  N     -1.671310    9.794070    2.539040
  C     -3.426660    8.026100   -0.456760
  C     -4.191700    8.387190    0.595310
  C     -5.616920    8.535800    0.568220
  S     -6.509640    8.192270    2.022770
  C     -7.977440    8.672960    1.282600
  C     -7.806420    9.098380   -0.001010
  C     -6.457880    9.006610   -0.424680
  C     -5.988980    9.569450   -1.742800
  C     -7.162100    9.983790   -2.644380
  C     -8.291030   10.644490   -1.862150
  C     -8.887250    9.637320   -0.881830
  N     -5.127390   10.702260   -1.440360
  C     -3.842760   10.834790   -1.798680
  C     -3.201390   10.175440   -2.808770
  C     -1.811190   10.278780   -3.023800
  C     -0.847850   10.905340   -2.248630
  C      0.425290   10.678280   -2.801510
  C      0.208080    9.856600   -4.019100
  C     -1.121160    9.620200   -4.130290
  C      1.198780    9.341990   -4.859300
  N      1.999370    8.884150   -5.545180
  C      1.652710   11.093520   -2.316060
  C      2.920410   10.960240   -2.934800
  C      3.895170   11.534350   -2.124270
  C      3.233920   12.022050   -0.929580
  C      1.899340   11.774780   -1.040780
  C      0.930530   12.091890   -0.084020
  N      0.126440   12.359980    0.692430
  C      5.247820   11.571410   -2.530260
  C      6.394460   12.012780   -1.926440
  C      7.704540   11.946890   -2.557260
  C      8.017410   11.409600   -3.780210
  C      9.321320   11.383620   -4.317960
  N     10.350850   11.330220   -4.823970
  C      7.136590   10.773600   -4.679730
  N      6.516580   10.221980   -5.474750
  C      8.680060   12.520080   -1.636410
  C      8.005950   12.886550   -0.440430
  C      6.567780   12.594220   -0.571620
  O      5.734350   12.791170    0.286840
  C      8.663060   13.412570    0.633670
  C     10.060440   13.603230    0.558040
  C     10.743770   13.253790   -0.641880
  C     10.032450   12.713170   -1.737600
  C     12.138780   13.447610   -0.708030
  C     12.826610   13.958040    0.358960
  C     12.152010   14.300540    1.540450
  C     10.797950   14.127760    1.637430
  H      5.845190    9.580730    0.182690
  H      6.440800    7.367700   -4.246790
  H      8.810600    7.824970   -4.157040
  H     10.774840    8.728240   -2.980120
  H     10.523810    9.768610   -0.758620
  H      8.299930    9.936770    0.286450
  H      1.133980    6.962300   -3.030760
  H      1.093720    8.930350    0.418700
  H     -3.899520    7.689960   -1.368700
  H     -3.725310    8.573210    1.552700
  H     -8.892860    8.622820    1.837860
  H     -5.389750    8.834290   -2.282290
  H     -7.551220    9.092380   -3.140340
  H     -6.782340   10.659500   -3.412490
  H     -9.061670   10.990720   -2.551610
  H     -7.913630   11.512520   -1.317890
  H     -9.344900    8.815160   -1.440440
  H     -9.667230   10.098180   -0.274230
  H     -5.454300   11.286130   -0.685090
  H     -3.288940   11.570150   -1.230610
  H     -3.747600    9.519530   -3.471330
  H     -1.022700   11.467780   -1.354030
  H     -1.605450    9.040590   -4.894760
  H      3.098860   10.520520   -3.898020
  H      3.726990   12.487970   -0.099830
  H      5.378380   11.158990   -3.524380
  H      8.122820   13.675580    1.531260
  H     10.582420   12.460380   -2.629250
  H     12.653760   13.182180   -1.619640
  H     13.895260   14.100890    0.298680
  H     12.710470   14.702010    2.372820
  H     10.272330   14.390040    2.544010

 Total Charge           Charge          ....    0
 Multiplicity           Mult            ....    1
 Number of Electrons    NEL             ....  514
 Basis Dimension        Dim             .... 1218

ORBITAL ENERGIES
----------------

  NO   OCC          E(Eh)            E(eV)
   0   2.0000     -88.983553     -2421.3656
   1   2.0000     -88.973865     -2421.1019
   2   2.0000     -19.215459      -522.8792
   3   2.0000     -19.211720      -522.7775
   4   2.0000     -14.476495      -393.9255
   5   2.0000     -14.413421      -392.2091
   6   2.0000     -14.409728      -392.1086
   7   2.0000     -14.408103      -392.0644
   8   2.0000     -14.407430      -392.0461
   9   2.0000     -14.407343      -392.0437
  10   2.0000     -14.401002      -391.8712
  11   2.0000     -14.392602      -391.6426
  12   2.0000     -10.364349      -282.0283
  13   2.0000     -10.362698      -281.9833
  14   2.0000     -10.356053      -281.8025
  15   2.0000     -10.346476      -281.5419
  16   2.0000     -10.341568      -281.4084
  17   2.0000     -10.333516      -281.1893
  18   2.0000     -10.332876      -281.1719
  19   2.0000     -10.332680      -281.1665
  20   2.0000     -10.329267      -281.0736
  21   2.0000     -10.324937      -280.9558
  22   2.0000     -10.322615      -280.8926
  23   2.0000     -10.321336      -280.8578
  24   2.0000     -10.320706      -280.8407
  25   2.0000     -10.320324      -280.8303
  26   2.0000     -10.319393      -280.8050
  27   2.0000     -10.314657      -280.6761
  28   2.0000     -10.313525      -280.6453
  29   2.0000     -10.312860      -280.6272
  30   2.0000     -10.312609      -280.6204
  31   2.0000     -10.311849      -280.5997
  32   2.0000     -10.311310      -280.5850
  33   2.0000     -10.310873      -280.5731
  34   2.0000     -10.310383      -280.5598
  35   2.0000     -10.310157      -280.5536
  36   2.0000     -10.308819      -280.5172
  37   2.0000     -10.308539      -280.5096
  38   2.0000     -10.303509      -280.3727
  39   2.0000     -10.301969      -280.3308
  40   2.0000     -10.299500      -280.2636
  41   2.0000     -10.299437      -280.2619
  42   2.0000     -10.298637      -280.2402
  43   2.0000     -10.296602      -280.1848
  44   2.0000     -10.296501      -280.1820
  45   2.0000     -10.295395      -280.1520
  46   2.0000     -10.293950      -280.1126
  47   2.0000     -10.293737      -280.1068
  48   2.0000     -10.293649      -280.1044
  49   2.0000     -10.292461      -280.0721
  50   2.0000     -10.292139      -280.0633
  51   2.0000     -10.291716      -280.0518
  52   2.0000     -10.291413      -280.0436
  53   2.0000     -10.290426      -280.0167
  54   2.0000     -10.290255      -280.0121
  55   2.0000     -10.290115      -280.0083
  56   2.0000     -10.289452      -279.9902
  57   2.0000     -10.288283      -279.9584
  58   2.0000     -10.287661      -279.9415
  59   2.0000     -10.286558      -279.9115
  60   2.0000     -10.285991      -279.8960
  61   2.0000     -10.285918      -279.8941
  62   2.0000     -10.285527      -279.8834
  63   2.0000     -10.283599      -279.8309
  64   2.0000     -10.283224      -279.8207
  65   2.0000     -10.282978      -279.8141
  66   2.0000     -10.282517      -279.8015
  67   2.0000     -10.282475      -279.8004
  68   2.0000     -10.280038      -279.7341
  69   2.0000     -10.279384      -279.7163
  70   2.0000     -10.278808      -279.7006
  71   2.0000     -10.277178      -279.6562
  72   2.0000     -10.276923      -279.6493
  73   2.0000     -10.276625      -279.6412
  74   2.0000     -10.264030      -279.2984
  75   2.0000      -8.078159      -219.8179
  76   2.0000      -8.069830      -219.5912
  77   2.0000      -6.047269      -164.5546
  78   2.0000      -6.043240      -164.4449
  79   2.0000      -6.040653      -164.3745
  80   2.0000      -6.038999      -164.3295
  81   2.0000      -6.034694      -164.2124
  82   2.0000      -6.032294      -164.1471
  83   2.0000      -1.129816       -30.7439
  84   2.0000      -1.127152       -30.6714
  85   2.0000      -1.077206       -29.3123
  86   2.0000      -1.020196       -27.7610
  87   2.0000      -1.013145       -27.5691
  88   2.0000      -1.011942       -27.5363
  89   2.0000      -1.007760       -27.4226
  90   2.0000      -1.005802       -27.3693
  91   2.0000      -0.993707       -27.0401
  92   2.0000      -0.992692       -27.0125
  93   2.0000      -0.989867       -26.9357
  94   2.0000      -0.988356       -26.8945
  95   2.0000      -0.987296       -26.8657
  96   2.0000      -0.982800       -26.7434
  97   2.0000      -0.981316       -26.7030
  98   2.0000      -0.969892       -26.3921
  99   2.0000      -0.965898       -26.2834
 100   2.0000      -0.962383       -26.1878
 101   2.0000      -0.941324       -25.6147
 102   2.0000      -0.927715       -25.2444
 103   2.0000      -0.919688       -25.0260
 104   2.0000      -0.915757       -24.9190
 105   2.0000      -0.904963       -24.6253
 106   2.0000      -0.897459       -24.4211
 107   2.0000      -0.893265       -24.3070
 108   2.0000      -0.879292       -23.9267
 109   2.0000      -0.877853       -23.8876
 110   2.0000      -0.874526       -23.7971
 111   2.0000      -0.871929       -23.7264
 112   2.0000      -0.871609       -23.7177
 113   2.0000      -0.863040       -23.4845
 114   2.0000      -0.848415       -23.0865
 115   2.0000      -0.848033       -23.0762
 116   2.0000      -0.837493       -22.7894
 117   2.0000      -0.831338       -22.6218
 118   2.0000      -0.824214       -22.4280
 119   2.0000      -0.822374       -22.3779
 120   2.0000      -0.819628       -22.3032
 121   2.0000      -0.804272       -21.8854
 122   2.0000      -0.791392       -21.5349
 123   2.0000      -0.780489       -21.2382
 124   2.0000      -0.766560       -20.8592
 125   2.0000      -0.756705       -20.5910
 126   2.0000      -0.754225       -20.5235
 127   2.0000      -0.753201       -20.4956
 128   2.0000      -0.740867       -20.1600
 129   2.0000      -0.725372       -19.7384
 130   2.0000      -0.720974       -19.6187
 131   2.0000      -0.718801       -19.5596
 132   2.0000      -0.708646       -19.2832
 133   2.0000      -0.699959       -19.0468
 134   2.0000      -0.698334       -19.0026
 135   2.0000      -0.695765       -18.9327
 136   2.0000      -0.692137       -18.8340
 137   2.0000      -0.690443       -18.7879
 138   2.0000      -0.682293       -18.5661
 139   2.0000      -0.674192       -18.3457
 140   2.0000      -0.673242       -18.3198
 141   2.0000      -0.670051       -18.2330
 142   2.0000      -0.666022       -18.1234
 143   2.0000      -0.658553       -17.9201
 144   2.0000      -0.651741       -17.7348
 145   2.0000      -0.649493       -17.6736
 146   2.0000      -0.637477       -17.3466
 147   2.0000      -0.632856       -17.2209
 148   2.0000      -0.629761       -17.1367
 149   2.0000      -0.624733       -16.9998
 150   2.0000      -0.620196       -16.8764
 151   2.0000      -0.611058       -16.6277
 152   2.0000      -0.607440       -16.5293
 153   2.0000      -0.603220       -16.4144
 154   2.0000      -0.601139       -16.3578
 155   2.0000      -0.599595       -16.3158
 156   2.0000      -0.596685       -16.2366
 157   2.0000      -0.583959       -15.8903
 158   2.0000      -0.575837       -15.6693
 159   2.0000      -0.572388       -15.5755
 160   2.0000      -0.568647       -15.4737
 161   2.0000      -0.560865       -15.2619
 162   2.0000      -0.554665       -15.0932
 163   2.0000      -0.553385       -15.0584
 164   2.0000      -0.550266       -14.9735
 165   2.0000      -0.546069       -14.8593
 166   2.0000      -0.542762       -14.7693
 167   2.0000      -0.542345       -14.7580
 168   2.0000      -0.539352       -14.6765
 169   2.0000      -0.538174       -14.6445
 170   2.0000      -0.535426       -14.5697
 171   2.0000      -0.532214       -14.4823
 172   2.0000      -0.529095       -14.3974
 173   2.0000      -0.526917       -14.3382
 174   2.0000      -0.526436       -14.3251
 175   2.0000      -0.522803       -14.2262
 176   2.0000      -0.520520       -14.1641
 177   2.0000      -0.518745       -14.1158
 178   2.0000      -0.516676       -14.0595
 179   2.0000      -0.514253       -13.9935
 180   2.0000      -0.512775       -13.9533
 181   2.0000      -0.512017       -13.9327
 182   2.0000      -0.509242       -13.8572
 183   2.0000      -0.507652       -13.8139
 184   2.0000      -0.503883       -13.7113
 185   2.0000      -0.503089       -13.6897
 186   2.0000      -0.500698       -13.6247
 187   2.0000      -0.500305       -13.6140
 188   2.0000      -0.498762       -13.5720
 189   2.0000      -0.497940       -13.5496
 190   2.0000      -0.496088       -13.4992
 191   2.0000      -0.491526       -13.3751
 192   2.0000      -0.490745       -13.3538
 193   2.0000      -0.486141       -13.2286
 194   2.0000      -0.484181       -13.1752
 195   2.0000      -0.482732       -13.1358
 196   2.0000      -0.477143       -12.9837
 197   2.0000      -0.476484       -12.9658
 198   2.0000      -0.474205       -12.9038
 199   2.0000      -0.468438       -12.7469
 200   2.0000      -0.466733       -12.7004
 201   2.0000      -0.464841       -12.6490
 202   2.0000      -0.460765       -12.5381
 203   2.0000      -0.456638       -12.4257
 204   2.0000      -0.456465       -12.4211
 205   2.0000      -0.449511       -12.2318
 206   2.0000      -0.445992       -12.1361
 207   2.0000      -0.443809       -12.0766
 208   2.0000      -0.442283       -12.0351
 209   2.0000      -0.440943       -11.9987
 210   2.0000      -0.440273       -11.9804
 211   2.0000      -0.439945       -11.9715
 212   2.0000      -0.438785       -11.9399
 213   2.0000      -0.437569       -11.9069
 214   2.0000      -0.435641       -11.8544
 215   2.0000      -0.435341       -11.8462
 216   2.0000      -0.434110       -11.8127
 217   2.0000      -0.433076       -11.7846
 218   2.0000      -0.430402       -11.7118
 219   2.0000      -0.429317       -11.6823
 220   2.0000      -0.429066       -11.6755
 221   2.0000      -0.428138       -11.6502
 222   2.0000      -0.425504       -11.5786
 223   2.0000      -0.423905       -11.5350
 224   2.0000      -0.423318       -11.5191
 225   2.0000      -0.421967       -11.4823
 226   2.0000      -0.420412       -11.4400
 227   2.0000      -0.419048       -11.4029
 228   2.0000      -0.414641       -11.2830
 229   2.0000      -0.412668       -11.2293
 230   2.0000      -0.411390       -11.1945
 231   2.0000      -0.409208       -11.1351
 232   2.0000      -0.407605       -11.0915
 233   2.0000      -0.404392       -11.0041
 234   2.0000      -0.401762       -10.9325
 235   2.0000      -0.398128       -10.8336
 236   2.0000      -0.393733       -10.7140
 237   2.0000      -0.387442       -10.5428
 238   2.0000      -0.386069       -10.5055
 239   2.0000      -0.373558       -10.1650
 240   2.0000      -0.371425       -10.1070
 241   2.0000      -0.360103        -9.7989
 242   2.0000      -0.353496        -9.6191
 243   2.0000      -0.341733        -9.2990
 244   2.0000      -0.337137        -9.1740
 245   2.0000      -0.335308        -9.1242
 246   2.0000      -0.331869        -9.0306
 247   2.0000      -0.330782        -9.0010
 248   2.0000      -0.321574        -8.7505
 249   2.0000      -0.314378        -8.5547
 250   2.0000      -0.312485        -8.5032
 251   2.0000      -0.307547        -8.3688
 252   2.0000      -0.291968        -7.9448
 253   2.0000      -0.285065        -7.7570
 254   2.0000      -0.280061        -7.6208
 255   2.0000      -0.269400        -7.3307
 256   2.0000      -0.253183        -6.8895
 257   0.0000      -0.124909        -3.3990
 258   0.0000      -0.091412        -2.4875
 259   0.0000      -0.072393        -1.9699
 260   0.0000      -0.058519        -1.5924
 261   0.0000      -0.049213        -1.3392

MULLIKEN ATOMIC CHARGES
-----------------------
   0 C :    0.340275
   1 C :   -0.344283
   2 C :   -0.180027
   3 N :    0.154197
   4 C :   -0.174030
   5 N :    0.138637
   6 C :    0.045609
   7 C :   -0.008040
   8 C :   -0.082279
   9 C :    0.094230
  10 C :    0.088832
  11 C :   -0.077967
  12 C :   -0.025664
  13 C :    0.054222
  14 C :    0.039703
  15 C :   -0.026731
  16 C :    0.169978
  17 O :   -0.153770
  18 C :   -0.068161
  19 C :    0.038868
  20 C :   -0.106249
  21 S :    0.149921
  22 C :   -0.069288
  23 C :   -0.088031
  24 C :    0.041671
  25 C :   -0.177570
  26 N :    0.150439
  27 C :    0.068286
  28 C :    0.002557
  29 C :   -0.163556
  30 S :    0.158578
  31 C :   -0.129567
  32 C :   -0.069046
  33 C :   -0.028035
  34 C :    0.094416
  35 C :    0.079388
  36 C :   -0.003165
  37 C :    0.155519
  38 N :   -0.092895
  39 C :    0.099459
  40 C :   -0.108015
  41 C :    0.144627
  42 C :   -0.169348
  43 C :    0.168130
  44 C :   -0.123856
  45 C :   -0.001874
  46 C :   -0.160676
  47 N :    0.158475
  48 C :    0.095243
  49 C :   -0.129274
  50 C :    0.073769
  51 C :    0.006013
  52 C :   -0.102606
  53 C :   -0.191764
  54 N :    0.139552
  55 C :   -0.026811
  56 C :   -0.066396
  57 C :    0.347350
  58 C :   -0.388075
  59 C :   -0.195526
  60 N :    0.151573
  61 C :   -0.183181
  62 N :    0.161819
  63 C :    0.066335
  64 C :   -0.012168
  65 C :    0.144518
  66 O :   -0.146281
  67 C :   -0.095451
  68 C :    0.101093
  69 C :    0.098108
  70 C :   -0.100737
  71 C :   -0.024578
  72 C :    0.035216
  73 C :    0.037140
  74 C :   -0.017238
  75 H :   -0.013031
  76 H :   -0.004799
  77 H :   -0.001513
  78 H :   -0.001303
  79 H :   -0.007040
  80 H :   -0.017164
  81 H :   -0.003175
  82 H :    0.033354
  83 H :   -0.014614
  84 H :    0.030774
  85 H :    0.019921
  86 H :    0.022390
  87 H :    0.009407
  88 H :    0.013532
  89 H :    0.013962
  90 H :    0.000863
  91 H :    0.019408
  92 H :    0.007531
  93 H :    0.143526
  94 H :    0.043023
  95 H :   -0.017741
  96 H :   -0.011606
  97 H :   -0.000854
  98 H :    0.018505
  99 H :    0.006083
 100 H :   -0.001478
 101 H :   -0.014359
 102 H :   -0.013453
 103 H :   -0.011883
 104 H :   -0.005145
 105 H :   -0.006351
 106 H :   -0.018307
Sum of atomic charges:   -0.0000000

LOEWDIN ATOMIC CHARGES
----------------------
   0 C :    0.070487
   1 C :   -0.119798
   2 C :   -0.010177
   3 N :   -0.046736
   4 C :   -0.016091
   5 N :   -0.060672
   6 C :   -0.028057
   7 C :   -0.057581
   8 C :    0.029106
   9 C :   -0.014222
  10 C :   -0.011694
  11 C :    0.028378
  12 C :   -0.000698
  13 C :   -0.009489
  14 C :   -0.011559
  15 C :   -0.013593
  16 C :    0.086861
  17 O :   -0.135475
  18 C :   -0.078149
  19 C :    0.032021
  20 C :   -0.174063
  21 S :    0.495925
  22 C :   -0.125189
  23 C :   -0.107454
  24 C :    0.023983
  25 C :   -0.027449
  26 N :   -0.046419
  27 C :   -0.045385
  28 C :   -0.016203
  29 C :   -0.175512
  30 S :    0.466162
  31 C :   -0.185451
  32 C :   -0.064962
  33 C :   -0.076368
  34 C :    0.041013
  35 C :   -0.027729
  36 C :   -0.029182
  37 C :   -0.021701
  38 N :    0.048898
  39 C :    0.099615
  40 C :   -0.132307
  41 C :    0.018650
  42 C :   -0.092658
  43 C :    0.063869
  44 C :   -0.073427
  45 C :    0.048975
  46 C :   -0.026576
  47 N :   -0.047330
  48 C :   -0.014647
  49 C :    0.016860
  50 C :   -0.051369
  51 C :    0.051045
  52 C :   -0.093951
  53 C :   -0.022180
  54 N :   -0.079731
  55 C :    0.080318
  56 C :   -0.098649
  57 C :    0.078559
  58 C :   -0.141753
  59 C :   -0.012039
  60 N :   -0.065806
  61 C :   -0.023196
  62 N :   -0.050356
  63 C :   -0.021481
  64 C :   -0.056515
  65 C :    0.083562
  66 O :   -0.141398
  67 C :    0.028377
  68 C :   -0.011112
  69 C :   -0.008299
  70 C :    0.014709
  71 C :   -0.008629
  72 C :   -0.014876
  73 C :   -0.014679
  74 C :   -0.009905
  75 H :    0.038046
  76 H :    0.041488
  77 H :    0.038311
  78 H :    0.035431
  79 H :    0.031937
  80 H :    0.030819
  81 H :    0.039814
  82 H :    0.044013
  83 H :    0.027066
  84 H :    0.041550
  85 H :    0.025334
  86 H :    0.030985
  87 H :    0.028562
  88 H :    0.030859
  89 H :    0.030670
  90 H :    0.018802
  91 H :    0.034979
  92 H :    0.033094
  93 H :    0.088448
  94 H :    0.044528
  95 H :    0.023234
  96 H :    0.026333
  97 H :    0.036862
  98 H :    0.035416
  99 H :    0.032372
 100 H :    0.047704
 101 H :    0.038286
 102 H :    0.036972
 103 H :    0.033856
 104 H :    0.032836
 105 H :    0.032282
 106 H :    0.031664

  Mayer bond orders larger than 0.100000
B(  0-C ,  1-C ) :   1.6449 B(  0-C ,  6-C ) :   0.9788 B(  0-C , 18-C ) :   1.0533
B(  1-C ,  2-C ) :   1.1528 B(  1-C ,  4-C ) :   1.1359 B(  2-C ,  3-N ) :   2.9639
B(  4-C ,  5-N ) :   2.9409 B(  6-C ,  7-C ) :   1.2194 B(  6-C , 11-C ) :   1.4396
B(  7-C ,  8-C ) :   1.4530 B(  7-C , 16-C ) :   0.9575 B(  8-C ,  9-C ) :   1.1574
B(  8-C , 75-H ) :   1.0238 B(  9-C , 10-C ) :   1.2713 B(  9-C , 15-C ) :   1.2466
B( 10-C , 11-C ) :   1.1949 B( 10-C , 12-C ) :   1.2280 B( 11-C , 76-H ) :   0.9899
B( 12-C , 13-C ) :   1.4637 B( 12-C , 77-H ) :   1.0036 B( 13-C , 14-C ) :   1.2673
B( 13-C , 78-H ) :   0.9882 B( 14-C , 15-C ) :   1.4680 B( 14-C , 79-H ) :   0.9843
B( 15-C , 80-H ) :   0.9987 B( 16-C , 17-O ) :   2.1225 B( 16-C , 18-C ) :   0.9286
B( 18-C , 19-C ) :   1.6616 B( 19-C , 20-C ) :   1.1592 B( 19-C , 81-H ) :   0.8906
B( 20-C , 21-S ) :   1.1188 B( 20-C , 24-C ) :   1.4426 B( 21-S , 22-C ) :   1.1638
B( 22-C , 23-C ) :   1.4275 B( 22-C , 27-C ) :   1.1472 B( 23-C , 24-C ) :   1.2812
B( 23-C , 25-C ) :   1.1215 B( 24-C , 82-H ) :   0.9863 B( 25-C , 26-N ) :   2.9732
B( 27-C , 28-C ) :   1.7138 B( 27-C , 83-H ) :   0.9380 B( 28-C , 29-C ) :   1.0910
B( 28-C , 84-H ) :   0.9436 B( 29-C , 30-S ) :   1.1643 B( 29-C , 33-C ) :   1.5092
B( 30-S , 31-C ) :   1.1679 B( 31-C , 32-C ) :   1.5618 B( 31-C , 85-H ) :   0.9712
B( 32-C , 33-C ) :   1.3104 B( 32-C , 37-C ) :   1.0274 B( 33-C , 34-C ) :   0.9874
B( 34-C , 35-C ) :   1.0641 B( 34-C , 38-N ) :   0.9714 B( 34-C , 86-H ) :   0.9029
B( 35-C , 36-C ) :   1.0641 B( 35-C , 87-H ) :   0.9357 B( 35-C , 88-H ) :   0.9304
B( 36-C , 37-C ) :   1.0840 B( 36-C , 89-H ) :   0.9354 B( 36-C , 90-H ) :   0.9493
B( 37-C , 91-H ) :   0.9148 B( 37-C , 92-H ) :   0.9243 B( 38-N , 39-C ) :   1.3318
B( 38-N , 93-H ) :   0.9228 B( 39-C , 40-C ) :   1.4815 B( 39-C , 94-H ) :   0.9630
B( 40-C , 41-C ) :   1.2135 B( 40-C , 95-H ) :   0.9641 B( 41-C , 42-C ) :   1.4434
B( 41-C , 45-C ) :   0.9918 B( 42-C , 43-C ) :   1.2287 B( 42-C , 96-H ) :   0.9947
B( 43-C , 44-C ) :   1.0819 B( 43-C , 48-C ) :   1.3019 B( 44-C , 45-C ) :   1.6982
B( 44-C , 46-C ) :   1.1033 B( 45-C , 97-H ) :   1.0329 B( 46-C , 47-N ) :   2.8847
B( 48-C , 49-C ) :   1.1399 B( 48-C , 52-C ) :   1.1624 B( 49-C , 50-C ) :   1.3851
B( 49-C , 98-H ) :   1.0163 B( 50-C , 51-C ) :   1.1121 B( 50-C , 55-C ) :   1.1607
B( 51-C , 52-C ) :   1.5712 B( 51-C , 99-H ) :   1.0104 B( 52-C , 53-C ) :   1.1135
B( 53-C , 54-N ) :   2.9431 B( 55-C , 56-C ) :   1.5171 B( 55-C ,100-H ) :   0.9370
B( 56-C , 57-C ) :   1.0817 B( 56-C , 65-C ) :   0.9270 B( 57-C , 58-C ) :   1.6219
B( 57-C , 63-C ) :   0.9718 B( 58-C , 59-C ) :   1.1582 B( 58-C , 61-C ) :   1.1479
B( 59-C , 60-N ) :   2.9457 B( 61-C , 62-N ) :   2.9197 B( 63-C , 64-C ) :   1.2164
B( 63-C , 70-C ) :   1.4428 B( 64-C , 65-C ) :   0.9496 B( 64-C , 67-C ) :   1.4620
B( 65-C , 66-O ) :   2.1859 B( 67-C , 68-C ) :   1.1712 B( 67-C ,101-H ) :   1.0172
B( 68-C , 69-C ) :   1.2579 B( 68-C , 74-C ) :   1.2440 B( 69-C , 70-C ) :   1.1994
B( 69-C , 71-C ) :   1.2376 B( 70-C ,102-H ) :   0.9923 B( 71-C , 72-C ) :   1.4881
B( 71-C ,103-H ) :   0.9984 B( 72-C , 73-C ) :   1.2581 B( 72-C ,104-H ) :   0.9888
B( 73-C , 74-C ) :   1.4888 B( 73-C ,105-H ) :   0.9882 B( 74-C ,106-H ) :   0.9973

-----------------------------------------------------------------------------
         ABSORPTION SPECTRUM VIA TRANSITION ELECTRIC DIPOLE MOMENTS
-----------------------------------------------------------------------------
State   Energy  Wavelength   fosc         T2         TX        TY        TZ
        (cm-1)    (nm)                  (au**2)     (au)      (au)      (au)
-----------------------------------------------------------------------------
   0   10992.7    909.7   0.388422560  11.63253   3.31793   0.74497   0.26242
   1   13997.6    714.4   0.134377618   3.16045   1.60035   0.60854  -0.47854
   2   17118.3    584.2   0.017828285   0.34287   0.28621   0.15525  -0.48667
   3   17751.0    563.3   0.042737414   0.79261   0.87100   0.05102   0.17709
   4   18945.9    527.8   0.006697459   0.11638  -0.00980   0.13239   0.31425
   5   21636.5    462.2   0.062007285   0.94348  -0.54849   0.43788   0.67149
   6   22227.7    449.9   0.640258225   9.48281   2.93032   0.40846  -0.85393
   7   22829.1    438.0   0.186177114   2.68481   1.60034  -0.03712  -0.34975
   8   24275.2    411.9   0.366262903   4.96712   2.17338   0.11595  -0.47967
   9   24602.7    406.5   0.235494243   3.15118  -1.45943   0.86780   0.51784
  10   24936.3    401.0   0.050478806   0.66643  -0.73982   0.11949   0.32375
  11   25369.9    394.2   0.010307758   0.13376   0.08871   0.34460   0.08447
  12   25740.4    388.5   0.015712196   0.20095   0.05591  -0.44320   0.03745
  13   26136.0    382.6   0.528629887   6.65868  -2.56754  -0.24556   0.07825
  14   26501.4    377.3   0.003681964   0.04574  -0.20596   0.03094   0.04861
  15   26604.6    375.9   0.002500772   0.03095   0.01252  -0.10654   0.13942
  16   27399.6    365.0   0.021936867   0.26358   0.05460   0.48688   0.15342
  17   27654.7    361.6   0.120318313   1.43231  -1.00477   0.60754   0.23161
  18   27861.7    358.9   0.021122161   0.24958  -0.30889  -0.24273  -0.30862
  19   28038.4    356.7   0.081631820   0.95848   0.94752  -0.11494  -0.21788
  20   28382.3    352.3   0.048541026   0.56304  -0.74841   0.00155  -0.05398
  21   28743.3    347.9   0.087462905   1.00176  -1.00054   0.00687  -0.02515
  22   28980.2    345.1   0.037873423   0.43024  -0.45598  -0.46356  -0.08620
  23   29407.8    340.0   0.017115939   0.19161  -0.41484   0.08018   0.11439
  24   29719.2    336.5   0.038615419   0.42776   0.01736   0.16708   0.63209
  25   29882.4    334.6   0.280796962   3.09352   1.34105   0.74579   0.85959
  26   30220.5    330.9   0.171865832   1.87225  -1.18917  -0.54087  -0.40691
  27   30772.7    325.0   0.346878684   3.71098  -1.51555  -0.62399  -1.01229
  28   31270.2    319.8   0.075831218   0.79835   0.39176  -0.74725  -0.29409
  29   31636.3    316.1   0.069430005   0.72250  -0.80636  -0.11600   0.24254
  30   31661.8    315.8   0.304147604   3.16246  -1.60977  -0.43824  -0.61566
  31   32044.7    312.1   0.076641528   0.78738  -0.81959  -0.06264  -0.33425
  32   32369.5    308.9   0.013848135   0.14084   0.32557   0.10811   0.15218
  33   32733.5    305.5   0.119202688   1.19886  -0.86771  -0.14013  -0.65292
  34   33013.9    302.9   0.002586725   0.02579  -0.05335   0.07447  -0.13192
  35   33324.8    300.1   0.009046834   0.08937  -0.19655  -0.18087  -0.13428
  36   33553.0    298.0   0.147405116   1.44629  -0.96864  -0.52327  -0.48396
  37   33702.1    296.7   0.019898519   0.19437  -0.28439  -0.27493  -0.19471
  38   34030.7    293.9   0.038166283   0.36922  -0.43326  -0.34000  -0.25671
  39   34266.9    291.8   0.170100038   1.63420   1.26489   0.02401  -0.18354
  40   34562.2    289.3   0.045016255   0.42879  -0.64439  -0.10220  -0.05578
  41   34967.3    286.0   0.058578568   0.55151  -0.64594   0.04352  -0.36384
  42   35054.1    285.3   0.001750880   0.01644   0.05105  -0.02819   0.11421
  43   35202.8    284.1   0.000490423   0.00459  -0.01178   0.06378   0.01950
  44   35542.7    281.4   0.147028308   1.36184  -0.82528  -0.52823  -0.63382
  45   35791.1    279.4   0.024016892   0.22091   0.39429   0.19898   0.16079
  46   35993.7    277.8   0.087549921   0.80077   0.14272   0.53469   0.70321
  47   36165.3    276.5   0.037928523   0.34526   0.07775   0.20200   0.54628
  48   36301.9    275.5   0.059373226   0.53844   0.25831  -0.28747  -0.62376
  49   36799.6    271.7   0.248359135   2.22184   1.25686   0.48751   0.63599
  50   36893.2    271.1   0.212850482   1.89935   0.40318   0.64143   1.15124
  51   37264.3    268.4   0.026168909   0.23119   0.40452  -0.05274   0.25450
  52   37405.9    267.3   0.094553618   0.83217   0.64353   0.41487   0.49591
  53   37542.6    266.4   0.128016348   1.12258   0.19520   0.36132   0.97669
  54   37791.3    264.6   0.005843088   0.05090   0.19464   0.07906   0.08226
  55   37846.8    264.2   0.121891813   1.06028   0.86455   0.11144   0.54810
  56   38058.0    262.8   0.271898190   2.35200  -1.27409   0.11442   0.84593
  57   38230.4    261.6   0.161783557   1.39316  -1.12382  -0.11169   0.34311
  58   38552.9    259.4   0.074252047   0.63405  -0.56887   0.31899   0.45683
  59   38865.1    257.3   0.013687109   0.11594  -0.00241   0.28252  -0.19004
  60   39113.3    255.7   0.007529407   0.06337  -0.11180   0.19600  -0.11163
  61   39226.7    254.9   0.053264384   0.44702   0.49682   0.23976   0.37777
  62   39539.9    252.9   0.074600970   0.62113  -0.72218  -0.13922  -0.28321
  63   39740.2    251.6   0.162933318   1.34976  -0.85536  -0.35824  -0.69984
  64   40116.2    249.3   0.032595844   0.26750   0.36060   0.17361   0.32760

FINAL SINGLE POINT ENERGY     -3800.540482914914

DIPOLE MOMENT
-------------
                                X             Y             Z
Electronic contribution:     25.58661     -13.90990      -6.27928
Nuclear contribution   :    -29.65101      15.09020       8.36019
                        -----------------------------------------
Total Dipole Moment    :     -4.06441       1.18030       2.08091
                        -----------------------------------------
Magnitude (a.u.)       :      4.71622
Magnitude (Debye)      :     11.98767

Rotational constants in cm-1:     0.002238     0.000466     0.000425
Rotational constants in MHz :    67.099143    13.978772    12.753532

                             ****ORCA TERMINATED NORMALLY****
TOTAL RUN TIME: 0 days 0 hours 16 minutes 27 seconds 679 msec
