                         Program Version 4.2.0 -  RELEASE  -
|  1> # ORCA input file
|  2> # SCF done       -187.598920878369          0.000692450854
|  3> ! CAM-B3LYP def2-SVP def2/J RIJCOSX Grid4 TightSCF
|  4> %maxcore 5000
|  5> %tddft
|  6>     Mode sTDDFT
|  7>     Ethresh 5.0
|  8>     maxcore 5000
|  9> end
| 10>
| 11> %pal
| 12>   nprocs 6
| 13>   end
| 14> * xyz 0 1
| 15>    C        0.06953         0.23889        -1.33315
| 16>    C       -0.99770         0.96927        -1.77818
| 17>    C       -1.75241         0.63086        -2.92140
| 18>    N       -2.39274         0.39820        -3.84460
| 19>    C       -1.52839         2.08887        -1.10340
| 20>    N       -2.03745         2.97072        -0.57392
| 21>    C        0.49728        -1.04648        -1.87160
| 22>    C        1.27173        -1.72092        -0.88193
| 23>    C        1.78082        -2.96938        -1.09884
| 24>    C        1.54308        -3.60509        -2.33796
| 25>    C        0.78441        -2.92863        -3.33721
| 26>    C        0.26483        -1.63891        -3.08407
| 27>    C        0.56164        -3.57128        -4.57216
| 28>    C        1.06013        -4.82299        -4.80967
| 29>    C        1.80608        -5.48871        -3.82523
| 30>    C        2.04212        -4.89311        -2.61609
| 31>    C        1.41163        -0.85607         0.30192
| 32>    O        1.94069        -1.10882         1.35848
| 33>    C        0.81070         0.45395        -0.09998
| 34>    C        1.10442         1.56789         0.60436
| 35>    C        0.93354         2.94599         0.20561
| 36>    C        0.65097         3.91261         1.19309
| 37>    C        0.45539         5.23859         0.89182
| 38>    C        0.58319         5.61592        -0.44270
| 39>    C        0.90947         4.65099        -1.42787
| 40>    C        1.08495         3.31892        -1.13090
| 41>    O        0.98418         5.28711        -2.61251
| 42>    C        0.69842         6.58390        -2.32554
| 43>    N        0.46186         6.82188        -1.06381
| 44>    C        0.68622         7.51080        -3.40895
| 45>    N        0.39674         8.84425        -3.29677
| 46>    C        0.01037         9.54857        -2.09756
| 47>    C       -1.46750         9.34532        -1.77984
| 48>    C        0.45323         9.48716        -4.54736
| 49>    O        0.23578        10.67278        -4.70325
| 50>    C        0.82153         8.44071        -5.47466
| 51>    C        0.96215         7.23435        -4.73915
| 52>    C        1.34535         6.18298        -5.66241
| 53>    O        1.58263         5.00617        -5.51746
| 54>    N        1.40059         6.83756        -6.91261
| 55>    C        1.79124         6.12937        -8.10763
| 56>    C        3.24653         6.40243        -8.47947
| 57>    C        1.09397         8.17274        -6.81433
| 58>    C        1.05419         9.05188        -7.92732
| 59>    C        0.71989        10.36120        -7.81952
| 60>    C        0.66307        11.20631        -8.96008
| 61>    S        0.11855        12.87336        -8.87829
| 62>    C        0.39127        12.91108       -10.61401
| 63>    N        0.84002        11.77257       -11.07248
| 64>    N        0.98555        10.84625       -10.17666
| 65>    C        0.11217        14.06110       -11.40446
| 66>    C        0.34978        14.08359       -12.73602
| 67>    C        0.08407        15.16631       -13.62130
| 68>    C       -0.91849        16.08594       -13.55590
| 69>    C       -1.11473        17.16581       -14.51290
| 70>    C       -0.14738        17.72356       -15.30497
| 71>    C       -0.37948        18.79336       -16.19506
| 72>    N       -0.51168        19.65687       -16.93960
| 73>    C        1.21125        17.34067       -15.30542
| 74>    N        2.33288        17.09913       -15.34245
| 75>    C       -2.49732        17.60940       -14.41065
| 76>    C       -3.11574        16.90961       -13.33579
| 77>    C       -2.14481        15.99421       -12.71132
| 78>    O       -2.33942        15.29748       -11.74005
| 79>    C       -4.42149        17.11846       -12.99573
| 80>    C       -5.18398        18.05134       -13.73323
| 81>    C       -4.57450        18.75005       -14.81568
| 82>    C       -3.21935        18.51536       -15.14213
| 83>    C       -5.34768        19.67355       -15.54851
| 84>    C       -6.65890        19.89838       -15.22848
| 85>    C       -7.25743        19.21100       -14.16186
| 86>    C       -6.53556        18.30788       -13.42966
| 87>    H        2.35938        -3.46631        -0.33433
| 88>    H       -0.29524        -1.14288        -3.86143
| 89>    H       -0.01555        -3.05561        -5.32547
| 90>    H        0.88216        -5.30785        -5.75780
| 91>    H        2.19305        -6.47561        -4.03023
| 92>    H        2.61598        -5.40080        -1.85468
| 93>    H        1.57757         1.39902         1.56677
| 94>    H        0.55310         3.57915         2.21521
| 95>    H        0.21482         5.96669         1.64836
| 96>    H        1.35339         2.60934        -1.89702
| 97>    H        0.21034        10.60629        -2.28882
| 98>    H        0.62254         9.19159        -1.26803
| 99>    H       -2.08123         9.66742        -2.61768
|100>    H       -1.73505         9.93030        -0.90501
|101>    H       -1.66557         8.29755        -1.57150
|102>    H        1.12287         6.40059        -8.92916
|103>    H        1.66263         5.06680        -7.88286
|104>    H        3.40893         7.46096        -8.66890
|105>    H        3.50764         5.84347        -9.37363
|106>    H        3.90161         6.08961        -7.67005
|107>    H        1.28527         8.66112        -8.90737
|108>    H        0.47520        10.79756        -6.86101
|109>    H       -0.28565        14.91782       -10.88523
|110>    H        0.83792        13.22041       -13.17049
|111>    H        0.73318        15.20293       -14.48955
|112>    H       -4.86724        16.57706       -12.17448
|113>    H       -2.78748        19.05300       -15.97142
|114>    H       -4.88202        20.20157       -16.36763
|115>    H       -7.24260        20.60770       -15.79576
|116>    H       -8.29339        19.40028       -13.92372
|117>    H       -6.99095        17.77554       -12.60746
|118> *
|119>
|120>                          ****END OF INPUT****

CARTESIAN COORDINATES (ANGSTROEM)
---------------------------------
  C      0.069530    0.238890   -1.333150
  C     -0.997700    0.969270   -1.778180
  C     -1.752410    0.630860   -2.921400
  N     -2.392740    0.398200   -3.844600
  C     -1.528390    2.088870   -1.103400
  N     -2.037450    2.970720   -0.573920
  C      0.497280   -1.046480   -1.871600
  C      1.271730   -1.720920   -0.881930
  C      1.780820   -2.969380   -1.098840
  C      1.543080   -3.605090   -2.337960
  C      0.784410   -2.928630   -3.337210
  C      0.264830   -1.638910   -3.084070
  C      0.561640   -3.571280   -4.572160
  C      1.060130   -4.822990   -4.809670
  C      1.806080   -5.488710   -3.825230
  C      2.042120   -4.893110   -2.616090
  C      1.411630   -0.856070    0.301920
  O      1.940690   -1.108820    1.358480
  C      0.810700    0.453950   -0.099980
  C      1.104420    1.567890    0.604360
  C      0.933540    2.945990    0.205610
  C      0.650970    3.912610    1.193090
  C      0.455390    5.238590    0.891820
  C      0.583190    5.615920   -0.442700
  C      0.909470    4.650990   -1.427870
  C      1.084950    3.318920   -1.130900
  O      0.984180    5.287110   -2.612510
  C      0.698420    6.583900   -2.325540
  N      0.461860    6.821880   -1.063810
  C      0.686220    7.510800   -3.408950
  N      0.396740    8.844250   -3.296770
  C      0.010370    9.548570   -2.097560
  C     -1.467500    9.345320   -1.779840
  C      0.453230    9.487160   -4.547360
  O      0.235780   10.672780   -4.703250
  C      0.821530    8.440710   -5.474660
  C      0.962150    7.234350   -4.739150
  C      1.345350    6.182980   -5.662410
  O      1.582630    5.006170   -5.517460
  N      1.400590    6.837560   -6.912610
  C      1.791240    6.129370   -8.107630
  C      3.246530    6.402430   -8.479470
  C      1.093970    8.172740   -6.814330
  C      1.054190    9.051880   -7.927320
  C      0.719890   10.361200   -7.819520
  C      0.663070   11.206310   -8.960080
  S      0.118550   12.873360   -8.878290
  C      0.391270   12.911080  -10.614010
  N      0.840020   11.772570  -11.072480
  N      0.985550   10.846250  -10.176660
  C      0.112170   14.061100  -11.404460
  C      0.349780   14.083590  -12.736020
  C      0.084070   15.166310  -13.621300
  C     -0.918490   16.085940  -13.555900
  C     -1.114730   17.165810  -14.512900
  C     -0.147380   17.723560  -15.304970
  C     -0.379480   18.793360  -16.195060
  N     -0.511680   19.656870  -16.939600
  C      1.211250   17.340670  -15.305420
  N      2.332880   17.099130  -15.342450
  C     -2.497320   17.609400  -14.410650
  C     -3.115740   16.909610  -13.335790
  C     -2.144810   15.994210  -12.711320
  O     -2.339420   15.297480  -11.740050
  C     -4.421490   17.118460  -12.995730
  C     -5.183980   18.051340  -13.733230
  C     -4.574500   18.750050  -14.815680
  C     -3.219350   18.515360  -15.142130
  C     -5.347680   19.673550  -15.548510
  C     -6.658900   19.898380  -15.228480
  C     -7.257430   19.211000  -14.161860
  C     -6.535560   18.307880  -13.429660
  H      2.359380   -3.466310   -0.334330
  H     -0.295240   -1.142880   -3.861430
  H     -0.015550   -3.055610   -5.325470
  H      0.882160   -5.307850   -5.757800
  H      2.193050   -6.475610   -4.030230
  H      2.615980   -5.400800   -1.854680
  H      1.577570    1.399020    1.566770
  H      0.553100    3.579150    2.215210
  H      0.214820    5.966690    1.648360
  H      1.353390    2.609340   -1.897020
  H      0.210340   10.606290   -2.288820
  H      0.622540    9.191590   -1.268030
  H     -2.081230    9.667420   -2.617680
  H     -1.735050    9.930300   -0.905010
  H     -1.665570    8.297550   -1.571500
  H      1.122870    6.400590   -8.929160
  H      1.662630    5.066800   -7.882860
  H      3.408930    7.460960   -8.668900
  H      3.507640    5.843470   -9.373630
  H      3.901610    6.089610   -7.670050
  H      1.285270    8.661120   -8.907370
  H      0.475200   10.797560   -6.861010
  H     -0.285650   14.917820  -10.885230
  H      0.837920   13.220410  -13.170490
  H      0.733180   15.202930  -14.489550
  H     -4.867240   16.577060  -12.174480
  H     -2.787480   19.053000  -15.971420
  H     -4.882020   20.201570  -16.367630
  H     -7.242600   20.607700  -15.795760
  H     -8.293390   19.400280  -13.923720
  H     -6.990950   17.775540  -12.607460

 Total Charge           Charge          ....    0
 Multiplicity           Mult            ....    1
 Number of Electrons    NEL             ....  492
 Basis Dimension        Dim             .... 1167

ORBITAL ENERGIES
----------------

  NO   OCC          E(Eh)            E(eV)
   0   2.0000     -88.982496     -2421.3368
   1   2.0000     -19.306777      -525.3641
   2   2.0000     -19.221652      -523.0477
   3   2.0000     -19.215525      -522.8810
   4   2.0000     -19.195791      -522.3440
   5   2.0000     -19.193616      -522.2848
   6   2.0000     -14.458130      -393.4257
   7   2.0000     -14.458040      -393.4233
   8   2.0000     -14.448229      -393.1563
   9   2.0000     -14.447993      -393.1499
  10   2.0000     -14.423857      -392.4931
  11   2.0000     -14.417080      -392.3087
  12   2.0000     -14.416178      -392.2842
  13   2.0000     -14.415165      -392.2566
  14   2.0000     -14.413109      -392.2006
  15   2.0000     -10.387952      -282.6705
  16   2.0000     -10.380835      -282.4769
  17   2.0000     -10.377105      -282.3754
  18   2.0000     -10.373256      -282.2707
  19   2.0000     -10.366645      -282.0908
  20   2.0000     -10.350035      -281.6388
  21   2.0000     -10.349817      -281.6328
  22   2.0000     -10.349019      -281.6111
  23   2.0000     -10.346831      -281.5516
  24   2.0000     -10.345286      -281.5095
  25   2.0000     -10.344095      -281.4771
  26   2.0000     -10.343915      -281.4722
  27   2.0000     -10.342349      -281.4296
  28   2.0000     -10.341833      -281.4156
  29   2.0000     -10.320322      -280.8302
  30   2.0000     -10.319554      -280.8093
  31   2.0000     -10.318659      -280.7850
  32   2.0000     -10.317409      -280.7510
  33   2.0000     -10.315749      -280.7058
  34   2.0000     -10.315257      -280.6924
  35   2.0000     -10.314873      -280.6820
  36   2.0000     -10.310230      -280.5556
  37   2.0000     -10.308971      -280.5213
  38   2.0000     -10.305552      -280.4283
  39   2.0000     -10.305439      -280.4253
  40   2.0000     -10.305138      -280.4171
  41   2.0000     -10.304321      -280.3948
  42   2.0000     -10.301645      -280.3220
  43   2.0000     -10.300383      -280.2877
  44   2.0000     -10.300147      -280.2813
  45   2.0000     -10.300033      -280.2781
  46   2.0000     -10.299540      -280.2647
  47   2.0000     -10.299412      -280.2612
  48   2.0000     -10.298892      -280.2471
  49   2.0000     -10.298675      -280.2412
  50   2.0000     -10.298421      -280.2343
  51   2.0000     -10.298007      -280.2230
  52   2.0000     -10.297576      -280.2113
  53   2.0000     -10.296067      -280.1702
  54   2.0000     -10.295589      -280.1572
  55   2.0000     -10.295050      -280.1426
  56   2.0000     -10.291840      -280.0552
  57   2.0000     -10.290291      -280.0131
  58   2.0000     -10.288906      -279.9754
  59   2.0000     -10.288383      -279.9611
  60   2.0000     -10.288116      -279.9539
  61   2.0000     -10.287601      -279.9399
  62   2.0000     -10.287489      -279.9368
  63   2.0000     -10.287197      -279.9289
  64   2.0000     -10.286922      -279.9214
  65   2.0000     -10.286749      -279.9167
  66   2.0000     -10.286495      -279.9097
  67   2.0000     -10.285946      -279.8948
  68   2.0000     -10.275094      -279.5995
  69   2.0000     -10.267806      -279.4012
  70   2.0000     -10.264746      -279.3179
  71   2.0000     -10.249952      -278.9154
  72   2.0000      -8.078733      -219.8335
  73   2.0000      -6.047258      -164.5542
  74   2.0000      -6.043935      -164.4638
  75   2.0000      -6.041309      -164.3924
  76   2.0000      -1.240508       -33.7559
  77   2.0000      -1.152197       -31.3529
  78   2.0000      -1.138144       -30.9705
  79   2.0000      -1.137262       -30.9465
  80   2.0000      -1.130895       -30.7732
  81   2.0000      -1.130893       -30.7732
  82   2.0000      -1.069883       -29.1130
  83   2.0000      -1.061290       -28.8792
  84   2.0000      -1.031664       -28.0730
  85   2.0000      -1.020098       -27.7583
  86   2.0000      -1.018245       -27.7079
  87   2.0000      -1.000576       -27.2270
  88   2.0000      -0.998240       -27.1635
  89   2.0000      -0.995046       -27.0766
  90   2.0000      -0.992961       -27.0198
  91   2.0000      -0.974600       -26.5202
  92   2.0000      -0.974493       -26.5173
  93   2.0000      -0.965854       -26.2822
  94   2.0000      -0.958479       -26.0815
  95   2.0000      -0.939535       -25.5660
  96   2.0000      -0.930935       -25.3320
  97   2.0000      -0.926866       -25.2213
  98   2.0000      -0.924691       -25.1621
  99   2.0000      -0.910544       -24.7772
 100   2.0000      -0.906518       -24.6676
 101   2.0000      -0.896007       -24.3816
 102   2.0000      -0.887897       -24.1609
 103   2.0000      -0.884764       -24.0756
 104   2.0000      -0.882218       -24.0064
 105   2.0000      -0.881289       -23.9811
 106   2.0000      -0.872041       -23.7294
 107   2.0000      -0.863620       -23.5003
 108   2.0000      -0.847324       -23.0569
 109   2.0000      -0.844845       -22.9894
 110   2.0000      -0.830734       -22.6054
 111   2.0000      -0.829009       -22.5585
 112   2.0000      -0.819866       -22.3097
 113   2.0000      -0.818941       -22.2845
 114   2.0000      -0.806252       -21.9392
 115   2.0000      -0.794937       -21.6313
 116   2.0000      -0.780801       -21.2467
 117   2.0000      -0.764030       -20.7903
 118   2.0000      -0.760494       -20.6941
 119   2.0000      -0.759345       -20.6628
 120   2.0000      -0.744302       -20.2535
 121   2.0000      -0.740578       -20.1522
 122   2.0000      -0.733042       -19.9471
 123   2.0000      -0.720461       -19.6047
 124   2.0000      -0.710159       -19.3244
 125   2.0000      -0.706768       -19.2321
 126   2.0000      -0.705862       -19.2075
 127   2.0000      -0.704583       -19.1727
 128   2.0000      -0.702798       -19.1241
 129   2.0000      -0.700924       -19.0731
 130   2.0000      -0.699129       -19.0243
 131   2.0000      -0.690986       -18.8027
 132   2.0000      -0.681103       -18.5337
 133   2.0000      -0.675989       -18.3946
 134   2.0000      -0.672301       -18.2942
 135   2.0000      -0.668834       -18.1999
 136   2.0000      -0.651243       -17.7212
 137   2.0000      -0.642699       -17.4887
 138   2.0000      -0.637142       -17.3375
 139   2.0000      -0.632040       -17.1987
 140   2.0000      -0.628469       -17.1015
 141   2.0000      -0.623721       -16.9723
 142   2.0000      -0.612539       -16.6680
 143   2.0000      -0.609494       -16.5852
 144   2.0000      -0.607958       -16.5434
 145   2.0000      -0.606985       -16.5169
 146   2.0000      -0.604040       -16.4368
 147   2.0000      -0.596906       -16.2426
 148   2.0000      -0.594531       -16.1780
 149   2.0000      -0.591082       -16.0842
 150   2.0000      -0.588875       -16.0241
 151   2.0000      -0.581260       -15.8169
 152   2.0000      -0.576291       -15.6817
 153   2.0000      -0.572067       -15.5667
 154   2.0000      -0.563961       -15.3462
 155   2.0000      -0.560567       -15.2538
 156   2.0000      -0.557840       -15.1796
 157   2.0000      -0.551506       -15.0072
 158   2.0000      -0.549943       -14.9647
 159   2.0000      -0.549177       -14.9439
 160   2.0000      -0.548677       -14.9303
 161   2.0000      -0.546863       -14.8809
 162   2.0000      -0.542283       -14.7563
 163   2.0000      -0.539267       -14.6742
 164   2.0000      -0.536425       -14.5969
 165   2.0000      -0.533904       -14.5283
 166   2.0000      -0.532161       -14.4808
 167   2.0000      -0.529626       -14.4118
 168   2.0000      -0.527928       -14.3657
 169   2.0000      -0.527227       -14.3466
 170   2.0000      -0.523368       -14.2416
 171   2.0000      -0.520306       -14.1583
 172   2.0000      -0.519203       -14.1282
 173   2.0000      -0.517395       -14.0790
 174   2.0000      -0.516620       -14.0579
 175   2.0000      -0.515237       -14.0203
 176   2.0000      -0.512551       -13.9472
 177   2.0000      -0.511951       -13.9309
 178   2.0000      -0.510882       -13.9018
 179   2.0000      -0.505453       -13.7541
 180   2.0000      -0.500418       -13.6171
 181   2.0000      -0.499089       -13.5809
 182   2.0000      -0.498196       -13.5566
 183   2.0000      -0.496061       -13.4985
 184   2.0000      -0.491039       -13.3619
 185   2.0000      -0.488007       -13.2793
 186   2.0000      -0.486807       -13.2467
 187   2.0000      -0.485230       -13.2038
 188   2.0000      -0.480094       -13.0640
 189   2.0000      -0.473868       -12.8946
 190   2.0000      -0.470731       -12.8092
 191   2.0000      -0.469465       -12.7748
 192   2.0000      -0.466863       -12.7040
 193   2.0000      -0.465678       -12.6717
 194   2.0000      -0.464461       -12.6386
 195   2.0000      -0.462388       -12.5822
 196   2.0000      -0.460590       -12.5333
 197   2.0000      -0.454695       -12.3729
 198   2.0000      -0.449821       -12.2403
 199   2.0000      -0.449243       -12.2245
 200   2.0000      -0.448727       -12.2105
 201   2.0000      -0.445402       -12.1200
 202   2.0000      -0.444694       -12.1007
 203   2.0000      -0.443327       -12.0635
 204   2.0000      -0.442982       -12.0542
 205   2.0000      -0.441877       -12.0241
 206   2.0000      -0.439574       -11.9614
 207   2.0000      -0.439167       -11.9504
 208   2.0000      -0.435806       -11.8589
 209   2.0000      -0.434817       -11.8320
 210   2.0000      -0.433196       -11.7879
 211   2.0000      -0.432913       -11.7802
 212   2.0000      -0.430595       -11.7171
 213   2.0000      -0.428188       -11.6516
 214   2.0000      -0.424830       -11.5602
 215   2.0000      -0.424502       -11.5513
 216   2.0000      -0.420957       -11.4548
 217   2.0000      -0.420810       -11.4508
 218   2.0000      -0.415921       -11.3178
 219   2.0000      -0.414592       -11.2816
 220   2.0000      -0.411113       -11.1870
 221   2.0000      -0.404582       -11.0092
 222   2.0000      -0.403244       -10.9728
 223   2.0000      -0.400263       -10.8917
 224   2.0000      -0.392546       -10.6817
 225   2.0000      -0.388353       -10.5676
 226   2.0000      -0.380327       -10.3492
 227   2.0000      -0.376876       -10.2553
 228   2.0000      -0.375631       -10.2214
 229   2.0000      -0.367153        -9.9907
 230   2.0000      -0.354328        -9.6418
 231   2.0000      -0.351311        -9.5597
 232   2.0000      -0.346253        -9.4220
 233   2.0000      -0.336266        -9.1503
 234   2.0000      -0.335349        -9.1253
 235   2.0000      -0.334567        -9.1040
 236   2.0000      -0.331741        -9.0271
 237   2.0000      -0.326887        -8.8951
 238   2.0000      -0.319734        -8.7004
 239   2.0000      -0.319272        -8.6878
 240   2.0000      -0.317626        -8.6430
 241   2.0000      -0.302543        -8.2326
 242   2.0000      -0.300077        -8.1655
 243   2.0000      -0.292844        -7.9687
 244   2.0000      -0.288805        -7.8588
 245   2.0000      -0.247667        -6.7394
 246   0.0000      -0.109059        -2.9677
 247   0.0000      -0.092764        -2.5242
 248   0.0000      -0.081163        -2.2086
 249   0.0000      -0.060899        -1.6571
 250   0.0000      -0.054141        -1.4733

MULLIKEN ATOMIC CHARGES
-----------------------
   0 C :    0.252466
   1 C :   -0.332863
   2 C :   -0.184213
   3 N :    0.158766
   4 C :   -0.187198
   5 N :    0.180599
   6 C :    0.038370
   7 C :    0.014288
   8 C :   -0.085957
   9 C :    0.095903
  10 C :    0.096136
  11 C :   -0.081568
  12 C :   -0.018729
  13 C :    0.037978
  14 C :    0.037320
  15 C :   -0.016850
  16 C :    0.136431
  17 O :   -0.138445
  18 C :   -0.115659
  19 C :    0.037121
  20 C :    0.045886
  21 C :    0.023441
  22 C :   -0.036842
  23 C :    0.052551
  24 C :    0.239874
  25 C :   -0.107223
  26 O :   -0.156834
  27 C :    0.057016
  28 N :   -0.051760
  29 C :    0.081334
  30 N :   -0.250220
  31 C :    0.123436
  32 C :    0.003364
  33 C :    0.164068
  34 O :   -0.209688
  35 C :   -0.071108
  36 C :   -0.020475
  37 C :    0.139605
  38 O :   -0.164199
  39 N :   -0.268164
  40 C :    0.095209
  41 C :    0.002796
  42 C :    0.154744
  43 C :   -0.028098
  44 C :    0.083843
  45 C :   -0.114990
  46 S :    0.149866
  47 C :   -0.125092
  48 N :   -0.036137
  49 N :   -0.043954
  50 C :    0.135044
  51 C :   -0.002505
  52 C :    0.005235
  53 C :   -0.086581
  54 C :    0.284186
  55 C :   -0.328583
  56 C :   -0.182610
  57 N :    0.150252
  58 C :   -0.208950
  59 N :    0.164670
  60 C :    0.050154
  61 C :   -0.005402
  62 C :    0.152743
  63 O :   -0.149329
  64 C :   -0.079116
  65 C :    0.098857
  66 C :    0.095329
  67 C :   -0.081617
  68 C :   -0.017601
  69 C :    0.035544
  70 C :    0.036517
  71 C :   -0.016684
  72 H :   -0.010948
  73 H :   -0.003095
  74 H :   -0.009081
  75 H :   -0.004615
  76 H :   -0.005305
  77 H :   -0.016699
  78 H :    0.025912
  79 H :   -0.010595
  80 H :   -0.013917
  81 H :    0.005940
  82 H :    0.033026
  83 H :    0.032719
  84 H :    0.019026
  85 H :    0.017833
  86 H :    0.024068
  87 H :    0.029571
  88 H :    0.045767
  89 H :    0.020921
  90 H :    0.026376
  91 H :    0.028118
  92 H :    0.006875
  93 H :    0.016466
  94 H :    0.014786
  95 H :    0.032549
  96 H :    0.038731
  97 H :   -0.012504
  98 H :   -0.006237
  99 H :   -0.008411
 100 H :   -0.002862
 101 H :   -0.003545
 102 H :   -0.016566
Sum of atomic charges:   -0.0000000

LOEWDIN ATOMIC CHARGES
----------------------
   0 C :    0.065746
   1 C :   -0.130578
   2 C :   -0.018162
   3 N :   -0.048641
   4 C :   -0.018919
   5 N :   -0.042265
   6 C :   -0.023646
   7 C :   -0.058012
   8 C :    0.033280
   9 C :   -0.008635
  10 C :   -0.004973
  11 C :    0.017951
  12 C :   -0.005728
  13 C :   -0.012231
  14 C :   -0.012273
  15 C :   -0.009104
  16 C :    0.084699
  17 O :   -0.139292
  18 C :   -0.084280
  19 C :    0.078752
  20 C :   -0.036098
  21 C :   -0.000424
  22 C :   -0.008455
  23 C :   -0.017166
  24 C :    0.040555
  25 C :   -0.017076
  26 O :    0.026407
  27 C :    0.062863
  28 N :   -0.088784
  29 C :    0.039022
  30 N :    0.014828
  31 C :    0.036520
  32 C :   -0.059800
  33 C :    0.079045
  34 O :   -0.201789
  35 C :   -0.123265
  36 C :   -0.097285
  37 C :    0.082930
  38 O :   -0.172390
  39 N :   -0.003174
  40 C :    0.036349
  41 C :   -0.060374
  42 C :    0.087278
  43 C :   -0.013693
  44 C :    0.001201
  45 C :   -0.151166
  46 S :    0.428012
  47 C :   -0.151420
  48 N :   -0.063294
  49 N :   -0.069948
  50 C :    0.012009
  51 C :   -0.010840
  52 C :    0.065518
  53 C :   -0.082064
  54 C :    0.073952
  55 C :   -0.134133
  56 C :   -0.017088
  57 N :   -0.050401
  58 C :   -0.026526
  59 N :   -0.046061
  60 C :   -0.026475
  61 C :   -0.055968
  62 C :    0.084512
  63 O :   -0.137193
  64 C :    0.033081
  65 C :   -0.008081
  66 C :   -0.005750
  67 C :    0.020188
  68 C :   -0.005091
  69 C :   -0.012301
  70 C :   -0.011491
  71 C :   -0.009088
  72 H :    0.039609
  73 H :    0.039438
  74 H :    0.034817
  75 H :    0.033313
  76 H :    0.032859
  77 H :    0.032018
  78 H :    0.047575
  79 H :    0.034089
  80 H :    0.039559
  81 H :    0.041346
  82 H :    0.031615
  83 H :    0.026579
  84 H :    0.026050
  85 H :    0.029830
  86 H :    0.023218
  87 H :    0.025932
  88 H :    0.038254
  89 H :    0.024088
  90 H :    0.032251
  91 H :    0.031591
  92 H :    0.038534
  93 H :    0.039357
  94 H :    0.037432
  95 H :    0.044600
  96 H :    0.049277
  97 H :    0.039127
  98 H :    0.039359
  99 H :    0.035051
 100 H :    0.033808
 101 H :    0.033367
 102 H :    0.032253

  Mayer bond orders larger than 0.100000
B(  0-C ,  1-C ) :   1.6806 B(  0-C ,  6-C ) :   1.0013 B(  0-C , 18-C ) :   1.0066
B(  1-C ,  2-C ) :   1.1346 B(  1-C ,  4-C ) :   1.1539 B(  2-C ,  3-N ) :   2.9922
B(  4-C ,  5-N ) :   3.0139 B(  6-C ,  7-C ) :   1.2139 B(  6-C , 11-C ) :   1.4539
B(  7-C ,  8-C ) :   1.4706 B(  7-C , 16-C ) :   0.9187 B(  8-C ,  9-C ) :   1.1871
B(  8-C , 72-H ) :   1.0162 B(  9-C , 10-C ) :   1.2539 B(  9-C , 15-C ) :   1.2450
B( 10-C , 11-C ) :   1.2082 B( 10-C , 12-C ) :   1.2391 B( 11-C , 73-H ) :   0.9940
B( 12-C , 13-C ) :   1.4911 B( 12-C , 74-H ) :   0.9976 B( 13-C , 14-C ) :   1.2589
B( 13-C , 75-H ) :   0.9887 B( 14-C , 15-C ) :   1.4907 B( 14-C , 76-H ) :   0.9886
B( 15-C , 77-H ) :   0.9974 B( 16-C , 17-O ) :   2.2777 B( 16-C , 18-C ) :   0.9260
B( 18-C , 19-C ) :   1.7409 B( 19-C , 20-C ) :   1.0351 B( 19-C , 78-H ) :   0.9426
B( 20-C , 21-C ) :   1.3027 B( 20-C , 25-C ) :   1.3184 B( 21-C , 22-C ) :   1.4072
B( 21-C , 79-H ) :   0.9943 B( 22-C , 23-C ) :   1.2774 B( 22-C , 80-H ) :   1.0160
B( 23-C , 24-C ) :   1.2552 B( 23-C , 28-N ) :   1.3001 B( 24-C , 25-C ) :   1.3430
B( 24-C , 26-O ) :   1.1186 B( 25-C , 81-H ) :   1.0161 B( 26-O , 27-C ) :   1.2310
B( 27-C , 28-N ) :   1.6647 B( 27-C , 29-C ) :   1.0394 B( 29-C , 30-N ) :   1.2159
B( 29-C , 36-C ) :   1.3919 B( 30-N , 31-C ) :   0.9340 B( 30-N , 33-C ) :   1.0588
B( 31-C , 32-C ) :   1.1237 B( 31-C , 82-H ) :   0.9297 B( 31-C , 83-H ) :   0.9363
B( 32-C , 84-H ) :   0.9662 B( 32-C , 85-H ) :   0.9679 B( 32-C , 86-H ) :   0.9661
B( 33-C , 34-O ) :   2.0281 B( 33-C , 35-C ) :   0.9905 B( 34-O , 93-H ) :   0.1121
B( 35-C , 36-C ) :   1.2409 B( 35-C , 42-C ) :   1.3302 B( 36-C , 37-C ) :   0.9388
B( 37-C , 38-O ) :   2.1883 B( 37-C , 39-N ) :   1.0242 B( 39-N , 40-C ) :   0.9415
B( 39-N , 42-C ) :   1.1766 B( 40-C , 41-C ) :   1.1217 B( 40-C , 87-H ) :   0.9501
B( 40-C , 88-H ) :   0.9279 B( 41-C , 89-H ) :   0.9688 B( 41-C , 90-H ) :   0.9680
B( 41-C , 91-H ) :   0.9635 B( 42-C , 43-C ) :   1.1281 B( 43-C , 44-C ) :   1.6568
B( 43-C , 92-H ) :   0.9709 B( 44-C , 45-C ) :   1.1071 B( 44-C , 93-H ) :   0.9264
B( 45-C , 46-S ) :   1.1173 B( 45-C , 49-N ) :   1.6415 B( 46-S , 47-C ) :   1.1041
B( 47-C , 48-N ) :   1.6510 B( 47-C , 50-C ) :   1.1266 B( 48-N , 49-N ) :   1.2547
B( 50-C , 51-C ) :   1.7225 B( 50-C , 94-H ) :   0.9323 B( 51-C , 52-C ) :   1.1465
B( 51-C , 95-H ) :   0.9515 B( 52-C , 53-C ) :   1.6383 B( 52-C , 96-H ) :   0.9471
B( 53-C , 54-C ) :   1.0461 B( 53-C , 62-C ) :   0.9317 B( 54-C , 55-C ) :   1.6560
B( 54-C , 60-C ) :   0.9958 B( 55-C , 56-C ) :   1.1403 B( 55-C , 58-C ) :   1.1350
B( 56-C , 57-N ) :   2.9722 B( 58-C , 59-N ) :   3.0080 B( 60-C , 61-C ) :   1.2118
B( 60-C , 67-C ) :   1.4481 B( 61-C , 62-C ) :   0.9510 B( 61-C , 64-C ) :   1.4687
B( 62-C , 63-O ) :   2.2084 B( 64-C , 65-C ) :   1.1808 B( 64-C , 97-H ) :   1.0173
B( 65-C , 66-C ) :   1.2564 B( 65-C , 71-C ) :   1.2417 B( 66-C , 67-C ) :   1.2052
B( 66-C , 68-C ) :   1.2390 B( 67-C , 98-H ) :   0.9924 B( 68-C , 69-C ) :   1.4887
B( 68-C , 99-H ) :   0.9982 B( 69-C , 70-C ) :   1.2593 B( 69-C ,100-H ) :   0.9892
B( 70-C , 71-C ) :   1.4895 B( 70-C ,101-H ) :   0.9884 B( 71-C ,102-H ) :   0.9987

-----------------------------------------------------------------------------
         ABSORPTION SPECTRUM VIA TRANSITION ELECTRIC DIPOLE MOMENTS
-----------------------------------------------------------------------------
State   Energy  Wavelength   fosc         T2         TX        TY        TZ
        (cm-1)    (nm)                  (au**2)     (au)      (au)      (au)
-----------------------------------------------------------------------------
   0   15492.1    645.5   1.050997419  22.33401   0.08521  -2.83243   3.78207
   1   20619.9    485.0   0.065989121   1.05356   0.68743   0.12593   0.75176
   2   22686.8    440.8   0.422659392   6.13328   0.49879  -2.39297   0.39772
   3   23904.4    418.3   0.242692704   3.34237   0.14823  -0.74804   1.66158
   4   25929.6    385.7   0.043889224   0.55723   0.48041  -0.40224   0.40577
   5   26112.3    383.0   0.067132769   0.84638  -0.64893   0.53515  -0.37268
   6   26426.8    378.4   0.003489034   0.04346   0.05034  -0.15433   0.13082
   7   26558.0    376.5   0.122549345   1.51912  -0.59949  -1.03670   0.29151
   8   27560.3    362.8   0.381031477   4.55147   0.44189  -1.78552   1.08079
   9   27699.6    361.0   0.084677344   1.00640   0.17471   0.48265   0.86193
  10   27801.1    359.7   0.235028186   2.78313   0.25826  -1.62251   0.28965
  11   28604.8    349.6   0.046169325   0.53136  -0.29973   0.57158  -0.33885
  12   28907.3    345.9   0.002558901   0.02914  -0.13620   0.10223  -0.01187
  13   29589.9    338.0   0.032893332   0.36597   0.50630   0.30240  -0.13483
  14   29699.1    336.7   0.169929729   1.88365  -1.06749   0.84532  -0.17190
  15   30176.2    331.4   0.038276050   0.41758   0.22950  -0.13512   0.58877
  16   30338.6    329.6   0.017119651   0.18577   0.11993  -0.40931   0.06210
  17   31014.0    322.4   0.222087561   2.35744   0.75082  -1.31921   0.23109
  18   31112.3    321.4   0.011812587   0.12499  -0.20114   0.27227  -0.10203
  19   31353.0    318.9   0.012304765   0.12920   0.09001   0.30596  -0.16579
  20   31735.4    315.1   0.072835024   0.75557   0.20663   0.62977   0.56237
  21   32921.3    303.8   0.535540231   5.35538  -2.24433   0.53479   0.17988
  22   33352.3    299.8   0.225640373   2.22724   1.13504  -0.57700  -0.77846
  23   33477.1    298.7   0.064500080   0.63429  -0.52477  -0.37835  -0.46449
  24   33627.6    297.4   0.007541646   0.07383  -0.01196   0.26863   0.03910
  25   33759.1    296.2   0.363440378   3.54420   0.85568  -1.67163  -0.13287
  26   34636.8    288.7   0.506061964   4.80997  -0.64798   2.02986   0.51938
  27   35093.0    285.0   0.053877391   0.50543   0.67162  -0.13141  -0.19259
  28   35453.9    282.1   0.017827703   0.16554   0.09205  -0.33421   0.21301
  29   35794.5    279.4   0.047179042   0.43392   0.62719   0.10484  -0.17193
  30   36167.3    276.5   0.053938941   0.49098   0.01420  -0.69147   0.11246
  31   36247.9    275.9   0.104823095   0.95203   0.44816  -0.81472   0.29566
  32   36415.9    274.6   0.078262698   0.70752   0.65560   0.06950  -0.52237
  33   36802.6    271.7   0.008009221   0.07165   0.23295   0.08611  -0.09982
  34   37083.4    269.7   0.037833252   0.33587   0.26380  -0.51282   0.05741
  35   37158.9    269.1   0.004903948   0.04345   0.09404  -0.03144   0.18334
  36   37345.8    267.8   0.211225155   1.86200  -0.50076   1.21116   0.37991
  37   38241.4    261.5   0.261478737   2.25101  -1.14826  -0.54427   0.79768
  38   38718.9    258.3   0.007761455   0.06599  -0.18864   0.05852   0.16427
  39   38971.6    256.6   0.042389746   0.35809   0.25940  -0.37087   0.39148
  40   39079.7    255.9   0.037995954   0.32008  -0.22057   0.38725   0.34853
  41   39288.7    254.5   0.072796721   0.60999   0.21319  -0.75128  -0.01075
  42   39590.1    252.6   0.001859592   0.01546  -0.06373   0.09595   0.04685
  43   39905.7    250.6   0.004135695   0.03412  -0.15570   0.04078  -0.09062
  44   40262.3    248.4   0.166739650   1.36338   0.32783   0.44676  -1.02777

FINAL SINGLE POINT ENERGY     -3453.778144801043

DIPOLE MOMENT
-------------
                                X             Y             Z
Electronic contribution:      2.83935      11.38511      -2.53034
Nuclear contribution   :     -3.63649     -12.55856       2.89159
                        -----------------------------------------
Total Dipole Moment    :     -0.79713      -1.17345       0.36125
                        -----------------------------------------
Magnitude (a.u.)       :      1.46387
Magnitude (Debye)      :      3.72085

Rotational constants in cm-1:     0.002067     0.000208     0.000202
Rotational constants in MHz :    61.980337     6.221943     6.061021

                             ****ORCA TERMINATED NORMALLY****
TOTAL RUN TIME: 0 days 0 hours 9 minutes 6 seconds 530 msec
