                         Program Version 4.2.0 -  RELEASE  -
|  1> # ORCA input file
|  2> # SCF done       -198.321344052289          0.000925431641
|  3> ! CAM-B3LYP def2-SVP def2/J RIJCOSX Grid4 TightSCF
|  4> %maxcore 5000
|  5> %tddft
|  6>     Mode sTDDFT
|  7>     Ethresh 5.0
|  8>     maxcore 5000
|  9> end
| 10>
| 11> %pal
| 12>   nprocs 6
| 13>   end
| 14> * xyz 0 1
| 15>    C        3.53177         7.74651         3.86817
| 16>    C        2.93992         7.39149         2.68475
| 17>    C        3.31077         7.92162         1.43301
| 18>    N        3.55856         8.34219         0.39405
| 19>    C        1.95386         6.38780         2.58836
| 20>    N        1.18691         5.54141         2.47277
| 21>    C        4.75754         8.52387         4.00162
| 22>    C        5.34299         8.22865         5.26836
| 23>    C        6.53539         8.77332         5.64952
| 24>    C        7.20114         9.65845         4.77174
| 25>    C        6.61201         9.96999         3.51191
| 26>    C        5.37895         9.38698         3.14018
| 27>    C        7.28532        10.85759         2.64818
| 28>    C        8.48500        11.40883         3.00735
| 29>    C        9.06506        11.10058         4.24699
| 30>    C        8.43694        10.24429         5.11014
| 31>    C        4.46616         7.30462         6.00999
| 32>    O        4.65606         6.79291         7.08860
| 33>    C        3.23889         7.17839         5.16913
| 34>    C        2.09307         6.70328         5.71969
| 35>    C        0.75501         6.85732         5.27064
| 36>    S        0.24123         8.17939         4.24901
| 37>    C       -1.39892         7.62746         4.26047
| 38>    C       -1.52572         6.47917         5.04416
| 39>    C       -0.31755         6.06834         5.62562
| 40>    C       -2.74833         5.80645         5.21818
| 41>    N       -3.73878         5.24762         5.36361
| 42>    C       -2.43554         8.27692         3.54811
| 43>    C       -2.23382         9.34345         2.73978
| 44>    C       -3.23165         9.98936         1.95888
| 45>    S       -2.72754        10.55678         0.40159
| 46>    C       -4.33578        10.88478        -0.10925
| 47>    C       -5.24838        10.56757         0.89533
| 48>    C       -4.61670        10.13328         2.11144
| 49>    C       -5.43158        10.00234         3.27108
| 50>    C       -4.90123         9.96825         4.67615
| 51>    F       -3.68132        10.51003         4.81403
| 52>    F       -5.69770        10.67456         5.50167
| 53>    F       -4.83965         8.73642         5.21712
| 54>    C       -6.79623        10.04675         3.13492
| 55>    C       -7.41788        10.23665         1.89399
| 56>    C       -6.67378        10.53240         0.77771
| 57>    O       -7.17696        10.77392        -0.44836
| 58>    C       -8.57447        10.72586        -0.63807
| 59>    C       -4.54527        11.46698        -1.41804
| 60>    C       -3.78459        11.04010        -2.50314
| 61>    C       -3.93343        11.61484        -3.75450
| 62>    N       -3.09540        11.06449        -4.79728
| 63>    O       -2.78385         9.89906        -4.68529
| 64>    O       -2.73807        11.78801        -5.70055
| 65>    C       -4.87634        12.63557        -3.98583
| 66>    C       -5.61652        13.06371        -2.87244
| 67>    C       -5.44821        12.51724        -1.62285
| 68>    C       -5.10884        13.22616        -5.28387
| 69>    C       -6.29005        13.76799        -5.65835
| 70>    C       -6.47323        14.34233        -6.94499
| 71>    C       -7.66065        14.82055        -7.40972
| 72>    C       -7.91129        15.40463        -8.71859
| 73>    C       -6.97004        15.82513        -9.61927
| 74>    C       -7.27821        16.40562       -10.86839
| 75>    N       -7.46608        16.87967       -11.89660
| 76>    C       -5.57310        15.78642        -9.41934
| 77>    N       -4.42970        15.81291        -9.32223
| 78>    C       -9.35482        15.52981        -8.87845
| 79>    C       -9.98350        15.14312        -7.66013
| 80>    C       -8.96049        14.72990        -6.68700
| 81>    O       -9.15131        14.37826        -5.54081
| 82>    C      -11.34051        15.16711        -7.50906
| 83>    C      -12.14747        15.57714        -8.59310
| 84>    C      -11.52695        15.95586        -9.81887
| 85>    C      -10.11928        15.92781        -9.94358
| 86>    C      -12.34231        16.35517       -10.89746
| 87>    C      -13.70468        16.38013       -10.77308
| 88>    C      -14.31446        16.00826        -9.56543
| 89>    C      -13.55257        15.61598        -8.49851
| 90>    H        6.96826         8.53011         6.60846
| 91>    H        4.94917         9.64415         2.18446
| 92>    H        6.83653        11.08880         1.69334
| 93>    H        8.99449        12.08508         2.33743
| 94>    H       10.01207        11.54483         4.51447
| 95>    H        8.87901        10.00313         6.06574
| 96>    H        2.20957         6.19529         6.67270
| 97>    H       -0.22562         5.20022         6.25399
| 98>    H       -3.41803         7.83919         3.65216
| 99>    H       -1.21706         9.67862         2.57012
|100>    H       -7.41920         9.93865         4.00932
|101>    H       -8.49260        10.18928         1.85018
|102>    H       -9.08676        11.47259        -0.02474
|103>    H       -8.97306         9.73236        -0.41568
|104>    H       -8.73101        10.95260        -1.69106
|105>    H       -3.06799        10.24001        -2.38426
|106>    H       -6.31347        13.87661        -2.99954
|107>    H       -5.99996        12.91449        -0.78657
|108>    H       -4.29335        13.20595        -5.99351
|109>    H       -7.14550        13.75411        -4.99975
|110>    H       -5.60211        14.37190        -7.58748
|111>    H      -11.79268        14.87214        -6.57365
|112>    H       -9.68084        16.21592       -10.88569
|113>    H      -11.86823        16.64182       -11.82460
|114>    H      -14.32057        16.68674       -11.60508
|115>    H      -15.39086        16.03357        -9.48517
|116>    H      -14.01642        15.32812        -7.56638
|117> *
|118>
|119>                          ****END OF INPUT****

CARTESIAN COORDINATES (ANGSTROEM)
---------------------------------
  C      3.531770    7.746510    3.868170
  C      2.939920    7.391490    2.684750
  C      3.310770    7.921620    1.433010
  N      3.558560    8.342190    0.394050
  C      1.953860    6.387800    2.588360
  N      1.186910    5.541410    2.472770
  C      4.757540    8.523870    4.001620
  C      5.342990    8.228650    5.268360
  C      6.535390    8.773320    5.649520
  C      7.201140    9.658450    4.771740
  C      6.612010    9.969990    3.511910
  C      5.378950    9.386980    3.140180
  C      7.285320   10.857590    2.648180
  C      8.485000   11.408830    3.007350
  C      9.065060   11.100580    4.246990
  C      8.436940   10.244290    5.110140
  C      4.466160    7.304620    6.009990
  O      4.656060    6.792910    7.088600
  C      3.238890    7.178390    5.169130
  C      2.093070    6.703280    5.719690
  C      0.755010    6.857320    5.270640
  S      0.241230    8.179390    4.249010
  C     -1.398920    7.627460    4.260470
  C     -1.525720    6.479170    5.044160
  C     -0.317550    6.068340    5.625620
  C     -2.748330    5.806450    5.218180
  N     -3.738780    5.247620    5.363610
  C     -2.435540    8.276920    3.548110
  C     -2.233820    9.343450    2.739780
  C     -3.231650    9.989360    1.958880
  S     -2.727540   10.556780    0.401590
  C     -4.335780   10.884780   -0.109250
  C     -5.248380   10.567570    0.895330
  C     -4.616700   10.133280    2.111440
  C     -5.431580   10.002340    3.271080
  C     -4.901230    9.968250    4.676150
  F     -3.681320   10.510030    4.814030
  F     -5.697700   10.674560    5.501670
  F     -4.839650    8.736420    5.217120
  C     -6.796230   10.046750    3.134920
  C     -7.417880   10.236650    1.893990
  C     -6.673780   10.532400    0.777710
  O     -7.176960   10.773920   -0.448360
  C     -8.574470   10.725860   -0.638070
  C     -4.545270   11.466980   -1.418040
  C     -3.784590   11.040100   -2.503140
  C     -3.933430   11.614840   -3.754500
  N     -3.095400   11.064490   -4.797280
  O     -2.783850    9.899060   -4.685290
  O     -2.738070   11.788010   -5.700550
  C     -4.876340   12.635570   -3.985830
  C     -5.616520   13.063710   -2.872440
  C     -5.448210   12.517240   -1.622850
  C     -5.108840   13.226160   -5.283870
  C     -6.290050   13.767990   -5.658350
  C     -6.473230   14.342330   -6.944990
  C     -7.660650   14.820550   -7.409720
  C     -7.911290   15.404630   -8.718590
  C     -6.970040   15.825130   -9.619270
  C     -7.278210   16.405620  -10.868390
  N     -7.466080   16.879670  -11.896600
  C     -5.573100   15.786420   -9.419340
  N     -4.429700   15.812910   -9.322230
  C     -9.354820   15.529810   -8.878450
  C     -9.983500   15.143120   -7.660130
  C     -8.960490   14.729900   -6.687000
  O     -9.151310   14.378260   -5.540810
  C    -11.340510   15.167110   -7.509060
  C    -12.147470   15.577140   -8.593100
  C    -11.526950   15.955860   -9.818870
  C    -10.119280   15.927810   -9.943580
  C    -12.342310   16.355170  -10.897460
  C    -13.704680   16.380130  -10.773080
  C    -14.314460   16.008260   -9.565430
  C    -13.552570   15.615980   -8.498510
  H      6.968260    8.530110    6.608460
  H      4.949170    9.644150    2.184460
  H      6.836530   11.088800    1.693340
  H      8.994490   12.085080    2.337430
  H     10.012070   11.544830    4.514470
  H      8.879010   10.003130    6.065740
  H      2.209570    6.195290    6.672700
  H     -0.225620    5.200220    6.253990
  H     -3.418030    7.839190    3.652160
  H     -1.217060    9.678620    2.570120
  H     -7.419200    9.938650    4.009320
  H     -8.492600   10.189280    1.850180
  H     -9.086760   11.472590   -0.024740
  H     -8.973060    9.732360   -0.415680
  H     -8.731010   10.952600   -1.691060
  H     -3.067990   10.240010   -2.384260
  H     -6.313470   13.876610   -2.999540
  H     -5.999960   12.914490   -0.786570
  H     -4.293350   13.205950   -5.993510
  H     -7.145500   13.754110   -4.999750
  H     -5.602110   14.371900   -7.587480
  H    -11.792680   14.872140   -6.573650
  H     -9.680840   16.215920  -10.885690
  H    -11.868230   16.641820  -11.824600
  H    -14.320570   16.686740  -11.605080
  H    -15.390860   16.033570   -9.485170
  H    -14.016420   15.328120   -7.566380

 Total Charge           Charge          ....    0
 Multiplicity           Mult            ....    1
 Number of Electrons    NEL             ....  522
 Basis Dimension        Dim             .... 1193

ORBITAL ENERGIES
----------------

  NO   OCC          E(Eh)            E(eV)
   0   2.0000     -88.986632     -2421.4494
   1   2.0000     -88.978939     -2421.2400
   2   2.0000     -24.799342      -674.8244
   3   2.0000     -24.795454      -674.7186
   4   2.0000     -24.793546      -674.6667
   5   2.0000     -19.277168      -524.5584
   6   2.0000     -19.251658      -523.8643
   7   2.0000     -19.250493      -523.8325
   8   2.0000     -19.222892      -523.0815
   9   2.0000     -19.215200      -522.8722
  10   2.0000     -14.656676      -398.8284
  11   2.0000     -14.417703      -392.3257
  12   2.0000     -14.417333      -392.3156
  13   2.0000     -14.417250      -392.3133
  14   2.0000     -14.413757      -392.2183
  15   2.0000     -14.404288      -391.9606
  16   2.0000     -10.517188      -286.1872
  17   2.0000     -10.373521      -282.2779
  18   2.0000     -10.366907      -282.0979
  19   2.0000     -10.366784      -282.0945
  20   2.0000     -10.345836      -281.5245
  21   2.0000     -10.344717      -281.4941
  22   2.0000     -10.344557      -281.4897
  23   2.0000     -10.343357      -281.4571
  24   2.0000     -10.343044      -281.4485
  25   2.0000     -10.342666      -281.4383
  26   2.0000     -10.336735      -281.2769
  27   2.0000     -10.329918      -281.0914
  28   2.0000     -10.324708      -280.9496
  29   2.0000     -10.324224      -280.9364
  30   2.0000     -10.323530      -280.9175
  31   2.0000     -10.321120      -280.8520
  32   2.0000     -10.319918      -280.8192
  33   2.0000     -10.319866      -280.8178
  34   2.0000     -10.319481      -280.8074
  35   2.0000     -10.318800      -280.7888
  36   2.0000     -10.318116      -280.7702
  37   2.0000     -10.317062      -280.7415
  38   2.0000     -10.315765      -280.7062
  39   2.0000     -10.313584      -280.6469
  40   2.0000     -10.308626      -280.5120
  41   2.0000     -10.308522      -280.5091
  42   2.0000     -10.307740      -280.4879
  43   2.0000     -10.307575      -280.4834
  44   2.0000     -10.306635      -280.4578
  45   2.0000     -10.305004      -280.4134
  46   2.0000     -10.304840      -280.4090
  47   2.0000     -10.304592      -280.4022
  48   2.0000     -10.303873      -280.3826
  49   2.0000     -10.303737      -280.3789
  50   2.0000     -10.302888      -280.3558
  51   2.0000     -10.301810      -280.3265
  52   2.0000     -10.301801      -280.3262
  53   2.0000     -10.301487      -280.3177
  54   2.0000     -10.301466      -280.3171
  55   2.0000     -10.301269      -280.3118
  56   2.0000     -10.300425      -280.2888
  57   2.0000     -10.300290      -280.2851
  58   2.0000     -10.298681      -280.2414
  59   2.0000     -10.298285      -280.2306
  60   2.0000     -10.297888      -280.2198
  61   2.0000     -10.297665      -280.2137
  62   2.0000     -10.297122      -280.1989
  63   2.0000     -10.292823      -280.0819
  64   2.0000     -10.291831      -280.0550
  65   2.0000     -10.290569      -280.0206
  66   2.0000     -10.290451      -280.0174
  67   2.0000     -10.290067      -280.0070
  68   2.0000     -10.289512      -279.9919
  69   2.0000     -10.288994      -279.9778
  70   2.0000     -10.288578      -279.9664
  71   2.0000     -10.287018      -279.9240
  72   2.0000     -10.286638      -279.9136
  73   2.0000     -10.286392      -279.9070
  74   2.0000     -10.285936      -279.8945
  75   2.0000      -8.082008      -219.9226
  76   2.0000      -8.073978      -219.7041
  77   2.0000      -6.050866      -164.6524
  78   2.0000      -6.046701      -164.5391
  79   2.0000      -6.045036      -164.4938
  80   2.0000      -6.043264      -164.4456
  81   2.0000      -6.039182      -164.3345
  82   2.0000      -6.036014      -164.2483
  83   2.0000      -1.387008       -37.7424
  84   2.0000      -1.333006       -36.2729
  85   2.0000      -1.290218       -35.1086
  86   2.0000      -1.285090       -34.9691
  87   2.0000      -1.183118       -32.1943
  88   2.0000      -1.151570       -31.3358
  89   2.0000      -1.136942       -30.9378
  90   2.0000      -1.130620       -30.7657
  91   2.0000      -1.023218       -27.8432
  92   2.0000      -1.021637       -27.8002
  93   2.0000      -1.020722       -27.7753
  94   2.0000      -1.013540       -27.5798
  95   2.0000      -1.001693       -27.2575
  96   2.0000      -0.998917       -27.1819
  97   2.0000      -0.998428       -27.1686
  98   2.0000      -0.995940       -27.1009
  99   2.0000      -0.993730       -27.0408
 100   2.0000      -0.984019       -26.7765
 101   2.0000      -0.975203       -26.5366
 102   2.0000      -0.972170       -26.4541
 103   2.0000      -0.958055       -26.0700
 104   2.0000      -0.938998       -25.5514
 105   2.0000      -0.932146       -25.3650
 106   2.0000      -0.926379       -25.2080
 107   2.0000      -0.921267       -25.0690
 108   2.0000      -0.914415       -24.8825
 109   2.0000      -0.904528       -24.6135
 110   2.0000      -0.899171       -24.4677
 111   2.0000      -0.892334       -24.2816
 112   2.0000      -0.885373       -24.0922
 113   2.0000      -0.882827       -24.0229
 114   2.0000      -0.881022       -23.9738
 115   2.0000      -0.879611       -23.9354
 116   2.0000      -0.861957       -23.4550
 117   2.0000      -0.857969       -23.3465
 118   2.0000      -0.850137       -23.1334
 119   2.0000      -0.837626       -22.7930
 120   2.0000      -0.832097       -22.6425
 121   2.0000      -0.829068       -22.5601
 122   2.0000      -0.824201       -22.4276
 123   2.0000      -0.812869       -22.1193
 124   2.0000      -0.804913       -21.9028
 125   2.0000      -0.791900       -21.5487
 126   2.0000      -0.779808       -21.2197
 127   2.0000      -0.769670       -20.9438
 128   2.0000      -0.765301       -20.8249
 129   2.0000      -0.761522       -20.7221
 130   2.0000      -0.752935       -20.4884
 131   2.0000      -0.737149       -20.0588
 132   2.0000      -0.721494       -19.6329
 133   2.0000      -0.718954       -19.5637
 134   2.0000      -0.714125       -19.4323
 135   2.0000      -0.711036       -19.3483
 136   2.0000      -0.708427       -19.2773
 137   2.0000      -0.707005       -19.2386
 138   2.0000      -0.701530       -19.0896
 139   2.0000      -0.697832       -18.9890
 140   2.0000      -0.690643       -18.7934
 141   2.0000      -0.684966       -18.6389
 142   2.0000      -0.681761       -18.5517
 143   2.0000      -0.676946       -18.4206
 144   2.0000      -0.670779       -18.2528
 145   2.0000      -0.668708       -18.1965
 146   2.0000      -0.666290       -18.1307
 147   2.0000      -0.664778       -18.0895
 148   2.0000      -0.652433       -17.7536
 149   2.0000      -0.646227       -17.5847
 150   2.0000      -0.643044       -17.4981
 151   2.0000      -0.640406       -17.4263
 152   2.0000      -0.639721       -17.4077
 153   2.0000      -0.632223       -17.2037
 154   2.0000      -0.630339       -17.1524
 155   2.0000      -0.623899       -16.9772
 156   2.0000      -0.610910       -16.6237
 157   2.0000      -0.610612       -16.6156
 158   2.0000      -0.608240       -16.5510
 159   2.0000      -0.605670       -16.4811
 160   2.0000      -0.601780       -16.3753
 161   2.0000      -0.596579       -16.2337
 162   2.0000      -0.595222       -16.1968
 163   2.0000      -0.590019       -16.0552
 164   2.0000      -0.589029       -16.0283
 165   2.0000      -0.579648       -15.7730
 166   2.0000      -0.577976       -15.7275
 167   2.0000      -0.570503       -15.5242
 168   2.0000      -0.561701       -15.2847
 169   2.0000      -0.556114       -15.1326
 170   2.0000      -0.552812       -15.0428
 171   2.0000      -0.551026       -14.9942
 172   2.0000      -0.550429       -14.9779
 173   2.0000      -0.548910       -14.9366
 174   2.0000      -0.546811       -14.8795
 175   2.0000      -0.546087       -14.8598
 176   2.0000      -0.544597       -14.8192
 177   2.0000      -0.541175       -14.7261
 178   2.0000      -0.540053       -14.6956
 179   2.0000      -0.537222       -14.6186
 180   2.0000      -0.536360       -14.5951
 181   2.0000      -0.533213       -14.5095
 182   2.0000      -0.531774       -14.4703
 183   2.0000      -0.529691       -14.4136
 184   2.0000      -0.525110       -14.2890
 185   2.0000      -0.523498       -14.2451
 186   2.0000      -0.521265       -14.1843
 187   2.0000      -0.519074       -14.1247
 188   2.0000      -0.518268       -14.1028
 189   2.0000      -0.517582       -14.0841
 190   2.0000      -0.513013       -13.9598
 191   2.0000      -0.511164       -13.9095
 192   2.0000      -0.508552       -13.8384
 193   2.0000      -0.506937       -13.7945
 194   2.0000      -0.504223       -13.7206
 195   2.0000      -0.501365       -13.6428
 196   2.0000      -0.500422       -13.6172
 197   2.0000      -0.499621       -13.5954
 198   2.0000      -0.496977       -13.5234
 199   2.0000      -0.496371       -13.5069
 200   2.0000      -0.493286       -13.4230
 201   2.0000      -0.490030       -13.3344
 202   2.0000      -0.487838       -13.2747
 203   2.0000      -0.485469       -13.2103
 204   2.0000      -0.485121       -13.2008
 205   2.0000      -0.482054       -13.1174
 206   2.0000      -0.475916       -12.9503
 207   2.0000      -0.470424       -12.8009
 208   2.0000      -0.468013       -12.7353
 209   2.0000      -0.464198       -12.6315
 210   2.0000      -0.462763       -12.5924
 211   2.0000      -0.461575       -12.5601
 212   2.0000      -0.458628       -12.4799
 213   2.0000      -0.453236       -12.3332
 214   2.0000      -0.451454       -12.2847
 215   2.0000      -0.450359       -12.2549
 216   2.0000      -0.446611       -12.1529
 217   2.0000      -0.444751       -12.1023
 218   2.0000      -0.443592       -12.0708
 219   2.0000      -0.443413       -12.0659
 220   2.0000      -0.442115       -12.0306
 221   2.0000      -0.440593       -11.9892
 222   2.0000      -0.439609       -11.9624
 223   2.0000      -0.438449       -11.9308
 224   2.0000      -0.436809       -11.8862
 225   2.0000      -0.436016       -11.8646
 226   2.0000      -0.433916       -11.8075
 227   2.0000      -0.431422       -11.7396
 228   2.0000      -0.430255       -11.7078
 229   2.0000      -0.430014       -11.7013
 230   2.0000      -0.426933       -11.6174
 231   2.0000      -0.426045       -11.5933
 232   2.0000      -0.422318       -11.4918
 233   2.0000      -0.419956       -11.4276
 234   2.0000      -0.419587       -11.4176
 235   2.0000      -0.416833       -11.3426
 236   2.0000      -0.409304       -11.1377
 237   2.0000      -0.408988       -11.1291
 238   2.0000      -0.406697       -11.0668
 239   2.0000      -0.397980       -10.8296
 240   2.0000      -0.393437       -10.7060
 241   2.0000      -0.390371       -10.6225
 242   2.0000      -0.388209       -10.5637
 243   2.0000      -0.382086       -10.3971
 244   2.0000      -0.380759       -10.3610
 245   2.0000      -0.375907       -10.2289
 246   2.0000      -0.367474        -9.9995
 247   2.0000      -0.351751        -9.5716
 248   2.0000      -0.349632        -9.5140
 249   2.0000      -0.341258        -9.2861
 250   2.0000      -0.340098        -9.2545
 251   2.0000      -0.338517        -9.2115
 252   2.0000      -0.335457        -9.1282
 253   2.0000      -0.332481        -9.0473
 254   2.0000      -0.321368        -8.7449
 255   2.0000      -0.316926        -8.6240
 256   2.0000      -0.305819        -8.3217
 257   2.0000      -0.299085        -8.1385
 258   2.0000      -0.294264        -8.0073
 259   2.0000      -0.289404        -7.8751
 260   2.0000      -0.253053        -6.8859
 261   0.0000      -0.106604        -2.9008
 262   0.0000      -0.099030        -2.6948
 263   0.0000      -0.070188        -1.9099
 264   0.0000      -0.062469        -1.6999
 265   0.0000      -0.054468        -1.4821

MULLIKEN ATOMIC CHARGES
-----------------------
   0 C :    0.247788
   1 C :   -0.328158
   2 C :   -0.176271
   3 N :    0.157992
   4 C :   -0.205175
   5 N :    0.178563
   6 C :    0.040064
   7 C :    0.007765
   8 C :   -0.078233
   9 C :    0.091471
  10 C :    0.094065
  11 C :   -0.079749
  12 C :   -0.015868
  13 C :    0.033476
  14 C :    0.037342
  15 C :   -0.012356
  16 C :    0.142897
  17 O :   -0.139860
  18 C :   -0.137038
  19 C :    0.064483
  20 C :   -0.094503
  21 S :    0.146861
  22 C :   -0.050570
  23 C :   -0.044090
  24 C :    0.069738
  25 C :   -0.193420
  26 N :    0.136049
  27 C :    0.031008
  28 C :    0.023867
  29 C :   -0.178257
  30 S :    0.201807
  31 C :   -0.165794
  32 C :    0.090975
  33 C :    0.130376
  34 C :   -0.139929
  35 C :    0.513099
  36 F :   -0.156758
  37 F :   -0.167102
  38 F :   -0.162057
  39 C :    0.016996
  40 C :   -0.111266
  41 C :    0.195005
  42 O :   -0.302328
  43 C :    0.173486
  44 C :    0.077021
  45 C :   -0.069487
  46 C :    0.150386
  47 N :    0.243979
  48 O :   -0.221857
  49 O :   -0.226858
  50 C :    0.075102
  51 C :   -0.061692
  52 C :    0.084355
  53 C :   -0.016626
  54 C :    0.008784
  55 C :   -0.045165
  56 C :   -0.065321
  57 C :    0.321284
  58 C :   -0.338674
  59 C :   -0.180911
  60 N :    0.151969
  61 C :   -0.204545
  62 N :    0.161244
  63 C :    0.046380
  64 C :    0.001622
  65 C :    0.151588
  66 O :   -0.156656
  67 C :   -0.081800
  68 C :    0.099890
  69 C :    0.095444
  70 C :   -0.083746
  71 C :   -0.017388
  72 C :    0.038541
  73 C :    0.034145
  74 C :   -0.016251
  75 H :   -0.011560
  76 H :   -0.006719
  77 H :   -0.011238
  78 H :   -0.003187
  79 H :   -0.005089
  80 H :   -0.017468
  81 H :    0.030412
  82 H :    0.007460
  83 H :    0.024275
  84 H :    0.003492
  85 H :    0.008835
  86 H :   -0.019010
  87 H :    0.031961
  88 H :    0.036684
  89 H :    0.049539
  90 H :    0.011987
  91 H :    0.001579
  92 H :   -0.013055
  93 H :    0.043812
  94 H :    0.028642
  95 H :    0.023729
  96 H :   -0.015965
  97 H :   -0.006698
  98 H :   -0.008368
  99 H :   -0.003431
 100 H :   -0.002973
 101 H :   -0.018791
Sum of atomic charges:   -0.0000000

LOEWDIN ATOMIC CHARGES
----------------------
   0 C :    0.060931
   1 C :   -0.141205
   2 C :   -0.019642
   3 N :   -0.049828
   4 C :   -0.036813
   5 N :   -0.045688
   6 C :   -0.022825
   7 C :   -0.057507
   8 C :    0.033729
   9 C :   -0.009133
  10 C :   -0.005256
  11 C :    0.015504
  12 C :   -0.006212
  13 C :   -0.012458
  14 C :   -0.012447
  15 C :   -0.008678
  16 C :    0.083928
  17 O :   -0.141088
  18 C :   -0.093170
  19 C :    0.051926
  20 C :   -0.177873
  21 S :    0.480823
  22 C :   -0.109807
  23 C :   -0.105044
  24 C :    0.017607
  25 C :   -0.032376
  26 N :   -0.050231
  27 C :   -0.039637
  28 C :   -0.025630
  29 C :   -0.184947
  30 S :    0.517990
  31 C :   -0.161018
  32 C :   -0.058910
  33 C :   -0.026234
  34 C :   -0.107552
  35 C :    0.172203
  36 F :   -0.052208
  37 F :   -0.064000
  38 F :   -0.060312
  39 C :    0.024319
  40 C :   -0.093940
  41 C :    0.077275
  42 O :   -0.074367
  43 C :    0.082536
  44 C :   -0.035279
  45 C :    0.000840
  46 C :   -0.018184
  47 N :    0.283979
  48 O :   -0.189528
  49 O :   -0.190899
  50 C :   -0.012721
  51 C :   -0.002187
  52 C :    0.021299
  53 C :    0.025429
  54 C :   -0.021546
  55 C :    0.071671
  56 C :   -0.085839
  57 C :    0.073856
  58 C :   -0.133025
  59 C :   -0.016867
  60 N :   -0.050493
  61 C :   -0.023748
  62 N :   -0.044227
  63 C :   -0.025081
  64 C :   -0.056544
  65 C :    0.087226
  66 O :   -0.149919
  67 C :    0.032191
  68 C :   -0.008362
  69 C :   -0.005359
  70 C :    0.020079
  71 C :   -0.004575
  72 C :   -0.012136
  73 C :   -0.011779
  74 C :   -0.009848
  75 H :    0.039671
  76 H :    0.038418
  77 H :    0.034260
  78 H :    0.033560
  79 H :    0.032913
  80 H :    0.032000
  81 H :    0.053646
  82 H :    0.045769
  83 H :    0.039543
  84 H :    0.025029
  85 H :    0.039880
  86 H :    0.032709
  87 H :    0.019616
  88 H :    0.022523
  89 H :    0.034185
  90 H :    0.037469
  91 H :    0.039019
  92 H :    0.033870
  93 H :    0.037844
  94 H :    0.030395
  95 H :    0.045343
  96 H :    0.037869
  97 H :    0.039416
  98 H :    0.035232
  99 H :    0.033846
 100 H :    0.033380
 101 H :    0.031436

  Mayer bond orders larger than 0.100000
B(  0-C ,  1-C ) :   1.6613 B(  0-C ,  6-C ) :   1.0068 B(  0-C , 18-C ) :   1.0265
B(  1-C ,  2-C ) :   1.1355 B(  1-C ,  4-C ) :   1.1545 B(  2-C ,  3-N ) :   2.9901
B(  4-C ,  5-N ) :   3.0204 B(  6-C ,  7-C ) :   1.2137 B(  6-C , 11-C ) :   1.4563
B(  7-C ,  8-C ) :   1.4744 B(  7-C , 16-C ) :   0.9220 B(  8-C ,  9-C ) :   1.1858
B(  8-C , 75-H ) :   1.0162 B(  9-C , 10-C ) :   1.2574 B(  9-C , 15-C ) :   1.2444
B( 10-C , 11-C ) :   1.2034 B( 10-C , 12-C ) :   1.2409 B( 11-C , 76-H ) :   0.9945
B( 12-C , 13-C ) :   1.4894 B( 12-C , 77-H ) :   0.9979 B( 13-C , 14-C ) :   1.2595
B( 13-C , 78-H ) :   0.9891 B( 14-C , 15-C ) :   1.4893 B( 14-C , 79-H ) :   0.9891
B( 15-C , 80-H ) :   0.9978 B( 16-C , 17-O ) :   2.2763 B( 16-C , 18-C ) :   0.9308
B( 18-C , 19-C ) :   1.6706 B( 19-C , 20-C ) :   1.1097 B( 19-C , 81-H ) :   0.9464
B( 20-C , 21-S ) :   1.1010 B( 20-C , 24-C ) :   1.4523 B( 21-S , 22-C ) :   1.1423
B( 22-C , 23-C ) :   1.4260 B( 22-C , 27-C ) :   1.2368 B( 23-C , 24-C ) :   1.2817
B( 23-C , 25-C ) :   1.1017 B( 24-C , 82-H ) :   1.0078 B( 25-C , 26-N ) :   3.0206
B( 27-C , 28-C ) :   1.6593 B( 27-C , 83-H ) :   0.9394 B( 28-C , 29-C ) :   1.1182
B( 28-C , 84-H ) :   0.9470 B( 29-C , 30-S ) :   1.1519 B( 29-C , 31-C ) :   0.1184
B( 29-C , 33-C ) :   1.3744 B( 30-S , 31-C ) :   1.2055 B( 31-C , 32-C ) :   1.4024
B( 31-C , 44-C ) :   1.0186 B( 32-C , 33-C ) :   1.2285 B( 32-C , 41-C ) :   1.1628
B( 33-C , 34-C ) :   1.2012 B( 34-C , 35-C ) :   0.9633 B( 34-C , 39-C ) :   1.5482
B( 35-C , 36-F ) :   1.1446 B( 35-C , 37-F ) :   1.1523 B( 35-C , 38-F ) :   1.1483
B( 39-C , 40-C ) :   1.1988 B( 39-C , 85-H ) :   0.9862 B( 40-C , 41-C ) :   1.4381
B( 40-C , 86-H ) :   0.9977 B( 41-C , 42-O ) :   1.2016 B( 42-O , 43-C ) :   0.9419
B( 43-C , 87-H ) :   0.9691 B( 43-C , 88-H ) :   0.9709 B( 43-C , 89-H ) :   0.9779
B( 44-C , 45-C ) :   1.3125 B( 44-C , 52-C ) :   1.3386 B( 45-C , 46-C ) :   1.3747
B( 45-C , 90-H ) :   0.9928 B( 46-C , 47-N ) :   0.8693 B( 46-C , 50-C ) :   1.3650
B( 47-N , 48-O ) :   1.5657 B( 47-N , 49-O ) :   1.5230 B( 48-O , 49-O ) :   0.2690
B( 50-C , 51-C ) :   1.3269 B( 50-C , 53-C ) :   1.0438 B( 51-C , 52-C ) :   1.4145
B( 51-C , 91-H ) :   0.9929 B( 52-C , 92-H ) :   0.9876 B( 53-C , 54-C ) :   1.6162
B( 53-C , 93-H ) :   0.9760 B( 54-C , 55-C ) :   1.1375 B( 54-C , 94-H ) :   0.9705
B( 55-C , 56-C ) :   1.5766 B( 55-C , 95-H ) :   0.9666 B( 56-C , 57-C ) :   1.0432
B( 56-C , 65-C ) :   0.9404 B( 57-C , 58-C ) :   1.6498 B( 57-C , 63-C ) :   0.9907
B( 58-C , 59-C ) :   1.1412 B( 58-C , 61-C ) :   1.1401 B( 59-C , 60-N ) :   2.9680
B( 61-C , 62-N ) :   2.9849 B( 63-C , 64-C ) :   1.2136 B( 63-C , 70-C ) :   1.4499
B( 64-C , 65-C ) :   0.9486 B( 64-C , 67-C ) :   1.4673 B( 65-C , 66-O ) :   2.1916
B( 67-C , 68-C ) :   1.1834 B( 67-C , 96-H ) :   1.0157 B( 68-C , 69-C ) :   1.2533
B( 68-C , 74-C ) :   1.2427 B( 69-C , 70-C ) :   1.2075 B( 69-C , 71-C ) :   1.2411
B( 70-C , 97-H ) :   0.9893 B( 71-C , 72-C ) :   1.4904 B( 71-C , 98-H ) :   0.9968
B( 72-C , 73-C ) :   1.2581 B( 72-C , 99-H ) :   0.9881 B( 73-C , 74-C ) :   1.4901
B( 73-C ,100-H ) :   0.9894 B( 74-C ,101-H ) :   0.9974

-----------------------------------------------------------------------------
         ABSORPTION SPECTRUM VIA TRANSITION ELECTRIC DIPOLE MOMENTS
-----------------------------------------------------------------------------
State   Energy  Wavelength   fosc         T2         TX        TY        TZ
        (cm-1)    (nm)                  (au**2)     (au)      (au)      (au)
-----------------------------------------------------------------------------
   0   17107.4    584.5   1.132163855  21.78712   3.69420  -1.67593   2.30895
   1   20514.3    487.5   0.487572436   7.82451   0.01401   1.24162  -2.50653
   2   25178.5    397.2   0.332455595   4.34690  -0.46457   0.82993  -1.85534
   3   25360.1    394.3   0.034515229   0.44806  -0.20869  -0.06552  -0.63262
   4   25697.9    389.1   0.129087671   1.65372  -0.02582  -1.01079   0.79458
   5   26753.0    373.8   0.052542122   0.64656   0.37748   0.47355  -0.52898
   6   27273.9    366.7   0.485744628   5.86323   1.64452  -0.94369   1.50607
   7   27847.9    359.1   0.072284168   0.85453  -0.54344   0.42379  -0.61612
   8   28100.3    355.9   0.059025121   0.69152  -0.39538   0.17205  -0.71105
   9   28760.1    347.7   0.008136930   0.09314   0.05543   0.01211   0.29987
  10   29207.1    342.4   0.067442888   0.76019   0.84104  -0.19682   0.11878
  11   29300.0    341.3   0.029070891   0.32664  -0.54174  -0.14710   0.10733
  12   29846.2    335.1   0.137662047   1.51845  -1.14128  -0.46315  -0.03756
  13   30707.3    325.7   0.006766074   0.07254  -0.17510   0.02084  -0.20358
  14   31125.5    321.3   0.138696416   1.46698   1.13888   0.07063   0.40613
  15   31847.4    314.0   0.121546154   1.25644  -0.96097   0.56589   0.11289
  16   32215.0    310.4   0.108370082   1.10746   1.04293   0.10713  -0.09104
  17   32814.1    304.7   0.050619821   0.50785   0.64758   0.26453  -0.13605
  18   33469.3    298.8   0.986929434   9.70767   3.09010   0.09037   0.38827
  19   33616.5    297.5   0.252846381   2.47616  -0.96702  -0.99349  -0.74432
  20   34106.8    293.2   0.074870895   0.72268  -0.27647  -0.80386   0.00712
  21   34273.0    291.8   0.068151600   0.65463  -0.79319  -0.01567  -0.15889
  22   34302.7    291.5   0.090955426   0.87292   0.83813   0.41261  -0.01469
  23   34578.0    289.2   0.008362201   0.07962  -0.01097   0.17313  -0.22253
  24   34613.5    288.9   0.043141883   0.41033  -0.43344  -0.43056   0.19255
  25   35064.7    285.2   0.036731052   0.34486  -0.04373   0.39508   0.43227
  26   35260.5    283.6   0.115265746   1.07618  -0.98781   0.12472   0.29133
  27   35794.5    279.4   0.363470065   3.34293  -1.39253  -1.05198   0.54511
  28   36291.0    275.6   0.023739994   0.21536   0.35523   0.00226   0.29861
  29   36739.8    272.2   0.093088658   0.83413  -0.20241   0.51940   0.72345
  30   36922.8    270.8   0.092535820   0.82507  -0.25357  -0.51041   0.70729
  31   37191.3    268.9   0.075391527   0.66735  -0.72840   0.31884  -0.18741
  32   37578.9    266.1   0.020012254   0.17532   0.32979   0.16870   0.19519
  33   37938.4    263.6   0.045032394   0.39077  -0.48140  -0.18259  -0.35451
  34   38215.8    261.7   0.062491927   0.53834   0.25685   0.06956   0.68376
  35   38730.8    258.2   0.184523328   1.56845  -0.76414  -0.40901   0.90402
  36   38986.9    256.5   0.018638660   0.15739  -0.33671   0.03656  -0.20658
  37   39093.4    255.8   0.074286804   0.62558  -0.71738  -0.33032  -0.04284
  38   39382.1    253.9   0.016820394   0.14061  -0.35539  -0.07111   0.09618
  39   39520.4    253.0   0.047192378   0.39312  -0.19219  -0.41420   0.42968
  40   39777.4    251.4   0.101816013   0.84267  -0.11401   0.25956  -0.87310
  41   40235.8    248.5   0.152634563   1.24887   0.38249   0.61779  -0.84906

FINAL SINGLE POINT ENERGY     -4060.604780923040

DIPOLE MOMENT
-------------
                                X             Y             Z
Electronic contribution:     16.21457     -20.40954      34.32053
Nuclear contribution   :    -18.75033      22.72971     -33.08100
                        -----------------------------------------
Total Dipole Moment    :     -2.53576       2.32016       1.23953
                        -----------------------------------------
Magnitude (a.u.)       :      3.65372
Magnitude (Debye)      :      9.28702

Rotational constants in cm-1:     0.001444     0.000253     0.000223
Rotational constants in MHz :    43.278569     7.591028     6.697965

                             ****ORCA TERMINATED NORMALLY****
TOTAL RUN TIME: 0 days 0 hours 10 minutes 12 seconds 610 msec
