                         Program Version 4.2.0 -  RELEASE  -
|  1> # ORCA input file
|  2> # SCF done       -199.367217558599          0.000786656787
|  3> ! CAM-B3LYP def2-SVP def2/J RIJCOSX Grid4 TightSCF
|  4> %maxcore 5000
|  5> %tddft
|  6>     Mode sTDDFT
|  7>     Ethresh 5.0
|  8>     maxcore 5000
|  9> end
| 10>
| 11> %pal
| 12>   nprocs 6
| 13>   end
| 14> * xyz 0 1
| 15>    C        0.35410         0.87005        -2.03344
| 16>    C       -0.01840         1.73489        -3.02532
| 17>    C       -0.49722         1.32156        -4.28819
| 18>    N       -0.89652         1.05130        -5.32912
| 19>    C        0.07105         3.13846        -2.95369
| 20>    N        0.12097         4.28566        -2.96399
| 21>    C        0.42993        -0.57943        -2.17194
| 22>    C        1.25487        -1.10054        -1.13195
| 23>    C        1.53203        -2.43431        -1.03308
| 24>    C        0.97964        -3.32449        -1.98033
| 25>    C        0.13785        -2.81326        -3.01101
| 26>    C       -0.12820        -1.42761        -3.09152
| 27>    C       -0.41458        -3.71348        -3.94506
| 28>    C       -0.14654        -5.05304        -3.86896
| 29>    C        0.68363        -5.55494        -2.85514
| 30>    C        1.23472        -4.70933        -1.93106
| 31>    C        1.68600        -0.00156        -0.25745
| 32>    O        2.43887        -0.03800         0.68604
| 33>    C        0.94508         1.20859        -0.74824
| 34>    C        0.88320         2.28499         0.06256
| 35>    C        0.05244         3.46490        -0.00582
| 36>    C        0.55800         4.68604         0.44890
| 37>    C       -0.19847         5.83267         0.36240
| 38>    F        0.35314         6.99303         0.73522
| 39>    C       -1.49950         5.82748        -0.15460
| 40>    C       -2.03155         4.60271        -0.54878
| 41>    C       -1.26719         3.45982        -0.47086
| 42>    F       -1.83715         2.29464        -0.83905
| 43>    C       -2.25372         7.06677        -0.22677
| 44>    N       -2.91654         7.50972        -1.33876
| 45>    C       -2.91822         6.90583        -2.65200
| 46>    C       -4.27293         6.28647        -2.98472
| 47>    C       -3.53091         8.76518        -1.10703
| 48>    O       -4.15821         9.37117        -1.95035
| 49>    C       -3.21596         9.05944         0.27002
| 50>    C       -2.41971         7.99638         0.77739
| 51>    C       -2.15108         8.27381         2.17097
| 52>    O       -1.57904         7.64773         3.03359
| 53>    N       -2.77532         9.52453         2.40233
| 54>    C       -2.67279        10.12739         3.70874
| 55>    C       -1.52673        11.13478         3.77911
| 56>    C       -3.40928         9.99670         1.27624
| 57>    C       -4.17214        11.18376         1.07193
| 58>    C       -4.34575        12.24997         1.88142
| 59>    C       -5.16133        13.40035         1.57698
| 60>    C       -5.15900        14.47596         2.46918
| 61>    C       -5.91586        15.60996         2.24064
| 62>    N       -5.78656        16.65526         3.23219
| 63>    O       -5.60645        16.30024         4.37604
| 64>    O       -5.81902        17.80977         2.86583
| 65>    C       -6.77022        15.70955         1.12298
| 66>    C       -6.76127        14.62085         0.23700
| 67>    C       -5.97719        13.51121         0.44068
| 68>    C       -7.66376        16.82860         0.96435
| 69>    C       -8.74998        16.87247         0.16386
| 70>    C       -9.65120        17.97919         0.14547
| 71>    C       -9.99080        18.74895         1.21605
| 72>    C      -10.83716        19.93124         1.17444
| 73>    C      -11.13822        20.66829         0.05960
| 74>    C      -11.94644        21.82461         0.07215
| 75>    N      -12.60018        22.76655         0.01507
| 76>    C      -10.67091        20.39441        -1.24331
| 77>    N      -10.32192        20.24366        -2.32683
| 78>    C      -11.23626        20.24867         2.53829
| 79>    C      -10.61755        19.31652         3.41881
| 80>    C       -9.79789        18.36794         2.64922
| 81>    O       -9.17228        17.43346         3.10032
| 82>    C      -10.79552        19.37132         4.77160
| 83>    C      -11.61477        20.38441         5.31670
| 84>    C      -12.24539        21.31653         4.44214
| 85>    C      -12.04487        21.23193         3.04542
| 86>    C      -13.06375        22.32129         4.99759
| 87>    C      -13.24813        22.40527         6.35082
| 88>    C      -12.62475        21.48858         7.21084
| 89>    C      -11.82546        20.49967         6.70489
| 90>    H        2.16429        -2.80555        -0.24029
| 91>    H       -0.77976        -1.07106        -3.87365
| 92>    H       -1.05049        -3.32218        -4.72543
| 93>    H       -0.57259        -5.73408        -4.59024
| 94>    H        0.88376        -6.61492        -2.80999
| 95>    H        1.87424        -5.08989        -1.14822
| 96>    H        1.54736         2.24119         0.92151
| 97>    H        1.56439         4.74564         0.83221
| 98>    H       -3.04564         4.53092        -0.90667
| 99>    H       -2.11932         6.16266        -2.70047
|100>    H       -2.70910         7.70035        -3.37516
|101>    H       -4.55068         5.52572        -2.25857
|102>    H       -4.23315         5.82993        -3.96953
|103>    H       -5.03782         7.05860        -2.98658
|104>    H       -2.46592         9.30531         4.40125
|105>    H       -3.62971        10.57876         3.98057
|106>    H       -0.58272        10.62403         3.60696
|107>    H       -1.49844        11.59503         4.76306
|108>    H       -1.63599        11.91283         3.02655
|109>    H       -4.63739        11.18256         0.09470
|110>    H       -3.84827        12.30345         2.83707
|111>    H       -4.54706        14.44084         3.35964
|112>    H       -7.38009        14.66466        -0.64493
|113>    H       -6.00412        12.71174        -0.28247
|114>    H       -7.44261        17.70157         1.55823
|115>    H       -8.97038        16.07368        -0.53182
|116>    H      -10.13757        18.17296        -0.80352
|117>    H      -10.31001        18.65421         5.41669
|118>    H      -12.54039        21.94855         2.40980
|119>    H      -13.53978        23.02621         4.33188
|120>    H      -13.87502        23.17980         6.76656
|121>    H      -12.78099        21.57019         8.27608
|122>    H      -11.34218        19.79124         7.36157
|123> *
|124>
|125>                          ****END OF INPUT****

CARTESIAN COORDINATES (ANGSTROEM)
---------------------------------
  C      0.354100    0.870050   -2.033440
  C     -0.018400    1.734890   -3.025320
  C     -0.497220    1.321560   -4.288190
  N     -0.896520    1.051300   -5.329120
  C      0.071050    3.138460   -2.953690
  N      0.120970    4.285660   -2.963990
  C      0.429930   -0.579430   -2.171940
  C      1.254870   -1.100540   -1.131950
  C      1.532030   -2.434310   -1.033080
  C      0.979640   -3.324490   -1.980330
  C      0.137850   -2.813260   -3.011010
  C     -0.128200   -1.427610   -3.091520
  C     -0.414580   -3.713480   -3.945060
  C     -0.146540   -5.053040   -3.868960
  C      0.683630   -5.554940   -2.855140
  C      1.234720   -4.709330   -1.931060
  C      1.686000   -0.001560   -0.257450
  O      2.438870   -0.038000    0.686040
  C      0.945080    1.208590   -0.748240
  C      0.883200    2.284990    0.062560
  C      0.052440    3.464900   -0.005820
  C      0.558000    4.686040    0.448900
  C     -0.198470    5.832670    0.362400
  F      0.353140    6.993030    0.735220
  C     -1.499500    5.827480   -0.154600
  C     -2.031550    4.602710   -0.548780
  C     -1.267190    3.459820   -0.470860
  F     -1.837150    2.294640   -0.839050
  C     -2.253720    7.066770   -0.226770
  N     -2.916540    7.509720   -1.338760
  C     -2.918220    6.905830   -2.652000
  C     -4.272930    6.286470   -2.984720
  C     -3.530910    8.765180   -1.107030
  O     -4.158210    9.371170   -1.950350
  C     -3.215960    9.059440    0.270020
  C     -2.419710    7.996380    0.777390
  C     -2.151080    8.273810    2.170970
  O     -1.579040    7.647730    3.033590
  N     -2.775320    9.524530    2.402330
  C     -2.672790   10.127390    3.708740
  C     -1.526730   11.134780    3.779110
  C     -3.409280    9.996700    1.276240
  C     -4.172140   11.183760    1.071930
  C     -4.345750   12.249970    1.881420
  C     -5.161330   13.400350    1.576980
  C     -5.159000   14.475960    2.469180
  C     -5.915860   15.609960    2.240640
  N     -5.786560   16.655260    3.232190
  O     -5.606450   16.300240    4.376040
  O     -5.819020   17.809770    2.865830
  C     -6.770220   15.709550    1.122980
  C     -6.761270   14.620850    0.237000
  C     -5.977190   13.511210    0.440680
  C     -7.663760   16.828600    0.964350
  C     -8.749980   16.872470    0.163860
  C     -9.651200   17.979190    0.145470
  C     -9.990800   18.748950    1.216050
  C    -10.837160   19.931240    1.174440
  C    -11.138220   20.668290    0.059600
  C    -11.946440   21.824610    0.072150
  N    -12.600180   22.766550    0.015070
  C    -10.670910   20.394410   -1.243310
  N    -10.321920   20.243660   -2.326830
  C    -11.236260   20.248670    2.538290
  C    -10.617550   19.316520    3.418810
  C     -9.797890   18.367940    2.649220
  O     -9.172280   17.433460    3.100320
  C    -10.795520   19.371320    4.771600
  C    -11.614770   20.384410    5.316700
  C    -12.245390   21.316530    4.442140
  C    -12.044870   21.231930    3.045420
  C    -13.063750   22.321290    4.997590
  C    -13.248130   22.405270    6.350820
  C    -12.624750   21.488580    7.210840
  C    -11.825460   20.499670    6.704890
  H      2.164290   -2.805550   -0.240290
  H     -0.779760   -1.071060   -3.873650
  H     -1.050490   -3.322180   -4.725430
  H     -0.572590   -5.734080   -4.590240
  H      0.883760   -6.614920   -2.809990
  H      1.874240   -5.089890   -1.148220
  H      1.547360    2.241190    0.921510
  H      1.564390    4.745640    0.832210
  H     -3.045640    4.530920   -0.906670
  H     -2.119320    6.162660   -2.700470
  H     -2.709100    7.700350   -3.375160
  H     -4.550680    5.525720   -2.258570
  H     -4.233150    5.829930   -3.969530
  H     -5.037820    7.058600   -2.986580
  H     -2.465920    9.305310    4.401250
  H     -3.629710   10.578760    3.980570
  H     -0.582720   10.624030    3.606960
  H     -1.498440   11.595030    4.763060
  H     -1.635990   11.912830    3.026550
  H     -4.637390   11.182560    0.094700
  H     -3.848270   12.303450    2.837070
  H     -4.547060   14.440840    3.359640
  H     -7.380090   14.664660   -0.644930
  H     -6.004120   12.711740   -0.282470
  H     -7.442610   17.701570    1.558230
  H     -8.970380   16.073680   -0.531820
  H    -10.137570   18.172960   -0.803520
  H    -10.310010   18.654210    5.416690
  H    -12.540390   21.948550    2.409800
  H    -13.539780   23.026210    4.331880
  H    -13.875020   23.179800    6.766560
  H    -12.780990   21.570190    8.276080
  H    -11.342180   19.791240    7.361570

 Total Charge           Charge          ....    0
 Multiplicity           Mult            ....    1
 Number of Electrons    NEL             ....  508
 Basis Dimension        Dim             .... 1215

ORBITAL ENERGIES
----------------

  NO   OCC          E(Eh)            E(eV)
   0   2.0000     -24.804872      -674.9749
   1   2.0000     -24.790590      -674.5862
   2   2.0000     -19.248380      -523.7750
   3   2.0000     -19.247727      -523.7573
   4   2.0000     -19.223386      -523.0949
   5   2.0000     -19.214964      -522.8657
   6   2.0000     -19.193288      -522.2759
   7   2.0000     -19.189754      -522.1798
   8   2.0000     -14.653233      -398.7347
   9   2.0000     -14.457574      -393.4106
  10   2.0000     -14.454487      -393.3266
  11   2.0000     -14.427246      -392.5853
  12   2.0000     -14.423319      -392.4785
  13   2.0000     -14.412882      -392.1944
  14   2.0000     -14.412792      -392.1920
  15   2.0000     -10.379504      -282.4407
  16   2.0000     -10.376043      -282.3465
  17   2.0000     -10.375888      -282.3423
  18   2.0000     -10.374229      -282.2971
  19   2.0000     -10.373405      -282.2747
  20   2.0000     -10.367611      -282.1170
  21   2.0000     -10.352716      -281.7117
  22   2.0000     -10.349245      -281.6173
  23   2.0000     -10.346194      -281.5342
  24   2.0000     -10.344013      -281.4749
  25   2.0000     -10.340372      -281.3758
  26   2.0000     -10.340150      -281.3698
  27   2.0000     -10.338019      -281.3118
  28   2.0000     -10.328703      -281.0583
  29   2.0000     -10.325701      -280.9766
  30   2.0000     -10.325483      -280.9707
  31   2.0000     -10.317831      -280.7624
  32   2.0000     -10.317662      -280.7578
  33   2.0000     -10.317363      -280.7497
  34   2.0000     -10.316113      -280.7157
  35   2.0000     -10.315617      -280.7022
  36   2.0000     -10.315514      -280.6994
  37   2.0000     -10.310159      -280.5537
  38   2.0000     -10.309904      -280.5468
  39   2.0000     -10.309189      -280.5273
  40   2.0000     -10.308889      -280.5191
  41   2.0000     -10.306363      -280.4504
  42   2.0000     -10.305101      -280.4161
  43   2.0000     -10.304586      -280.4021
  44   2.0000     -10.303917      -280.3838
  45   2.0000     -10.303776      -280.3800
  46   2.0000     -10.303413      -280.3701
  47   2.0000     -10.303227      -280.3651
  48   2.0000     -10.303055      -280.3604
  49   2.0000     -10.302740      -280.3518
  50   2.0000     -10.301194      -280.3097
  51   2.0000     -10.300935      -280.3027
  52   2.0000     -10.300609      -280.2938
  53   2.0000     -10.299850      -280.2732
  54   2.0000     -10.298995      -280.2499
  55   2.0000     -10.298855      -280.2461
  56   2.0000     -10.296244      -280.1750
  57   2.0000     -10.295983      -280.1680
  58   2.0000     -10.295957      -280.1672
  59   2.0000     -10.295120      -280.1445
  60   2.0000     -10.294816      -280.1362
  61   2.0000     -10.291819      -280.0546
  62   2.0000     -10.291392      -280.0430
  63   2.0000     -10.291254      -280.0392
  64   2.0000     -10.291156      -280.0366
  65   2.0000     -10.290672      -280.0234
  66   2.0000     -10.286821      -279.9186
  67   2.0000     -10.285171      -279.8737
  68   2.0000     -10.284616      -279.8586
  69   2.0000     -10.284433      -279.8537
  70   2.0000     -10.283929      -279.8399
  71   2.0000     -10.264896      -279.3220
  72   2.0000     -10.263071      -279.2724
  73   2.0000     -10.262086      -279.2455
  74   2.0000     -10.259534      -279.1761
  75   2.0000      -1.329340       -36.1732
  76   2.0000      -1.318117       -35.8678
  77   2.0000      -1.307543       -35.5801
  78   2.0000      -1.148089       -31.2411
  79   2.0000      -1.138984       -30.9933
  80   2.0000      -1.134544       -30.8725
  81   2.0000      -1.130689       -30.7676
  82   2.0000      -1.127552       -30.6822
  83   2.0000      -1.066253       -29.0142
  84   2.0000      -1.056366       -28.7452
  85   2.0000      -1.027262       -27.9532
  86   2.0000      -1.015814       -27.6417
  87   2.0000      -1.006742       -27.3948
  88   2.0000      -1.003273       -27.3004
  89   2.0000      -0.997784       -27.1511
  90   2.0000      -0.996296       -27.1106
  91   2.0000      -0.991299       -26.9746
  92   2.0000      -0.989162       -26.9165
  93   2.0000      -0.977155       -26.5897
  94   2.0000      -0.970026       -26.3957
  95   2.0000      -0.938112       -25.5273
  96   2.0000      -0.933155       -25.3924
  97   2.0000      -0.930087       -25.3090
  98   2.0000      -0.925858       -25.1939
  99   2.0000      -0.920736       -25.0545
 100   2.0000      -0.915188       -24.9035
 101   2.0000      -0.898635       -24.4531
 102   2.0000      -0.896922       -24.4065
 103   2.0000      -0.889636       -24.2082
 104   2.0000      -0.887402       -24.1474
 105   2.0000      -0.879919       -23.9438
 106   2.0000      -0.877366       -23.8744
 107   2.0000      -0.868256       -23.6264
 108   2.0000      -0.863176       -23.4882
 109   2.0000      -0.855375       -23.2759
 110   2.0000      -0.838093       -22.8057
 111   2.0000      -0.834593       -22.7104
 112   2.0000      -0.826586       -22.4925
 113   2.0000      -0.821239       -22.3471
 114   2.0000      -0.818110       -22.2619
 115   2.0000      -0.805616       -21.9219
 116   2.0000      -0.799190       -21.7471
 117   2.0000      -0.782267       -21.2866
 118   2.0000      -0.771336       -20.9891
 119   2.0000      -0.766327       -20.8528
 120   2.0000      -0.760519       -20.6948
 121   2.0000      -0.759610       -20.6700
 122   2.0000      -0.741182       -20.1686
 123   2.0000      -0.738464       -20.0946
 124   2.0000      -0.728962       -19.8361
 125   2.0000      -0.715480       -19.4692
 126   2.0000      -0.714331       -19.4379
 127   2.0000      -0.711520       -19.3615
 128   2.0000      -0.707948       -19.2642
 129   2.0000      -0.706132       -19.2148
 130   2.0000      -0.702391       -19.1130
 131   2.0000      -0.696040       -18.9402
 132   2.0000      -0.689717       -18.7682
 133   2.0000      -0.685163       -18.6442
 134   2.0000      -0.683000       -18.5854
 135   2.0000      -0.676039       -18.3959
 136   2.0000      -0.664190       -18.0735
 137   2.0000      -0.661168       -17.9913
 138   2.0000      -0.658307       -17.9135
 139   2.0000      -0.650976       -17.7139
 140   2.0000      -0.641835       -17.4652
 141   2.0000      -0.638572       -17.3764
 142   2.0000      -0.638177       -17.3657
 143   2.0000      -0.635425       -17.2908
 144   2.0000      -0.633102       -17.2276
 145   2.0000      -0.628138       -17.0925
 146   2.0000      -0.613961       -16.7067
 147   2.0000      -0.612633       -16.6706
 148   2.0000      -0.610743       -16.6192
 149   2.0000      -0.605955       -16.4889
 150   2.0000      -0.604861       -16.4591
 151   2.0000      -0.600026       -16.3275
 152   2.0000      -0.596445       -16.2301
 153   2.0000      -0.591624       -16.0989
 154   2.0000      -0.585379       -15.9290
 155   2.0000      -0.583592       -15.8803
 156   2.0000      -0.582033       -15.8379
 157   2.0000      -0.576651       -15.6915
 158   2.0000      -0.573180       -15.5970
 159   2.0000      -0.564865       -15.3708
 160   2.0000      -0.564732       -15.3672
 161   2.0000      -0.560120       -15.2416
 162   2.0000      -0.559546       -15.2260
 163   2.0000      -0.555873       -15.1261
 164   2.0000      -0.552890       -15.0449
 165   2.0000      -0.550382       -14.9767
 166   2.0000      -0.546272       -14.8648
 167   2.0000      -0.545621       -14.8471
 168   2.0000      -0.544918       -14.8280
 169   2.0000      -0.544546       -14.8178
 170   2.0000      -0.541624       -14.7383
 171   2.0000      -0.537506       -14.6263
 172   2.0000      -0.535051       -14.5595
 173   2.0000      -0.533895       -14.5280
 174   2.0000      -0.531440       -14.4612
 175   2.0000      -0.529786       -14.4162
 176   2.0000      -0.526887       -14.3373
 177   2.0000      -0.525123       -14.2893
 178   2.0000      -0.521580       -14.1929
 179   2.0000      -0.518116       -14.0986
 180   2.0000      -0.518075       -14.0975
 181   2.0000      -0.516565       -14.0564
 182   2.0000      -0.514917       -14.0116
 183   2.0000      -0.511713       -13.9244
 184   2.0000      -0.509836       -13.8734
 185   2.0000      -0.507712       -13.8155
 186   2.0000      -0.505686       -13.7604
 187   2.0000      -0.502809       -13.6821
 188   2.0000      -0.502083       -13.6624
 189   2.0000      -0.500930       -13.6310
 190   2.0000      -0.496968       -13.5232
 191   2.0000      -0.494093       -13.4450
 192   2.0000      -0.491768       -13.3817
 193   2.0000      -0.491719       -13.3804
 194   2.0000      -0.484921       -13.1954
 195   2.0000      -0.481827       -13.1112
 196   2.0000      -0.479838       -13.0571
 197   2.0000      -0.477320       -12.9885
 198   2.0000      -0.473686       -12.8897
 199   2.0000      -0.471377       -12.8268
 200   2.0000      -0.469120       -12.7654
 201   2.0000      -0.464305       -12.6344
 202   2.0000      -0.464007       -12.6263
 203   2.0000      -0.462454       -12.5840
 204   2.0000      -0.460513       -12.5312
 205   2.0000      -0.458410       -12.4740
 206   2.0000      -0.455231       -12.3875
 207   2.0000      -0.451648       -12.2900
 208   2.0000      -0.451343       -12.2817
 209   2.0000      -0.448789       -12.2122
 210   2.0000      -0.446717       -12.1558
 211   2.0000      -0.445336       -12.1182
 212   2.0000      -0.444537       -12.0965
 213   2.0000      -0.442435       -12.0393
 214   2.0000      -0.441915       -12.0251
 215   2.0000      -0.440388       -11.9836
 216   2.0000      -0.438539       -11.9333
 217   2.0000      -0.437576       -11.9071
 218   2.0000      -0.434366       -11.8197
 219   2.0000      -0.431994       -11.7552
 220   2.0000      -0.430628       -11.7180
 221   2.0000      -0.429169       -11.6783
 222   2.0000      -0.426263       -11.5992
 223   2.0000      -0.425803       -11.5867
 224   2.0000      -0.424275       -11.5451
 225   2.0000      -0.419445       -11.4137
 226   2.0000      -0.417730       -11.3670
 227   2.0000      -0.415488       -11.3060
 228   2.0000      -0.412534       -11.2256
 229   2.0000      -0.406181       -11.0527
 230   2.0000      -0.402112       -10.9420
 231   2.0000      -0.398482       -10.8433
 232   2.0000      -0.390170       -10.6171
 233   2.0000      -0.384417       -10.4605
 234   2.0000      -0.383976       -10.4485
 235   2.0000      -0.381198       -10.3729
 236   2.0000      -0.377063       -10.2604
 237   2.0000      -0.371003       -10.0955
 238   2.0000      -0.366235        -9.9658
 239   2.0000      -0.348561        -9.4848
 240   2.0000      -0.348303        -9.4778
 241   2.0000      -0.345128        -9.3914
 242   2.0000      -0.341232        -9.2854
 243   2.0000      -0.334375        -9.0988
 244   2.0000      -0.332188        -9.0393
 245   2.0000      -0.328762        -8.9461
 246   2.0000      -0.320475        -8.7206
 247   2.0000      -0.317109        -8.6290
 248   2.0000      -0.316256        -8.6058
 249   2.0000      -0.315100        -8.5743
 250   2.0000      -0.299831        -8.1588
 251   2.0000      -0.295983        -8.0541
 252   2.0000      -0.285124        -7.7586
 253   2.0000      -0.246877        -6.7179
 254   0.0000      -0.103273        -2.8102
 255   0.0000      -0.096072        -2.6142
 256   0.0000      -0.074531        -2.0281
 257   0.0000      -0.061073        -1.6619
 258   0.0000      -0.056117        -1.5270

MULLIKEN ATOMIC CHARGES
-----------------------
   0 C :    0.298029
   1 C :   -0.326062
   2 C :   -0.185566
   3 N :    0.162125
   4 C :   -0.194172
   5 N :    0.167318
   6 C :    0.032552
   7 C :    0.015764
   8 C :   -0.077584
   9 C :    0.094875
  10 C :    0.093848
  11 C :   -0.078761
  12 C :   -0.016941
  13 C :    0.036897
  14 C :    0.037345
  15 C :   -0.014626
  16 C :    0.131282
  17 O :   -0.135347
  18 C :   -0.100643
  19 C :    0.016331
  20 C :    0.025673
  21 C :   -0.074662
  22 C :    0.305703
  23 F :   -0.164167
  24 C :   -0.055833
  25 C :   -0.037492
  26 C :    0.243783
  27 F :   -0.182310
  28 C :    0.093765
  29 N :   -0.261985
  30 C :    0.100074
  31 C :   -0.005411
  32 C :    0.155799
  33 O :   -0.196501
  34 C :   -0.054900
  35 C :   -0.006796
  36 C :    0.130139
  37 O :   -0.181855
  38 N :   -0.275545
  39 C :    0.099490
  40 C :    0.004880
  41 C :    0.118591
  42 C :   -0.008851
  43 C :    0.006569
  44 C :    0.108528
  45 C :   -0.067184
  46 C :    0.147333
  47 N :    0.250891
  48 O :   -0.226035
  49 O :   -0.226736
  50 C :    0.056682
  51 C :   -0.031274
  52 C :    0.021687
  53 C :    0.062154
  54 C :    0.003710
  55 C :   -0.001502
  56 C :   -0.099143
  57 C :    0.295986
  58 C :   -0.338662
  59 C :   -0.179867
  60 N :    0.147704
  61 C :   -0.207533
  62 N :    0.159891
  63 C :    0.054339
  64 C :   -0.008506
  65 C :    0.152295
  66 O :   -0.151271
  67 C :   -0.073650
  68 C :    0.096253
  69 C :    0.097194
  70 C :   -0.083668
  71 C :   -0.018715
  72 C :    0.036408
  73 C :    0.034676
  74 C :   -0.015640
  75 H :   -0.009509
  76 H :   -0.003579
  77 H :   -0.009219
  78 H :   -0.002447
  79 H :   -0.002435
  80 H :   -0.015280
  81 H :    0.035505
  82 H :    0.001654
  83 H :   -0.016332
  84 H :    0.049051
  85 H :    0.032921
  86 H :    0.008004
  87 H :    0.025939
  88 H :    0.040005
  89 H :    0.042374
  90 H :    0.024233
  91 H :    0.031709
  92 H :    0.022665
  93 H :    0.019056
  94 H :    0.006739
  95 H :   -0.022045
  96 H :    0.002180
  97 H :   -0.008425
  98 H :    0.001268
  99 H :    0.030444
 100 H :    0.002087
 101 H :    0.035256
 102 H :   -0.010600
 103 H :   -0.008223
 104 H :   -0.008580
 105 H :   -0.004851
 106 H :   -0.004234
 107 H :   -0.016498
Sum of atomic charges:    0.0000000

LOEWDIN ATOMIC CHARGES
----------------------
   0 C :    0.072152
   1 C :   -0.129331
   2 C :   -0.017619
   3 N :   -0.046135
   4 C :   -0.012533
   5 N :   -0.048619
   6 C :   -0.022498
   7 C :   -0.058820
   8 C :    0.035905
   9 C :   -0.008177
  10 C :   -0.004289
  11 C :    0.019008
  12 C :   -0.005307
  13 C :   -0.010841
  14 C :   -0.010895
  15 C :   -0.008190
  16 C :    0.086407
  17 O :   -0.134094
  18 C :   -0.072080
  19 C :    0.069474
  20 C :   -0.052251
  21 C :   -0.011237
  22 C :    0.103525
  23 F :   -0.042972
  24 C :   -0.040110
  25 C :   -0.018171
  26 C :    0.090738
  27 F :   -0.055800
  28 C :    0.081515
  29 N :    0.003117
  30 C :    0.038886
  31 C :   -0.061163
  32 C :    0.080270
  33 O :   -0.196798
  34 C :   -0.116541
  35 C :   -0.122944
  36 C :    0.082858
  37 O :   -0.186507
  38 N :   -0.008157
  39 C :    0.034197
  40 C :   -0.063210
  41 C :    0.076346
  42 C :   -0.020108
  43 C :   -0.002974
  44 C :   -0.017881
  45 C :    0.007152
  46 C :   -0.009509
  47 N :    0.288408
  48 O :   -0.191354
  49 O :   -0.190091
  50 C :   -0.008923
  51 C :    0.006190
  52 C :    0.012498
  53 C :    0.048894
  54 C :   -0.036378
  55 C :    0.071875
  56 C :   -0.088516
  57 C :    0.075277
  58 C :   -0.137009
  59 C :   -0.016778
  60 N :   -0.053289
  61 C :   -0.024308
  62 N :   -0.050564
  63 C :   -0.026021
  64 C :   -0.054822
  65 C :    0.085889
  66 O :   -0.140328
  67 C :    0.034787
  68 C :   -0.008000
  69 C :   -0.005631
  70 C :    0.019435
  71 C :   -0.005586
  72 C :   -0.013150
  73 C :   -0.012415
  74 C :   -0.008785
  75 H :    0.040465
  76 H :    0.039442
  77 H :    0.034983
  78 H :    0.034159
  79 H :    0.033802
  80 H :    0.032719
  81 H :    0.051316
  82 H :    0.046983
  83 H :    0.043340
  84 H :    0.031899
  85 H :    0.035450
  86 H :    0.016818
  87 H :    0.032234
  88 H :    0.032549
  89 H :    0.037682
  90 H :    0.021618
  91 H :    0.034675
  92 H :    0.030725
  93 H :    0.020629
  94 H :    0.044419
  95 H :    0.031182
  96 H :    0.039361
  97 H :    0.036275
  98 H :    0.038629
  99 H :    0.032626
 100 H :    0.031113
 101 H :    0.045827
 102 H :    0.039905
 103 H :    0.038892
 104 H :    0.034804
 105 H :    0.033163
 106 H :    0.032942
 107 H :    0.032280

  Mayer bond orders larger than 0.100000
B(  0-C ,  1-C ) :   1.6673 B(  0-C ,  6-C ) :   1.0085 B(  0-C , 18-C ) :   1.0041
B(  1-C ,  2-C ) :   1.1320 B(  1-C ,  4-C ) :   1.1692 B(  2-C ,  3-N ) :   2.9899
B(  4-C ,  5-N ) :   2.9715 B(  6-C ,  7-C ) :   1.2109 B(  6-C , 11-C ) :   1.4492
B(  7-C ,  8-C ) :   1.4679 B(  7-C , 16-C ) :   0.9269 B(  8-C ,  9-C ) :   1.1880
B(  8-C , 75-H ) :   1.0163 B(  9-C , 10-C ) :   1.2551 B(  9-C , 15-C ) :   1.2425
B( 10-C , 11-C ) :   1.2100 B( 10-C , 12-C ) :   1.2398 B( 11-C , 76-H ) :   0.9924
B( 12-C , 13-C ) :   1.4912 B( 12-C , 77-H ) :   0.9975 B( 13-C , 14-C ) :   1.2591
B( 13-C , 78-H ) :   0.9885 B( 14-C , 15-C ) :   1.4903 B( 14-C , 79-H ) :   0.9887
B( 15-C , 80-H ) :   0.9980 B( 16-C , 17-O ) :   2.2722 B( 16-C , 18-C ) :   0.9212
B( 18-C , 19-C ) :   1.7632 B( 19-C , 20-C ) :   1.0232 B( 19-C , 81-H ) :   0.9347
B( 20-C , 21-C ) :   1.2861 B( 20-C , 26-C ) :   1.3059 B( 21-C , 22-C ) :   1.3627
B( 21-C , 82-H ) :   1.0029 B( 22-C , 23-F ) :   1.1483 B( 22-C , 24-C ) :   1.3391
B( 24-C , 25-C ) :   1.3176 B( 24-C , 28-C ) :   0.9672 B( 25-C , 26-C ) :   1.3613
B( 25-C , 83-H ) :   0.9993 B( 26-C , 27-F ) :   1.1039 B( 28-C , 29-N ) :   1.2298
B( 28-C , 35-C ) :   1.4408 B( 29-N , 30-C ) :   0.9311 B( 29-N , 32-C ) :   1.0226
B( 30-C , 31-C ) :   1.1121 B( 30-C , 84-H ) :   0.9455 B( 30-C , 85-H ) :   0.9370
B( 31-C , 86-H ) :   0.9647 B( 31-C , 87-H ) :   0.9662 B( 31-C , 88-H ) :   0.9630
B( 32-C , 33-O ) :   2.1119 B( 32-C , 34-C ) :   0.9881 B( 34-C , 35-C ) :   1.2056
B( 34-C , 41-C ) :   1.3657 B( 35-C , 36-C ) :   0.9603 B( 36-C , 37-O ) :   2.1628
B( 36-C , 38-N ) :   1.0218 B( 38-N , 39-C ) :   0.9432 B( 38-N , 41-C ) :   1.1706
B( 39-C , 40-C ) :   1.1176 B( 39-C , 89-H ) :   0.9235 B( 39-C , 90-H ) :   0.9514
B( 40-C , 91-H ) :   0.9602 B( 40-C , 92-H ) :   0.9689 B( 40-C , 93-H ) :   0.9671
B( 41-C , 42-C ) :   1.1654 B( 42-C , 43-C ) :   1.6069 B( 42-C , 94-H ) :   0.9420
B( 43-C , 44-C ) :   1.0763 B( 43-C , 95-H ) :   0.9899 B( 44-C , 45-C ) :   1.2882
B( 44-C , 52-C ) :   1.3106 B( 45-C , 46-C ) :   1.3882 B( 45-C , 96-H ) :   0.9992
B( 46-C , 47-N ) :   0.8645 B( 46-C , 50-C ) :   1.3622 B( 47-N , 48-O ) :   1.5610
B( 47-N , 49-O ) :   1.5227 B( 48-O , 49-O ) :   0.2685 B( 50-C , 51-C ) :   1.3083
B( 50-C , 53-C ) :   1.1163 B( 51-C , 52-C ) :   1.4378 B( 51-C , 97-H ) :   0.9867
B( 52-C , 98-H ) :   0.9884 B( 53-C , 54-C ) :   1.6909 B( 53-C , 99-H ) :   0.9425
B( 54-C , 55-C ) :   1.1409 B( 54-C ,100-H ) :   0.9482 B( 55-C , 56-C ) :   1.6436
B( 55-C ,101-H ) :   0.9445 B( 56-C , 57-C ) :   1.0550 B( 56-C , 65-C ) :   0.9303
B( 57-C , 58-C ) :   1.6479 B( 57-C , 63-C ) :   0.9963 B( 58-C , 59-C ) :   1.1426
B( 58-C , 61-C ) :   1.1371 B( 59-C , 60-N ) :   2.9665 B( 61-C , 62-N ) :   2.9991
B( 63-C , 64-C ) :   1.2110 B( 63-C , 70-C ) :   1.4471 B( 64-C , 65-C ) :   0.9504
B( 64-C , 67-C ) :   1.4757 B( 65-C , 66-O ) :   2.2121 B( 67-C , 68-C ) :   1.1814
B( 67-C ,102-H ) :   1.0150 B( 68-C , 69-C ) :   1.2542 B( 68-C , 74-C ) :   1.2442
B( 69-C , 70-C ) :   1.2096 B( 69-C , 71-C ) :   1.2387 B( 70-C ,103-H ) :   0.9897
B( 71-C , 72-C ) :   1.4918 B( 71-C ,104-H ) :   0.9970 B( 72-C , 73-C ) :   1.2586
B( 72-C ,105-H ) :   0.9880 B( 73-C , 74-C ) :   1.4911 B( 73-C ,106-H ) :   0.9885
B( 74-C ,107-H ) :   0.9972

-----------------------------------------------------------------------------
         ABSORPTION SPECTRUM VIA TRANSITION ELECTRIC DIPOLE MOMENTS
-----------------------------------------------------------------------------
State   Energy  Wavelength   fosc         T2         TX        TY        TZ
        (cm-1)    (nm)                  (au**2)     (au)      (au)      (au)
-----------------------------------------------------------------------------
   0   17250.4    579.7   1.148144105  21.91147   2.04648  -3.95163  -1.45191
   1   20190.0    495.3   0.153480736   2.50261  -1.09361   1.13868  -0.10017
   2   22914.8    436.4   0.211111770   3.03300  -1.25834   0.86673  -0.83568
   3   24970.1    400.5   0.089549079   1.18064   0.13719  -0.83373  -0.68316
   4   26169.7    382.1   0.053444753   0.67233  -0.32799   0.31763   0.68107
   5   26906.1    371.7   0.086061935   1.05302  -0.01929   1.02584  -0.01708
   6   27575.7    362.6   0.036419758   0.43480   0.37284  -0.54264  -0.03647
   7   28121.0    355.6   0.323820648   3.79096   0.99404  -1.62190  -0.41508
   8   28145.3    355.3   0.201686482   2.35910   0.86824  -1.25646   0.16303
   9   28633.0    349.2   0.126826360   1.45820   0.89050  -0.77624   0.25031
  10   29053.3    344.2   0.074677309   0.84619   0.04400  -0.32607  -0.85903
  11   29095.6    343.7   0.028605339   0.32367  -0.07222   0.54064   0.16173
  12   29398.9    340.1   0.004832596   0.05412  -0.15405   0.05424  -0.16566
  13   29595.3    337.9   0.011105230   0.12353   0.24719  -0.24824  -0.02835
  14   30115.3    332.1   0.022050861   0.24105  -0.26527   0.17269   0.37532
  15   30167.1    331.5   0.316782171   3.45702   1.05897  -1.16152  -0.99322
  16   31864.5    313.8   0.006993830   0.07226  -0.22333   0.11700   0.09324
  17   32090.4    311.6   0.112173506   1.15078  -0.15432  -0.61430  -0.86580
  18   32810.4    304.8   0.133925227   1.34378   0.01052  -0.28698   1.12308
  19   33235.7    300.9   0.514096783   5.09232  -0.69417   0.41594   2.10652
  20   33531.5    298.2   0.002612457   0.02565  -0.09973  -0.00392  -0.12525
  21   33814.5    295.7   0.043710920   0.42556   0.17768   0.60395   0.17097
  22   33969.8    294.4   0.212877658   2.06307  -0.06318  -1.41597   0.23259
  23   34060.6    293.6   0.127277650   1.23020   0.21154  -1.08608  -0.07666
  24   34363.1    291.0   0.020854424   0.19979   0.19159  -0.03761   0.40208
  25   34425.5    290.5   0.688620352   6.58530   0.52267  -2.50979  -0.11441
  26   34657.9    288.5   0.188599899   1.79149   0.20167  -1.13151   0.68594
  27   34801.5    287.3   0.219262027   2.07415  -0.17903  -1.37520  -0.38851
  28   35359.6    282.8   0.026462735   0.24638  -0.14838   0.26767  -0.39078
  29   35807.7    279.3   0.077300984   0.71070  -0.34923   0.46349   0.61149
  30   36036.4    277.5   0.005086595   0.04647   0.07425   0.16205  -0.12123
  31   36658.3    272.8   0.109656611   0.98478  -0.31577   0.56682  -0.75085
  32   36826.9    271.5   0.105668992   0.94462   0.16323  -0.02584  -0.95776
  33   37103.8    269.5   0.131278881   1.16480  -0.38622   0.56212  -0.83646
  34   37893.6    263.9   0.080837780   0.70230  -0.12276   0.38445   0.73446
  35   38028.6    263.0   0.157846739   1.36647  -0.15077   1.15663  -0.07712
  36   38267.7    261.3   0.122023280   1.04975  -0.40902   0.92579  -0.15924
  37   38458.8    260.0   0.103258905   0.88391   0.49705  -0.28198   0.74655
  38   38500.1    259.7   0.012407622   0.10610  -0.11819   0.28929  -0.09185
  39   38658.6    258.7   0.040668628   0.34633  -0.06710   0.33227  -0.48107
  40   38705.8    258.4   0.001389955   0.01182   0.03466  -0.02332   0.10038
  41   38945.2    256.8   0.193339452   1.63434   0.47452  -0.71980   0.94396
  42   39622.4    252.4   0.010215439   0.08488   0.22440   0.02242   0.18444
  43   39675.6    252.0   0.032795978   0.27213  -0.26868   0.36596  -0.25693

FINAL SINGLE POINT ENERGY     -3336.245054729149

DIPOLE MOMENT
-------------
                                X             Y             Z
Electronic contribution:     12.62132      -6.25700      -9.76315
Nuclear contribution   :    -12.64025       2.34332      11.50469
                        -----------------------------------------
Total Dipole Moment    :     -0.01892      -3.91368       1.74153
                        -----------------------------------------
Magnitude (a.u.)       :      4.28372
Magnitude (Debye)      :     10.88834

Rotational constants in cm-1:     0.002946     0.000180     0.000175
Rotational constants in MHz :    88.325963     5.396779     5.251354

                             ****ORCA TERMINATED NORMALLY****
TOTAL RUN TIME: 0 days 0 hours 11 minutes 10 seconds 555 msec
