                         Program Version 4.2.0 -  RELEASE  -
|  1> # ORCA input file
|  2> # SCF done       -193.797064398155          0.000887050469
|  3> ! CAM-B3LYP def2-SVP def2/J RIJCOSX Grid4 TightSCF
|  4> %maxcore 5000
|  5> %tddft
|  6>     Mode sTDDFT
|  7>     Ethresh 5.0
|  8>     maxcore 5000
|  9> end
| 10>
| 11> %pal
| 12>   nprocs 6
| 13>   end
| 14> * xyz 0 1
| 15>    C       -2.42742         1.23778        -1.75264
| 16>    C       -3.31750         1.49649        -2.75846
| 17>    C       -4.38126         0.63576        -3.10169
| 18>    N       -5.26188        -0.02930        -3.41570
| 19>    C       -3.21933         2.61220        -3.61445
| 20>    N       -3.14240         3.47924        -4.36370
| 21>    C       -2.32067         0.00711        -0.98639
| 22>    C       -1.02295        -0.05348        -0.39505
| 23>    C       -0.63538        -1.11751         0.36851
| 24>    C       -1.54357        -2.17817         0.58451
| 25>    C       -2.84658        -2.11361         0.00950
| 26>    C       -3.22030        -1.00383        -0.78117
| 27>    C       -3.74586        -3.17385         0.24373
| 28>    C       -3.37804        -4.24845         1.00650
| 29>    C       -2.09477        -4.31251         1.57025
| 30>    C       -1.19738        -3.30026         1.36332
| 31>    C       -0.27479         1.17069        -0.72392
| 32>    O        0.87192         1.45256        -0.46724
| 33>    C       -1.27087         2.04817        -1.40897
| 34>    C       -1.08636         3.38375        -1.47372
| 35>    C       -2.06741         4.38792        -1.76189
| 36>    C       -3.32998         4.56165        -1.21827
| 37>    N       -3.99894         3.77600        -0.26462
| 38>    O       -3.50387         2.71161         0.08274
| 39>    O       -5.05337         4.20408         0.17121
| 40>    C       -3.90215         5.78942        -1.71782
| 41>    C       -3.00356         6.38375        -2.53317
| 42>    C       -1.82096         5.55960        -2.60440
| 43>    C       -0.74409         5.71986        -3.44853
| 44>    C        0.08850         4.67633        -3.95081
| 45>    C        0.76279         5.13659        -5.04316
| 46>    C        0.45719         6.52076        -5.23776
| 47>    N        1.02226         7.28023        -6.26575
| 48>    O        1.83295         6.73174        -6.99439
| 49>    O        0.67492         8.45033        -6.40730
| 50>    C       -0.41308         6.93971        -4.22332
| 51>    C       -0.75241         8.26790        -3.95010
| 52>    C       -1.22226         8.79081        -2.76864
| 53>    C       -1.56376        10.14709        -2.64269
| 54>    N       -1.51756        11.02782        -3.67975
| 55>    C       -1.94085        12.24923        -3.29130
| 56>    C       -2.28582        12.16124        -1.92498
| 57>    C       -2.05026        10.86446        -1.52474
| 58>    C       -1.99883        13.34070        -4.21311
| 59>    C       -2.46942        14.60594        -3.85481
| 60>    N       -2.66025        15.60102        -4.69516
| 61>    C       -2.36484        15.48004        -5.98462
| 62>    C       -1.72181        14.29046        -6.46526
| 63>    C       -1.57808        13.19546        -5.57247
| 64>    N       -1.03606        12.03985        -6.01473
| 65>    C       -0.63323        11.96718        -7.25617
| 66>    C       -0.72380        13.07937        -8.11531
| 67>    N       -1.25077        14.20660        -7.72017
| 68>    C       -2.75705        16.57620        -6.81776
| 69>    C       -2.79608        16.56294        -8.17385
| 70>    C       -3.25352        17.68103        -8.91596
| 71>    C       -3.40508        17.69325       -10.27164
| 72>    C       -3.87859        18.80034       -11.08710
| 73>    C       -4.19809        20.06158       -10.65608
| 74>    C       -4.65069        21.09607       -11.50318
| 75>    N       -5.02321        21.98129       -12.13189
| 76>    C       -4.12271        20.52573        -9.32574
| 77>    N       -4.09060        20.98720        -8.27462
| 78>    C       -3.94775        18.33923       -12.46905
| 79>    C       -3.50549        16.98664       -12.52212
| 80>    C       -3.14341        16.53155       -11.17050
| 81>    O       -2.73280        15.43205       -10.86620
| 82>    C       -3.46270        16.28483       -13.69262
| 83>    C       -3.86997        16.91467       -14.88919
| 84>    C       -4.31637        18.26738       -14.84564
| 85>    C       -4.34824        18.96877       -13.61880
| 86>    C       -4.72431        18.88615       -16.04507
| 87>    C       -4.69326        18.20341       -17.23049
| 88>    C       -4.25311        16.87179       -17.27198
| 89>    C       -3.84997        16.24111       -16.12629
| 90>    H        0.35098        -1.14906         0.80726
| 91>    H       -4.21680        -0.96852        -1.19292
| 92>    H       -4.73169        -3.12025        -0.19408
| 93>    H       -4.07401        -5.05545         1.18021
| 94>    H       -1.82154        -5.16755         2.17036
| 95>    H       -0.20859        -3.34448         1.79600
| 96>    H       -0.08879         3.74175        -1.23377
| 97>    H       -4.89101         6.12078        -1.46614
| 98>    H       -3.16674         7.26262        -3.12409
| 99>    H        0.07329         3.66145        -3.60628
|100>    H        1.41739         4.57838        -5.68619
|101>    H       -0.52980         8.95319        -4.75763
|102>    H       -1.32348         8.17231        -1.88897
|103>    H       -1.18698        10.88841        -4.63677
|104>    H       -2.66100        12.95899        -1.31616
|105>    H       -2.20950        10.45216        -0.54811
|106>    H       -2.73918        14.81666        -2.82927
|107>    H       -0.20528        11.02344        -7.56592
|108>    H       -0.35030        13.04910        -9.12868
|109>    H       -3.10157        17.44572        -6.27101
|110>    H       -2.48786        15.68226        -8.71680
|111>    H       -3.50785        18.56767        -8.34873
|112>    H       -3.12275        15.25984       -13.70370
|113>    H       -4.69330        19.99029       -13.62188
|114>    H       -5.06221        19.91138       -16.00843
|115>    H       -5.00795        18.68587       -18.14361
|116>    H       -4.23540        16.34839       -18.21615
|117>    H       -3.51044        15.21600       -16.15177
|118> *
|119>
|120>                          ****END OF INPUT****

CARTESIAN COORDINATES (ANGSTROEM)
---------------------------------
  C     -2.427420    1.237780   -1.752640
  C     -3.317500    1.496490   -2.758460
  C     -4.381260    0.635760   -3.101690
  N     -5.261880   -0.029300   -3.415700
  C     -3.219330    2.612200   -3.614450
  N     -3.142400    3.479240   -4.363700
  C     -2.320670    0.007110   -0.986390
  C     -1.022950   -0.053480   -0.395050
  C     -0.635380   -1.117510    0.368510
  C     -1.543570   -2.178170    0.584510
  C     -2.846580   -2.113610    0.009500
  C     -3.220300   -1.003830   -0.781170
  C     -3.745860   -3.173850    0.243730
  C     -3.378040   -4.248450    1.006500
  C     -2.094770   -4.312510    1.570250
  C     -1.197380   -3.300260    1.363320
  C     -0.274790    1.170690   -0.723920
  O      0.871920    1.452560   -0.467240
  C     -1.270870    2.048170   -1.408970
  C     -1.086360    3.383750   -1.473720
  C     -2.067410    4.387920   -1.761890
  C     -3.329980    4.561650   -1.218270
  N     -3.998940    3.776000   -0.264620
  O     -3.503870    2.711610    0.082740
  O     -5.053370    4.204080    0.171210
  C     -3.902150    5.789420   -1.717820
  C     -3.003560    6.383750   -2.533170
  C     -1.820960    5.559600   -2.604400
  C     -0.744090    5.719860   -3.448530
  C      0.088500    4.676330   -3.950810
  C      0.762790    5.136590   -5.043160
  C      0.457190    6.520760   -5.237760
  N      1.022260    7.280230   -6.265750
  O      1.832950    6.731740   -6.994390
  O      0.674920    8.450330   -6.407300
  C     -0.413080    6.939710   -4.223320
  C     -0.752410    8.267900   -3.950100
  C     -1.222260    8.790810   -2.768640
  C     -1.563760   10.147090   -2.642690
  N     -1.517560   11.027820   -3.679750
  C     -1.940850   12.249230   -3.291300
  C     -2.285820   12.161240   -1.924980
  C     -2.050260   10.864460   -1.524740
  C     -1.998830   13.340700   -4.213110
  C     -2.469420   14.605940   -3.854810
  N     -2.660250   15.601020   -4.695160
  C     -2.364840   15.480040   -5.984620
  C     -1.721810   14.290460   -6.465260
  C     -1.578080   13.195460   -5.572470
  N     -1.036060   12.039850   -6.014730
  C     -0.633230   11.967180   -7.256170
  C     -0.723800   13.079370   -8.115310
  N     -1.250770   14.206600   -7.720170
  C     -2.757050   16.576200   -6.817760
  C     -2.796080   16.562940   -8.173850
  C     -3.253520   17.681030   -8.915960
  C     -3.405080   17.693250  -10.271640
  C     -3.878590   18.800340  -11.087100
  C     -4.198090   20.061580  -10.656080
  C     -4.650690   21.096070  -11.503180
  N     -5.023210   21.981290  -12.131890
  C     -4.122710   20.525730   -9.325740
  N     -4.090600   20.987200   -8.274620
  C     -3.947750   18.339230  -12.469050
  C     -3.505490   16.986640  -12.522120
  C     -3.143410   16.531550  -11.170500
  O     -2.732800   15.432050  -10.866200
  C     -3.462700   16.284830  -13.692620
  C     -3.869970   16.914670  -14.889190
  C     -4.316370   18.267380  -14.845640
  C     -4.348240   18.968770  -13.618800
  C     -4.724310   18.886150  -16.045070
  C     -4.693260   18.203410  -17.230490
  C     -4.253110   16.871790  -17.271980
  C     -3.849970   16.241110  -16.126290
  H      0.350980   -1.149060    0.807260
  H     -4.216800   -0.968520   -1.192920
  H     -4.731690   -3.120250   -0.194080
  H     -4.074010   -5.055450    1.180210
  H     -1.821540   -5.167550    2.170360
  H     -0.208590   -3.344480    1.796000
  H     -0.088790    3.741750   -1.233770
  H     -4.891010    6.120780   -1.466140
  H     -3.166740    7.262620   -3.124090
  H      0.073290    3.661450   -3.606280
  H      1.417390    4.578380   -5.686190
  H     -0.529800    8.953190   -4.757630
  H     -1.323480    8.172310   -1.888970
  H     -1.186980   10.888410   -4.636770
  H     -2.661000   12.958990   -1.316160
  H     -2.209500   10.452160   -0.548110
  H     -2.739180   14.816660   -2.829270
  H     -0.205280   11.023440   -7.565920
  H     -0.350300   13.049100   -9.128680
  H     -3.101570   17.445720   -6.271010
  H     -2.487860   15.682260   -8.716800
  H     -3.507850   18.567670   -8.348730
  H     -3.122750   15.259840  -13.703700
  H     -4.693300   19.990290  -13.621880
  H     -5.062210   19.911380  -16.008430
  H     -5.007950   18.685870  -18.143610
  H     -4.235400   16.348390  -18.216150
  H     -3.510440   15.216000  -16.151770

 Total Charge           Charge          ....    0
 Multiplicity           Mult            ....    1
 Number of Electrons    NEL             ....  500
 Basis Dimension        Dim             .... 1190

ORBITAL ENERGIES
----------------

  NO   OCC          E(Eh)            E(eV)
   0   2.0000     -19.242007      -523.6016
   1   2.0000     -19.241259      -523.5813
   2   2.0000     -19.228636      -523.2378
   3   2.0000     -19.228259      -523.2275
   4   2.0000     -19.219556      -522.9907
   5   2.0000     -19.217101      -522.9239
   6   2.0000     -14.649385      -398.6300
   7   2.0000     -14.638341      -398.3295
   8   2.0000     -14.468105      -393.6971
   9   2.0000     -14.460921      -393.5017
  10   2.0000     -14.451821      -393.2540
  11   2.0000     -14.430509      -392.6741
  12   2.0000     -14.418235      -392.3401
  13   2.0000     -14.416435      -392.2912
  14   2.0000     -14.415493      -392.2655
  15   2.0000     -14.414355      -392.2346
  16   2.0000     -10.370179      -282.1869
  17   2.0000     -10.367735      -282.1204
  18   2.0000     -10.353824      -281.7419
  19   2.0000     -10.350287      -281.6456
  20   2.0000     -10.345533      -281.5163
  21   2.0000     -10.344657      -281.4924
  22   2.0000     -10.343739      -281.4675
  23   2.0000     -10.342415      -281.4314
  24   2.0000     -10.342284      -281.4278
  25   2.0000     -10.341251      -281.3997
  26   2.0000     -10.341214      -281.3987
  27   2.0000     -10.335344      -281.2390
  28   2.0000     -10.334009      -281.2027
  29   2.0000     -10.332760      -281.1687
  30   2.0000     -10.327637      -281.0293
  31   2.0000     -10.323311      -280.9116
  32   2.0000     -10.323260      -280.9102
  33   2.0000     -10.321005      -280.8488
  34   2.0000     -10.320689      -280.8402
  35   2.0000     -10.319426      -280.8059
  36   2.0000     -10.319192      -280.7995
  37   2.0000     -10.318461      -280.7796
  38   2.0000     -10.318351      -280.7766
  39   2.0000     -10.318229      -280.7733
  40   2.0000     -10.316870      -280.7363
  41   2.0000     -10.316571      -280.7282
  42   2.0000     -10.315007      -280.6856
  43   2.0000     -10.314932      -280.6836
  44   2.0000     -10.304872      -280.4098
  45   2.0000     -10.302868      -280.3553
  46   2.0000     -10.302668      -280.3499
  47   2.0000     -10.301748      -280.3248
  48   2.0000     -10.300729      -280.2971
  49   2.0000     -10.300060      -280.2789
  50   2.0000     -10.299878      -280.2739
  51   2.0000     -10.299597      -280.2663
  52   2.0000     -10.298811      -280.2449
  53   2.0000     -10.298513      -280.2368
  54   2.0000     -10.296860      -280.1918
  55   2.0000     -10.296592      -280.1845
  56   2.0000     -10.296289      -280.1763
  57   2.0000     -10.295266      -280.1484
  58   2.0000     -10.295083      -280.1435
  59   2.0000     -10.290331      -280.0141
  60   2.0000     -10.289674      -279.9963
  61   2.0000     -10.289365      -279.9879
  62   2.0000     -10.288659      -279.9686
  63   2.0000     -10.288109      -279.9537
  64   2.0000     -10.287796      -279.9452
  65   2.0000     -10.287677      -279.9419
  66   2.0000     -10.287257      -279.9305
  67   2.0000     -10.285757      -279.8897
  68   2.0000     -10.285442      -279.8811
  69   2.0000     -10.285290      -279.8770
  70   2.0000     -10.284946      -279.8676
  71   2.0000     -10.284714      -279.8613
  72   2.0000     -10.284358      -279.8516
  73   2.0000     -10.283966      -279.8409
  74   2.0000     -10.278131      -279.6822
  75   2.0000      -1.319496       -35.9053
  76   2.0000      -1.305695       -35.5298
  77   2.0000      -1.136468       -30.9249
  78   2.0000      -1.134168       -30.8623
  79   2.0000      -1.131873       -30.7998
  80   2.0000      -1.121976       -30.5305
  81   2.0000      -1.116509       -30.3818
  82   2.0000      -1.100009       -29.9328
  83   2.0000      -1.061745       -28.8915
  84   2.0000      -1.033448       -28.1216
  85   2.0000      -1.021065       -27.7846
  86   2.0000      -1.019905       -27.7530
  87   2.0000      -1.012366       -27.5479
  88   2.0000      -1.000392       -27.2221
  89   2.0000      -0.997897       -27.1542
  90   2.0000      -0.995843       -27.0983
  91   2.0000      -0.995523       -27.0896
  92   2.0000      -0.991232       -26.9728
  93   2.0000      -0.973310       -26.4851
  94   2.0000      -0.970567       -26.4105
  95   2.0000      -0.939484       -25.5647
  96   2.0000      -0.931774       -25.3549
  97   2.0000      -0.924256       -25.1503
  98   2.0000      -0.921087       -25.0641
  99   2.0000      -0.915761       -24.9191
 100   2.0000      -0.909239       -24.7416
 101   2.0000      -0.903670       -24.5901
 102   2.0000      -0.901285       -24.5252
 103   2.0000      -0.892071       -24.2745
 104   2.0000      -0.885161       -24.0865
 105   2.0000      -0.882137       -24.0042
 106   2.0000      -0.880844       -23.9690
 107   2.0000      -0.879873       -23.9426
 108   2.0000      -0.874006       -23.7829
 109   2.0000      -0.859027       -23.3753
 110   2.0000      -0.840648       -22.8752
 111   2.0000      -0.830212       -22.5912
 112   2.0000      -0.829025       -22.5589
 113   2.0000      -0.827419       -22.5152
 114   2.0000      -0.813293       -22.1308
 115   2.0000      -0.804056       -21.8795
 116   2.0000      -0.789404       -21.4808
 117   2.0000      -0.783446       -21.3186
 118   2.0000      -0.780225       -21.2310
 119   2.0000      -0.773612       -21.0510
 120   2.0000      -0.763750       -20.7827
 121   2.0000      -0.759039       -20.6545
 122   2.0000      -0.745461       -20.2850
 123   2.0000      -0.726075       -19.7575
 124   2.0000      -0.719785       -19.5863
 125   2.0000      -0.713911       -19.4265
 126   2.0000      -0.709363       -19.3028
 127   2.0000      -0.705579       -19.1998
 128   2.0000      -0.702102       -19.1052
 129   2.0000      -0.699800       -19.0425
 130   2.0000      -0.694678       -18.9031
 131   2.0000      -0.693600       -18.8738
 132   2.0000      -0.691144       -18.8070
 133   2.0000      -0.680161       -18.5081
 134   2.0000      -0.676545       -18.4097
 135   2.0000      -0.669043       -18.2056
 136   2.0000      -0.666539       -18.1374
 137   2.0000      -0.660202       -17.9650
 138   2.0000      -0.657802       -17.8997
 139   2.0000      -0.646679       -17.5970
 140   2.0000      -0.642225       -17.4758
 141   2.0000      -0.639852       -17.4113
 142   2.0000      -0.635138       -17.2830
 143   2.0000      -0.633324       -17.2336
 144   2.0000      -0.632442       -17.2096
 145   2.0000      -0.628480       -17.1018
 146   2.0000      -0.622143       -16.9294
 147   2.0000      -0.619994       -16.8709
 148   2.0000      -0.617683       -16.8080
 149   2.0000      -0.610806       -16.6209
 150   2.0000      -0.608542       -16.5593
 151   2.0000      -0.606744       -16.5103
 152   2.0000      -0.603203       -16.4140
 153   2.0000      -0.595760       -16.2114
 154   2.0000      -0.590168       -16.0593
 155   2.0000      -0.589402       -16.0384
 156   2.0000      -0.579082       -15.7576
 157   2.0000      -0.574923       -15.6444
 158   2.0000      -0.574145       -15.6233
 159   2.0000      -0.571681       -15.5562
 160   2.0000      -0.566082       -15.4039
 161   2.0000      -0.560787       -15.2598
 162   2.0000      -0.551608       -15.0100
 163   2.0000      -0.548836       -14.9346
 164   2.0000      -0.548313       -14.9204
 165   2.0000      -0.547736       -14.9047
 166   2.0000      -0.545026       -14.8309
 167   2.0000      -0.542785       -14.7699
 168   2.0000      -0.540493       -14.7076
 169   2.0000      -0.538945       -14.6654
 170   2.0000      -0.536727       -14.6051
 171   2.0000      -0.535513       -14.5720
 172   2.0000      -0.534629       -14.5480
 173   2.0000      -0.532953       -14.5024
 174   2.0000      -0.530142       -14.4259
 175   2.0000      -0.524724       -14.2785
 176   2.0000      -0.523474       -14.2445
 177   2.0000      -0.520468       -14.1627
 178   2.0000      -0.519974       -14.1492
 179   2.0000      -0.517318       -14.0769
 180   2.0000      -0.516218       -14.0470
 181   2.0000      -0.511410       -13.9162
 182   2.0000      -0.510721       -13.8974
 183   2.0000      -0.506860       -13.7924
 184   2.0000      -0.505234       -13.7481
 185   2.0000      -0.500773       -13.6267
 186   2.0000      -0.498899       -13.5757
 187   2.0000      -0.497593       -13.5402
 188   2.0000      -0.495912       -13.4945
 189   2.0000      -0.493418       -13.4266
 190   2.0000      -0.492921       -13.4131
 191   2.0000      -0.490175       -13.3383
 192   2.0000      -0.488323       -13.2879
 193   2.0000      -0.483371       -13.1532
 194   2.0000      -0.481112       -13.0917
 195   2.0000      -0.478216       -13.0129
 196   2.0000      -0.476194       -12.9579
 197   2.0000      -0.472298       -12.8519
 198   2.0000      -0.470621       -12.8063
 199   2.0000      -0.465111       -12.6563
 200   2.0000      -0.463842       -12.6218
 201   2.0000      -0.463228       -12.6051
 202   2.0000      -0.455632       -12.3984
 203   2.0000      -0.451907       -12.2970
 204   2.0000      -0.450513       -12.2591
 205   2.0000      -0.447101       -12.1662
 206   2.0000      -0.446157       -12.1405
 207   2.0000      -0.443469       -12.0674
 208   2.0000      -0.441896       -12.0246
 209   2.0000      -0.438270       -11.9259
 210   2.0000      -0.435816       -11.8592
 211   2.0000      -0.434866       -11.8333
 212   2.0000      -0.432695       -11.7742
 213   2.0000      -0.430827       -11.7234
 214   2.0000      -0.428916       -11.6714
 215   2.0000      -0.425407       -11.5759
 216   2.0000      -0.424960       -11.5638
 217   2.0000      -0.421838       -11.4788
 218   2.0000      -0.418070       -11.3763
 219   2.0000      -0.414363       -11.2754
 220   2.0000      -0.410811       -11.1787
 221   2.0000      -0.409082       -11.1317
 222   2.0000      -0.406989       -11.0747
 223   2.0000      -0.403900       -10.9907
 224   2.0000      -0.391629       -10.6568
 225   2.0000      -0.387822       -10.5532
 226   2.0000      -0.382511       -10.4087
 227   2.0000      -0.380009       -10.3406
 228   2.0000      -0.377654       -10.2765
 229   2.0000      -0.375535       -10.2188
 230   2.0000      -0.374697       -10.1960
 231   2.0000      -0.370345       -10.0776
 232   2.0000      -0.362651        -9.8682
 233   2.0000      -0.361143        -9.8272
 234   2.0000      -0.358169        -9.7463
 235   2.0000      -0.356151        -9.6914
 236   2.0000      -0.351484        -9.5644
 237   2.0000      -0.350542        -9.5387
 238   2.0000      -0.345086        -9.3903
 239   2.0000      -0.339227        -9.2308
 240   2.0000      -0.335475        -9.1287
 241   2.0000      -0.334187        -9.0937
 242   2.0000      -0.325297        -8.8518
 243   2.0000      -0.317877        -8.6499
 244   2.0000      -0.314543        -8.5592
 245   2.0000      -0.302514        -8.2318
 246   2.0000      -0.298076        -8.1111
 247   2.0000      -0.291635        -7.9358
 248   2.0000      -0.288901        -7.8614
 249   2.0000      -0.249044        -6.7768
 250   0.0000      -0.134215        -3.6522
 251   0.0000      -0.109419        -2.9774
 252   0.0000      -0.085953        -2.3389
 253   0.0000      -0.073048        -1.9877
 254   0.0000      -0.056979        -1.5505

MULLIKEN ATOMIC CHARGES
-----------------------
   0 C :    0.324214
   1 C :   -0.353066
   2 C :   -0.181684
   3 N :    0.157388
   4 C :   -0.185038
   5 N :    0.167210
   6 C :    0.042175
   7 C :    0.013760
   8 C :   -0.083270
   9 C :    0.095191
  10 C :    0.093143
  11 C :   -0.072868
  12 C :   -0.015211
  13 C :    0.035848
  14 C :    0.036326
  15 C :   -0.013141
  16 C :    0.135833
  17 O :   -0.133512
  18 C :   -0.087293
  19 C :   -0.041584
  20 C :   -0.015872
  21 C :    0.096010
  22 N :    0.271489
  23 O :   -0.256024
  24 O :   -0.236729
  25 C :    0.009895
  26 C :    0.004162
  27 C :    0.060201
  28 C :    0.045234
  29 C :   -0.012334
  30 C :    0.039862
  31 C :    0.063124
  32 N :    0.283647
  33 O :   -0.259684
  34 O :   -0.286893
  35 C :    0.055840
  36 C :   -0.084162
  37 C :    0.045646
  38 C :    0.060300
  39 N :   -0.022992
  40 C :    0.012085
  41 C :   -0.029922
  42 C :    0.005258
  43 C :    0.070378
  44 C :   -0.031856
  45 N :   -0.020883
  46 C :   -0.024119
  47 C :   -0.027030
  48 C :    0.039236
  49 N :   -0.101032
  50 C :    0.064461
  51 C :    0.044977
  52 N :   -0.004696
  53 C :    0.033736
  54 C :    0.016923
  55 C :   -0.041219
  56 C :   -0.064175
  57 C :    0.339274
  58 C :   -0.353828
  59 C :   -0.181871
  60 N :    0.150192
  61 C :   -0.188909
  62 N :    0.148816
  63 C :    0.046314
  64 C :   -0.005443
  65 C :    0.148453
  66 O :   -0.146357
  67 C :   -0.076088
  68 C :    0.096439
  69 C :    0.093011
  70 C :   -0.079149
  71 C :   -0.017427
  72 C :    0.037190
  73 C :    0.035581
  74 C :   -0.013064
  75 H :   -0.012663
  76 H :   -0.004248
  77 H :   -0.010429
  78 H :   -0.003839
  79 H :   -0.005395
  80 H :   -0.018094
  81 H :    0.035816
  82 H :   -0.002815
  83 H :    0.006100
  84 H :   -0.002061
  85 H :    0.008815
  86 H :    0.003609
  87 H :    0.016827
  88 H :    0.157996
  89 H :   -0.016690
  90 H :   -0.012946
  91 H :    0.005283
  92 H :    0.046052
  93 H :    0.034532
  94 H :    0.003479
  95 H :    0.046962
  96 H :    0.013996
  97 H :   -0.015766
  98 H :   -0.009766
  99 H :   -0.008420
 100 H :   -0.004591
 101 H :   -0.004248
 102 H :   -0.017893
Sum of atomic charges:   -0.0000000

LOEWDIN ATOMIC CHARGES
----------------------
   0 C :    0.079887
   1 C :   -0.135899
   2 C :   -0.018018
   3 N :   -0.048254
   4 C :   -0.017378
   5 N :   -0.050994
   6 C :   -0.016553
   7 C :   -0.054503
   8 C :    0.033677
   9 C :   -0.007507
  10 C :   -0.003705
  11 C :    0.024565
  12 C :   -0.004625
  13 C :   -0.012308
  14 C :   -0.012391
  15 C :   -0.008962
  16 C :    0.085898
  17 O :   -0.137706
  18 C :   -0.059318
  19 C :    0.048275
  20 C :   -0.008869
  21 C :   -0.029442
  22 N :    0.285474
  23 O :   -0.210697
  24 O :   -0.201815
  25 C :   -0.010599
  26 C :   -0.022606
  27 C :    0.016839
  28 C :    0.059078
  29 C :   -0.057847
  30 C :    0.051436
  31 C :   -0.083025
  32 N :    0.290061
  33 O :   -0.223651
  34 O :   -0.255025
  35 C :    0.033125
  36 C :   -0.042177
  37 C :    0.029659
  38 C :   -0.021302
  39 N :    0.112116
  40 C :    0.019026
  41 C :   -0.052822
  42 C :   -0.022893
  43 C :   -0.048624
  44 C :    0.032335
  45 N :   -0.048920
  46 C :    0.013429
  47 C :   -0.014438
  48 C :    0.012576
  49 N :   -0.036628
  50 C :    0.042979
  51 C :    0.023263
  52 N :   -0.006252
  53 C :    0.018342
  54 C :   -0.006878
  55 C :    0.067299
  56 C :   -0.081503
  57 C :    0.074107
  58 C :   -0.134659
  59 C :   -0.016709
  60 N :   -0.051756
  61 C :   -0.020839
  62 N :   -0.048974
  63 C :   -0.025799
  64 C :   -0.056627
  65 C :    0.085595
  66 O :   -0.142236
  67 C :    0.032436
  68 C :   -0.008160
  69 C :   -0.005876
  70 C :    0.020047
  71 C :   -0.004854
  72 C :   -0.012542
  73 C :   -0.011484
  74 C :   -0.009468
  75 H :    0.039329
  76 H :    0.040260
  77 H :    0.034854
  78 H :    0.033413
  79 H :    0.032751
  80 H :    0.031800
  81 H :    0.050681
  82 H :    0.036110
  83 H :    0.032552
  84 H :    0.030821
  85 H :    0.040831
  86 H :    0.030370
  87 H :    0.042125
  88 H :    0.064620
  89 H :    0.029018
  90 H :    0.032065
  91 H :    0.027651
  92 H :    0.040478
  93 H :    0.037058
  94 H :    0.041696
  95 H :    0.031131
  96 H :    0.042253
  97 H :    0.038157
  98 H :    0.039019
  99 H :    0.035103
 100 H :    0.033448
 101 H :    0.033141
 102 H :    0.031858

  Mayer bond orders larger than 0.100000
B(  0-C ,  1-C ) :   1.6710 B(  0-C ,  6-C ) :   1.0108 B(  0-C , 18-C ) :   0.9947
B(  1-C ,  2-C ) :   1.1337 B(  1-C ,  4-C ) :   1.1656 B(  2-C ,  3-N ) :   2.9920
B(  4-C ,  5-N ) :   2.9825 B(  6-C ,  7-C ) :   1.2159 B(  6-C , 11-C ) :   1.4545
B(  7-C ,  8-C ) :   1.4654 B(  7-C , 16-C ) :   0.9177 B(  8-C ,  9-C ) :   1.1890
B(  8-C , 75-H ) :   1.0154 B(  9-C , 10-C ) :   1.2550 B(  9-C , 15-C ) :   1.2442
B( 10-C , 11-C ) :   1.2090 B( 10-C , 12-C ) :   1.2372 B( 11-C , 76-H ) :   0.9931
B( 12-C , 13-C ) :   1.4928 B( 12-C , 77-H ) :   0.9970 B( 13-C , 14-C ) :   1.2591
B( 13-C , 78-H ) :   0.9881 B( 14-C , 15-C ) :   1.4914 B( 14-C , 79-H ) :   0.9882
B( 15-C , 80-H ) :   0.9967 B( 16-C , 17-O ) :   2.2895 B( 16-C , 18-C ) :   0.9259
B( 18-C , 19-C ) :   1.7772 B( 19-C , 20-C ) :   1.0064 B( 19-C , 81-H ) :   0.9286
B( 20-C , 21-C ) :   1.5444 B( 20-C , 27-C ) :   1.0828 B( 21-C , 22-N ) :   0.9456
B( 21-C , 25-C ) :   1.1394 B( 22-N , 23-O ) :   1.4853 B( 22-N , 24-O ) :   1.5411
B( 23-O , 24-O ) :   0.2604 B( 25-C , 26-C ) :   1.5900 B( 25-C , 82-H ) :   1.0102
B( 26-C , 27-C ) :   1.1137 B( 26-C , 83-H ) :   0.9952 B( 27-C , 28-C ) :   1.4735
B( 28-C , 29-C ) :   1.1854 B( 28-C , 35-C ) :   0.9775 B( 29-C , 30-C ) :   1.5108
B( 29-C , 84-H ) :   0.9943 B( 30-C , 31-C ) :   1.1516 B( 30-C , 85-H ) :   1.0116
B( 31-C , 32-N ) :   0.9889 B( 31-C , 35-C ) :   1.4154 B( 32-N , 33-O ) :   1.5296
B( 32-N , 34-O ) :   1.4516 B( 33-O , 34-O ) :   0.2346 B( 34-O , 86-H ) :   0.1034
B( 35-C , 36-C ) :   1.3092 B( 36-C , 37-C ) :   1.4235 B( 36-C , 86-H ) :   0.9362
B( 37-C , 38-C ) :   1.2249 B( 37-C , 87-H ) :   0.9632 B( 38-C , 39-N ) :   1.2206
B( 38-C , 42-C ) :   1.2704 B( 39-N , 40-C ) :   1.3455 B( 39-N , 88-H ) :   0.8429
B( 40-C , 41-C ) :   1.3297 B( 40-C , 43-C ) :   1.0333 B( 41-C , 42-C ) :   1.4100
B( 41-C , 89-H ) :   1.0011 B( 42-C , 90-H ) :   1.0094 B( 43-C , 44-C ) :   1.3802
B( 43-C , 46-C ) :   0.1039 B( 43-C , 48-C ) :   1.2068 B( 44-C , 45-N ) :   1.5113
B( 44-C , 91-H ) :   0.9822 B( 45-N , 46-C ) :   1.5783 B( 46-C , 47-C ) :   1.1480
B( 46-C , 53-C ) :   1.1103 B( 47-C , 48-C ) :   1.2749 B( 47-C , 52-N ) :   1.4663
B( 48-C , 49-N ) :   1.3873 B( 49-N , 50-C ) :   1.6109 B( 49-N , 88-H ) :   0.1263
B( 50-C , 51-C ) :   1.2252 B( 50-C , 92-H ) :   0.9704 B( 51-C , 52-N ) :   1.6400
B( 51-C , 93-H ) :   0.9768 B( 53-C , 54-C ) :   1.5650 B( 53-C , 94-H ) :   0.9699
B( 54-C , 55-C ) :   1.1291 B( 54-C , 95-H ) :   0.9551 B( 55-C , 56-C ) :   1.5612
B( 55-C , 96-H ) :   0.9646 B( 56-C , 57-C ) :   1.0526 B( 56-C , 65-C ) :   0.9333
B( 57-C , 58-C ) :   1.6323 B( 57-C , 63-C ) :   0.9898 B( 58-C , 59-C ) :   1.1458
B( 58-C , 61-C ) :   1.1449 B( 59-C , 60-N ) :   2.9618 B( 61-C , 62-N ) :   2.9609
B( 63-C , 64-C ) :   1.2148 B( 63-C , 70-C ) :   1.4461 B( 64-C , 65-C ) :   0.9486
B( 64-C , 67-C ) :   1.4707 B( 65-C , 66-O ) :   2.2015 B( 67-C , 68-C ) :   1.1810
B( 67-C , 97-H ) :   1.0146 B( 68-C , 69-C ) :   1.2544 B( 68-C , 74-C ) :   1.2437
B( 69-C , 70-C ) :   1.2105 B( 69-C , 71-C ) :   1.2392 B( 70-C , 98-H ) :   0.9876
B( 71-C , 72-C ) :   1.4911 B( 71-C , 99-H ) :   0.9965 B( 72-C , 73-C ) :   1.2582
B( 72-C ,100-H ) :   0.9886 B( 73-C , 74-C ) :   1.4896 B( 73-C ,101-H ) :   0.9891
B( 74-C ,102-H ) :   0.9969

-----------------------------------------------------------------------------
         ABSORPTION SPECTRUM VIA TRANSITION ELECTRIC DIPOLE MOMENTS
-----------------------------------------------------------------------------
State   Energy  Wavelength   fosc         T2         TX        TY        TZ
        (cm-1)    (nm)                  (au**2)     (au)      (au)      (au)
-----------------------------------------------------------------------------
   0    8566.9   1167.3   0.482600671  18.54546  -0.14610   4.10688  -1.28750
   1   16247.4    615.5   0.038091837   0.77183  -0.31354   0.48778  -0.66000
   2   16584.5    603.0   0.598533904  11.88125   1.06156  -2.62068   1.97139
   3   20267.3    493.4   0.016687737   0.27107  -0.14490   0.49124   0.09354
   4   20600.0    485.4   0.320046691   5.11471   0.52434  -1.91586   1.08132
   5   21338.5    468.6   0.115366049   1.77988   0.53700   0.15897  -1.21088
   6   23897.6    418.5   0.021910257   0.30183   0.33701  -0.19254   0.38883
   7   23980.1    417.0   0.046079658   0.63261   0.16403  -0.30044   0.71794
   8   24352.3    410.6   0.119280517   1.61252   0.38313  -0.55256   1.07722
   9   25144.9    397.7   0.024924849   0.32633   0.24655  -0.23753   0.45730
  10   25299.9    395.3   0.057040685   0.74224   0.15712   0.43240   0.72841
  11   25441.7    393.1   0.138093524   1.78691  -0.14744  -1.30883  -0.22834
  12   25673.3    389.5   0.146789625   1.88230   0.21845  -0.64274   1.19225
  13   26142.6    382.5   0.030873432   0.38879  -0.11933  -0.16334  -0.58980
  14   26758.1    373.7   0.020934976   0.25757  -0.15007   0.23573  -0.42365
  15   27247.0    367.0   0.036918482   0.44607  -0.41885  -0.22715   0.46801
  16   27548.2    363.0   0.032408948   0.38730  -0.42539   0.10287   0.44245
  17   27700.9    361.0   0.027698652   0.32919   0.30097  -0.48124   0.08375
  18   28179.2    354.9   0.056710773   0.66254  -0.00886   0.52315   0.62352
  19   28646.5    349.1   0.283036236   3.25272  -0.49748  -1.07754   1.35799
  20   29089.6    343.8   0.084267713   0.95367  -0.84228   0.09554   0.48488
  21   29316.9    341.1   0.193926213   2.17768   1.05673   0.18439  -1.01341
  22   29810.9    335.4   0.006181163   0.06826   0.14417   0.14715  -0.16069
  23   29928.9    334.1   0.382102845   4.20306   0.36618  -0.26612  -1.99954
  24   30187.3    331.3   0.039502614   0.43080  -0.17095  -0.07495  -0.62925
  25   30535.5    327.5   0.004809157   0.05185  -0.04901  -0.02157  -0.22132
  26   30586.6    326.9   0.051722952   0.55671  -0.25921   0.51227   0.47654
  27   30657.9    326.2   0.077043960   0.82732   0.60683  -0.30715  -0.60393
  28   31174.9    320.8   0.017459714   0.18438  -0.27638   0.29674   0.14121
  29   31398.1    318.5   0.034447482   0.36118   0.25506  -0.19982  -0.50616
  30   32168.8    310.9   0.039698406   0.40627   0.31988  -0.44420  -0.32656
  31   32242.7    310.1   0.082997953   0.84744   0.00577   0.21308   0.89555
  32   32389.8    308.7   0.084362199   0.85746  -0.08399  -0.90400  -0.18220
  33   32555.6    307.2   0.024458457   0.24733   0.44469   0.06596   0.21268
  34   32651.5    306.3   0.050190880   0.50605  -0.21556  -0.34276  -0.58490
  35   32726.3    305.6   0.049853839   0.50151  -0.24221  -0.00339   0.66545
  36   32989.9    303.1   0.093289399   0.93095  -0.08754   0.44761  -0.85025
  37   33078.9    302.3   0.000120880   0.00120   0.00829  -0.03365   0.00142
  38   33388.8    299.5   0.063291955   0.62406  -0.49762  -0.36433   0.49365
  39   33561.1    298.0   0.085455541   0.83826   0.41631  -0.72456   0.37411
  40   33656.0    297.1   0.013112259   0.12826   0.01771  -0.33822  -0.11642
  41   33861.8    295.3   0.049525867   0.48150   0.33495  -0.58657   0.15889
  42   34437.4    290.4   0.715995317   6.84472   0.78415  -1.51221   1.98571
  43   34520.9    289.7   0.319809205   3.04990  -0.19612   0.61700   1.62196
  44   34970.4    286.0   0.116831815   1.09986  -0.42466   0.95887  -0.00945
  45   35513.7    281.6   0.198676737   1.84173  -0.41003  -1.06923   0.72825
  46   35549.7    281.3   0.093301744   0.86403  -0.40087  -0.81583   0.19429
  47   35628.5    280.7   0.007106564   0.06567  -0.03933  -0.08096   0.23993
  48   36025.7    277.6   0.030975974   0.28307  -0.04637   0.51078   0.14148
  49   36099.7    277.0   0.054165018   0.49396  -0.18942  -0.67653   0.01951
  50   36232.8    276.0   0.070985721   0.64498   0.46728   0.05858  -0.65053
  51   36493.1    274.0   0.056966262   0.51390  -0.11040   0.70013  -0.10741
  52   36678.7    272.6   0.029433078   0.26418   0.24678  -0.44187  -0.08958
  53   36809.3    271.7   0.003184625   0.02848  -0.03862  -0.16288   0.02148
  54   36863.2    271.3   0.039205188   0.35013  -0.22155   0.41777   0.35568
  55   36982.9    270.4   0.091692927   0.81623  -0.00552  -0.25331  -0.86720
  56   37374.3    267.6   0.167868330   1.47867   0.17876   0.12547  -1.19623
  57   37676.9    265.4   0.060302577   0.52691   0.30214  -0.54962   0.36543
  58   37799.8    264.6   0.071797585   0.62531  -0.63080   0.41655   0.23212
  59   38009.3    263.1   0.174362330   1.51021   0.19575   0.82616  -0.88845
  60   38300.7    261.1   0.010156844   0.08730   0.02412  -0.22678   0.18785
  61   38477.2    259.9   0.267698467   2.29044  -0.01316   1.51262   0.04743
  62   38491.1    259.8   0.099282744   0.84916  -0.36061   0.38177   0.75721
  63   38804.1    257.7   0.197701509   1.67729   0.56944  -0.73148  -0.90442
  64   39124.8    255.6   0.007334962   0.06172  -0.19799   0.13590   0.06364
  65   39283.0    254.6   0.012406884   0.10398   0.24760   0.02835   0.20461
  66   39348.3    254.1   0.024176186   0.20227  -0.37228  -0.17978  -0.17709
  67   39371.7    254.0   0.091332482   0.76369  -0.23214   0.81332   0.21980
  68   39528.0    253.0   0.018718822   0.15590  -0.37631   0.00864   0.11924
  69   39734.3    251.7   0.197640703   1.63752   0.62440   0.53202  -0.98213
  70   39886.7    250.7   0.015465934   0.12765  -0.07685  -0.08606  -0.33814
  71   40108.8    249.3   0.033957039   0.27872  -0.28355   0.06239   0.44094

FINAL SINGLE POINT ENERGY     -3259.574147311681

DIPOLE MOMENT
-------------
                                X             Y             Z
Electronic contribution:      0.92248       3.66848       6.04292
Nuclear contribution   :     -0.12045      -4.63967      -6.21114
                        -----------------------------------------
Total Dipole Moment    :      0.80203      -0.97119      -0.16821
                        -----------------------------------------
Magnitude (a.u.)       :      1.27074
Magnitude (Debye)      :      3.22996

Rotational constants in cm-1:     0.002202     0.000222     0.000214
Rotational constants in MHz :    66.006120     6.658873     6.414859

                             ****ORCA TERMINATED NORMALLY****
TOTAL RUN TIME: 0 days 0 hours 12 minutes 32 seconds 290 msec
