                         Program Version 4.2.0 -  RELEASE  -
|  1> # ORCA input file
|  2> # SCF done       -189.685505155362          0.000493334726
|  3> ! CAM-B3LYP def2-SVP def2/J RIJCOSX Grid4 TightSCF
|  4> %maxcore 5000
|  5> %tddft
|  6>     Mode sTDDFT
|  7>     Ethresh 5.0
|  8>     maxcore 5000
|  9> end
| 10>
| 11> %pal
| 12>   nprocs 6
| 13>   end
| 14> * xyz 0 1
| 15>    C        2.67646         1.14566        -0.13768
| 16>    C        2.28461         0.31308         0.87688
| 17>    C        2.99268        -0.84663         1.25986
| 18>    N        3.52136        -1.79828         1.62325
| 19>    C        1.11126         0.44859         1.64988
| 20>    N        0.16856         0.47300         2.30514
| 21>    C        3.82410         0.92860        -1.00781
| 22>    C        3.77699         1.88505        -2.06063
| 23>    C        4.71926         1.92128        -3.04825
| 24>    C        5.77847         0.98745        -3.02230
| 25>    C        5.83960         0.03279        -1.96573
| 26>    C        4.84614         0.01711        -0.96024
| 27>    C        6.90464        -0.89080        -1.94649
| 28>    C        7.86269        -0.87470        -2.92335
| 29>    C        7.80081         0.06489        -3.96347
| 30>    C        6.78076         0.97598        -4.01220
| 31>    C        2.60785         2.76049        -1.88533
| 32>    O        2.26069         3.64238        -2.64182
| 33>    C        1.98332         2.34272        -0.60052
| 34>    C        1.03813         2.99386         0.13620
| 35>    C        0.25715         4.13996        -0.14906
| 36>    S       -0.70884         4.78208         1.16264
| 37>    C       -1.35982         6.03267         0.16412
| 38>    C       -0.84469         5.93314        -1.13745
| 39>    C        0.05582         4.87420        -1.30276
| 40>    C       -1.16932         6.78656        -2.20707
| 41>    N       -1.40760         7.45926        -3.10546
| 42>    C       -2.27529         6.95442         0.73276
| 43>    C       -2.88760         7.96304         0.06273
| 44>    C       -3.80084         8.86977         0.65781
| 45>    S       -4.52824        10.09999        -0.35220
| 46>    C       -4.28080         9.00153         1.94873
| 47>    C       -4.11334         8.33537         3.25447
| 48>    O       -3.41833         7.39829         3.56945
| 49>    N       -4.95983         9.01218         4.11472
| 50>    C       -5.08770         8.69279         5.52176
| 51>    C       -4.24192         9.62898         6.37705
| 52>    C       -5.66518        10.05098         3.51551
| 53>    O       -6.48338        10.73456         4.07352
| 54>    C       -5.20248        10.05693         2.11534
| 55>    C       -5.46100        10.77735         0.96641
| 56>    C       -6.30120        11.90141         0.75725
| 57>    C       -6.97213        12.64434         1.69946
| 58>    C       -7.70021        13.67974         1.03389
| 59>    C       -7.43340        13.51050        -0.40905
| 60>    C       -6.58576        12.46205        -0.55760
| 61>    C       -7.93630        14.28889        -1.45819
| 62>    N       -8.33738        14.90054        -2.34358
| 63>    C       -8.48780        14.64437         1.60800
| 64>    C       -9.31439        15.60287         0.93121
| 65>    C      -10.02604        16.31554         1.86212
| 66>    C       -9.59512        15.88270         3.18945
| 67>    C       -8.67932        14.88992         3.04572
| 68>    C       -7.97272        14.30250         4.10458
| 69>    N       -7.39010        13.88527         5.00115
| 70>    C      -10.99706        17.31975         1.57175
| 71>    C      -12.12925        17.54189         2.28814
| 72>    C      -13.10581        18.60243         2.10073
| 73>    C      -12.93415        19.73479         1.35059
| 74>    C      -13.90578        20.74972         1.21822
| 75>    N      -14.65740        21.60434         1.07149
| 76>    C      -11.75832        20.05678         0.63917
| 77>    N      -10.82631        20.38900         0.05748
| 78>    C      -14.26805        18.28303         2.91888
| 79>    C      -14.00377        17.08462         3.64399
| 80>    C      -12.67077        16.57692         3.28860
| 81>    O      -12.15166        15.54876         3.66510
| 82>    C      -14.91782        16.54417         4.50294
| 83>    C      -16.16200        17.18900         4.67941
| 84>    C      -16.43749        18.38378         3.95237
| 85>    C      -15.47200        18.91982         3.07024
| 86>    C      -17.68574        19.01445         4.13054
| 87>    C      -18.61750        18.49249         4.98604
| 88>    C      -18.34468        17.31725         5.70227
| 89>    C      -17.14298        16.67950         5.55277
| 90>    H        4.65685         2.65518        -3.83800
| 91>    H        4.92445        -0.71415        -0.17164
| 92>    H        6.94718        -1.61334        -1.14479
| 93>    H        8.67405        -1.58658        -2.90011
| 94>    H        8.56553         0.06331        -4.72564
| 95>    H        6.72776         1.70185        -4.81033
| 96>    H        0.84967         2.59830         1.12794
| 97>    H        0.54827         4.65548        -2.23324
| 98>    H       -2.48487         6.81624         1.78580
| 99>    H       -2.69818         8.11575        -0.99039
|100>    H       -4.76537         7.65658         5.64622
|101>    H       -6.14279         8.79027         5.78884
|102>    H       -3.19252         9.55006         6.10144
|103>    H       -4.34897         9.36380         7.42483
|104>    H       -4.56987        10.65687         6.24180
|105>    H       -6.97380        12.47342         2.75834
|106>    H       -6.18575        12.08303        -1.48035
|107>    H       -9.41344        15.68264        -0.13398
|108>    H       -9.90553        16.32808         4.11461
|109>    H      -10.81161        17.90161         0.67688
|110>    H      -14.69305        15.63527         5.04113
|111>    H      -15.71273        19.82144         2.52965
|112>    H      -17.89077        19.91944         3.57784
|113>    H      -19.57062        18.98268         5.11563
|114>    H      -19.09165        16.91952         6.37267
|115>    H      -16.92751        15.77420         6.10106
|116> *
|117>
|118>                          ****END OF INPUT****

CARTESIAN COORDINATES (ANGSTROEM)
---------------------------------
  C      2.676460    1.145660   -0.137680
  C      2.284610    0.313080    0.876880
  C      2.992680   -0.846630    1.259860
  N      3.521360   -1.798280    1.623250
  C      1.111260    0.448590    1.649880
  N      0.168560    0.473000    2.305140
  C      3.824100    0.928600   -1.007810
  C      3.776990    1.885050   -2.060630
  C      4.719260    1.921280   -3.048250
  C      5.778470    0.987450   -3.022300
  C      5.839600    0.032790   -1.965730
  C      4.846140    0.017110   -0.960240
  C      6.904640   -0.890800   -1.946490
  C      7.862690   -0.874700   -2.923350
  C      7.800810    0.064890   -3.963470
  C      6.780760    0.975980   -4.012200
  C      2.607850    2.760490   -1.885330
  O      2.260690    3.642380   -2.641820
  C      1.983320    2.342720   -0.600520
  C      1.038130    2.993860    0.136200
  C      0.257150    4.139960   -0.149060
  S     -0.708840    4.782080    1.162640
  C     -1.359820    6.032670    0.164120
  C     -0.844690    5.933140   -1.137450
  C      0.055820    4.874200   -1.302760
  C     -1.169320    6.786560   -2.207070
  N     -1.407600    7.459260   -3.105460
  C     -2.275290    6.954420    0.732760
  C     -2.887600    7.963040    0.062730
  C     -3.800840    8.869770    0.657810
  S     -4.528240   10.099990   -0.352200
  C     -4.280800    9.001530    1.948730
  C     -4.113340    8.335370    3.254470
  O     -3.418330    7.398290    3.569450
  N     -4.959830    9.012180    4.114720
  C     -5.087700    8.692790    5.521760
  C     -4.241920    9.628980    6.377050
  C     -5.665180   10.050980    3.515510
  O     -6.483380   10.734560    4.073520
  C     -5.202480   10.056930    2.115340
  C     -5.461000   10.777350    0.966410
  C     -6.301200   11.901410    0.757250
  C     -6.972130   12.644340    1.699460
  C     -7.700210   13.679740    1.033890
  C     -7.433400   13.510500   -0.409050
  C     -6.585760   12.462050   -0.557600
  C     -7.936300   14.288890   -1.458190
  N     -8.337380   14.900540   -2.343580
  C     -8.487800   14.644370    1.608000
  C     -9.314390   15.602870    0.931210
  C    -10.026040   16.315540    1.862120
  C     -9.595120   15.882700    3.189450
  C     -8.679320   14.889920    3.045720
  C     -7.972720   14.302500    4.104580
  N     -7.390100   13.885270    5.001150
  C    -10.997060   17.319750    1.571750
  C    -12.129250   17.541890    2.288140
  C    -13.105810   18.602430    2.100730
  C    -12.934150   19.734790    1.350590
  C    -13.905780   20.749720    1.218220
  N    -14.657400   21.604340    1.071490
  C    -11.758320   20.056780    0.639170
  N    -10.826310   20.389000    0.057480
  C    -14.268050   18.283030    2.918880
  C    -14.003770   17.084620    3.643990
  C    -12.670770   16.576920    3.288600
  O    -12.151660   15.548760    3.665100
  C    -14.917820   16.544170    4.502940
  C    -16.162000   17.189000    4.679410
  C    -16.437490   18.383780    3.952370
  C    -15.472000   18.919820    3.070240
  C    -17.685740   19.014450    4.130540
  C    -18.617500   18.492490    4.986040
  C    -18.344680   17.317250    5.702270
  C    -17.142980   16.679500    5.552770
  H      4.656850    2.655180   -3.838000
  H      4.924450   -0.714150   -0.171640
  H      6.947180   -1.613340   -1.144790
  H      8.674050   -1.586580   -2.900110
  H      8.565530    0.063310   -4.725640
  H      6.727760    1.701850   -4.810330
  H      0.849670    2.598300    1.127940
  H      0.548270    4.655480   -2.233240
  H     -2.484870    6.816240    1.785800
  H     -2.698180    8.115750   -0.990390
  H     -4.765370    7.656580    5.646220
  H     -6.142790    8.790270    5.788840
  H     -3.192520    9.550060    6.101440
  H     -4.348970    9.363800    7.424830
  H     -4.569870   10.656870    6.241800
  H     -6.973800   12.473420    2.758340
  H     -6.185750   12.083030   -1.480350
  H     -9.413440   15.682640   -0.133980
  H     -9.905530   16.328080    4.114610
  H    -10.811610   17.901610    0.676880
  H    -14.693050   15.635270    5.041130
  H    -15.712730   19.821440    2.529650
  H    -17.890770   19.919440    3.577840
  H    -19.570620   18.982680    5.115630
  H    -19.091650   16.919520    6.372670
  H    -16.927510   15.774200    6.101060

 Total Charge           Charge          ....    0
 Multiplicity           Mult            ....    1
 Number of Electrons    NEL             ....  512
 Basis Dimension        Dim             .... 1188

ORBITAL ENERGIES
----------------

  NO   OCC          E(Eh)            E(eV)
   0   2.0000     -88.991785     -2421.5896
   1   2.0000     -88.987763     -2421.4801
   2   2.0000     -19.231217      -523.3080
   3   2.0000     -19.225782      -523.1601
   4   2.0000     -19.225004      -523.1390
   5   2.0000     -19.222259      -523.0643
   6   2.0000     -14.463966      -393.5845
   7   2.0000     -14.424206      -392.5026
   8   2.0000     -14.424089      -392.4994
   9   2.0000     -14.420736      -392.4082
  10   2.0000     -14.418697      -392.3527
  11   2.0000     -14.418412      -392.3449
  12   2.0000     -14.415475      -392.2650
  13   2.0000     -14.402732      -391.9183
  14   2.0000     -10.407565      -283.2042
  15   2.0000     -10.404110      -283.1102
  16   2.0000     -10.380557      -282.4693
  17   2.0000     -10.376832      -282.3679
  18   2.0000     -10.354140      -281.7505
  19   2.0000     -10.350313      -281.6463
  20   2.0000     -10.347340      -281.5654
  21   2.0000     -10.347282      -281.5639
  22   2.0000     -10.346437      -281.5409
  23   2.0000     -10.346355      -281.5386
  24   2.0000     -10.345933      -281.5272
  25   2.0000     -10.333122      -281.1785
  26   2.0000     -10.332885      -281.1721
  27   2.0000     -10.331330      -281.1298
  28   2.0000     -10.330711      -281.1129
  29   2.0000     -10.330270      -281.1009
  30   2.0000     -10.328098      -281.0418
  31   2.0000     -10.325995      -280.9846
  32   2.0000     -10.325827      -280.9800
  33   2.0000     -10.324944      -280.9560
  34   2.0000     -10.323324      -280.9119
  35   2.0000     -10.321142      -280.8525
  36   2.0000     -10.319604      -280.8107
  37   2.0000     -10.319413      -280.8055
  38   2.0000     -10.317512      -280.7538
  39   2.0000     -10.317256      -280.7468
  40   2.0000     -10.315063      -280.6871
  41   2.0000     -10.314467      -280.6709
  42   2.0000     -10.314279      -280.6658
  43   2.0000     -10.313465      -280.6437
  44   2.0000     -10.313357      -280.6407
  45   2.0000     -10.312356      -280.6135
  46   2.0000     -10.310127      -280.5528
  47   2.0000     -10.309848      -280.5452
  48   2.0000     -10.309256      -280.5291
  49   2.0000     -10.308941      -280.5206
  50   2.0000     -10.307926      -280.4929
  51   2.0000     -10.307408      -280.4788
  52   2.0000     -10.307066      -280.4695
  53   2.0000     -10.306340      -280.4498
  54   2.0000     -10.306049      -280.4419
  55   2.0000     -10.305740      -280.4334
  56   2.0000     -10.305458      -280.4258
  57   2.0000     -10.304415      -280.3974
  58   2.0000     -10.304281      -280.3937
  59   2.0000     -10.301650      -280.3222
  60   2.0000     -10.301447      -280.3166
  61   2.0000     -10.301035      -280.3054
  62   2.0000     -10.300908      -280.3020
  63   2.0000     -10.298548      -280.2377
  64   2.0000     -10.293769      -280.1077
  65   2.0000     -10.293318      -280.0954
  66   2.0000     -10.293121      -280.0901
  67   2.0000     -10.293060      -280.0884
  68   2.0000     -10.292890      -280.0838
  69   2.0000     -10.292573      -280.0751
  70   2.0000     -10.290027      -280.0059
  71   2.0000     -10.289530      -279.9924
  72   2.0000     -10.289279      -279.9855
  73   2.0000     -10.288801      -279.9725
  74   2.0000     -10.260258      -279.1958
  75   2.0000      -8.086929      -220.0565
  76   2.0000      -8.083447      -219.9618
  77   2.0000      -6.056208      -164.7978
  78   2.0000      -6.052468      -164.6960
  79   2.0000      -6.051946      -164.6818
  80   2.0000      -6.049159      -164.6060
  81   2.0000      -6.048392      -164.5851
  82   2.0000      -6.045893      -164.5171
  83   2.0000      -1.170228       -31.8435
  84   2.0000      -1.146959       -31.2103
  85   2.0000      -1.146509       -31.1981
  86   2.0000      -1.140890       -31.0452
  87   2.0000      -1.061336       -28.8804
  88   2.0000      -1.027737       -27.9661
  89   2.0000      -1.026751       -27.9393
  90   2.0000      -1.025531       -27.9061
  91   2.0000      -1.022310       -27.8185
  92   2.0000      -1.015087       -27.6219
  93   2.0000      -1.007475       -27.4148
  94   2.0000      -1.004074       -27.3222
  95   2.0000      -1.003341       -27.3023
  96   2.0000      -1.002213       -27.2716
  97   2.0000      -0.998600       -27.1733
  98   2.0000      -0.997470       -27.1425
  99   2.0000      -0.989272       -26.9195
 100   2.0000      -0.983013       -26.7491
 101   2.0000      -0.978602       -26.6291
 102   2.0000      -0.976005       -26.5585
 103   2.0000      -0.937853       -25.5203
 104   2.0000      -0.934133       -25.4191
 105   2.0000      -0.927775       -25.2460
 106   2.0000      -0.917680       -24.9713
 107   2.0000      -0.912482       -24.8299
 108   2.0000      -0.909823       -24.7576
 109   2.0000      -0.894093       -24.3295
 110   2.0000      -0.890507       -24.2319
 111   2.0000      -0.887984       -24.1633
 112   2.0000      -0.884889       -24.0790
 113   2.0000      -0.882941       -24.0260
 114   2.0000      -0.870729       -23.6937
 115   2.0000      -0.862741       -23.4764
 116   2.0000      -0.851711       -23.1762
 117   2.0000      -0.844444       -22.9785
 118   2.0000      -0.837621       -22.7928
 119   2.0000      -0.836639       -22.7661
 120   2.0000      -0.832362       -22.6497
 121   2.0000      -0.823048       -22.3963
 122   2.0000      -0.806946       -21.9581
 123   2.0000      -0.793839       -21.6015
 124   2.0000      -0.779805       -21.2196
 125   2.0000      -0.771285       -20.9877
 126   2.0000      -0.767237       -20.8776
 127   2.0000      -0.763493       -20.7757
 128   2.0000      -0.756344       -20.5812
 129   2.0000      -0.745956       -20.2985
 130   2.0000      -0.736282       -20.0353
 131   2.0000      -0.732808       -19.9407
 132   2.0000      -0.723302       -19.6821
 133   2.0000      -0.713168       -19.4063
 134   2.0000      -0.711397       -19.3581
 135   2.0000      -0.708554       -19.2807
 136   2.0000      -0.705355       -19.1937
 137   2.0000      -0.703332       -19.1386
 138   2.0000      -0.693150       -18.8616
 139   2.0000      -0.687408       -18.7053
 140   2.0000      -0.684167       -18.6171
 141   2.0000      -0.680984       -18.5305
 142   2.0000      -0.674434       -18.3523
 143   2.0000      -0.669160       -18.2088
 144   2.0000      -0.666867       -18.1464
 145   2.0000      -0.654684       -17.8149
 146   2.0000      -0.648015       -17.6334
 147   2.0000      -0.641013       -17.4429
 148   2.0000      -0.640070       -17.4172
 149   2.0000      -0.625517       -17.0212
 150   2.0000      -0.623403       -16.9636
 151   2.0000      -0.615781       -16.7563
 152   2.0000      -0.614745       -16.7281
 153   2.0000      -0.614053       -16.7092
 154   2.0000      -0.610213       -16.6047
 155   2.0000      -0.596240       -16.2245
 156   2.0000      -0.588111       -16.0033
 157   2.0000      -0.587123       -15.9764
 158   2.0000      -0.585144       -15.9226
 159   2.0000      -0.575456       -15.6589
 160   2.0000      -0.567636       -15.4462
 161   2.0000      -0.564233       -15.3536
 162   2.0000      -0.561442       -15.2776
 163   2.0000      -0.558930       -15.2092
 164   2.0000      -0.555537       -15.1169
 165   2.0000      -0.553850       -15.0710
 166   2.0000      -0.550900       -14.9907
 167   2.0000      -0.550030       -14.9671
 168   2.0000      -0.549360       -14.9488
 169   2.0000      -0.545500       -14.8438
 170   2.0000      -0.544020       -14.8035
 171   2.0000      -0.541304       -14.7296
 172   2.0000      -0.539503       -14.6806
 173   2.0000      -0.535157       -14.5624
 174   2.0000      -0.531749       -14.4696
 175   2.0000      -0.530713       -14.4414
 176   2.0000      -0.530038       -14.4231
 177   2.0000      -0.526591       -14.3293
 178   2.0000      -0.523870       -14.2552
 179   2.0000      -0.523326       -14.2404
 180   2.0000      -0.520939       -14.1755
 181   2.0000      -0.519801       -14.1445
 182   2.0000      -0.516822       -14.0634
 183   2.0000      -0.516176       -14.0459
 184   2.0000      -0.515892       -14.0381
 185   2.0000      -0.510770       -13.8987
 186   2.0000      -0.507014       -13.7966
 187   2.0000      -0.506038       -13.7700
 188   2.0000      -0.504022       -13.7151
 189   2.0000      -0.503155       -13.6915
 190   2.0000      -0.500397       -13.6165
 191   2.0000      -0.498453       -13.5636
 192   2.0000      -0.497399       -13.5349
 193   2.0000      -0.494640       -13.4598
 194   2.0000      -0.492244       -13.3946
 195   2.0000      -0.491730       -13.3807
 196   2.0000      -0.488777       -13.3003
 197   2.0000      -0.488009       -13.2794
 198   2.0000      -0.486045       -13.2260
 199   2.0000      -0.480216       -13.0673
 200   2.0000      -0.473455       -12.8834
 201   2.0000      -0.471462       -12.8291
 202   2.0000      -0.469716       -12.7816
 203   2.0000      -0.469440       -12.7741
 204   2.0000      -0.456402       -12.4193
 205   2.0000      -0.454865       -12.3775
 206   2.0000      -0.454624       -12.3710
 207   2.0000      -0.452492       -12.3129
 208   2.0000      -0.451835       -12.2951
 209   2.0000      -0.451731       -12.2922
 210   2.0000      -0.449651       -12.2356
 211   2.0000      -0.448633       -12.2079
 212   2.0000      -0.447324       -12.1723
 213   2.0000      -0.445697       -12.1280
 214   2.0000      -0.444610       -12.0985
 215   2.0000      -0.444131       -12.0854
 216   2.0000      -0.443931       -12.0800
 217   2.0000      -0.441745       -12.0205
 218   2.0000      -0.441389       -12.0108
 219   2.0000      -0.437709       -11.9107
 220   2.0000      -0.437509       -11.9052
 221   2.0000      -0.436190       -11.8693
 222   2.0000      -0.432761       -11.7760
 223   2.0000      -0.431888       -11.7523
 224   2.0000      -0.431006       -11.7283
 225   2.0000      -0.429491       -11.6871
 226   2.0000      -0.427867       -11.6428
 227   2.0000      -0.427280       -11.6269
 228   2.0000      -0.423469       -11.5232
 229   2.0000      -0.418724       -11.3941
 230   2.0000      -0.416931       -11.3453
 231   2.0000      -0.415492       -11.3061
 232   2.0000      -0.412007       -11.2113
 233   2.0000      -0.409901       -11.1540
 234   2.0000      -0.403597       -10.9824
 235   2.0000      -0.399254       -10.8643
 236   2.0000      -0.387680       -10.5493
 237   2.0000      -0.383920       -10.4470
 238   2.0000      -0.376667       -10.2496
 239   2.0000      -0.372875       -10.1465
 240   2.0000      -0.366391        -9.9700
 241   2.0000      -0.360266        -9.8033
 242   2.0000      -0.357227        -9.7207
 243   2.0000      -0.356325        -9.6961
 244   2.0000      -0.349243        -9.5034
 245   2.0000      -0.344599        -9.3770
 246   2.0000      -0.344181        -9.3656
 247   2.0000      -0.339079        -9.2268
 248   2.0000      -0.327955        -8.9241
 249   2.0000      -0.321977        -8.7614
 250   2.0000      -0.321653        -8.7526
 251   2.0000      -0.310105        -8.4384
 252   2.0000      -0.306209        -8.3324
 253   2.0000      -0.298948        -8.1348
 254   2.0000      -0.295443        -8.0394
 255   2.0000      -0.269471        -7.3327
 256   0.0000      -0.135326        -3.6824
 257   0.0000      -0.107280        -2.9192
 258   0.0000      -0.088646        -2.4122
 259   0.0000      -0.073518        -2.0005
 260   0.0000      -0.066065        -1.7977

MULLIKEN ATOMIC CHARGES
-----------------------
   0 C :    0.301891
   1 C :   -0.344866
   2 C :   -0.182670
   3 N :    0.151341
   4 C :   -0.201076
   5 N :    0.160711
   6 C :    0.049085
   7 C :   -0.002697
   8 C :   -0.078986
   9 C :    0.097844
  10 C :    0.095811
  11 C :   -0.082040
  12 C :   -0.019683
  13 C :    0.035352
  14 C :    0.035541
  15 C :   -0.016342
  16 C :    0.162653
  17 O :   -0.153639
  18 C :   -0.084270
  19 C :    0.055613
  20 C :   -0.110293
  21 S :    0.194973
  22 C :   -0.054283
  23 C :   -0.090227
  24 C :    0.041230
  25 C :   -0.160043
  26 N :    0.120320
  27 C :    0.048803
  28 C :    0.045193
  29 C :   -0.138173
  30 S :    0.177309
  31 C :   -0.001034
  32 C :    0.212866
  33 O :   -0.177150
  34 N :   -0.300722
  35 C :    0.133908
  36 C :   -0.013868
  37 C :    0.193234
  38 O :   -0.146826
  39 C :    0.021893
  40 C :   -0.130552
  41 C :    0.104323
  42 C :   -0.127052
  43 C :    0.110626
  44 C :   -0.083926
  45 C :   -0.021312
  46 C :   -0.183186
  47 N :    0.142866
  48 C :    0.096955
  49 C :   -0.066483
  50 C :    0.074009
  51 C :    0.086883
  52 C :   -0.110852
  53 C :   -0.195137
  54 N :    0.149715
  55 C :   -0.022166
  56 C :   -0.088066
  57 C :    0.308078
  58 C :   -0.335022
  59 C :   -0.177434
  60 N :    0.156113
  61 C :   -0.200997
  62 N :    0.172127
  63 C :    0.054893
  64 C :   -0.013706
  65 C :    0.145513
  66 O :   -0.137529
  67 C :   -0.073869
  68 C :    0.097754
  69 C :    0.097625
  70 C :   -0.082383
  71 C :   -0.019019
  72 C :    0.040433
  73 C :    0.036228
  74 C :   -0.014132
  75 H :   -0.009498
  76 H :   -0.005060
  77 H :   -0.006769
  78 H :   -0.002208
  79 H :   -0.002152
  80 H :   -0.014499
  81 H :    0.015693
  82 H :    0.027774
  83 H :    0.008985
  84 H :   -0.003805
  85 H :    0.035807
  86 H :    0.034541
  87 H :    0.021527
  88 H :    0.026284
  89 H :    0.042680
  90 H :    0.031149
  91 H :    0.011693
  92 H :    0.014759
  93 H :    0.003561
  94 H :    0.043870
  95 H :   -0.009531
  96 H :   -0.007018
  97 H :   -0.007319
  98 H :   -0.002136
  99 H :   -0.001475
 100 H :   -0.014854
Sum of atomic charges:    0.0000000

LOEWDIN ATOMIC CHARGES
----------------------
   0 C :    0.076068
   1 C :   -0.137358
   2 C :   -0.017109
   3 N :   -0.050441
   4 C :   -0.026306
   5 N :   -0.047909
   6 C :   -0.026748
   7 C :   -0.056342
   8 C :    0.034045
   9 C :   -0.007961
  10 C :   -0.005545
  11 C :    0.020487
  12 C :   -0.005128
  13 C :   -0.011946
  14 C :   -0.011023
  15 C :   -0.008920
  16 C :    0.089204
  17 O :   -0.138721
  18 C :   -0.084784
  19 C :    0.045772
  20 C :   -0.179973
  21 S :    0.499967
  22 C :   -0.125005
  23 C :   -0.108921
  24 C :    0.021343
  25 C :   -0.025059
  26 N :   -0.053316
  27 C :   -0.022574
  28 C :   -0.024429
  29 C :   -0.130851
  30 S :    0.476142
  31 C :   -0.086308
  32 C :    0.094973
  33 O :   -0.162404
  34 N :   -0.026018
  35 C :    0.044631
  36 C :   -0.059198
  37 C :    0.093929
  38 O :   -0.138529
  39 C :   -0.078620
  40 C :   -0.131886
  41 C :   -0.040289
  42 C :    0.004767
  43 C :    0.036273
  44 C :   -0.077039
  45 C :    0.045063
  46 C :   -0.032554
  47 N :   -0.055951
  48 C :    0.045733
  49 C :    0.017923
  50 C :   -0.022212
  51 C :    0.083177
  52 C :   -0.092380
  53 C :   -0.035577
  54 N :   -0.052064
  55 C :    0.073082
  56 C :   -0.075246
  57 C :    0.071528
  58 C :   -0.126245
  59 C :   -0.016848
  60 N :   -0.044134
  61 C :   -0.024181
  62 N :   -0.038607
  63 C :   -0.025867
  64 C :   -0.058765
  65 C :    0.085752
  66 O :   -0.124972
  67 C :    0.037111
  68 C :   -0.007717
  69 C :   -0.004429
  70 C :    0.021719
  71 C :   -0.004338
  72 C :   -0.009601
  73 C :   -0.009490
  74 C :   -0.007556
  75 H :    0.039878
  76 H :    0.039567
  77 H :    0.035376
  78 H :    0.034043
  79 H :    0.033712
  80 H :    0.032709
  81 H :    0.044317
  82 H :    0.043030
  83 H :    0.034750
  84 H :    0.037644
  85 H :    0.033177
  86 H :    0.034213
  87 H :    0.026612
  88 H :    0.032204
  89 H :    0.033217
  90 H :    0.038041
  91 H :    0.034261
  92 H :    0.040035
  93 H :    0.038085
  94 H :    0.053843
  95 H :    0.040697
  96 H :    0.039751
  97 H :    0.035631
  98 H :    0.034544
  99 H :    0.034305
 100 H :    0.033063

  Mayer bond orders larger than 0.100000
B(  0-C ,  1-C ) :   1.6364 B(  0-C ,  6-C ) :   0.9899 B(  0-C , 18-C ) :   1.0634
B(  1-C ,  2-C ) :   1.1472 B(  1-C ,  4-C ) :   1.1361 B(  2-C ,  3-N ) :   2.9680
B(  4-C ,  5-N ) :   2.9895 B(  6-C ,  7-C ) :   1.2142 B(  6-C , 11-C ) :   1.4492
B(  7-C ,  8-C ) :   1.4697 B(  7-C , 16-C ) :   0.9574 B(  8-C ,  9-C ) :   1.1821
B(  8-C , 75-H ) :   1.0160 B(  9-C , 10-C ) :   1.2535 B(  9-C , 15-C ) :   1.2450
B( 10-C , 11-C ) :   1.2094 B( 10-C , 12-C ) :   1.2400 B( 11-C , 76-H ) :   0.9904
B( 12-C , 13-C ) :   1.4910 B( 12-C , 77-H ) :   0.9972 B( 13-C , 14-C ) :   1.2596
B( 13-C , 78-H ) :   0.9884 B( 14-C , 15-C ) :   1.4900 B( 14-C , 79-H ) :   0.9885
B( 15-C , 80-H ) :   0.9976 B( 16-C , 17-O ) :   2.1702 B( 16-C , 18-C ) :   0.9310
B( 18-C , 19-C ) :   1.6310 B( 19-C , 20-C ) :   1.1777 B( 19-C , 81-H ) :   0.9173
B( 20-C , 21-S ) :   1.1081 B( 20-C , 24-C ) :   1.4376 B( 21-S , 22-C ) :   1.1869
B( 22-C , 23-C ) :   1.3908 B( 22-C , 27-C ) :   1.1629 B( 23-C , 24-C ) :   1.3083
B( 23-C , 25-C ) :   1.1197 B( 24-C , 82-H ) :   0.9809 B( 25-C , 26-N ) :   2.9626
B( 27-C , 28-C ) :   1.6731 B( 27-C , 83-H ) :   0.9177 B( 28-C , 29-C ) :   1.1551
B( 28-C , 84-H ) :   0.9382 B( 29-C , 30-S ) :   1.1315 B( 29-C , 31-C ) :   1.4788
B( 30-S , 40-C ) :   1.1344 B( 31-C , 32-C ) :   0.8941 B( 31-C , 39-C ) :   1.2801
B( 32-C , 33-O ) :   2.0818 B( 32-C , 34-N ) :   1.1027 B( 33-O , 83-H ) :   0.1082
B( 34-N , 35-C ) :   0.9134 B( 34-N , 37-C ) :   1.0744 B( 35-C , 36-C ) :   1.1255
B( 35-C , 85-H ) :   0.9403 B( 35-C , 86-H ) :   0.9418 B( 36-C , 87-H ) :   0.9679
B( 36-C , 88-H ) :   0.9702 B( 36-C , 89-H ) :   0.9695 B( 37-C , 38-O ) :   2.1387
B( 37-C , 39-C ) :   0.8828 B( 39-C , 40-C ) :   1.5200 B( 40-C , 41-C ) :   1.1018
B( 41-C , 42-C ) :   1.5765 B( 41-C , 45-C ) :   1.0316 B( 42-C , 43-C ) :   1.0913
B( 42-C , 90-H ) :   0.9907 B( 43-C , 44-C ) :   1.0964 B( 43-C , 48-C ) :   1.4444
B( 44-C , 45-C ) :   1.6908 B( 44-C , 46-C ) :   1.0837 B( 45-C , 91-H ) :   1.0118
B( 46-C , 47-N ) :   2.9691 B( 48-C , 49-C ) :   1.0835 B( 48-C , 52-C ) :   1.1136
B( 49-C , 50-C ) :   1.5576 B( 49-C , 92-H ) :   1.0055 B( 50-C , 51-C ) :   1.0414
B( 50-C , 55-C ) :   1.0743 B( 51-C , 52-C ) :   1.6807 B( 51-C , 93-H ) :   1.0068
B( 52-C , 53-C ) :   1.0888 B( 53-C , 54-N ) :   2.9981 B( 55-C , 56-C ) :   1.6591
B( 55-C , 94-H ) :   0.9494 B( 56-C , 57-C ) :   1.0332 B( 56-C , 65-C ) :   0.9329
B( 57-C , 58-C ) :   1.6637 B( 57-C , 63-C ) :   0.9988 B( 58-C , 59-C ) :   1.1397
B( 58-C , 61-C ) :   1.1414 B( 59-C , 60-N ) :   2.9677 B( 61-C , 62-N ) :   2.9881
B( 63-C , 64-C ) :   1.2105 B( 63-C , 70-C ) :   1.4432 B( 64-C , 65-C ) :   0.9506
B( 64-C , 67-C ) :   1.4669 B( 65-C , 66-O ) :   2.2102 B( 67-C , 68-C ) :   1.1811
B( 67-C , 95-H ) :   1.0174 B( 68-C , 69-C ) :   1.2538 B( 68-C , 74-C ) :   1.2422
B( 69-C , 70-C ) :   1.2088 B( 69-C , 71-C ) :   1.2377 B( 70-C , 96-H ) :   0.9910
B( 71-C , 72-C ) :   1.4905 B( 71-C , 97-H ) :   0.9982 B( 72-C , 73-C ) :   1.2576
B( 72-C , 98-H ) :   0.9888 B( 73-C , 74-C ) :   1.4885 B( 73-C , 99-H ) :   0.9895
B( 74-C ,100-H ) :   0.9986

-----------------------------------------------------------------------------
         ABSORPTION SPECTRUM VIA TRANSITION ELECTRIC DIPOLE MOMENTS
-----------------------------------------------------------------------------
State   Energy  Wavelength   fosc         T2         TX        TY        TZ
        (cm-1)    (nm)                  (au**2)     (au)      (au)      (au)
-----------------------------------------------------------------------------
   0   14768.8    677.1   1.018760182  22.70920   3.17474  -3.43556  -0.90945
   1   17953.9    557.0   0.003436120   0.06301   0.19510  -0.03850  -0.15316
   2   20323.5    492.0   1.692709235  27.41946  -3.45513   3.86248   0.75021
   3   22353.5    447.4   0.034965962   0.51496  -0.37973   0.60492  -0.06959
   4   22697.2    440.6   0.005518654   0.08005   0.12228   0.25449  -0.01812
   5   23928.8    417.9   0.228043728   3.13742   1.35595  -0.92946  -0.65949
   6   25635.6    390.1   0.090586343   1.16331  -0.89395   0.35254   0.48977
   7   26378.4    379.1   0.028849577   0.36005   0.54437   0.03383  -0.25014
   8   27372.4    365.3   0.172446330   2.07404   0.97264  -1.05647   0.10906
   9   27571.6    362.7   0.083465984   0.99661   0.47429   0.03290  -0.87782
  10   27838.5    359.2   0.013015944   0.15392   0.20001   0.01720  -0.33708
  11   28247.8    354.0   0.183465161   2.13818  -1.05518   0.84259   0.56109
  12   28918.0    345.8   0.033247607   0.37850   0.25408  -0.53627   0.16236
  13   29620.5    337.6   0.005971888   0.06637   0.09477  -0.11339  -0.21103
  14   29846.7    335.0   0.080563073   0.88862  -0.48681   0.79486  -0.14079
  15   29925.1    334.2   0.079334060   0.87277  -0.61434   0.56135   0.42455
  16   29991.8    333.4   0.034028772   0.37352   0.40539  -0.05024  -0.45460
  17   30178.6    331.4   0.072532784   0.79124   0.39939  -0.79476  -0.00887
  18   30671.3    326.0   0.407438572   4.37327   1.83955  -0.23299  -0.96697
  19   31028.4    322.3   0.301771383   3.20180  -1.52549   0.28924   0.88938
  20   31119.1    321.3   0.061443148   0.65001   0.50679  -0.15810  -0.60678
  21   31711.9    315.3   0.032177849   0.33405   0.51339   0.22354  -0.14321
  22   32203.5    310.5   0.061402711   0.62771   0.67395  -0.41476   0.03838
  23   32992.1    303.1   0.176724835   1.76345  -1.04137   0.81823  -0.09746
  24   33243.1    300.8   0.245545791   2.43168  -0.90126  -0.45256   1.18936
  25   33324.0    300.1   0.466971802   4.61327  -1.66546  -0.15789   1.34707
  26   33534.1    298.2   0.004002572   0.03929   0.09402  -0.15650  -0.07723
  27   34001.5    294.1   0.014750135   0.14281  -0.08122   0.03743   0.36717
  28   34076.6    293.5   0.036484447   0.35247   0.00346  -0.03613   0.59258
  29   34313.9    291.4   0.010265097   0.09848  -0.17010  -0.02058   0.26292
  30   34639.3    288.7   0.001011558   0.00961   0.00049   0.05181  -0.08324
  31   35007.0    285.7   0.073096241   0.68741   0.44426  -0.06249  -0.69724
  32   35441.7    282.2   0.131643403   1.22281   0.10102   0.92553  -0.59666
  33   35484.3    281.8   0.068307769   0.63374  -0.07930  -0.56427   0.55592
  34   35643.1    280.6   0.298803768   2.75986   1.36120   0.49622  -0.81288
  35   35922.9    278.4   0.129411918   1.18598   0.67011   0.50535  -0.69394
  36   36064.3    277.3   0.071051900   0.64860   0.41752   0.57502  -0.37898
  37   36462.5    274.3   0.051012970   0.46058   0.24030   0.38741  -0.50275
  38   36536.6    273.7   0.121801507   1.09749   0.67968  -0.06629  -0.79444
  39   36823.5    271.6   0.034427293   0.30779  -0.37335   0.01394   0.41013
  40   37068.6    269.8   0.007235801   0.06426   0.07281  -0.18119   0.16165
  41   37127.5    269.3   0.018554972   0.16453  -0.15372  -0.15660   0.34114
  42   37282.3    268.2   0.012820208   0.11321  -0.19136  -0.09141   0.26121
  43   37380.6    267.5   0.005132608   0.04520   0.07138  -0.06936  -0.18787
  44   37756.5    264.9   0.023471696   0.20466   0.36072  -0.25428  -0.09943
  45   38773.4    257.9   0.027308751   0.23187  -0.45835   0.14168  -0.04134
  46   38815.3    257.6   0.050759682   0.43052   0.02628   0.33715  -0.56228
  47   38913.0    257.0   0.101406631   0.85792   0.22092  -0.82928   0.34845
  48   39206.5    255.1   0.214966397   1.80505   0.33526   0.76625  -1.05143
  49   39538.0    252.9   0.070106636   0.58374   0.76221  -0.04453   0.02803
  50   40081.9    249.5   0.057407249   0.47151   0.18084  -0.41727   0.51449

FINAL SINGLE POINT ENERGY     -3871.178017917980

DIPOLE MOMENT
-------------
                                X             Y             Z
Electronic contribution:      0.95321       5.10138     -16.19659
Nuclear contribution   :     -1.17997      -6.02212      16.89326
                        -----------------------------------------
Total Dipole Moment    :     -0.22676      -0.92074       0.69667
                        -----------------------------------------
Magnitude (a.u.)       :      1.17666
Magnitude (Debye)      :      2.99083

Rotational constants in cm-1:     0.002862     0.000173     0.000166
Rotational constants in MHz :    85.801783     5.181255     4.977629

                             ****ORCA TERMINATED NORMALLY****
TOTAL RUN TIME: 0 days 0 hours 10 minutes 43 seconds 485 msec
