                         Program Version 4.2.0 -  RELEASE  -
|  1> # ORCA input file
|  2> # SCF done       -191.854855762568          0.000449715231
|  3> ! CAM-B3LYP def2-SVP def2/J RIJCOSX Grid4 TightSCF
|  4> %maxcore 5000
|  5> %tddft
|  6>     Mode sTDDFT
|  7>     Ethresh 5.0
|  8>     maxcore 5000
|  9> end
| 10>
| 11> %pal
| 12>   nprocs 6
| 13>   end
| 14> * xyz 0 1
| 15>    C        8.35825         7.62942        -3.30251
| 16>    C        7.93755         6.73140        -4.24581
| 17>    C        8.80509         5.96662        -5.05425
| 18>    N        9.46001         5.31819        -5.73798
| 19>    C        6.58360         6.42466        -4.49642
| 20>    N        5.49588         6.13218        -4.71981
| 21>    C        9.73766         7.93268        -2.94891
| 22>    C        9.74940         8.78994        -1.80889
| 23>    C       10.91424         9.23957        -1.25738
| 24>    C       12.14377         8.85128        -1.83375
| 25>    C       12.14139         7.99559        -2.97412
| 26>    C       10.92036         7.54252        -3.52177
| 27>    C       13.37579         7.61410        -3.53914
| 28>    C       14.55588         8.05569        -3.00594
| 29>    C       14.55692         8.89860        -1.88408
| 30>    C       13.37690         9.28762        -1.31053
| 31>    C        8.36916         9.05262        -1.38196
| 32>    O        7.98580         9.55394        -0.35046
| 33>    C        7.51077         8.44595        -2.44917
| 34>    C        6.19390         8.71451        -2.57601
| 35>    C        5.49489         9.70657        -1.80839
| 36>    C        5.81862        11.03664        -1.61212
| 37>    N        6.93509        11.75228        -2.07939
| 38>    O        7.78953        11.16742        -2.72956
| 39>    O        6.97514        12.94337        -1.82790
| 40>    C        4.74941        11.68482        -0.89100
| 41>    C        3.76363        10.78216        -0.67829
| 42>    C        4.16383         9.51278        -1.22750
| 43>    C        3.52972         8.29242        -1.09352
| 44>    C        4.19668         7.01957        -1.10994
| 45>    C        3.35312         6.06840        -0.63432
| 46>    C        2.08456         6.68080        -0.35617
| 47>    N        0.99646         5.95050         0.15113
| 48>    O       -0.02272         6.55190         0.47475
| 49>    O        1.13411         4.74783         0.26951
| 50>    C        2.14763         8.03737        -0.67582
| 51>    C        1.01544         8.89181        -0.72389
| 52>    C        0.86718        10.03985        -1.42452
| 53>    C       -0.35872        10.79981        -1.43572
| 54>    C       -0.65746        11.75447        -2.32619
| 55>    N       -1.33034        10.47123        -0.46153
| 56>    N       -2.60446        10.26798        -0.76414
| 57>    C       -3.22731         9.95606         0.37609
| 58>    C       -4.53705         9.61847         0.82274
| 59>    N       -4.75806         9.37229         2.07775
| 60>    C       -3.82922         9.40468         3.06330
| 61>    C       -2.47019         9.74667         2.76333
| 62>    C       -2.27343         9.99202         1.40551
| 63>    N       -1.09071        10.32680         0.85571
| 64>    C       -0.02314        10.46988         1.68279
| 65>    C       -0.25900        10.21907         3.03030
| 66>    N       -1.40643         9.87065         3.57983
| 67>    C       -4.28632         9.07749         4.36333
| 68>    C       -3.49350         9.03691         5.47761
| 69>    C       -4.00721         8.68048         6.73735
| 70>    C       -3.25890         8.59898         7.88527
| 71>    C       -3.72729         8.21160         9.19915
| 72>    C       -5.02772         7.98443         9.57905
| 73>    C       -5.41700         7.61975        10.88451
| 74>    N       -5.80602         7.32144        11.92298
| 75>    C       -6.16214         8.10118         8.75003
| 76>    N       -7.14104         8.18135         8.15421
| 77>    C       -2.56822         8.13137        10.08343
| 78>    C       -1.41118         8.51701         9.34928
| 79>    C       -1.79393         8.84853         7.96540
| 80>    O       -1.05277         9.24443         7.09055
| 81>    C       -0.17007         8.54256         9.91641
| 82>    C       -0.02379         8.17155        11.27169
| 83>    C       -1.17540         7.77963        12.01303
| 84>    C       -2.44908         7.76613        11.39819
| 85>    C       -1.01832         7.40775        13.36355
| 86>    C        0.21578         7.42207        13.95492
| 87>    C        1.34887         7.80853        13.22388
| 88>    C        1.23150         8.17555        11.91063
| 89>    H       10.89722         9.88988        -0.39564
| 90>    H       10.95004         6.90090        -4.38851
| 91>    H       13.37001         6.96480        -4.40229
| 92>    H       15.49589         7.75842        -3.44602
| 93>    H       15.49758         9.23856        -1.47738
| 94>    H       13.37154         9.93679        -0.44730
| 95>    H        5.59519         8.18936        -3.31054
| 96>    H        4.78373        12.71382        -0.58846
| 97>    H        2.87160        10.94360        -0.10730
| 98>    H        5.23297         6.88217        -1.34641
| 99>    H        3.55976         5.02824        -0.47035
|100>    H        0.16091         8.48191        -0.20122
|101>    H        1.64945        10.40760        -2.07045
|102>    H        0.03023        12.00860        -3.11097
|103>    H       -1.60283        12.26514        -2.30141
|104>    H       -5.37579         9.55454         0.14773
|105>    H        0.93056        10.75855         1.28260
|106>    H        0.56511        10.31572         3.72277
|107>    H       -5.34045         8.84055         4.43352
|108>    H       -2.44363         9.27616         5.39462
|109>    H       -5.06208         8.43976         6.78575
|110>    H        0.69086         8.84012         9.33624
|111>    H       -3.29894         7.46128        11.98766
|112>    H       -1.89350         7.11121        13.92286
|113>    H        0.32558         7.13521        14.99000
|114>    H        2.31501         7.81358        13.70606
|115>    H        2.10035         8.47375        11.34212
|116> *
|117>
|118>                          ****END OF INPUT****

CARTESIAN COORDINATES (ANGSTROEM)
---------------------------------
  C      8.358250    7.629420   -3.302510
  C      7.937550    6.731400   -4.245810
  C      8.805090    5.966620   -5.054250
  N      9.460010    5.318190   -5.737980
  C      6.583600    6.424660   -4.496420
  N      5.495880    6.132180   -4.719810
  C      9.737660    7.932680   -2.948910
  C      9.749400    8.789940   -1.808890
  C     10.914240    9.239570   -1.257380
  C     12.143770    8.851280   -1.833750
  C     12.141390    7.995590   -2.974120
  C     10.920360    7.542520   -3.521770
  C     13.375790    7.614100   -3.539140
  C     14.555880    8.055690   -3.005940
  C     14.556920    8.898600   -1.884080
  C     13.376900    9.287620   -1.310530
  C      8.369160    9.052620   -1.381960
  O      7.985800    9.553940   -0.350460
  C      7.510770    8.445950   -2.449170
  C      6.193900    8.714510   -2.576010
  C      5.494890    9.706570   -1.808390
  C      5.818620   11.036640   -1.612120
  N      6.935090   11.752280   -2.079390
  O      7.789530   11.167420   -2.729560
  O      6.975140   12.943370   -1.827900
  C      4.749410   11.684820   -0.891000
  C      3.763630   10.782160   -0.678290
  C      4.163830    9.512780   -1.227500
  C      3.529720    8.292420   -1.093520
  C      4.196680    7.019570   -1.109940
  C      3.353120    6.068400   -0.634320
  C      2.084560    6.680800   -0.356170
  N      0.996460    5.950500    0.151130
  O     -0.022720    6.551900    0.474750
  O      1.134110    4.747830    0.269510
  C      2.147630    8.037370   -0.675820
  C      1.015440    8.891810   -0.723890
  C      0.867180   10.039850   -1.424520
  C     -0.358720   10.799810   -1.435720
  C     -0.657460   11.754470   -2.326190
  N     -1.330340   10.471230   -0.461530
  N     -2.604460   10.267980   -0.764140
  C     -3.227310    9.956060    0.376090
  C     -4.537050    9.618470    0.822740
  N     -4.758060    9.372290    2.077750
  C     -3.829220    9.404680    3.063300
  C     -2.470190    9.746670    2.763330
  C     -2.273430    9.992020    1.405510
  N     -1.090710   10.326800    0.855710
  C     -0.023140   10.469880    1.682790
  C     -0.259000   10.219070    3.030300
  N     -1.406430    9.870650    3.579830
  C     -4.286320    9.077490    4.363330
  C     -3.493500    9.036910    5.477610
  C     -4.007210    8.680480    6.737350
  C     -3.258900    8.598980    7.885270
  C     -3.727290    8.211600    9.199150
  C     -5.027720    7.984430    9.579050
  C     -5.417000    7.619750   10.884510
  N     -5.806020    7.321440   11.922980
  C     -6.162140    8.101180    8.750030
  N     -7.141040    8.181350    8.154210
  C     -2.568220    8.131370   10.083430
  C     -1.411180    8.517010    9.349280
  C     -1.793930    8.848530    7.965400
  O     -1.052770    9.244430    7.090550
  C     -0.170070    8.542560    9.916410
  C     -0.023790    8.171550   11.271690
  C     -1.175400    7.779630   12.013030
  C     -2.449080    7.766130   11.398190
  C     -1.018320    7.407750   13.363550
  C      0.215780    7.422070   13.954920
  C      1.348870    7.808530   13.223880
  C      1.231500    8.175550   11.910630
  H     10.897220    9.889880   -0.395640
  H     10.950040    6.900900   -4.388510
  H     13.370010    6.964800   -4.402290
  H     15.495890    7.758420   -3.446020
  H     15.497580    9.238560   -1.477380
  H     13.371540    9.936790   -0.447300
  H      5.595190    8.189360   -3.310540
  H      4.783730   12.713820   -0.588460
  H      2.871600   10.943600   -0.107300
  H      5.232970    6.882170   -1.346410
  H      3.559760    5.028240   -0.470350
  H      0.160910    8.481910   -0.201220
  H      1.649450   10.407600   -2.070450
  H      0.030230   12.008600   -3.110970
  H     -1.602830   12.265140   -2.301410
  H     -5.375790    9.554540    0.147730
  H      0.930560   10.758550    1.282600
  H      0.565110   10.315720    3.722770
  H     -5.340450    8.840550    4.433520
  H     -2.443630    9.276160    5.394620
  H     -5.062080    8.439760    6.785750
  H      0.690860    8.840120    9.336240
  H     -3.298940    7.461280   11.987660
  H     -1.893500    7.111210   13.922860
  H      0.325580    7.135210   14.990000
  H      2.315010    7.813580   13.706060
  H      2.100350    8.473750   11.342120

 Total Charge           Charge          ....    0
 Multiplicity           Mult            ....    1
 Number of Electrons    NEL             ....  494
 Basis Dimension        Dim             .... 1171

ORBITAL ENERGIES
----------------

  NO   OCC          E(Eh)            E(eV)
   0   2.0000     -19.267210      -524.2874
   1   2.0000     -19.263910      -524.1976
   2   2.0000     -19.263332      -524.1819
   3   2.0000     -19.259981      -524.0907
   4   2.0000     -19.234123      -523.3871
   5   2.0000     -19.188536      -522.1466
   6   2.0000     -14.673444      -399.2847
   7   2.0000     -14.670791      -399.2125
   8   2.0000     -14.592796      -397.0902
   9   2.0000     -14.584915      -396.8757
  10   2.0000     -14.475515      -393.8988
  11   2.0000     -14.438553      -392.8930
  12   2.0000     -14.433689      -392.7606
  13   2.0000     -14.416555      -392.2944
  14   2.0000     -14.412147      -392.1744
  15   2.0000     -14.390526      -391.5861
  16   2.0000     -14.389643      -391.5621
  17   2.0000     -10.387225      -282.6508
  18   2.0000     -10.379398      -282.4378
  19   2.0000     -10.365110      -282.0490
  20   2.0000     -10.363668      -282.0098
  21   2.0000     -10.361931      -281.9625
  22   2.0000     -10.361073      -281.9391
  23   2.0000     -10.360376      -281.9202
  24   2.0000     -10.359496      -281.8962
  25   2.0000     -10.355819      -281.7962
  26   2.0000     -10.351233      -281.6714
  27   2.0000     -10.349017      -281.6111
  28   2.0000     -10.347042      -281.5573
  29   2.0000     -10.341679      -281.4114
  30   2.0000     -10.340390      -281.3763
  31   2.0000     -10.340321      -281.3744
  32   2.0000     -10.339503      -281.3522
  33   2.0000     -10.338783      -281.3326
  34   2.0000     -10.338311      -281.3197
  35   2.0000     -10.337873      -281.3078
  36   2.0000     -10.335378      -281.2399
  37   2.0000     -10.331077      -281.1229
  38   2.0000     -10.328663      -281.0572
  39   2.0000     -10.328161      -281.0435
  40   2.0000     -10.325580      -280.9733
  41   2.0000     -10.324995      -280.9574
  42   2.0000     -10.320181      -280.8264
  43   2.0000     -10.317956      -280.7658
  44   2.0000     -10.314114      -280.6613
  45   2.0000     -10.313001      -280.6310
  46   2.0000     -10.312946      -280.6295
  47   2.0000     -10.312525      -280.6181
  48   2.0000     -10.312280      -280.6114
  49   2.0000     -10.312021      -280.6044
  50   2.0000     -10.311684      -280.5952
  51   2.0000     -10.307300      -280.4759
  52   2.0000     -10.304707      -280.4053
  53   2.0000     -10.299277      -280.2576
  54   2.0000     -10.298728      -280.2426
  55   2.0000     -10.298549      -280.2378
  56   2.0000     -10.298166      -280.2273
  57   2.0000     -10.296809      -280.1904
  58   2.0000     -10.294474      -280.1269
  59   2.0000     -10.294053      -280.1154
  60   2.0000     -10.284027      -279.8426
  61   2.0000     -10.281102      -279.7630
  62   2.0000     -10.279618      -279.7226
  63   2.0000     -10.279090      -279.7083
  64   2.0000     -10.276210      -279.6299
  65   2.0000     -10.275882      -279.6210
  66   2.0000     -10.274083      -279.5720
  67   2.0000     -10.271353      -279.4977
  68   2.0000     -10.270656      -279.4788
  69   2.0000     -10.270113      -279.4640
  70   2.0000     -10.269462      -279.4463
  71   2.0000     -10.266727      -279.3718
  72   2.0000     -10.264230      -279.3039
  73   2.0000     -10.243212      -278.7320
  74   2.0000      -1.343805       -36.5668
  75   2.0000      -1.339663       -36.4541
  76   2.0000      -1.278673       -34.7945
  77   2.0000      -1.161947       -31.6182
  78   2.0000      -1.156219       -31.4623
  79   2.0000      -1.149792       -31.2874
  80   2.0000      -1.109375       -30.1876
  81   2.0000      -1.103405       -30.0252
  82   2.0000      -1.057311       -28.7709
  83   2.0000      -1.048497       -28.5310
  84   2.0000      -1.038189       -28.2506
  85   2.0000      -1.028219       -27.9793
  86   2.0000      -1.026171       -27.9235
  87   2.0000      -1.017098       -27.6766
  88   2.0000      -1.015477       -27.6325
  89   2.0000      -1.013086       -27.5675
  90   2.0000      -0.992980       -27.0204
  91   2.0000      -0.987721       -26.8772
  92   2.0000      -0.976225       -26.5644
  93   2.0000      -0.969349       -26.3773
  94   2.0000      -0.949844       -25.8466
  95   2.0000      -0.942995       -25.6602
  96   2.0000      -0.941333       -25.6150
  97   2.0000      -0.939230       -25.5577
  98   2.0000      -0.928237       -25.2586
  99   2.0000      -0.913075       -24.8460
 100   2.0000      -0.910848       -24.7854
 101   2.0000      -0.905868       -24.6499
 102   2.0000      -0.903427       -24.5835
 103   2.0000      -0.897225       -24.4147
 104   2.0000      -0.894640       -24.3444
 105   2.0000      -0.889821       -24.2133
 106   2.0000      -0.869943       -23.6724
 107   2.0000      -0.861825       -23.4514
 108   2.0000      -0.859932       -23.3999
 109   2.0000      -0.851820       -23.1792
 110   2.0000      -0.843308       -22.9476
 111   2.0000      -0.843098       -22.9419
 112   2.0000      -0.825360       -22.4592
 113   2.0000      -0.821531       -22.3550
 114   2.0000      -0.809685       -22.0326
 115   2.0000      -0.808838       -22.0096
 116   2.0000      -0.795356       -21.6427
 117   2.0000      -0.787319       -21.4240
 118   2.0000      -0.779571       -21.2132
 119   2.0000      -0.778814       -21.1926
 120   2.0000      -0.758320       -20.6349
 121   2.0000      -0.754909       -20.5421
 122   2.0000      -0.750594       -20.4247
 123   2.0000      -0.737963       -20.0810
 124   2.0000      -0.733269       -19.9533
 125   2.0000      -0.720182       -19.5972
 126   2.0000      -0.719008       -19.5652
 127   2.0000      -0.712662       -19.3925
 128   2.0000      -0.700429       -19.0596
 129   2.0000      -0.696057       -18.9407
 130   2.0000      -0.695349       -18.9214
 131   2.0000      -0.685207       -18.6454
 132   2.0000      -0.684814       -18.6347
 133   2.0000      -0.675033       -18.3686
 134   2.0000      -0.667983       -18.1767
 135   2.0000      -0.665785       -18.1169
 136   2.0000      -0.662920       -18.0390
 137   2.0000      -0.657077       -17.8800
 138   2.0000      -0.656498       -17.8642
 139   2.0000      -0.654817       -17.8185
 140   2.0000      -0.652606       -17.7583
 141   2.0000      -0.650375       -17.6976
 142   2.0000      -0.647307       -17.6141
 143   2.0000      -0.645608       -17.5679
 144   2.0000      -0.642663       -17.4877
 145   2.0000      -0.637387       -17.3442
 146   2.0000      -0.631917       -17.1953
 147   2.0000      -0.629267       -17.1232
 148   2.0000      -0.621671       -16.9165
 149   2.0000      -0.615278       -16.7426
 150   2.0000      -0.613985       -16.7074
 151   2.0000      -0.610873       -16.6227
 152   2.0000      -0.603963       -16.4347
 153   2.0000      -0.595343       -16.2001
 154   2.0000      -0.594000       -16.1636
 155   2.0000      -0.593006       -16.1365
 156   2.0000      -0.587369       -15.9831
 157   2.0000      -0.583131       -15.8678
 158   2.0000      -0.581022       -15.8104
 159   2.0000      -0.575894       -15.6709
 160   2.0000      -0.569760       -15.5039
 161   2.0000      -0.563537       -15.3346
 162   2.0000      -0.561802       -15.2874
 163   2.0000      -0.559440       -15.2231
 164   2.0000      -0.558303       -15.1922
 165   2.0000      -0.550832       -14.9889
 166   2.0000      -0.549795       -14.9607
 167   2.0000      -0.546329       -14.8664
 168   2.0000      -0.542857       -14.7719
 169   2.0000      -0.537625       -14.6295
 170   2.0000      -0.536051       -14.5867
 171   2.0000      -0.533271       -14.5111
 172   2.0000      -0.530186       -14.4271
 173   2.0000      -0.528559       -14.3828
 174   2.0000      -0.528181       -14.3725
 175   2.0000      -0.524257       -14.2658
 176   2.0000      -0.522828       -14.2269
 177   2.0000      -0.520468       -14.1627
 178   2.0000      -0.518602       -14.1119
 179   2.0000      -0.515891       -14.0381
 180   2.0000      -0.514779       -14.0078
 181   2.0000      -0.511658       -13.9229
 182   2.0000      -0.510785       -13.8992
 183   2.0000      -0.507803       -13.8180
 184   2.0000      -0.507115       -13.7993
 185   2.0000      -0.503459       -13.6998
 186   2.0000      -0.499581       -13.5943
 187   2.0000      -0.498003       -13.5513
 188   2.0000      -0.496802       -13.5187
 189   2.0000      -0.492842       -13.4109
 190   2.0000      -0.491768       -13.3817
 191   2.0000      -0.490820       -13.3559
 192   2.0000      -0.480541       -13.0762
 193   2.0000      -0.478613       -13.0237
 194   2.0000      -0.477385       -12.9903
 195   2.0000      -0.473962       -12.8972
 196   2.0000      -0.469229       -12.7684
 197   2.0000      -0.465762       -12.6740
 198   2.0000      -0.464323       -12.6349
 199   2.0000      -0.462536       -12.5862
 200   2.0000      -0.457369       -12.4456
 201   2.0000      -0.455149       -12.3852
 202   2.0000      -0.450593       -12.2613
 203   2.0000      -0.450162       -12.2495
 204   2.0000      -0.446041       -12.1374
 205   2.0000      -0.445520       -12.1232
 206   2.0000      -0.438103       -11.9214
 207   2.0000      -0.438026       -11.9193
 208   2.0000      -0.428451       -11.6587
 209   2.0000      -0.427281       -11.6269
 210   2.0000      -0.425625       -11.5818
 211   2.0000      -0.425306       -11.5732
 212   2.0000      -0.424105       -11.5405
 213   2.0000      -0.419095       -11.4042
 214   2.0000      -0.417153       -11.3513
 215   2.0000      -0.414160       -11.2699
 216   2.0000      -0.412823       -11.2335
 217   2.0000      -0.410486       -11.1699
 218   2.0000      -0.410177       -11.1615
 219   2.0000      -0.407201       -11.0805
 220   2.0000      -0.403297       -10.9743
 221   2.0000      -0.401516       -10.9258
 222   2.0000      -0.400394       -10.8953
 223   2.0000      -0.396918       -10.8007
 224   2.0000      -0.393638       -10.7114
 225   2.0000      -0.393093       -10.6966
 226   2.0000      -0.388757       -10.5786
 227   2.0000      -0.386264       -10.5108
 228   2.0000      -0.382952       -10.4207
 229   2.0000      -0.377605       -10.2752
 230   2.0000      -0.375210       -10.2100
 231   2.0000      -0.373677       -10.1683
 232   2.0000      -0.366419        -9.9708
 233   2.0000      -0.360488        -9.8094
 234   2.0000      -0.354045        -9.6341
 235   2.0000      -0.345973        -9.4144
 236   2.0000      -0.345820        -9.4102
 237   2.0000      -0.333473        -9.0743
 238   2.0000      -0.329224        -8.9587
 239   2.0000      -0.323381        -8.7996
 240   2.0000      -0.311620        -8.4796
 241   2.0000      -0.307694        -8.3728
 242   2.0000      -0.306861        -8.3501
 243   2.0000      -0.301056        -8.1921
 244   2.0000      -0.289502        -7.8777
 245   2.0000      -0.274101        -7.4587
 246   2.0000      -0.228684        -6.2228
 247   0.0000      -0.162841        -4.4311
 248   0.0000      -0.111813        -3.0426
 249   0.0000      -0.085910        -2.3377
 250   0.0000      -0.072686        -1.9779
 251   0.0000      -0.069917        -1.9025

MULLIKEN ATOMIC CHARGES
-----------------------
   0 C :    0.308555
   1 C :   -0.341843
   2 C :   -0.181130
   3 N :    0.163776
   4 C :   -0.194137
   5 N :    0.161542
   6 C :    0.058136
   7 C :    0.005108
   8 C :   -0.068479
   9 C :    0.093879
  10 C :    0.097436
  11 C :   -0.085029
  12 C :   -0.017975
  13 C :    0.038541
  14 C :    0.039409
  15 C :   -0.014701
  16 C :    0.139985
  17 O :   -0.144511
  18 C :   -0.010387
  19 C :   -0.126361
  20 C :    0.053911
  21 C :    0.107940
  22 N :    0.275269
  23 O :   -0.246869
  24 O :   -0.226166
  25 C :    0.027015
  26 C :    0.004082
  27 C :    0.055908
  28 C :    0.027644
  29 C :    0.015589
  30 C :    0.038365
  31 C :    0.092436
  32 N :    0.272044
  33 O :   -0.245860
  34 O :   -0.220975
  35 C :    0.027972
  36 C :   -0.031979
  37 C :   -0.026629
  38 C :    0.094269
  39 C :    0.031299
  40 N :   -0.044886
  41 N :   -0.040189
  42 C :    0.070510
  43 C :   -0.087059
  44 N :   -0.008559
  45 C :   -0.108844
  46 C :    0.086661
  47 C :   -0.005950
  48 N :    0.023749
  49 C :    0.019714
  50 C :    0.064269
  51 N :   -0.032852
  52 C :    0.041155
  53 C :   -0.026658
  54 C :   -0.020845
  55 C :   -0.093539
  56 C :    0.339674
  57 C :   -0.367620
  58 C :   -0.187018
  59 N :    0.135272
  60 C :   -0.198171
  61 N :    0.139552
  62 C :    0.047534
  63 C :    0.004840
  64 C :    0.141806
  65 O :   -0.155744
  66 C :   -0.090383
  67 C :    0.100109
  68 C :    0.095734
  69 C :   -0.088866
  70 C :   -0.020146
  71 C :    0.034254
  72 C :    0.032925
  73 C :   -0.018214
  74 H :   -0.008196
  75 H :   -0.004116
  76 H :   -0.005397
  77 H :   -0.000081
  78 H :   -0.000224
  79 H :   -0.012356
  80 H :    0.049594
  81 H :    0.011856
  82 H :   -0.027510
  83 H :    0.008861
  84 H :    0.020427
  85 H :    0.046530
  86 H :    0.015618
  87 H :    0.041759
  88 H :    0.061798
  89 H :   -0.001132
  90 H :    0.006560
  91 H :    0.030611
  92 H :   -0.010378
  93 H :    0.042260
  94 H :    0.004728
  95 H :   -0.024919
  96 H :   -0.012868
  97 H :   -0.013358
  98 H :   -0.011123
  99 H :   -0.012772
 100 H :   -0.025470
Sum of atomic charges:   -0.0000000

LOEWDIN ATOMIC CHARGES
----------------------
   0 C :    0.076330
   1 C :   -0.127402
   2 C :   -0.018640
   3 N :   -0.039121
   4 C :   -0.018849
   5 N :   -0.046385
   6 C :   -0.023715
   7 C :   -0.051960
   8 C :    0.040547
   9 C :   -0.004873
  10 C :   -0.003515
  11 C :    0.023579
  12 C :   -0.003896
  13 C :   -0.008351
  14 C :   -0.006813
  15 C :   -0.007085
  16 C :    0.080222
  17 O :   -0.141849
  18 C :   -0.045465
  19 C :    0.037210
  20 C :    0.010584
  21 C :   -0.012391
  22 N :    0.290373
  23 O :   -0.200212
  24 O :   -0.189719
  25 C :    0.018205
  26 C :   -0.039241
  27 C :    0.042318
  28 C :    0.050561
  29 C :   -0.027943
  30 C :    0.032634
  31 C :   -0.026088
  32 N :    0.287706
  33 O :   -0.212118
  34 O :   -0.186779
  35 C :    0.008176
  36 C :   -0.019211
  37 C :   -0.014356
  38 C :   -0.006234
  39 C :    0.026927
  40 N :    0.131153
  41 N :   -0.083090
  42 C :   -0.048974
  43 C :   -0.030618
  44 N :   -0.026677
  45 C :   -0.075620
  46 C :    0.012514
  47 C :    0.025585
  48 N :    0.190876
  49 C :   -0.081321
  50 C :    0.044565
  51 N :   -0.081511
  52 C :    0.042208
  53 C :   -0.055202
  54 C :    0.072785
  55 C :   -0.113844
  56 C :    0.076078
  57 C :   -0.155143
  58 C :   -0.017601
  59 N :   -0.071467
  60 C :   -0.020941
  61 N :   -0.065300
  62 C :   -0.022558
  63 C :   -0.051002
  64 C :    0.080654
  65 O :   -0.152150
  66 C :    0.022055
  67 C :   -0.010185
  68 C :   -0.008493
  69 C :    0.014328
  70 C :   -0.006752
  71 C :   -0.020017
  72 C :   -0.018708
  73 C :   -0.013691
  74 H :    0.041505
  75 H :    0.040087
  76 H :    0.036000
  77 H :    0.035276
  78 H :    0.034964
  79 H :    0.033793
  80 H :    0.049293
  81 H :    0.042170
  82 H :    0.027036
  83 H :    0.034922
  84 H :    0.045654
  85 H :    0.033777
  86 H :    0.039242
  87 H :    0.041834
  88 H :    0.045649
  89 H :    0.023260
  90 H :    0.028441
  91 H :    0.041881
  92 H :    0.038062
  93 H :    0.029287
  94 H :    0.039200
  95 H :    0.034134
  96 H :    0.037591
  97 H :    0.033284
  98 H :    0.030411
  99 H :    0.029503
 100 H :    0.028641

  Mayer bond orders larger than 0.100000
B(  0-C ,  1-C ) :   1.6577 B(  0-C ,  6-C ) :   1.0079 B(  0-C , 18-C ) :   1.0353
B(  1-C ,  2-C ) :   1.1373 B(  1-C ,  4-C ) :   1.1536 B(  2-C ,  3-N ) :   2.9729
B(  4-C ,  5-N ) :   2.9659 B(  6-C ,  7-C ) :   1.2108 B(  6-C , 11-C ) :   1.4364
B(  7-C ,  8-C ) :   1.4679 B(  7-C , 16-C ) :   0.9460 B(  8-C ,  9-C ) :   1.1890
B(  8-C , 74-H ) :   1.0162 B(  9-C , 10-C ) :   1.2491 B(  9-C , 15-C ) :   1.2423
B( 10-C , 11-C ) :   1.2177 B( 10-C , 12-C ) :   1.2369 B( 11-C , 75-H ) :   0.9901
B( 12-C , 13-C ) :   1.4917 B( 12-C , 76-H ) :   0.9978 B( 13-C , 14-C ) :   1.2569
B( 13-C , 77-H ) :   0.9891 B( 14-C , 15-C ) :   1.4907 B( 14-C , 78-H ) :   0.9893
B( 15-C , 79-H ) :   0.9981 B( 16-C , 17-O ) :   2.2487 B( 16-C , 18-C ) :   0.8909
B( 18-C , 19-C ) :   1.7533 B( 19-C , 20-C ) :   1.0182 B( 19-C , 80-H ) :   0.9221
B( 20-C , 21-C ) :   1.6105 B( 20-C , 27-C ) :   1.0594 B( 21-C , 22-N ) :   0.9342
B( 21-C , 25-C ) :   1.1114 B( 22-N , 23-O ) :   1.4976 B( 22-N , 24-O ) :   1.5445
B( 23-O , 24-O ) :   0.2669 B( 25-C , 26-C ) :   1.6110 B( 25-C , 81-H ) :   1.0101
B( 26-C , 27-C ) :   1.0880 B( 26-C , 82-H ) :   1.0122 B( 27-C , 28-C ) :   1.5180
B( 28-C , 29-C ) :   1.1325 B( 28-C , 35-C ) :   0.9941 B( 29-C , 30-C ) :   1.5762
B( 29-C , 83-H ) :   0.9944 B( 30-C , 31-C ) :   1.1204 B( 30-C , 84-H ) :   1.0121
B( 31-C , 32-N ) :   0.9423 B( 31-C , 35-C ) :   1.5388 B( 32-N , 33-O ) :   1.4857
B( 32-N , 34-O ) :   1.5520 B( 33-O , 34-O ) :   0.2689 B( 35-C , 36-C ) :   1.2010
B( 36-C , 37-C ) :   1.5879 B( 36-C , 85-H ) :   0.9205 B( 37-C , 38-C ) :   1.1053
B( 37-C , 86-H ) :   0.9699 B( 38-C , 39-C ) :   1.8974 B( 38-C , 40-N ) :   0.9145
B( 39-C , 87-H ) :   0.9401 B( 39-C , 88-H ) :   0.9344 B( 40-N , 41-N ) :   1.1382
B( 40-N , 48-N ) :   1.0291 B( 41-N , 42-C ) :   1.5015 B( 42-C , 43-C ) :   1.0943
B( 42-C , 47-C ) :   1.2372 B( 43-C , 44-N ) :   1.7152 B( 43-C , 89-H ) :   0.9979
B( 44-N , 45-C ) :   1.4198 B( 45-C , 46-C ) :   1.1745 B( 45-C , 52-C ) :   1.1672
B( 46-C , 47-C ) :   1.2399 B( 46-C , 51-N ) :   1.4253 B( 47-C , 48-N ) :   1.2057
B( 48-N , 49-C ) :   1.1218 B( 49-C , 50-C ) :   1.3901 B( 49-C , 90-H ) :   0.9662
B( 50-C , 51-N ) :   1.5644 B( 50-C , 91-H ) :   0.9762 B( 52-C , 53-C ) :   1.4669
B( 52-C , 92-H ) :   0.9800 B( 53-C , 54-C ) :   1.1958 B( 53-C , 93-H ) :   0.9549
B( 54-C , 55-C ) :   1.4674 B( 54-C , 94-H ) :   0.9654 B( 55-C , 56-C ) :   1.0894
B( 55-C , 64-C ) :   0.9560 B( 56-C , 57-C ) :   1.5974 B( 56-C , 62-C ) :   0.9788
B( 57-C , 58-C ) :   1.1501 B( 57-C , 60-C ) :   1.1517 B( 58-C , 59-N ) :   2.9602
B( 60-C , 61-N ) :   2.9665 B( 62-C , 63-C ) :   1.2199 B( 62-C , 69-C ) :   1.4554
B( 63-C , 64-C ) :   0.9372 B( 63-C , 66-C ) :   1.4785 B( 64-C , 65-O ) :   2.1965
B( 66-C , 67-C ) :   1.1724 B( 66-C , 95-H ) :   1.0145 B( 67-C , 68-C ) :   1.2627
B( 67-C , 73-C ) :   1.2453 B( 68-C , 69-C ) :   1.1999 B( 68-C , 70-C ) :   1.2412
B( 69-C , 96-H ) :   0.9888 B( 70-C , 71-C ) :   1.4883 B( 70-C , 97-H ) :   0.9965
B( 71-C , 72-C ) :   1.2623 B( 71-C , 98-H ) :   0.9876 B( 72-C , 73-C ) :   1.4866
B( 72-C , 99-H ) :   0.9884 B( 73-C ,100-H ) :   0.9967

-----------------------------------------------------------------------------
         ABSORPTION SPECTRUM VIA TRANSITION ELECTRIC DIPOLE MOMENTS
-----------------------------------------------------------------------------
State   Energy  Wavelength   fosc         T2         TX        TY        TZ
        (cm-1)    (nm)                  (au**2)     (au)      (au)      (au)
-----------------------------------------------------------------------------
   0    1303.8   7669.9   0.000223556   0.05645   0.18765  -0.05770  -0.13381
   1   12565.4    795.8   0.115585079   3.02831   1.57452  -0.51703  -0.53092
   2   13947.9    717.0   0.006849076   0.16166   0.33690   0.03446  -0.21673
   3   14664.3    681.9   0.003861352   0.08669   0.03254  -0.16728  -0.24010
   4   15270.3    654.9   0.002774786   0.05982   0.17568   0.12359  -0.11698
   5   17537.9    570.2   0.005265156   0.09883  -0.10763   0.08096   0.28407
   6   17718.1    564.4   0.004839530   0.08992   0.09979   0.10974  -0.26061
   7   17886.8    559.1   0.317083398   5.83602   0.85312   0.62418  -2.17224
   8   18664.8    535.8   0.903948208  15.94392  -0.46423  -0.74584   3.89514
   9   20032.7    499.2   0.019283441   0.31690   0.06056   0.04464   0.55789
  10   20304.0    492.5   0.000999916   0.01621  -0.08848   0.02562  -0.08791
  11   20800.2    480.8   0.000101989   0.00161   0.02171  -0.03380  -0.00054
  12   21390.2    467.5   0.000342047   0.00526  -0.02087   0.04944  -0.04883
  13   22459.2    445.3   0.041514414   0.60853   0.68192   0.36368   0.10605
  14   23416.2    427.1   0.000814625   0.01145  -0.02272   0.10346  -0.01524
  15   24099.8    414.9   0.043759609   0.59777   0.71526  -0.24650  -0.15939
  16   24793.6    403.3   0.005490005   0.07290  -0.25783  -0.01644  -0.07843
  17   25324.4    394.9   0.150747518   1.95969   1.23318   0.05339  -0.66038
  18   25614.3    390.4   0.015284758   0.19645   0.11649  -0.32351  -0.27968
  19   25681.0    389.4   0.014805941   0.18980   0.32952  -0.03462   0.28287
  20   25851.0    386.8   0.050412151   0.64200   0.69212   0.13323   0.38108
  21   26201.9    381.7   0.003855859   0.04845   0.19336  -0.10476  -0.00920
  22   26509.3    377.2   0.159124592   1.97612   1.38565   0.16105   0.17363
  23   26854.4    372.4   0.006562571   0.08045  -0.17505  -0.20958  -0.07673
  24   27391.5    365.1   0.023173934   0.27852  -0.09465  -0.51055   0.09436
  25   27452.5    364.3   0.034576998   0.41465   0.63022  -0.11872  -0.05813
  26   27822.5    359.4   0.003196726   0.03783  -0.10743   0.06019  -0.15054
  27   28082.6    356.1   0.079283893   0.92944   0.41941  -0.83524   0.23648
  28   28551.9    350.2   0.072839752   0.83986  -0.54826   0.02908  -0.73378
  29   28596.2    349.7   0.032506334   0.37423   0.24207  -0.43583   0.35452
  30   28710.5    348.3   0.207158375   2.37540   1.18351   0.95599  -0.24658
  31   29385.8    340.3   0.020618005   0.23099   0.05765   0.39399   0.26914
  32   29585.7    338.0   0.061761463   0.68724  -0.72369  -0.40220   0.04197
  33   30104.1    332.2   0.013091094   0.14316  -0.11805  -0.03125  -0.35812
  34   30259.9    330.5   0.023797172   0.25890  -0.48174  -0.10549  -0.12531
  35   30432.1    328.6   0.000678592   0.00734   0.06291   0.03823   0.04384
  36   30610.1    326.7   0.050407684   0.54213   0.69166  -0.23589  -0.08999
  37   31224.2    320.3   0.003549960   0.03743  -0.00071   0.17768   0.07654
  38   31522.4    317.2   0.126634601   1.32254  -0.13807   1.01313   0.52634
  39   31729.9    315.2   0.048371331   0.50187  -0.68590  -0.01948   0.17615
  40   31914.7    313.3   0.001227531   0.01266  -0.01459  -0.00225   0.11155
  41   32201.1    310.5   0.111937032   1.14440  -0.54027   0.19114  -0.90332
  42   32325.7    309.4   0.066075145   0.67292  -0.59567  -0.55419  -0.10475
  43   32686.8    305.9   0.009105443   0.09171  -0.00967  -0.29484  -0.06844
  44   32856.5    304.4   0.030588871   0.30649  -0.05894  -0.49181   0.24727
  45   32879.1    304.1   0.053473435   0.53542   0.23824   0.65818  -0.21322
  46   33140.7    301.7   0.679815686   6.75312   1.37887   2.19785   0.14597
  47   33328.9    300.0   0.032471040   0.32074   0.49459  -0.25575   0.10350
  48   33418.1    299.2   0.505802090   4.98281  -1.93981   0.73991  -0.82005
  49   33617.6    297.5   0.000436971   0.00428   0.04210   0.03519   0.03561
  50   33780.8    296.0   0.003252125   0.03169  -0.01146  -0.06356  -0.16590
  51   33960.3    294.5   0.283485950   2.74812  -0.09581  -0.49549   1.57906
  52   34505.4    289.8   0.324668941   3.09763  -1.14790   0.30205  -1.29951
  53   34715.5    288.1   0.151777801   1.43933   0.97187  -0.31434   0.62928
  54   35000.6    285.7   0.129577731   1.21879  -0.97852  -0.19572  -0.47221
  55   35156.9    284.4   0.010344793   0.09687  -0.28773  -0.00240   0.11864
  56   35234.8    283.8   0.233030928   2.17729   0.75829  -0.49963   1.16304
  57   35507.1    281.6   0.673218731   6.24190  -2.38821  -0.28651  -0.67547
  58   35595.7    280.9   0.051279295   0.47426   0.65542   0.19292  -0.08645
  59   35756.4    279.7   0.006044016   0.05565   0.05448   0.15056  -0.17324
  60   36025.4    277.6   0.038338143   0.35035   0.23629   0.22506  -0.49382
  61   36422.3    274.6   0.001433330   0.01296  -0.06400   0.09166  -0.02141
  62   36904.6    271.0   0.027141664   0.24212   0.08644   0.26249   0.40712
  63   36927.1    270.8   0.011970609   0.10672   0.22377   0.21370  -0.10478
  64   37004.3    270.2   0.020377609   0.18129   0.12860   0.40501  -0.02675
  65   37080.7    269.7   0.015496190   0.13758  -0.08167  -0.36178  -0.00461
  66   37231.0    268.6   0.005133389   0.04539  -0.19283  -0.05565  -0.07150
  67   37681.8    265.4   0.020703641   0.18088  -0.01188   0.42014   0.06494
  68   37700.9    265.2   0.026146962   0.22832  -0.03330  -0.44131  -0.18015
  69   37810.4    264.5   0.040694413   0.35432  -0.47631  -0.23965   0.26461
  70   37995.0    263.2   0.126585290   1.09681  -0.30286  -0.99977   0.07452
  71   38045.2    262.8   0.057494793   0.49751   0.15486  -0.43541  -0.53287
  72   38371.0    260.6   0.079914976   0.68565  -0.78585  -0.25900   0.03178
  73   38426.5    260.2   0.258950447   2.21851  -0.89128  -0.97389  -0.68968
  74   38735.0    258.2   0.066631410   0.56631  -0.71446  -0.08338   0.22114
  75   38872.5    257.3   0.045100074   0.38195  -0.48296  -0.01494   0.38534
  76   38890.0    257.1   0.076264699   0.64560  -0.65675  -0.15622   0.43575
  77   39446.6    253.5   0.025690339   0.21441   0.30233   0.35046   0.01348
  78   39477.4    253.3   0.016139624   0.13459   0.18937   0.29319  -0.11301
  79   39568.1    252.7   0.006779221   0.05640  -0.08983   0.08754  -0.20167
  80   39863.1    250.9   0.010334282   0.08535  -0.04574  -0.06134  -0.28194
  81   40059.6    249.6   0.000863823   0.00710   0.03166  -0.04655   0.06269
  82   40239.2    248.5   0.034214253   0.27992   0.40103   0.18385  -0.29205

FINAL SINGLE POINT ENERGY     -3237.406447940005

DIPOLE MOMENT
-------------
                                X             Y             Z
Electronic contribution:    -12.62823      -4.13029     -17.16472
Nuclear contribution   :     19.44518       6.57777      13.38901
                        -----------------------------------------
Total Dipole Moment    :      6.81695       2.44747      -3.77571
                        -----------------------------------------
Magnitude (a.u.)       :      8.16804
Magnitude (Debye)      :     20.76152

Rotational constants in cm-1:     0.001371     0.000325     0.000284
Rotational constants in MHz :    41.091571     9.739346     8.523543

                             ****ORCA TERMINATED NORMALLY****
TOTAL RUN TIME: 0 days 0 hours 11 minutes 38 seconds 560 msec
