                         Program Version 4.2.0 -  RELEASE  -
|  1> # ORCA input file
|  2> # SCF done       -214.104193328426          0.000581772348
|  3> ! CAM-B3LYP def2-SVP def2/J RIJCOSX Grid4 TightSCF
|  4> %maxcore 5000
|  5> %tddft
|  6>     Mode sTDDFT
|  7>     Ethresh 5.0
|  8>     maxcore 5000
|  9> end
| 10>
| 11> %pal
| 12>   nprocs 6
| 13>   end
| 14> * xyz 0 1
| 15>    C        2.91007         5.03908         1.85961
| 16>    C        2.96360         6.39816         1.67926
| 17>    C        3.34732         7.31254         2.67863
| 18>    N        3.61892         8.11835         3.45033
| 19>    C        2.67012         7.01745         0.45188
| 20>    N        2.44218         7.55254        -0.53955
| 21>    C        3.34408         4.30776         3.03503
| 22>    C        3.59837         2.95276         2.66067
| 23>    C        4.02972         2.03211         3.57215
| 24>    C        4.19904         2.42416         4.91968
| 25>    C        3.90651         3.76660         5.30372
| 26>    C        3.49018         4.70737         4.33625
| 27>    C        4.03275         4.13269         6.65905
| 28>    C        4.44619         3.21983         7.59115
| 29>    C        4.75277         1.90444         7.21086
| 30>    C        4.62974         1.51384         5.90432
| 31>    C        3.26795         2.76957         1.24050
| 32>    O        3.41828         1.79861         0.53869
| 33>    C        2.60982         4.05534         0.83797
| 34>    C        1.76125         4.05880        -0.21610
| 35>    C        0.73190         4.99256        -0.54229
| 36>    C       -0.01560         5.78544         0.32650
| 37>    N        0.03565         5.82582         1.72578
| 38>    O        0.30894         4.82050         2.35527
| 39>    O       -0.16789         6.91965         2.24435
| 40>    C       -0.91116         6.62066        -0.41857
| 41>    C       -0.68488         6.40755        -1.73630
| 42>    C        0.36069         5.41913        -1.88290
| 43>    C        0.94010         5.05642        -3.08929
| 44>    C        1.48140         3.80518        -3.47992
| 45>    C        1.64380         3.79511        -4.84048
| 46>    C        1.30497         5.07596        -5.36492
| 47>    N        1.42909         5.40414        -6.72369
| 48>    O        1.12898         6.53387        -7.08442
| 49>    O        1.82115         4.53105        -7.47748
| 50>    C        0.92173         5.90871        -4.30815
| 51>    C        0.75011         7.29601        -4.35796
| 52>    C        0.81375         8.14890        -3.28308
| 53>    C        0.52085         9.51713        -3.35782
| 54>    S        0.19131        10.35993        -4.84197
| 55>    C       -0.00633        11.85995        -3.99764
| 56>    C       -0.31896        13.14551        -4.66176
| 57>    O       -0.45674        14.15483        -4.02726
| 58>    O       -0.43823        13.12608        -5.99215
| 59>    C        0.14677        11.71844        -2.64067
| 60>    C        0.43803        10.39717        -2.26066
| 61>    O        0.56487         9.89488        -1.02255
| 62>    C        0.70952        10.68480         0.04753
| 63>    C        0.72477        10.16649         1.29693
| 64>    C        0.93643        10.95422         2.45155
| 65>    S        1.07408        12.67513         2.38128
| 66>    C        1.47213        12.81755         4.06666
| 67>    C        1.42685        11.55563         4.68602
| 68>    C        1.12478        10.49931         3.77212
| 69>    C        1.06878         9.17203         4.22347
| 70>    C        1.34816         8.90357         5.54480
| 71>    C        1.43098         7.56873         5.99949
| 72>    N        1.55294         6.48753         6.35967
| 73>    C        1.57626         9.96375         6.47072
| 74>    C        1.78930         9.65833         7.83507
| 75>    N        1.96591         9.42263         8.94233
| 76>    C        1.57349        11.27479         6.05331
| 77>    C        1.73491        14.09908         4.58820
| 78>    C        2.57447        14.41592         5.62210
| 79>    C        2.69519        15.71997         6.24187
| 80>    C        1.78350        16.74095         6.15117
| 81>    C        1.92692        17.98655         6.79651
| 82>    N        1.99362        19.02058         7.29038
| 83>    C        0.57011        16.66742         5.43610
| 84>    N       -0.44187        16.65952         4.89303
| 85>    C        3.89984        15.71586         7.06097
| 86>    C        4.49303        14.42237         6.98757
| 87>    C        3.69558        13.56118         6.10060
| 88>    O        3.94981        12.42435         5.76182
| 89>    C        5.63474        14.11287         7.66927
| 90>    C        6.24523        15.10153         8.47337
| 91>    C        5.66377        16.40082         8.54374
| 92>    C        4.48198        16.69253         7.82413
| 93>    C        6.28533        17.38090         9.34340
| 94>    C        7.42477        17.09240        10.04459
| 95>    C        7.99456        15.81237         9.97732
| 96>    C        7.41745        14.83788         9.20850
| 97>    H        4.22591         1.01292         3.27373
| 98>    H        3.25757         5.71059         4.65646
| 99>    H        3.78114         5.14275         6.94439
|100>    H        4.53644         3.50608         8.62809
|101>    H        5.07955         1.19809         7.95946
|102>    H        4.85479         0.49930         5.60927
|103>    H        1.83273         3.18210        -0.84838
|104>    H       -1.64206         7.26297         0.03354
|105>    H       -1.24259         6.81813        -2.55457
|106>    H        1.61830         2.95351        -2.84439
|107>    H        1.97283         2.97153        -5.44655
|108>    H        0.61006         7.71923        -5.34759
|109>    H        1.13837         7.80268        -2.31077
|110>    H       -0.29890        12.25548        -6.39029
|111>    H        0.02441        12.55863        -1.98142
|112>    H        0.84150        11.74789        -0.11875
|113>    H        0.58780         9.10338         1.43039
|114>    H        0.79389         8.37221         3.55519
|115>    H        1.67688        12.07015         6.77339
|116>    H        1.25358        14.91326         4.05821
|117>    H        6.06314        13.12404         7.59996
|118>    H        4.06857        17.68631         7.89261
|119>    H        5.84163        18.36438         9.39348
|120>    H        7.89261        17.84950        10.65574
|121>    H        8.89315        15.60198        10.53762
|122>    H        7.85167        13.85049         9.15296
|123> *
|124>
|125>                          ****END OF INPUT****

CARTESIAN COORDINATES (ANGSTROEM)
---------------------------------
  C      2.910070    5.039080    1.859610
  C      2.963600    6.398160    1.679260
  C      3.347320    7.312540    2.678630
  N      3.618920    8.118350    3.450330
  C      2.670120    7.017450    0.451880
  N      2.442180    7.552540   -0.539550
  C      3.344080    4.307760    3.035030
  C      3.598370    2.952760    2.660670
  C      4.029720    2.032110    3.572150
  C      4.199040    2.424160    4.919680
  C      3.906510    3.766600    5.303720
  C      3.490180    4.707370    4.336250
  C      4.032750    4.132690    6.659050
  C      4.446190    3.219830    7.591150
  C      4.752770    1.904440    7.210860
  C      4.629740    1.513840    5.904320
  C      3.267950    2.769570    1.240500
  O      3.418280    1.798610    0.538690
  C      2.609820    4.055340    0.837970
  C      1.761250    4.058800   -0.216100
  C      0.731900    4.992560   -0.542290
  C     -0.015600    5.785440    0.326500
  N      0.035650    5.825820    1.725780
  O      0.308940    4.820500    2.355270
  O     -0.167890    6.919650    2.244350
  C     -0.911160    6.620660   -0.418570
  C     -0.684880    6.407550   -1.736300
  C      0.360690    5.419130   -1.882900
  C      0.940100    5.056420   -3.089290
  C      1.481400    3.805180   -3.479920
  C      1.643800    3.795110   -4.840480
  C      1.304970    5.075960   -5.364920
  N      1.429090    5.404140   -6.723690
  O      1.128980    6.533870   -7.084420
  O      1.821150    4.531050   -7.477480
  C      0.921730    5.908710   -4.308150
  C      0.750110    7.296010   -4.357960
  C      0.813750    8.148900   -3.283080
  C      0.520850    9.517130   -3.357820
  S      0.191310   10.359930   -4.841970
  C     -0.006330   11.859950   -3.997640
  C     -0.318960   13.145510   -4.661760
  O     -0.456740   14.154830   -4.027260
  O     -0.438230   13.126080   -5.992150
  C      0.146770   11.718440   -2.640670
  C      0.438030   10.397170   -2.260660
  O      0.564870    9.894880   -1.022550
  C      0.709520   10.684800    0.047530
  C      0.724770   10.166490    1.296930
  C      0.936430   10.954220    2.451550
  S      1.074080   12.675130    2.381280
  C      1.472130   12.817550    4.066660
  C      1.426850   11.555630    4.686020
  C      1.124780   10.499310    3.772120
  C      1.068780    9.172030    4.223470
  C      1.348160    8.903570    5.544800
  C      1.430980    7.568730    5.999490
  N      1.552940    6.487530    6.359670
  C      1.576260    9.963750    6.470720
  C      1.789300    9.658330    7.835070
  N      1.965910    9.422630    8.942330
  C      1.573490   11.274790    6.053310
  C      1.734910   14.099080    4.588200
  C      2.574470   14.415920    5.622100
  C      2.695190   15.719970    6.241870
  C      1.783500   16.740950    6.151170
  C      1.926920   17.986550    6.796510
  N      1.993620   19.020580    7.290380
  C      0.570110   16.667420    5.436100
  N     -0.441870   16.659520    4.893030
  C      3.899840   15.715860    7.060970
  C      4.493030   14.422370    6.987570
  C      3.695580   13.561180    6.100600
  O      3.949810   12.424350    5.761820
  C      5.634740   14.112870    7.669270
  C      6.245230   15.101530    8.473370
  C      5.663770   16.400820    8.543740
  C      4.481980   16.692530    7.824130
  C      6.285330   17.380900    9.343400
  C      7.424770   17.092400   10.044590
  C      7.994560   15.812370    9.977320
  C      7.417450   14.837880    9.208500
  H      4.225910    1.012920    3.273730
  H      3.257570    5.710590    4.656460
  H      3.781140    5.142750    6.944390
  H      4.536440    3.506080    8.628090
  H      5.079550    1.198090    7.959460
  H      4.854790    0.499300    5.609270
  H      1.832730    3.182100   -0.848380
  H     -1.642060    7.262970    0.033540
  H     -1.242590    6.818130   -2.554570
  H      1.618300    2.953510   -2.844390
  H      1.972830    2.971530   -5.446550
  H      0.610060    7.719230   -5.347590
  H      1.138370    7.802680   -2.310770
  H     -0.298900   12.255480   -6.390290
  H      0.024410   12.558630   -1.981420
  H      0.841500   11.747890   -0.118750
  H      0.587800    9.103380    1.430390
  H      0.793890    8.372210    3.555190
  H      1.676880   12.070150    6.773390
  H      1.253580   14.913260    4.058210
  H      6.063140   13.124040    7.599960
  H      4.068570   17.686310    7.892610
  H      5.841630   18.364380    9.393480
  H      7.892610   17.849500   10.655740
  H      8.893150   15.601980   10.537620
  H      7.851670   13.850490    9.152960

 Total Charge           Charge          ....    0
 Multiplicity           Mult            ....    1
 Number of Electrons    NEL             ....  564
 Basis Dimension        Dim             .... 1286

ORBITAL ENERGIES
----------------

  NO   OCC          E(Eh)            E(eV)
   0   2.0000     -89.008475     -2422.0437
   1   2.0000     -88.995371     -2421.6872
   2   2.0000     -19.325748      -525.8803
   3   2.0000     -19.286838      -524.8215
   4   2.0000     -19.276459      -524.5391
   5   2.0000     -19.274909      -524.4969
   6   2.0000     -19.240647      -523.5646
   7   2.0000     -19.240276      -523.5545
   8   2.0000     -19.224444      -523.1237
   9   2.0000     -19.223347      -523.0939
  10   2.0000     -19.214207      -522.8452
  11   2.0000     -14.677916      -399.4064
  12   2.0000     -14.650999      -398.6739
  13   2.0000     -14.438510      -392.8918
  14   2.0000     -14.429155      -392.6373
  15   2.0000     -14.414267      -392.2321
  16   2.0000     -14.413439      -392.2096
  17   2.0000     -14.412820      -392.1928
  18   2.0000     -14.409211      -392.0946
  19   2.0000     -10.434355      -283.9332
  20   2.0000     -10.395935      -282.8878
  21   2.0000     -10.380872      -282.4779
  22   2.0000     -10.375519      -282.3322
  23   2.0000     -10.365368      -282.0560
  24   2.0000     -10.356544      -281.8159
  25   2.0000     -10.355928      -281.7991
  26   2.0000     -10.354053      -281.7481
  27   2.0000     -10.353502      -281.7331
  28   2.0000     -10.349381      -281.6210
  29   2.0000     -10.347967      -281.5825
  30   2.0000     -10.347868      -281.5798
  31   2.0000     -10.343026      -281.4480
  32   2.0000     -10.340136      -281.3694
  33   2.0000     -10.339903      -281.3631
  34   2.0000     -10.338622      -281.3282
  35   2.0000     -10.338296      -281.3193
  36   2.0000     -10.331982      -281.1475
  37   2.0000     -10.331865      -281.1443
  38   2.0000     -10.331491      -281.1342
  39   2.0000     -10.331477      -281.1338
  40   2.0000     -10.330666      -281.1117
  41   2.0000     -10.329398      -281.0772
  42   2.0000     -10.329076      -281.0685
  43   2.0000     -10.327425      -281.0235
  44   2.0000     -10.326955      -281.0107
  45   2.0000     -10.326451      -280.9970
  46   2.0000     -10.320245      -280.8281
  47   2.0000     -10.317356      -280.7495
  48   2.0000     -10.315698      -280.7044
  49   2.0000     -10.315496      -280.6989
  50   2.0000     -10.314687      -280.6769
  51   2.0000     -10.314561      -280.6735
  52   2.0000     -10.313974      -280.6575
  53   2.0000     -10.312016      -280.6042
  54   2.0000     -10.311387      -280.5871
  55   2.0000     -10.311282      -280.5842
  56   2.0000     -10.310039      -280.5504
  57   2.0000     -10.307406      -280.4788
  58   2.0000     -10.306117      -280.4437
  59   2.0000     -10.305505      -280.4271
  60   2.0000     -10.304823      -280.4085
  61   2.0000     -10.300780      -280.2985
  62   2.0000     -10.300602      -280.2936
  63   2.0000     -10.299642      -280.2675
  64   2.0000     -10.298049      -280.2242
  65   2.0000     -10.298025      -280.2235
  66   2.0000     -10.297706      -280.2148
  67   2.0000     -10.295713      -280.1606
  68   2.0000     -10.295662      -280.1592
  69   2.0000     -10.295430      -280.1529
  70   2.0000     -10.294915      -280.1389
  71   2.0000     -10.294388      -280.1245
  72   2.0000     -10.293892      -280.1110
  73   2.0000     -10.287012      -279.9238
  74   2.0000     -10.284952      -279.8678
  75   2.0000     -10.284628      -279.8590
  76   2.0000     -10.284097      -279.8445
  77   2.0000     -10.284067      -279.8437
  78   2.0000     -10.283891      -279.8389
  79   2.0000     -10.283453      -279.8270
  80   2.0000     -10.281132      -279.7638
  81   2.0000     -10.278974      -279.7051
  82   2.0000      -8.103819      -220.5161
  83   2.0000      -8.090773      -220.1611
  84   2.0000      -6.073013      -165.2551
  85   2.0000      -6.069098      -165.1486
  86   2.0000      -6.065915      -165.0619
  87   2.0000      -6.059678      -164.8922
  88   2.0000      -6.055661      -164.7829
  89   2.0000      -6.053560      -164.7257
  90   2.0000      -1.349629       -36.7253
  91   2.0000      -1.319774       -35.9129
  92   2.0000      -1.239221       -33.7209
  93   2.0000      -1.210832       -32.9484
  94   2.0000      -1.166929       -31.7538
  95   2.0000      -1.139990       -31.0207
  96   2.0000      -1.136970       -30.9385
  97   2.0000      -1.129961       -30.7478
  98   2.0000      -1.123974       -30.5849
  99   2.0000      -1.038742       -28.2656
 100   2.0000      -1.033925       -28.1345
 101   2.0000      -1.029705       -28.0197
 102   2.0000      -1.029388       -28.0111
 103   2.0000      -1.016492       -27.6602
 104   2.0000      -1.014236       -27.5988
 105   2.0000      -1.012141       -27.5418
 106   2.0000      -1.006217       -27.3806
 107   2.0000      -1.005432       -27.3592
 108   2.0000      -0.996635       -27.1198
 109   2.0000      -0.992182       -26.9986
 110   2.0000      -0.991870       -26.9902
 111   2.0000      -0.974695       -26.5228
 112   2.0000      -0.970316       -26.4036
 113   2.0000      -0.964829       -26.2543
 114   2.0000      -0.943194       -25.6656
 115   2.0000      -0.939324       -25.5603
 116   2.0000      -0.930600       -25.3229
 117   2.0000      -0.928579       -25.2679
 118   2.0000      -0.922189       -25.0940
 119   2.0000      -0.917648       -24.9705
 120   2.0000      -0.908590       -24.7240
 121   2.0000      -0.897584       -24.4245
 122   2.0000      -0.891756       -24.2659
 123   2.0000      -0.883026       -24.0284
 124   2.0000      -0.881925       -23.9984
 125   2.0000      -0.881137       -23.9770
 126   2.0000      -0.879616       -23.9356
 127   2.0000      -0.879014       -23.9192
 128   2.0000      -0.873989       -23.7824
 129   2.0000      -0.863263       -23.4906
 130   2.0000      -0.843576       -22.9549
 131   2.0000      -0.829843       -22.5812
 132   2.0000      -0.829313       -22.5668
 133   2.0000      -0.826336       -22.4857
 134   2.0000      -0.822882       -22.3918
 135   2.0000      -0.809736       -22.0340
 136   2.0000      -0.797325       -21.6963
 137   2.0000      -0.785924       -21.3861
 138   2.0000      -0.775393       -21.0995
 139   2.0000      -0.766477       -20.8569
 140   2.0000      -0.762635       -20.7523
 141   2.0000      -0.759464       -20.6661
 142   2.0000      -0.754497       -20.5309
 143   2.0000      -0.746515       -20.3137
 144   2.0000      -0.738430       -20.0937
 145   2.0000      -0.732681       -19.9373
 146   2.0000      -0.723147       -19.6778
 147   2.0000      -0.708523       -19.2799
 148   2.0000      -0.706214       -19.2171
 149   2.0000      -0.703341       -19.1389
 150   2.0000      -0.701662       -19.0932
 151   2.0000      -0.699637       -19.0381
 152   2.0000      -0.697193       -18.9716
 153   2.0000      -0.691242       -18.8097
 154   2.0000      -0.689983       -18.7754
 155   2.0000      -0.686583       -18.6829
 156   2.0000      -0.681217       -18.5369
 157   2.0000      -0.677515       -18.4361
 158   2.0000      -0.672261       -18.2931
 159   2.0000      -0.665879       -18.1195
 160   2.0000      -0.656273       -17.8581
 161   2.0000      -0.652862       -17.7653
 162   2.0000      -0.646160       -17.5829
 163   2.0000      -0.640252       -17.4221
 164   2.0000      -0.638738       -17.3809
 165   2.0000      -0.635204       -17.2848
 166   2.0000      -0.632751       -17.2180
 167   2.0000      -0.632310       -17.2060
 168   2.0000      -0.631079       -17.1725
 169   2.0000      -0.627796       -17.0832
 170   2.0000      -0.622739       -16.9456
 171   2.0000      -0.618771       -16.8376
 172   2.0000      -0.609907       -16.5964
 173   2.0000      -0.608981       -16.5712
 174   2.0000      -0.605867       -16.4865
 175   2.0000      -0.604934       -16.4611
 176   2.0000      -0.601166       -16.3586
 177   2.0000      -0.592787       -16.1305
 178   2.0000      -0.588734       -16.0203
 179   2.0000      -0.584576       -15.9071
 180   2.0000      -0.582876       -15.8609
 181   2.0000      -0.575623       -15.6635
 182   2.0000      -0.572806       -15.5869
 183   2.0000      -0.563786       -15.3414
 184   2.0000      -0.559291       -15.2191
 185   2.0000      -0.558732       -15.2039
 186   2.0000      -0.556525       -15.1438
 187   2.0000      -0.555721       -15.1219
 188   2.0000      -0.552247       -15.0274
 189   2.0000      -0.551109       -14.9964
 190   2.0000      -0.549257       -14.9460
 191   2.0000      -0.546096       -14.8600
 192   2.0000      -0.544829       -14.8255
 193   2.0000      -0.543312       -14.7843
 194   2.0000      -0.541372       -14.7315
 195   2.0000      -0.539770       -14.6879
 196   2.0000      -0.536558       -14.6005
 197   2.0000      -0.533019       -14.5042
 198   2.0000      -0.531132       -14.4528
 199   2.0000      -0.529529       -14.4092
 200   2.0000      -0.526501       -14.3268
 201   2.0000      -0.524862       -14.2822
 202   2.0000      -0.523104       -14.2344
 203   2.0000      -0.516856       -14.0644
 204   2.0000      -0.516785       -14.0624
 205   2.0000      -0.515317       -14.0225
 206   2.0000      -0.511389       -13.9156
 207   2.0000      -0.509766       -13.8714
 208   2.0000      -0.508585       -13.8393
 209   2.0000      -0.507699       -13.8152
 210   2.0000      -0.506200       -13.7744
 211   2.0000      -0.504570       -13.7300
 212   2.0000      -0.503061       -13.6890
 213   2.0000      -0.500219       -13.6116
 214   2.0000      -0.495478       -13.4827
 215   2.0000      -0.495250       -13.4764
 216   2.0000      -0.493342       -13.4245
 217   2.0000      -0.491656       -13.3786
 218   2.0000      -0.490382       -13.3440
 219   2.0000      -0.486739       -13.2448
 220   2.0000      -0.483582       -13.1589
 221   2.0000      -0.483375       -13.1533
 222   2.0000      -0.479355       -13.0439
 223   2.0000      -0.478473       -13.0199
 224   2.0000      -0.472917       -12.8687
 225   2.0000      -0.469326       -12.7710
 226   2.0000      -0.468611       -12.7516
 227   2.0000      -0.466252       -12.6874
 228   2.0000      -0.461764       -12.5652
 229   2.0000      -0.460037       -12.5182
 230   2.0000      -0.454309       -12.3624
 231   2.0000      -0.449098       -12.2206
 232   2.0000      -0.447625       -12.1805
 233   2.0000      -0.447314       -12.1720
 234   2.0000      -0.446467       -12.1490
 235   2.0000      -0.445579       -12.1248
 236   2.0000      -0.442852       -12.0506
 237   2.0000      -0.441919       -12.0252
 238   2.0000      -0.439079       -11.9479
 239   2.0000      -0.437663       -11.9094
 240   2.0000      -0.437048       -11.8927
 241   2.0000      -0.436295       -11.8722
 242   2.0000      -0.433072       -11.7845
 243   2.0000      -0.432303       -11.7636
 244   2.0000      -0.431032       -11.7290
 245   2.0000      -0.427648       -11.6369
 246   2.0000      -0.426688       -11.6108
 247   2.0000      -0.423965       -11.5367
 248   2.0000      -0.422503       -11.4969
 249   2.0000      -0.418343       -11.3837
 250   2.0000      -0.417341       -11.3564
 251   2.0000      -0.416525       -11.3342
 252   2.0000      -0.414738       -11.2856
 253   2.0000      -0.412844       -11.2341
 254   2.0000      -0.412604       -11.2275
 255   2.0000      -0.408325       -11.1111
 256   2.0000      -0.406554       -11.0629
 257   2.0000      -0.401317       -10.9204
 258   2.0000      -0.394957       -10.7473
 259   2.0000      -0.391806       -10.6616
 260   2.0000      -0.388652       -10.5758
 261   2.0000      -0.381579       -10.3833
 262   2.0000      -0.379402       -10.3241
 263   2.0000      -0.377181       -10.2636
 264   2.0000      -0.375977       -10.2308
 265   2.0000      -0.369166       -10.0455
 266   2.0000      -0.368480       -10.0268
 267   2.0000      -0.365600        -9.9485
 268   2.0000      -0.359870        -9.7926
 269   2.0000      -0.349680        -9.5153
 270   2.0000      -0.346577        -9.4308
 271   2.0000      -0.341561        -9.2944
 272   2.0000      -0.336946        -9.1688
 273   2.0000      -0.334158        -9.0929
 274   2.0000      -0.326837        -8.8937
 275   2.0000      -0.319567        -8.6959
 276   2.0000      -0.313303        -8.5254
 277   2.0000      -0.311638        -8.4801
 278   2.0000      -0.294726        -8.0199
 279   2.0000      -0.293315        -7.9815
 280   2.0000      -0.282235        -7.6800
 281   2.0000      -0.261328        -7.1111
 282   0.0000      -0.152627        -4.1532
 283   0.0000      -0.108773        -2.9599
 284   0.0000      -0.103655        -2.8206
 285   0.0000      -0.079961        -2.1759
 286   0.0000      -0.067624        -1.8402

MULLIKEN ATOMIC CHARGES
-----------------------
   0 C :    0.228548
   1 C :   -0.351932
   2 C :   -0.171452
   3 N :    0.166695
   4 C :   -0.182477
   5 N :    0.182454
   6 C :    0.050686
   7 C :    0.022326
   8 C :   -0.083474
   9 C :    0.095935
  10 C :    0.080936
  11 C :   -0.042698
  12 C :    0.007429
  13 C :    0.033788
  14 C :    0.040026
  15 C :   -0.018228
  16 C :    0.136091
  17 O :   -0.139041
  18 C :   -0.087945
  19 C :    0.005697
  20 C :    0.075596
  21 C :    0.027325
  22 N :    0.276732
  23 O :   -0.202253
  24 O :   -0.232184
  25 C :    0.027894
  26 C :   -0.002746
  27 C :    0.017358
  28 C :    0.063329
  29 C :   -0.019571
  30 C :    0.036350
  31 C :    0.075216
  32 N :    0.277589
  33 O :   -0.266017
  34 O :   -0.251769
  35 C :    0.042482
  36 C :   -0.070290
  37 C :    0.052864
  38 C :   -0.147853
  39 S :    0.142879
  40 C :   -0.147746
  41 C :    0.191202
  42 O :   -0.155983
  43 O :   -0.144178
  44 C :   -0.059526
  45 C :    0.266774
  46 O :   -0.185007
  47 C :    0.136712
  48 C :    0.007894
  49 C :   -0.081909
  50 S :    0.170264
  51 C :   -0.145228
  52 C :    0.179821
  53 C :    0.103381
  54 C :   -0.004907
  55 C :   -0.061579
  56 C :   -0.143282
  57 N :    0.138980
  58 C :   -0.073949
  59 C :   -0.186938
  60 N :    0.173972
  61 C :   -0.006650
  62 C :    0.007843
  63 C :   -0.113677
  64 C :    0.304335
  65 C :   -0.344726
  66 C :   -0.178280
  67 N :    0.145677
  68 C :   -0.207016
  69 N :    0.158337
  70 C :    0.054526
  71 C :   -0.009556
  72 C :    0.127288
  73 O :   -0.142116
  74 C :   -0.076213
  75 C :    0.096378
  76 C :    0.096346
  77 C :   -0.085437
  78 C :   -0.018580
  79 C :    0.036148
  80 C :    0.036435
  81 C :   -0.014398
  82 H :   -0.012136
  83 H :   -0.014638
  84 H :   -0.001419
  85 H :   -0.001083
  86 H :   -0.003896
  87 H :   -0.019611
  88 H :    0.016841
  89 H :   -0.007313
  90 H :    0.006585
  91 H :   -0.003709
  92 H :    0.016540
  93 H :    0.028402
  94 H :    0.052968
  95 H :    0.188233
  96 H :    0.026190
  97 H :    0.030336
  98 H :    0.012840
  99 H :   -0.028444
 100 H :   -0.000482
 101 H :    0.029792
 102 H :   -0.011161
 103 H :   -0.008968
 104 H :   -0.010195
 105 H :   -0.004902
 106 H :   -0.005527
 107 H :   -0.016967
Sum of atomic charges:   -0.0000000

LOEWDIN ATOMIC CHARGES
----------------------
   0 C :    0.076729
   1 C :   -0.155271
   2 C :   -0.016328
   3 N :   -0.041912
   4 C :    0.000533
   5 N :   -0.059667
   6 C :   -0.026157
   7 C :   -0.056930
   8 C :    0.034342
   9 C :   -0.004830
  10 C :   -0.000791
  11 C :    0.040223
  12 C :    0.010894
  13 C :   -0.010509
  14 C :   -0.007082
  15 C :   -0.013409
  16 C :    0.088422
  17 O :   -0.137217
  18 C :   -0.057885
  19 C :    0.047668
  20 C :   -0.023738
  21 C :   -0.024469
  22 N :    0.293619
  23 O :   -0.169293
  24 O :   -0.205984
  25 C :   -0.022967
  26 C :   -0.013002
  27 C :    0.021696
  28 C :    0.064838
  29 C :   -0.062681
  30 C :    0.059934
  31 C :   -0.079697
  32 N :    0.287054
  33 O :   -0.230618
  34 O :   -0.215723
  35 C :    0.032961
  36 C :   -0.028297
  37 C :    0.037440
  38 C :   -0.191307
  39 S :    0.461988
  40 C :   -0.202822
  41 C :    0.063608
  42 O :   -0.143079
  43 O :   -0.018271
  44 C :   -0.048769
  45 C :    0.044444
  46 O :    0.013536
  47 C :    0.076285
  48 C :   -0.070050
  49 C :   -0.126208
  50 S :    0.498892
  51 C :   -0.181080
  52 C :   -0.007519
  53 C :   -0.043421
  54 C :    0.051846
  55 C :   -0.056611
  56 C :   -0.009498
  57 N :   -0.054194
  58 C :   -0.037891
  59 C :   -0.027465
  60 N :   -0.038045
  61 C :    0.044727
  62 C :    0.037057
  63 C :   -0.101575
  64 C :    0.073909
  65 C :   -0.141789
  66 C :   -0.017965
  67 N :   -0.054013
  68 C :   -0.025103
  69 N :   -0.054773
  70 C :   -0.026584
  71 C :   -0.055186
  72 C :    0.073289
  73 O :   -0.138090
  74 C :    0.032855
  75 C :   -0.008108
  76 C :   -0.006556
  77 C :    0.019372
  78 C :   -0.005588
  79 C :   -0.013445
  80 C :   -0.012179
  81 C :   -0.008806
  82 H :    0.039480
  83 H :    0.039026
  84 H :    0.037521
  85 H :    0.034942
  86 H :    0.033219
  87 H :    0.030948
  88 H :    0.044646
  89 H :    0.035009
  90 H :    0.033805
  91 H :    0.031595
  92 H :    0.044030
  93 H :    0.031783
  94 H :    0.042747
  95 H :    0.086869
  96 H :    0.047214
  97 H :    0.017255
  98 H :    0.040822
  99 H :    0.032172
 100 H :    0.042790
 101 H :    0.045178
 102 H :    0.039901
 103 H :    0.038870
 104 H :    0.034470
 105 H :    0.033072
 106 H :    0.032693
 107 H :    0.032228

  Mayer bond orders larger than 0.100000
B(  0-C ,  1-C ) :   1.6414 B(  0-C ,  6-C ) :   1.0170 B(  0-C , 18-C ) :   0.9989
B(  1-C ,  2-C ) :   1.1427 B(  1-C ,  4-C ) :   1.1827 B(  2-C ,  3-N ) :   2.9407
B(  4-C ,  5-N ) :   2.9373 B(  5-N , 94-H ) :   0.1266 B(  6-C ,  7-C ) :   1.1996
B(  6-C , 11-C ) :   1.4362 B(  7-C ,  8-C ) :   1.4694 B(  7-C , 16-C ) :   0.9321
B(  8-C ,  9-C ) :   1.1879 B(  8-C , 82-H ) :   1.0157 B(  9-C , 10-C ) :   1.2421
B(  9-C , 15-C ) :   1.2483 B( 10-C , 11-C ) :   1.2258 B( 10-C , 12-C ) :   1.2466
B( 11-C , 83-H ) :   0.9915 B( 12-C , 13-C ) :   1.4893 B( 12-C , 84-H ) :   0.9906
B( 13-C , 14-C ) :   1.2567 B( 13-C , 85-H ) :   0.9895 B( 14-C , 15-C ) :   1.4882
B( 14-C , 86-H ) :   0.9876 B( 15-C , 87-H ) :   0.9968 B( 16-C , 17-O ) :   2.2595
B( 16-C , 18-C ) :   0.9194 B( 18-C , 19-C ) :   1.7684 B( 19-C , 20-C ) :   1.0480
B( 19-C , 88-H ) :   0.9307 B( 20-C , 21-C ) :   1.4964 B( 20-C , 27-C ) :   1.1183
B( 21-C , 22-N ) :   0.9204 B( 21-C , 25-C ) :   1.1656 B( 22-N , 23-O ) :   1.5280
B( 22-N , 24-O ) :   1.4619 B( 23-O , 24-O ) :   0.2491 B( 25-C , 26-C ) :   1.5653
B( 25-C , 89-H ) :   1.0206 B( 26-C , 27-C ) :   1.1198 B( 26-C , 90-H ) :   0.9847
B( 27-C , 28-C ) :   1.4314 B( 28-C , 29-C ) :   1.1928 B( 28-C , 35-C ) :   0.9893
B( 29-C , 30-C ) :   1.4885 B( 29-C , 91-H ) :   1.0143 B( 30-C , 31-C ) :   1.1712
B( 30-C , 92-H ) :   1.0069 B( 31-C , 32-N ) :   0.9654 B( 31-C , 35-C ) :   1.4283
B( 32-N , 33-O ) :   1.4840 B( 32-N , 34-O ) :   1.5330 B( 33-O , 34-O ) :   0.2502
B( 35-C , 36-C ) :   1.2990 B( 36-C , 37-C ) :   1.4357 B( 36-C , 93-H ) :   0.9448
B( 37-C , 38-C ) :   1.2736 B( 37-C , 94-H ) :   0.9140 B( 38-C , 39-S ) :   1.1069
B( 38-C , 45-C ) :   1.3770 B( 39-S , 40-C ) :   1.1282 B( 40-C , 41-C ) :   0.9169
B( 40-C , 44-C ) :   1.5241 B( 41-C , 42-O ) :   2.1979 B( 41-C , 43-O ) :   1.2567
B( 43-O , 95-H ) :   0.9460 B( 44-C , 45-C ) :   1.2021 B( 44-C , 96-H ) :   1.0057
B( 45-C , 46-O ) :   1.1448 B( 46-O , 47-C ) :   1.0765 B( 47-C , 48-C ) :   1.6819
B( 47-C , 97-H ) :   0.9605 B( 48-C , 49-C ) :   1.1728 B( 48-C , 98-H ) :   0.9522
B( 49-C , 50-S ) :   1.1887 B( 49-C , 53-C ) :   1.2902 B( 50-S , 51-C ) :   1.1176
B( 51-C , 52-C ) :   1.3047 B( 51-C , 62-C ) :   1.2215 B( 52-C , 53-C ) :   1.2298
B( 52-C , 61-C ) :   1.2055 B( 53-C , 54-C ) :   1.2074 B( 54-C , 55-C ) :   1.5544
B( 54-C , 99-H ) :   0.9700 B( 55-C , 56-C ) :   1.0980 B( 55-C , 58-C ) :   1.2526
B( 56-C , 57-N ) :   2.9605 B( 58-C , 59-C ) :   1.0823 B( 58-C , 61-C ) :   1.5635
B( 59-C , 60-N ) :   3.0449 B( 61-C ,100-H ) :   0.9822 B( 62-C , 63-C ) :   1.5630
B( 62-C ,101-H ) :   0.9318 B( 63-C , 64-C ) :   1.0727 B( 63-C , 72-C ) :   0.9485
B( 64-C , 65-C ) :   1.6350 B( 64-C , 70-C ) :   0.9919 B( 65-C , 66-C ) :   1.1427
B( 65-C , 68-C ) :   1.1414 B( 66-C , 67-N ) :   2.9660 B( 68-C , 69-N ) :   2.9942
B( 70-C , 71-C ) :   1.2114 B( 70-C , 77-C ) :   1.4502 B( 71-C , 72-C ) :   0.9381
B( 71-C , 74-C ) :   1.4756 B( 72-C , 73-O ) :   2.2139 B( 74-C , 75-C ) :   1.1757
B( 74-C ,102-H ) :   1.0168 B( 75-C , 76-C ) :   1.2565 B( 75-C , 81-C ) :   1.2458
B( 76-C , 77-C ) :   1.2019 B( 76-C , 78-C ) :   1.2423 B( 77-C ,103-H ) :   0.9906
B( 78-C , 79-C ) :   1.4853 B( 78-C ,104-H ) :   0.9975 B( 79-C , 80-C ) :   1.2616
B( 79-C ,105-H ) :   0.9890 B( 80-C , 81-C ) :   1.4856 B( 80-C ,106-H ) :   0.9893
B( 81-C ,107-H ) :   0.9978

-----------------------------------------------------------------------------
         ABSORPTION SPECTRUM VIA TRANSITION ELECTRIC DIPOLE MOMENTS
-----------------------------------------------------------------------------
State   Energy  Wavelength   fosc         T2         TX        TY        TZ
        (cm-1)    (nm)                  (au**2)     (au)      (au)      (au)
-----------------------------------------------------------------------------
   0    8133.0   1229.6   0.124648992   5.04558   0.11398  -2.24008   0.12104
   1   11616.2    860.9   0.123413305   3.49763   0.48980   0.59562   1.70381
   2   14923.4    670.1   0.024754610   0.54609  -0.47801  -0.30177   0.47595
   3   17079.1    585.5   0.010926066   0.21061  -0.14165   0.40599  -0.16036
   4   17379.4    575.4   0.996056548  18.86791  -1.02647  -3.13301  -2.82817
   5   19942.0    501.5   0.026833514   0.44298  -0.10842  -0.25500   0.60514
   6   20909.1    478.3   0.005921504   0.09323  -0.05450  -0.20455  -0.22005
   7   22196.9    450.5   0.054835115   0.81328  -0.49564  -0.41004  -0.63205
   8   22447.6    445.5   0.068142955   0.99937   0.31976   0.60993   0.72464
   9   23471.2    426.1   0.019047849   0.26717  -0.22102   0.30583  -0.35325
  10   23628.2    423.2   0.052656852   0.73367  -0.37638   0.72686  -0.25235
  11   23805.6    420.1   0.040817388   0.56447   0.18043   0.18090   0.70654
  12   24420.0    409.5   0.025298407   0.34105  -0.15293  -0.50564  -0.24898
  13   25004.9    399.9   0.019353512   0.25481   0.20410   0.40360   0.22418
  14   25490.0    392.3   0.112903223   1.45819  -0.17050  -0.42975   1.11554
  15   25560.4    391.2   0.104226103   1.34241   0.65734  -0.78861   0.53704
  16   25950.7    385.3   0.300570245   3.81305   0.53070  -0.42207   1.83119
  17   26042.3    384.0   0.070103572   0.88621  -0.10328   0.93526   0.02885
  18   26176.8    382.0   0.008973792   0.11286   0.23811  -0.05716   0.22999
  19   26285.6    380.4   0.015439227   0.19337  -0.36637   0.19967  -0.13883
  20   26497.2    377.4   0.208596985   2.59170  -0.83191   0.37196   1.32713
  21   27000.9    370.4   0.017940145   0.21874  -0.45795  -0.00041   0.09499
  22   27320.7    366.0   0.125308905   1.50996  -0.37395   1.14999  -0.21826
  23   27492.3    363.7   0.025797438   0.30892  -0.09618  -0.38791  -0.38625
  24   28166.0    355.0   0.030922140   0.36143   0.53658   0.00731   0.27102
  25   28439.1    351.6   0.144074864   1.66782  -0.30453   1.24925   0.12022
  26   28820.9    347.0   0.039524774   0.45148   0.51781   0.32705  -0.27639
  27   28916.8    345.8   0.028391195   0.32323  -0.41769   0.33785   0.18608
  28   29341.9    340.8   0.008860951   0.09942  -0.04532  -0.23494  -0.20535
  29   29485.7    339.1   0.116160620   1.29695   0.15628  -0.17432  -1.11451
  30   29840.4    335.1   0.071932818   0.79359   0.06660  -0.40693  -0.78966
  31   29956.6    333.8   0.137741065   1.51372   0.23286  -0.33772  -1.15993
  32   30978.8    322.8   0.040448659   0.42985   0.08497  -0.14455  -0.63382
  33   31060.4    322.0   0.034679438   0.36757  -0.00342   0.16438  -0.58356
  34   31130.2    321.2   0.060789838   0.64287  -0.09977  -0.15937   0.77943
  35   31213.4    320.4   0.039309498   0.41460   0.22686  -0.11558  -0.59142
  36   31521.6    317.2   0.038343785   0.40046   0.59683  -0.20533   0.04578
  37   31712.7    315.3   0.172058954   1.78616   0.59860   1.00246   0.65031
  38   31865.7    313.8   0.050526921   0.52201   0.05455  -0.18521   0.69622
  39   32009.8    312.4   0.091918441   0.94535  -0.68821   0.09761   0.67985
  40   32070.2    311.8   0.314618022   3.22966  -1.27780   0.11760  -1.25819
  41   32398.2    308.7   0.033998606   0.34547  -0.26968   0.49257   0.17356
  42   32789.5    305.0   0.317390259   3.18665  -0.16156   1.55853  -0.85529
  43   32807.0    304.8   0.135810744   1.36284  -0.05160  -1.16431   0.06756
  44   32955.6    303.4   0.165102459   1.64930   0.40507  -0.81684   0.90443
  45   33043.6    302.6   0.077563762   0.77276   0.32691  -0.31438   0.75303
  46   33278.6    300.5   0.007886301   0.07802  -0.18979  -0.04027  -0.20094
  47   33437.0    299.1   0.230320499   2.26767   0.85428  -0.26829   1.21074
  48   33626.1    297.4   0.003603953   0.03528   0.11407  -0.00492  -0.14916
  49   33861.1    295.3   0.121107881   1.17746   0.05065  -0.09538   1.07972
  50   33892.6    295.0   0.074056980   0.71934  -0.31804   0.68465  -0.38660
  51   34110.1    293.2   0.244660177   2.36133   1.31586   0.21534  -0.76385
  52   34252.0    292.0   0.159482552   1.53286   0.13308  -0.31368   1.19027
  53   34482.4    290.0   0.051372315   0.49046  -0.29429  -0.04420  -0.63396
  54   34522.6    289.7   0.056619019   0.53993   0.23593   0.58195   0.38158
  55   34931.8    286.3   0.009361117   0.08822   0.05385   0.15506  -0.24755
  56   35233.4    283.8   0.016347648   0.15275  -0.01218  -0.38980  -0.02557
  57   35397.9    282.5   0.011922603   0.11088   0.06292   0.05459   0.32241
  58   35930.2    278.3   0.188228754   1.72466   0.42925  -0.00361   1.24112
  59   36040.5    277.5   0.069828720   0.63785  -0.62982   0.35759  -0.33662
  60   36084.9    277.1   0.161454631   1.47299   0.29909   0.04567   1.17535
  61   36248.9    275.9   0.005586335   0.05074   0.14528   0.00615  -0.17202
  62   36501.0    274.0   0.072478025   0.65370  -0.28762   0.56879  -0.49744
  63   36630.6    273.0   0.042323690   0.38038  -0.48651   0.30831  -0.22052
  64   36696.9    272.5   0.006141470   0.05510  -0.09552   0.16417   0.13792
  65   36849.1    271.4   0.002473439   0.02210  -0.03843   0.02184  -0.14193
  66   36929.1    270.8   0.053963766   0.48107  -0.12043   0.42669  -0.53339
  67   37188.3    268.9   0.120943480   1.07066   0.54136   0.03168   0.88124
  68   37460.6    266.9   0.093363637   0.82050  -0.23560   0.73100  -0.48025
  69   37660.7    265.5   0.389845412   3.40784   0.99174  -1.53446   0.26405
  70   37976.4    263.3   0.008316033   0.07209   0.16523  -0.20582  -0.04928
  71   38049.8    262.8   0.485427178   4.19998  -0.79351   1.26359  -1.40487
  72   38233.9    261.5   0.102622848   0.88363   0.07086  -0.09774  -0.93223
  73   38529.1    259.5   0.042638569   0.36433   0.17640  -0.56707  -0.10787
  74   38613.7    259.0   0.007413442   0.06321  -0.02111   0.21701  -0.12517
  75   38708.0    258.3   0.007416300   0.06308   0.10998  -0.17291   0.14519
  76   39332.6    254.2   0.029170042   0.24415   0.04700   0.49186  -0.00451
  77   39534.6    252.9   0.042690425   0.35549   0.00451   0.42919   0.41385
  78   39687.1    252.0   0.016063158   0.13325   0.29393  -0.15860   0.14730
  79   39882.7    250.7   0.096262646   0.79460   0.06814   0.11840  -0.88087
  80   39954.5    250.3   0.036320378   0.29927   0.20549   0.37703   0.33895
  81   40226.2    248.6   0.038780783   0.31738  -0.32876   0.44709  -0.09703

FINAL SINGLE POINT ENERGY     -4322.735165020593

DIPOLE MOMENT
-------------
                                X             Y             Z
Electronic contribution:    -17.56274       6.22303     -23.13094
Nuclear contribution   :     18.80046      -8.21164      22.34650
                        -----------------------------------------
Total Dipole Moment    :      1.23772      -1.98861      -0.78444
                        -----------------------------------------
Magnitude (a.u.)       :      2.47020
Magnitude (Debye)      :      6.27874

Rotational constants in cm-1:     0.000903     0.000457     0.000329
Rotational constants in MHz :    27.085452    13.699926     9.865727

                             ****ORCA TERMINATED NORMALLY****
TOTAL RUN TIME: 0 days 0 hours 15 minutes 31 seconds 533 msec
