                         Program Version 4.2.0 -  RELEASE  -
|  1> # ORCA input file
|  2> # SCF done       -184.680471907516          0.002090592605
|  3> ! CAM-B3LYP def2-SVP def2/J RIJCOSX Grid4 TightSCF
|  4> %maxcore 5000
|  5> %tddft
|  6>     Mode sTDDFT
|  7>     Ethresh 5.0
|  8>     maxcore 5000
|  9> end
| 10>
| 11> %pal
| 12>   nprocs 6
| 13>   end
| 14> * xyz 0 1
| 15>    C        4.62764         5.24649        -2.31609
| 16>    C        4.95763         4.37449        -1.31192
| 17>    C        6.17572         3.66304        -1.25930
| 18>    N        7.14695         3.05947        -1.15987
| 19>    C        4.13381         4.02098        -0.22161
| 20>    N        3.51891         3.67276         0.68386
| 21>    C        5.44239         5.52528        -3.49117
| 22>    C        4.67292         6.31021        -4.39526
| 23>    C        5.16992         6.72576        -5.59747
| 24>    C        6.49133         6.37586        -5.95289
| 25>    C        7.27276         5.59874        -5.04903
| 26>    C        6.72759         5.17738        -3.81439
| 27>    C        8.59326         5.26201        -5.41019
| 28>    C        9.11789         5.67169        -6.60614
| 29>    C        8.34740         6.43637        -7.49525
| 30>    C        7.06179         6.78042        -7.17606
| 31>    C        3.34622         6.57536        -3.81687
| 32>    O        2.43819         7.16634        -4.36293
| 33>    C        3.38082         5.98941        -2.45121
| 34>    C        2.51572         6.19687        -1.41626
| 35>    C        1.27983         6.88087        -1.35953
| 36>    S        0.58696         7.12450         0.23406
| 37>    C       -0.78914         7.94630        -0.41211
| 38>    C       -0.70715         8.00034        -1.81370
| 39>    C        0.44836         7.40300        -2.33112
| 40>    C       -1.67270         8.58712        -2.64680
| 41>    N       -2.46175         9.06117        -3.33417
| 42>    C       -1.77022         8.45838         0.47022
| 43>    C       -2.87748         9.14856         0.09482
| 44>    C       -3.82022         9.69184         0.99827
| 45>    S       -3.63157         9.55425         2.72525
| 46>    C       -4.95818        10.41183         0.67328
| 47>    O       -5.36869        10.68877        -0.59247
| 48>    C       -5.68731        10.87406         1.80456
| 49>    N       -6.83040        11.59245         1.75878
| 50>    N       -7.67444        11.65507         0.64439
| 51>    C       -5.05868        10.51413         3.01613
| 52>    C       -5.41369        10.85642         4.33074
| 53>    C       -6.28454        11.84143         4.78191
| 54>    C       -6.30181        11.84187         6.19031
| 55>    C       -5.38861        10.76568         6.61705
| 56>    C       -4.86066        10.19650         5.50333
| 57>    C       -5.11214        10.37362         7.93098
| 58>    N       -4.86199        10.03075         8.99824
| 59>    C       -7.00525        12.70591         7.01457
| 60>    C       -6.92559        12.81996         8.42252
| 61>    C       -7.73822        13.86192         8.84281
| 62>    C       -8.38369        14.41600         7.66908
| 63>    C       -7.95704        13.73559         6.56871
| 64>    C       -8.38064        13.95198         5.25678
| 65>    N       -8.73576        14.11679         4.17426
| 66>    C       -7.91333        14.38960        10.14486
| 67>    C       -7.38213        13.84657        11.27628
| 68>    C       -7.49576        14.38419        12.57865
| 69>    C       -7.61335        15.69965        12.94391
| 70>    C       -7.78498        16.16337        14.30718
| 71>    C       -8.30393        15.43372        15.34622
| 72>    C       -8.47719        15.93685        16.65148
| 73>    N       -8.63390        16.28817        17.73348
| 74>    C       -8.77895        14.11009        15.23600
| 75>    N       -9.20976        13.04583        15.21074
| 76>    C       -7.40584        17.56931        14.35783
| 77>    C       -7.10035        17.99648        13.03507
| 78>    C       -7.28008        16.87417        12.09496
| 79>    O       -7.13220        16.92236        10.89199
| 80>    C       -6.71060        19.27550        12.76173
| 81>    C       -6.60674        20.20447        13.82143
| 82>    C       -6.90566        19.78333        15.14920
| 83>    C       -7.30643        18.45068        15.40106
| 84>    C       -6.79480        20.71811        16.19848
| 85>    C       -6.40999        22.00757        15.95022
| 86>    C       -6.11670        22.42125        14.64233
| 87>    C       -6.21322        21.53889        13.60072
| 88>    H        4.56283         7.31783        -6.26626
| 89>    H        7.34700         4.59623        -3.15013
| 90>    H        9.18153         4.67161        -4.72304
| 91>    H       10.13028         5.40882        -6.87360
| 92>    H        8.77783         6.75217        -8.43396
| 93>    H        6.46401         7.36940        -7.85634
| 94>    H        2.82376         5.80908        -0.45186
| 95>    H        0.67341         7.36059        -3.38175
| 96>    H       -1.59574         8.28774         1.52491
| 97>    H       -3.05502         9.31740        -0.95829
| 98>    H       -4.76784        10.30535        -1.24382
| 99>    H       -7.34219        11.68494         2.62915
|100>    H       -7.15320        11.43990        -0.20095
|101>    H       -8.07581        12.58789         0.58642
|102>    H       -6.78135        12.58443         4.19373
|103>    H       -4.16656         9.37743         5.46581
|104>    H       -6.30344        12.20694         9.04383
|105>    H       -9.08182        15.23250         7.68482
|106>    H       -8.53123        15.27165        10.21941
|107>    H       -6.88192        12.88954        11.20621
|108>    H       -7.40745        13.65991        13.38142
|109>    H       -6.48526        19.57556        11.74900
|110>    H       -7.51758        18.15852        16.41762
|111>    H       -7.02295        20.39502        17.20360
|112>    H       -6.32952        22.71640        16.76076
|113>    H       -5.81368        23.44227        14.46432
|114>    H       -5.98819        21.85140        12.59138
|115> *
|116>
|117>                          ****END OF INPUT****

CARTESIAN COORDINATES (ANGSTROEM)
---------------------------------
  C      4.627640    5.246490   -2.316090
  C      4.957630    4.374490   -1.311920
  C      6.175720    3.663040   -1.259300
  N      7.146950    3.059470   -1.159870
  C      4.133810    4.020980   -0.221610
  N      3.518910    3.672760    0.683860
  C      5.442390    5.525280   -3.491170
  C      4.672920    6.310210   -4.395260
  C      5.169920    6.725760   -5.597470
  C      6.491330    6.375860   -5.952890
  C      7.272760    5.598740   -5.049030
  C      6.727590    5.177380   -3.814390
  C      8.593260    5.262010   -5.410190
  C      9.117890    5.671690   -6.606140
  C      8.347400    6.436370   -7.495250
  C      7.061790    6.780420   -7.176060
  C      3.346220    6.575360   -3.816870
  O      2.438190    7.166340   -4.362930
  C      3.380820    5.989410   -2.451210
  C      2.515720    6.196870   -1.416260
  C      1.279830    6.880870   -1.359530
  S      0.586960    7.124500    0.234060
  C     -0.789140    7.946300   -0.412110
  C     -0.707150    8.000340   -1.813700
  C      0.448360    7.403000   -2.331120
  C     -1.672700    8.587120   -2.646800
  N     -2.461750    9.061170   -3.334170
  C     -1.770220    8.458380    0.470220
  C     -2.877480    9.148560    0.094820
  C     -3.820220    9.691840    0.998270
  S     -3.631570    9.554250    2.725250
  C     -4.958180   10.411830    0.673280
  O     -5.368690   10.688770   -0.592470
  C     -5.687310   10.874060    1.804560
  N     -6.830400   11.592450    1.758780
  N     -7.674440   11.655070    0.644390
  C     -5.058680   10.514130    3.016130
  C     -5.413690   10.856420    4.330740
  C     -6.284540   11.841430    4.781910
  C     -6.301810   11.841870    6.190310
  C     -5.388610   10.765680    6.617050
  C     -4.860660   10.196500    5.503330
  C     -5.112140   10.373620    7.930980
  N     -4.861990   10.030750    8.998240
  C     -7.005250   12.705910    7.014570
  C     -6.925590   12.819960    8.422520
  C     -7.738220   13.861920    8.842810
  C     -8.383690   14.416000    7.669080
  C     -7.957040   13.735590    6.568710
  C     -8.380640   13.951980    5.256780
  N     -8.735760   14.116790    4.174260
  C     -7.913330   14.389600   10.144860
  C     -7.382130   13.846570   11.276280
  C     -7.495760   14.384190   12.578650
  C     -7.613350   15.699650   12.943910
  C     -7.784980   16.163370   14.307180
  C     -8.303930   15.433720   15.346220
  C     -8.477190   15.936850   16.651480
  N     -8.633900   16.288170   17.733480
  C     -8.778950   14.110090   15.236000
  N     -9.209760   13.045830   15.210740
  C     -7.405840   17.569310   14.357830
  C     -7.100350   17.996480   13.035070
  C     -7.280080   16.874170   12.094960
  O     -7.132200   16.922360   10.891990
  C     -6.710600   19.275500   12.761730
  C     -6.606740   20.204470   13.821430
  C     -6.905660   19.783330   15.149200
  C     -7.306430   18.450680   15.401060
  C     -6.794800   20.718110   16.198480
  C     -6.409990   22.007570   15.950220
  C     -6.116700   22.421250   14.642330
  C     -6.213220   21.538890   13.600720
  H      4.562830    7.317830   -6.266260
  H      7.347000    4.596230   -3.150130
  H      9.181530    4.671610   -4.723040
  H     10.130280    5.408820   -6.873600
  H      8.777830    6.752170   -8.433960
  H      6.464010    7.369400   -7.856340
  H      2.823760    5.809080   -0.451860
  H      0.673410    7.360590   -3.381750
  H     -1.595740    8.287740    1.524910
  H     -3.055020    9.317400   -0.958290
  H     -4.767840   10.305350   -1.243820
  H     -7.342190   11.684940    2.629150
  H     -7.153200   11.439900   -0.200950
  H     -8.075810   12.587890    0.586420
  H     -6.781350   12.584430    4.193730
  H     -4.166560    9.377430    5.465810
  H     -6.303440   12.206940    9.043830
  H     -9.081820   15.232500    7.684820
  H     -8.531230   15.271650   10.219410
  H     -6.881920   12.889540   11.206210
  H     -7.407450   13.659910   13.381420
  H     -6.485260   19.575560   11.749000
  H     -7.517580   18.158520   16.417620
  H     -7.022950   20.395020   17.203600
  H     -6.329520   22.716400   16.760760
  H     -5.813680   23.442270   14.464320
  H     -5.988190   21.851400   12.591380

 Total Charge           Charge          ....    0
 Multiplicity           Mult            ....    1
 Number of Electrons    NEL             ....  500
 Basis Dimension        Dim             .... 1165

ORBITAL ENERGIES
----------------

  NO   OCC          E(Eh)            E(eV)
   0   2.0000     -88.994799     -2421.6716
   1   2.0000     -88.975156     -2421.1371
   2   2.0000     -19.294363      -525.0263
   3   2.0000     -19.229883      -523.2717
   4   2.0000     -19.210005      -522.7308
   5   2.0000     -14.491098      -394.3228
   6   2.0000     -14.445893      -393.0927
   7   2.0000     -14.431031      -392.6883
   8   2.0000     -14.424652      -392.5147
   9   2.0000     -14.421561      -392.4306
  10   2.0000     -14.413944      -392.2234
  11   2.0000     -14.407423      -392.0459
  12   2.0000     -14.407200      -392.0398
  13   2.0000     -14.405617      -391.9968
  14   2.0000     -10.380755      -282.4747
  15   2.0000     -10.376863      -282.3688
  16   2.0000     -10.361975      -281.9637
  17   2.0000     -10.359917      -281.9077
  18   2.0000     -10.357569      -281.8438
  19   2.0000     -10.350977      -281.6644
  20   2.0000     -10.349551      -281.6256
  21   2.0000     -10.337580      -281.2999
  22   2.0000     -10.337138      -281.2878
  23   2.0000     -10.334883      -281.2265
  24   2.0000     -10.334865      -281.2260
  25   2.0000     -10.333279      -281.1828
  26   2.0000     -10.332958      -281.1741
  27   2.0000     -10.331504      -281.1345
  28   2.0000     -10.328199      -281.0446
  29   2.0000     -10.327463      -281.0245
  30   2.0000     -10.327279      -281.0196
  31   2.0000     -10.324260      -280.9374
  32   2.0000     -10.323990      -280.9301
  33   2.0000     -10.323812      -280.9252
  34   2.0000     -10.320749      -280.8419
  35   2.0000     -10.318461      -280.7796
  36   2.0000     -10.316059      -280.7142
  37   2.0000     -10.315186      -280.6905
  38   2.0000     -10.314757      -280.6788
  39   2.0000     -10.314143      -280.6621
  40   2.0000     -10.311465      -280.5892
  41   2.0000     -10.310311      -280.5578
  42   2.0000     -10.310193      -280.5546
  43   2.0000     -10.309723      -280.5418
  44   2.0000     -10.309691      -280.5409
  45   2.0000     -10.308673      -280.5132
  46   2.0000     -10.304744      -280.4063
  47   2.0000     -10.304581      -280.4019
  48   2.0000     -10.304331      -280.3951
  49   2.0000     -10.304128      -280.3896
  50   2.0000     -10.303994      -280.3859
  51   2.0000     -10.297280      -280.2032
  52   2.0000     -10.297152      -280.1998
  53   2.0000     -10.296525      -280.1827
  54   2.0000     -10.296186      -280.1735
  55   2.0000     -10.292922      -280.0846
  56   2.0000     -10.292528      -280.0739
  57   2.0000     -10.292444      -280.0716
  58   2.0000     -10.292238      -280.0660
  59   2.0000     -10.292121      -280.0629
  60   2.0000     -10.291649      -280.0500
  61   2.0000     -10.290978      -280.0317
  62   2.0000     -10.290930      -280.0304
  63   2.0000     -10.290789      -280.0266
  64   2.0000     -10.288865      -279.9743
  65   2.0000     -10.282812      -279.8095
  66   2.0000     -10.282696      -279.8064
  67   2.0000     -10.282471      -279.8003
  68   2.0000     -10.282174      -279.7922
  69   2.0000     -10.281665      -279.7783
  70   2.0000     -10.281297      -279.7683
  71   2.0000     -10.280764      -279.7538
  72   2.0000     -10.278240      -279.6851
  73   2.0000      -8.090542      -220.1548
  74   2.0000      -8.070583      -219.6117
  75   2.0000      -6.059625      -164.8908
  76   2.0000      -6.055570      -164.7804
  77   2.0000      -6.052864      -164.7068
  78   2.0000      -6.040305      -164.3651
  79   2.0000      -6.036449      -164.2601
  80   2.0000      -6.031505      -164.1256
  81   2.0000      -1.187931       -32.3252
  82   2.0000      -1.144743       -31.1500
  83   2.0000      -1.125076       -30.6149
  84   2.0000      -1.109380       -30.1878
  85   2.0000      -1.034095       -28.1392
  86   2.0000      -1.026462       -27.9315
  87   2.0000      -1.021013       -27.7832
  88   2.0000      -1.009908       -27.4810
  89   2.0000      -1.009820       -27.4786
  90   2.0000      -1.008359       -27.4388
  91   2.0000      -1.006541       -27.3894
  92   2.0000      -1.001155       -27.2428
  93   2.0000      -0.999355       -27.1938
  94   2.0000      -0.991300       -26.9746
  95   2.0000      -0.987028       -26.8584
  96   2.0000      -0.984969       -26.8024
  97   2.0000      -0.979392       -26.6506
  98   2.0000      -0.978090       -26.6152
  99   2.0000      -0.965567       -26.2744
 100   2.0000      -0.948331       -25.8054
 101   2.0000      -0.933765       -25.4090
 102   2.0000      -0.923828       -25.1386
 103   2.0000      -0.922233       -25.0952
 104   2.0000      -0.910514       -24.7763
 105   2.0000      -0.908019       -24.7085
 106   2.0000      -0.894092       -24.3295
 107   2.0000      -0.889999       -24.2181
 108   2.0000      -0.888086       -24.1660
 109   2.0000      -0.884169       -24.0595
 110   2.0000      -0.876940       -23.8628
 111   2.0000      -0.875090       -23.8124
 112   2.0000      -0.864107       -23.5135
 113   2.0000      -0.850711       -23.1490
 114   2.0000      -0.848947       -23.1010
 115   2.0000      -0.839097       -22.8330
 116   2.0000      -0.835403       -22.7325
 117   2.0000      -0.823956       -22.4210
 118   2.0000      -0.822430       -22.3795
 119   2.0000      -0.815453       -22.1896
 120   2.0000      -0.799313       -21.7504
 121   2.0000      -0.789718       -21.4893
 122   2.0000      -0.771639       -20.9974
 123   2.0000      -0.770578       -20.9685
 124   2.0000      -0.761499       -20.7214
 125   2.0000      -0.754221       -20.5234
 126   2.0000      -0.744028       -20.2460
 127   2.0000      -0.731005       -19.8917
 128   2.0000      -0.727367       -19.7927
 129   2.0000      -0.713786       -19.4231
 130   2.0000      -0.713413       -19.4130
 131   2.0000      -0.711418       -19.3587
 132   2.0000      -0.705860       -19.2074
 133   2.0000      -0.698363       -19.0034
 134   2.0000      -0.696740       -18.9592
 135   2.0000      -0.693289       -18.8653
 136   2.0000      -0.689016       -18.7491
 137   2.0000      -0.679735       -18.4965
 138   2.0000      -0.677042       -18.4232
 139   2.0000      -0.674860       -18.3639
 140   2.0000      -0.664829       -18.0909
 141   2.0000      -0.662530       -18.0283
 142   2.0000      -0.650394       -17.6981
 143   2.0000      -0.646818       -17.6008
 144   2.0000      -0.640791       -17.4368
 145   2.0000      -0.637833       -17.3563
 146   2.0000      -0.633912       -17.2496
 147   2.0000      -0.624945       -17.0056
 148   2.0000      -0.621891       -16.9225
 149   2.0000      -0.613574       -16.6962
 150   2.0000      -0.607255       -16.5242
 151   2.0000      -0.601053       -16.3555
 152   2.0000      -0.599563       -16.3149
 153   2.0000      -0.591085       -16.0843
 154   2.0000      -0.590263       -16.0619
 155   2.0000      -0.587114       -15.9762
 156   2.0000      -0.582722       -15.8567
 157   2.0000      -0.570346       -15.5199
 158   2.0000      -0.569982       -15.5100
 159   2.0000      -0.559890       -15.2354
 160   2.0000      -0.557512       -15.1707
 161   2.0000      -0.556413       -15.1408
 162   2.0000      -0.553750       -15.0683
 163   2.0000      -0.551050       -14.9948
 164   2.0000      -0.547680       -14.9031
 165   2.0000      -0.544232       -14.8093
 166   2.0000      -0.541777       -14.7425
 167   2.0000      -0.541330       -14.7304
 168   2.0000      -0.536939       -14.6108
 169   2.0000      -0.533729       -14.5235
 170   2.0000      -0.532302       -14.4847
 171   2.0000      -0.531346       -14.4587
 172   2.0000      -0.530085       -14.4243
 173   2.0000      -0.528665       -14.3857
 174   2.0000      -0.523218       -14.2375
 175   2.0000      -0.522928       -14.2296
 176   2.0000      -0.520446       -14.1621
 177   2.0000      -0.518460       -14.1080
 178   2.0000      -0.516867       -14.0647
 179   2.0000      -0.514300       -13.9948
 180   2.0000      -0.513270       -13.9668
 181   2.0000      -0.507339       -13.8054
 182   2.0000      -0.506588       -13.7850
 183   2.0000      -0.504195       -13.7198
 184   2.0000      -0.501239       -13.6394
 185   2.0000      -0.499047       -13.5798
 186   2.0000      -0.496541       -13.5116
 187   2.0000      -0.495167       -13.4742
 188   2.0000      -0.492028       -13.3888
 189   2.0000      -0.490891       -13.3578
 190   2.0000      -0.490023       -13.3342
 191   2.0000      -0.489297       -13.3145
 192   2.0000      -0.485502       -13.2112
 193   2.0000      -0.480117       -13.0647
 194   2.0000      -0.477529       -12.9942
 195   2.0000      -0.472923       -12.8689
 196   2.0000      -0.470014       -12.7897
 197   2.0000      -0.468623       -12.7519
 198   2.0000      -0.464492       -12.6395
 199   2.0000      -0.463395       -12.6096
 200   2.0000      -0.461240       -12.5510
 201   2.0000      -0.458160       -12.4672
 202   2.0000      -0.456155       -12.4126
 203   2.0000      -0.454734       -12.3739
 204   2.0000      -0.450805       -12.2670
 205   2.0000      -0.447207       -12.1691
 206   2.0000      -0.446632       -12.1535
 207   2.0000      -0.446216       -12.1421
 208   2.0000      -0.444265       -12.0891
 209   2.0000      -0.441726       -12.0200
 210   2.0000      -0.441153       -12.0044
 211   2.0000      -0.440782       -11.9943
 212   2.0000      -0.440294       -11.9810
 213   2.0000      -0.439464       -11.9584
 214   2.0000      -0.437190       -11.8965
 215   2.0000      -0.436444       -11.8762
 216   2.0000      -0.433986       -11.8093
 217   2.0000      -0.433554       -11.7976
 218   2.0000      -0.428005       -11.6466
 219   2.0000      -0.427491       -11.6326
 220   2.0000      -0.426517       -11.6061
 221   2.0000      -0.425070       -11.5667
 222   2.0000      -0.423952       -11.5363
 223   2.0000      -0.418601       -11.3907
 224   2.0000      -0.418163       -11.3788
 225   2.0000      -0.414813       -11.2876
 226   2.0000      -0.412434       -11.2229
 227   2.0000      -0.409796       -11.1511
 228   2.0000      -0.404602       -11.0098
 229   2.0000      -0.399629       -10.8745
 230   2.0000      -0.396820       -10.7980
 231   2.0000      -0.388253       -10.5649
 232   2.0000      -0.382088       -10.3971
 233   2.0000      -0.375494       -10.2177
 234   2.0000      -0.368191       -10.0190
 235   2.0000      -0.356366        -9.6972
 236   2.0000      -0.353211        -9.6114
 237   2.0000      -0.349723        -9.5165
 238   2.0000      -0.345644        -9.4055
 239   2.0000      -0.335641        -9.1333
 240   2.0000      -0.329328        -8.9615
 241   2.0000      -0.324424        -8.8280
 242   2.0000      -0.317139        -8.6298
 243   2.0000      -0.310543        -8.4503
 244   2.0000      -0.309717        -8.4278
 245   2.0000      -0.300111        -8.1664
 246   2.0000      -0.290251        -7.8981
 247   2.0000      -0.278348        -7.5742
 248   2.0000      -0.273194        -7.4340
 249   2.0000      -0.244439        -6.6515
 250   0.0000      -0.133368        -3.6291
 251   0.0000      -0.106120        -2.8877
 252   0.0000      -0.079019        -2.1502
 253   0.0000      -0.071931        -1.9573
 254   0.0000      -0.061032        -1.6608

MULLIKEN ATOMIC CHARGES
-----------------------
   0 C :    0.301336
   1 C :   -0.346027
   2 C :   -0.180572
   3 N :    0.152121
   4 C :   -0.197043
   5 N :    0.158988
   6 C :    0.051207
   7 C :   -0.000196
   8 C :   -0.082968
   9 C :    0.100854
  10 C :    0.097683
  11 C :   -0.084795
  12 C :   -0.021664
  13 C :    0.038952
  14 C :    0.039095
  15 C :   -0.018786
  16 C :    0.162025
  17 O :   -0.155193
  18 C :   -0.085031
  19 C :    0.053730
  20 C :   -0.104721
  21 S :    0.180430
  22 C :   -0.044318
  23 C :   -0.089941
  24 C :    0.038441
  25 C :   -0.148105
  26 N :    0.097662
  27 C :    0.031134
  28 C :   -0.002225
  29 C :   -0.092188
  30 S :    0.111336
  31 C :    0.081598
  32 O :   -0.191179
  33 C :    0.153397
  34 N :   -0.074251
  35 N :   -0.082030
  36 C :   -0.150229
  37 C :    0.105435
  38 C :   -0.211728
  39 C :    0.135851
  40 C :   -0.083588
  41 C :   -0.028634
  42 C :   -0.174586
  43 N :    0.144033
  44 C :    0.093891
  45 C :   -0.100166
  46 C :    0.073182
  47 C :   -0.001537
  48 C :   -0.100710
  49 C :   -0.169397
  50 N :    0.097550
  51 C :    0.094011
  52 C :   -0.013335
  53 C :    0.010739
  54 C :   -0.102452
  55 C :    0.289426
  56 C :   -0.342670
  57 C :   -0.177590
  58 N :    0.141297
  59 C :   -0.212056
  60 N :    0.162253
  61 C :    0.054161
  62 C :   -0.002998
  63 C :    0.148856
  64 O :   -0.156383
  65 C :   -0.084421
  66 C :    0.099495
  67 C :    0.097076
  68 C :   -0.087352
  69 C :   -0.019837
  70 C :    0.034314
  71 C :    0.036949
  72 C :   -0.018120
  73 H :   -0.010614
  74 H :   -0.005132
  75 H :   -0.006774
  76 H :   -0.002688
  77 H :   -0.003299
  78 H :   -0.014920
  79 H :    0.014711
  80 H :    0.029438
  81 H :    0.001422
  82 H :   -0.030161
  83 H :    0.204771
  84 H :    0.157822
  85 H :    0.124177
  86 H :    0.132362
  87 H :   -0.009293
  88 H :    0.009066
  89 H :    0.001715
  90 H :   -0.004352
  91 H :    0.002855
  92 H :    0.010991
  93 H :    0.034447
  94 H :   -0.015967
  95 H :   -0.007997
  96 H :   -0.010255
  97 H :   -0.005263
  98 H :   -0.007078
  99 H :   -0.019467
Sum of atomic charges:   -0.0000000

LOEWDIN ATOMIC CHARGES
----------------------
   0 C :    0.076000
   1 C :   -0.137433
   2 C :   -0.017254
   3 N :   -0.049290
   4 C :   -0.025665
   5 N :   -0.048712
   6 C :   -0.026878
   7 C :   -0.056451
   8 C :    0.034033
   9 C :   -0.007831
  10 C :   -0.005355
  11 C :    0.021071
  12 C :   -0.004791
  13 C :   -0.011093
  14 C :   -0.010207
  15 C :   -0.008994
  16 C :    0.089092
  17 O :   -0.140458
  18 C :   -0.084389
  19 C :    0.043859
  20 C :   -0.179523
  21 S :    0.486279
  22 C :   -0.120922
  23 C :   -0.118017
  24 C :    0.023176
  25 C :   -0.017815
  26 N :   -0.068825
  27 C :   -0.052791
  28 C :   -0.011843
  29 C :   -0.197860
  30 S :    0.415006
  31 C :    0.016157
  32 O :   -0.037904
  33 C :    0.000343
  34 N :    0.069635
  35 N :   -0.030913
  36 C :   -0.197021
  37 C :   -0.017964
  38 C :   -0.093487
  39 C :    0.051985
  40 C :   -0.065745
  41 C :    0.044191
  42 C :   -0.029634
  43 N :   -0.055120
  44 C :    0.007863
  45 C :   -0.001864
  46 C :   -0.038844
  47 C :    0.049105
  48 C :   -0.096676
  49 C :   -0.019823
  50 N :   -0.094507
  51 C :    0.059166
  52 C :   -0.038486
  53 C :    0.069160
  54 C :   -0.096418
  55 C :    0.074335
  56 C :   -0.141843
  57 C :   -0.017091
  58 N :   -0.057796
  59 C :   -0.026898
  60 N :   -0.052444
  61 C :   -0.025251
  62 C :   -0.053801
  63 C :    0.082069
  64 O :   -0.144545
  65 C :    0.029258
  66 C :   -0.009071
  67 C :   -0.006748
  68 C :    0.017696
  69 C :   -0.005958
  70 C :   -0.015031
  71 C :   -0.014121
  72 C :   -0.010628
  73 H :    0.039594
  74 H :    0.039602
  75 H :    0.035466
  76 H :    0.034139
  77 H :    0.033706
  78 H :    0.032607
  79 H :    0.044205
  80 H :    0.043640
  81 H :    0.029331
  82 H :    0.031598
  83 H :    0.106482
  84 H :    0.088223
  85 H :    0.053829
  86 H :    0.072477
  87 H :    0.023655
  88 H :    0.033172
  89 H :    0.031993
  90 H :    0.036330
  91 H :    0.036456
  92 H :    0.037996
  93 H :    0.047708
  94 H :    0.037613
  95 H :    0.038743
  96 H :    0.034292
  97 H :    0.032691
  98 H :    0.031974
  99 H :    0.031027

  Mayer bond orders larger than 0.100000
B(  0-C ,  1-C ) :   1.6370 B(  0-C ,  6-C ) :   0.9883 B(  0-C , 18-C ) :   1.0626
B(  1-C ,  2-C ) :   1.1467 B(  1-C ,  4-C ) :   1.1354 B(  2-C ,  3-N ) :   2.9686
B(  4-C ,  5-N ) :   2.9874 B(  6-C ,  7-C ) :   1.2135 B(  6-C , 11-C ) :   1.4489
B(  7-C ,  8-C ) :   1.4672 B(  7-C , 16-C ) :   0.9571 B(  8-C ,  9-C ) :   1.1817
B(  8-C , 73-H ) :   1.0162 B(  9-C , 10-C ) :   1.2518 B(  9-C , 15-C ) :   1.2436
B( 10-C , 11-C ) :   1.2069 B( 10-C , 12-C ) :   1.2418 B( 11-C , 74-H ) :   0.9904
B( 12-C , 13-C ) :   1.4896 B( 12-C , 75-H ) :   0.9969 B( 13-C , 14-C ) :   1.2590
B( 13-C , 76-H ) :   0.9887 B( 14-C , 15-C ) :   1.4895 B( 14-C , 77-H ) :   0.9889
B( 15-C , 78-H ) :   0.9978 B( 16-C , 17-O ) :   2.1678 B( 16-C , 18-C ) :   0.9347
B( 18-C , 19-C ) :   1.6280 B( 19-C , 20-C ) :   1.1825 B( 19-C , 79-H ) :   0.9165
B( 20-C , 21-S ) :   1.0981 B( 20-C , 24-C ) :   1.4456 B( 21-S , 22-C ) :   1.1767
B( 22-C , 23-C ) :   1.3953 B( 22-C , 27-C ) :   1.1672 B( 23-C , 24-C ) :   1.2982
B( 23-C , 25-C ) :   1.1171 B( 24-C , 80-H ) :   0.9796 B( 25-C , 26-N ) :   2.9560
B( 27-C , 28-C ) :   1.6496 B( 27-C , 81-H ) :   0.9517 B( 28-C , 29-C ) :   1.1715
B( 28-C , 82-H ) :   0.9486 B( 29-C , 30-S ) :   1.0574 B( 29-C , 31-C ) :   1.4626
B( 29-C , 36-C ) :   0.1117 B( 30-S , 36-C ) :   1.0621 B( 31-C , 32-O ) :   1.2003
B( 31-C , 33-C ) :   1.2054 B( 32-O , 83-H ) :   0.9461 B( 33-C , 34-N ) :   1.3125
B( 33-C , 36-C ) :   1.3490 B( 34-N , 35-N ) :   1.0150 B( 34-N , 84-H ) :   0.8893
B( 35-N , 85-H ) :   0.9520 B( 35-N , 86-H ) :   0.9583 B( 36-C , 37-C ) :   1.2269
B( 37-C , 38-C ) :   1.4340 B( 37-C , 41-C ) :   1.0218 B( 38-C , 39-C ) :   1.2287
B( 38-C , 87-H ) :   0.9777 B( 39-C , 40-C ) :   1.0998 B( 39-C , 44-C ) :   1.3214
B( 40-C , 41-C ) :   1.6973 B( 40-C , 42-C ) :   1.0785 B( 41-C , 88-H ) :   1.0137
B( 42-C , 43-N ) :   2.9759 B( 44-C , 45-C ) :   1.1782 B( 44-C , 48-C ) :   1.1324
B( 45-C , 46-C ) :   1.4775 B( 45-C , 89-H ) :   0.9952 B( 46-C , 47-C ) :   1.0723
B( 46-C , 51-C ) :   1.1514 B( 47-C , 48-C ) :   1.6124 B( 47-C , 90-H ) :   1.0249
B( 48-C , 49-C ) :   1.0947 B( 49-C , 50-N ) :   2.9519 B( 51-C , 52-C ) :   1.6113
B( 51-C , 91-H ) :   0.9562 B( 52-C , 53-C ) :   1.2081 B( 52-C , 92-H ) :   0.9566
B( 53-C , 54-C ) :   1.5723 B( 53-C , 93-H ) :   0.9489 B( 54-C , 55-C ) :   1.0689
B( 54-C , 63-C ) :   0.9457 B( 55-C , 56-C ) :   1.6381 B( 55-C , 61-C ) :   0.9895
B( 56-C , 57-C ) :   1.1434 B( 56-C , 59-C ) :   1.1393 B( 57-C , 58-N ) :   2.9667
B( 59-C , 60-N ) :   3.0093 B( 61-C , 62-C ) :   1.2127 B( 61-C , 68-C ) :   1.4526
B( 62-C , 63-C ) :   0.9482 B( 62-C , 65-C ) :   1.4745 B( 63-C , 64-O ) :   2.2009
B( 65-C , 66-C ) :   1.1773 B( 65-C , 94-H ) :   1.0165 B( 66-C , 67-C ) :   1.2573
B( 66-C , 72-C ) :   1.2449 B( 67-C , 68-C ) :   1.2021 B( 67-C , 69-C ) :   1.2415
B( 68-C , 95-H ) :   0.9921 B( 69-C , 70-C ) :   1.4881 B( 69-C , 96-H ) :   0.9975
B( 70-C , 71-C ) :   1.2597 B( 70-C , 97-H ) :   0.9893 B( 71-C , 72-C ) :   1.4885
B( 71-C , 98-H ) :   0.9886 B( 72-C , 99-H ) :   0.9978

-----------------------------------------------------------------------------
         ABSORPTION SPECTRUM VIA TRANSITION ELECTRIC DIPOLE MOMENTS
-----------------------------------------------------------------------------
State   Energy  Wavelength   fosc         T2         TX        TY        TZ
        (cm-1)    (nm)                  (au**2)     (au)      (au)      (au)
-----------------------------------------------------------------------------
   0    9241.4   1082.1   0.902494304  32.15012  -2.10998   2.58724   4.58304
   1   15006.3    666.4   0.097749259   2.14444   0.82278  -1.00763  -0.67241
   2   17061.7    586.1   0.469764983   9.06430  -2.40437   1.48212   1.04241
   3   18082.7    553.0   0.398697541   7.25864   2.25078  -0.97520  -1.11429
   4   21210.8    471.5   0.860823236  13.36082   1.65014  -1.61413  -2.83416
   5   21758.8    459.6   0.256876702   3.88655   1.79457  -0.37122   0.72683
   6   22555.7    443.3   0.111233334   1.62351  -0.46331  -0.49728  -1.07776
   7   23155.1    431.9   0.080851309   1.14952   0.93842  -0.49016   0.16919
   8   24001.8    416.6   0.007189079   0.09861  -0.05349   0.30014  -0.07525
   9   25169.6    397.3   0.082668684   1.08129   0.55983  -0.14042  -0.86496
  10   25931.1    385.6   0.164506114   2.08851   0.12751  -0.62794  -1.29535
  11   26165.4    382.2   0.045245369   0.56927   0.65398   0.17442  -0.33340
  12   27020.7    370.1   0.020272256   0.24699  -0.24905  -0.36175   0.23260
  13   27456.6    364.2   0.024264911   0.29094  -0.53371   0.00113  -0.07807
  14   27723.3    360.7   0.031054567   0.36877   0.01410   0.60706   0.00680
  15   27999.0    357.2   0.052970813   0.62283  -0.26302  -0.70174   0.24742
  16   28276.8    353.6   0.023058473   0.26846  -0.03926  -0.20903   0.47247
  17   28604.0    349.6   0.025444822   0.29285  -0.41700   0.33715   0.07280
  18   29185.0    342.6   0.083690161   0.94404  -0.23658  -0.93033  -0.15017
  19   29481.9    339.2   0.182032677   2.03268   0.68651  -0.45816  -1.16253
  20   30160.1    331.6   0.003388311   0.03699  -0.07242   0.12778   0.12415
  21   30212.3    331.0   0.287989564   3.13811   0.34224   1.63733   0.58322
  22   31160.1    320.9   0.037522291   0.39643  -0.16650  -0.47466   0.37869
  23   31620.2    316.3   0.016190825   0.16857  -0.30987  -0.00015  -0.26935
  24   31907.7    313.4   0.050046708   0.51636   0.58603  -0.39958  -0.11517
  25   32485.8    307.8   0.490000263   4.96568  -1.71237  -0.36061   1.37965
  26   32596.7    306.8   0.205258376   2.07301   0.27929  -0.34637   1.36932
  27   33141.5    301.7   0.049282818   0.48955  -0.07015   0.54306   0.43556
  28   33373.2    299.6   0.010599775   0.10456   0.25728  -0.12418  -0.15149
  29   33657.9    297.1   0.055125990   0.53919  -0.32951  -0.49826   0.42703
  30   34125.4    293.0   0.109123019   1.05272   0.50037   0.47102  -0.76190
  31   34422.9    290.5   0.064978180   0.62143   0.21251   0.32999   0.68365
  32   34602.0    289.0   0.028382205   0.27004  -0.02437   0.45613  -0.24776
  33   34753.3    287.7   0.087038527   0.82450  -0.10539   0.74735   0.50483
  34   34895.1    286.6   0.005544981   0.05231   0.08114  -0.11963  -0.17725
  35   34973.6    285.9   0.000486170   0.00458  -0.00325  -0.03491  -0.05785
  36   35195.4    284.1   0.273989640   2.56285   0.61335   1.45907  -0.24034
  37   35365.6    282.8   0.179242031   1.66853   0.38629   1.16422  -0.40485
  38   35706.4    280.1   0.113643307   1.04779   0.04864   0.81197  -0.62139
  39   36035.7    277.5   0.113059191   1.03288  -0.51078   0.09572   0.87339
  40   36179.7    276.4   0.092546189   0.84211  -0.44108  -0.19992   0.77948
  41   36789.8    271.8   0.001110796   0.00994   0.03056  -0.02156  -0.09242
  42   37077.4    269.7   0.072557904   0.64425   0.73964   0.02728   0.31054
  43   37182.0    268.9   0.350738385   3.10547   0.33013   1.14473  -1.29849
  44   37308.9    268.0   0.001675951   0.01479  -0.10455  -0.03627  -0.05043
  45   37915.2    263.7   0.032630771   0.28333  -0.38033   0.32744  -0.17737
  46   38396.5    260.4   0.063385566   0.54347   0.25345   0.65695  -0.21827
  47   38479.5    259.9   0.016240865   0.13895  -0.16750   0.00843  -0.33290
  48   38636.8    258.8   0.014247907   0.12140  -0.28893   0.19465   0.00587
  49   38808.9    257.7   0.051726884   0.43879  -0.06397   0.12208  -0.64792
  50   39011.7    256.3   0.044659459   0.37687  -0.00162  -0.10397   0.60503
  51   39375.8    254.0   0.089727717   0.75019   0.16281  -0.48945   0.69579
  52   39438.4    253.6   0.010590543   0.08840   0.03537  -0.27302  -0.11230
  53   39696.5    251.9   0.119404553   0.99025   0.80174  -0.27672   0.52047
  54   40011.9    249.9   0.157822972   1.29854   0.72574  -0.72687   0.49346
  55   40142.5    249.1   0.065043342   0.53343  -0.26630   0.00526  -0.68006

FINAL SINGLE POINT ENERGY     -3775.102865001695

DIPOLE MOMENT
-------------
                                X             Y             Z
Electronic contribution:      0.94676     -25.51006       0.19135
Nuclear contribution   :      1.73569      27.47341      -5.37637
                        -----------------------------------------
Total Dipole Moment    :      2.68246       1.96335      -5.18501
                        -----------------------------------------
Magnitude (a.u.)       :      6.15911
Magnitude (Debye)      :     15.65522

Rotational constants in cm-1:     0.001653     0.000170     0.000165
Rotational constants in MHz :    49.541450     5.106390     4.949283

                             ****ORCA TERMINATED NORMALLY****
TOTAL RUN TIME: 0 days 0 hours 11 minutes 9 seconds 534 msec
