                         Program Version 4.2.0 -  RELEASE  -
|  1> # ORCA input file
|  2> # SCF done       -193.454382374832          0.000526004519
|  3> ! CAM-B3LYP def2-SVP def2/J RIJCOSX Grid4 TightSCF
|  4> %maxcore 5000
|  5> %tddft
|  6>     Mode sTDDFT
|  7>     Ethresh 5.0
|  8>     maxcore 5000
|  9> end
| 10>
| 11> %pal
| 12>   nprocs 6
| 13>   end
| 14> * xyz 0 1
| 15>    C        4.36060         2.50707         1.38800
| 16>    C        4.22945         1.98917         2.65009
| 17>    C        5.20920         1.19070         3.27744
| 18>    N        5.96634         0.53949         3.84338
| 19>    C        3.09766         2.12666         3.48143
| 20>    N        2.20914         2.17596         4.20761
| 21>    C        5.48247         2.26438         0.49074
| 22>    C        5.15395         2.79082        -0.78990
| 23>    C        6.01165         2.70631        -1.84853
| 24>    C        7.26745         2.08511        -1.66796
| 25>    C        7.60869         1.56372        -0.38641
| 26>    C        6.69650         1.66156         0.68937
| 27>    C        8.86744         0.95223        -0.21597
| 28>    C        9.74727         0.85837        -1.25979
| 29>    C        9.40978         1.37131        -2.52120
| 30>    C        8.19602         1.97113        -2.72111
| 31>    C        3.81622         3.40430        -0.74625
| 32>    O        3.22988         3.89706        -1.68720
| 33>    C        3.37972         3.30948         0.67079
| 34>    C        2.35145         3.96630         1.28464
| 35>    C        1.30567         4.75328         0.75280
| 36>    S        0.32487         5.64998         1.89809
| 37>    C       -0.68308         6.29023         0.64845
| 38>    C       -0.26955         5.80329        -0.60121
| 39>    C        0.83860         4.94938        -0.53229
| 40>    C       -0.86476         6.11318        -1.83639
| 41>    N       -1.31539         6.33591        -2.86869
| 42>    C       -1.72701         7.18705         0.99898
| 43>    C       -2.62471         7.69030         0.11823
| 44>    C       -3.68705         8.62067         0.36232
| 45>    C       -3.92883         9.29618         1.58774
| 46>    O       -3.10358         9.03039         2.63006
| 47>    C       -3.29853         9.70596         3.85295
| 48>    C       -4.97439        10.19522         1.65273
| 49>    C       -5.83369        10.46475         0.57608
| 50>    C       -5.59491         9.78516        -0.64972
| 51>    C       -4.53474         8.90087        -0.71784
| 52>    O       -6.42376        10.05390        -1.68461
| 53>    C       -6.14294         9.56138        -2.98487
| 54>    C       -4.99892        10.30819        -3.66143
| 55>    C       -6.86535        11.43214         0.79319
| 56>    C       -7.92366        11.72889        -0.00509
| 57>    C       -8.86845        12.74293         0.29768
| 58>    C       -8.85958        13.67818         1.31229
| 59>    C       -9.99682        14.51762         1.19332
| 60>    C      -10.74914        14.02574         0.01654
| 61>    C      -10.06384        12.97892        -0.50580
| 62>    C      -11.94835        14.53482        -0.49233
| 63>    N      -12.93005        14.92527        -0.94407
| 64>    C      -10.32384        15.60096         1.97778
| 65>    C      -11.43441        16.48446         1.82067
| 66>    C      -11.32798        17.50958         2.73501
| 67>    C      -10.15971        17.25394         3.56198
| 68>    C       -9.55972        16.11355         3.12359
| 69>    C       -8.42851        15.52923         3.70157
| 70>    N       -7.50479        15.05727         4.19708
| 71>    C      -12.22790        18.60665         2.84360
| 72>    C      -11.89569        19.87764         3.20001
| 73>    C      -12.80620        20.98979         3.40609
| 74>    C      -14.15683        20.89809         3.61605
| 75>    C      -14.99779        22.00829         3.83884
| 76>    N      -15.73028        22.87361         4.01869
| 77>    C      -14.87796        19.68683         3.67992
| 78>    N      -15.52107        18.74017         3.77041
| 79>    C      -12.01486        22.21278         3.44070
| 80>    C      -10.63731        21.86601         3.33454
| 81>    C      -10.50303        20.40574         3.20142
| 82>    O       -9.47590        19.78222         3.04235
| 83>    C       -9.65270        22.81172         3.33880
| 84>    C      -10.00748        24.17449         3.45138
| 85>    C      -11.38361        24.53040         3.55304
| 86>    C      -12.38116        23.52868         3.54585
| 87>    C      -11.72590        25.89397         3.65772
| 88>    C      -10.75736        26.86055         3.66199
| 89>    C       -9.40291        26.50893         3.56186
| 90>    C       -9.03588        25.19449         3.45974
| 91>    H        5.73576         3.11124        -2.81093
| 92>    H        6.98726         1.26293         1.64825
| 93>    H        9.12222         0.55737         0.75659
| 94>    H       10.70883         0.38792        -1.11910
| 95>    H       10.11634         1.28916        -3.33352
| 96>    H        7.93043         2.36819        -3.68997
| 97>    H        2.32930         3.91322         2.36740
| 98>    H        1.28851         4.49524        -1.39653
| 99>    H       -1.77815         7.45604         2.04189
|100>    H       -2.55590         7.36112        -0.90993
|101>    H       -2.52220         9.33111         4.51813
|102>    H       -4.27947         9.48343         4.28255
|103>    H       -3.18349        10.78736         3.73734
|104>    H       -5.16678        10.72514         2.57194
|105>    H       -4.33003         8.37806        -1.63843
|106>    H       -7.07241         9.73112        -3.53560
|107>    H       -5.95243         8.48253        -2.96043
|108>    H       -5.22383        11.37120        -3.69974
|109>    H       -4.87279         9.93704        -4.67429
|110>    H       -4.06605        10.17329        -3.12000
|111>    H       -6.78171        11.97220         1.72822
|112>    H       -8.08555        11.17655        -0.91700
|113>    H       -8.11091        13.78987         2.07017
|114>    H      -10.34081        12.39988        -1.36794
|115>    H      -12.19081        16.39314         1.06532
|116>    H       -9.86033        17.84082         4.40824
|117>    H      -13.25193        18.39505         2.55839
|118>    H       -8.61530        22.52295         3.25623
|119>    H      -13.41447        23.82974         3.61566
|120>    H      -12.76992        26.15976         3.73540
|121>    H      -11.02977        27.90220         3.74234
|122>    H       -8.65191        27.28471         3.56552
|123>    H       -7.99467        24.91749         3.38196
|124> *
|125>
|126>                          ****END OF INPUT****

CARTESIAN COORDINATES (ANGSTROEM)
---------------------------------
  C      4.360600    2.507070    1.388000
  C      4.229450    1.989170    2.650090
  C      5.209200    1.190700    3.277440
  N      5.966340    0.539490    3.843380
  C      3.097660    2.126660    3.481430
  N      2.209140    2.175960    4.207610
  C      5.482470    2.264380    0.490740
  C      5.153950    2.790820   -0.789900
  C      6.011650    2.706310   -1.848530
  C      7.267450    2.085110   -1.667960
  C      7.608690    1.563720   -0.386410
  C      6.696500    1.661560    0.689370
  C      8.867440    0.952230   -0.215970
  C      9.747270    0.858370   -1.259790
  C      9.409780    1.371310   -2.521200
  C      8.196020    1.971130   -2.721110
  C      3.816220    3.404300   -0.746250
  O      3.229880    3.897060   -1.687200
  C      3.379720    3.309480    0.670790
  C      2.351450    3.966300    1.284640
  C      1.305670    4.753280    0.752800
  S      0.324870    5.649980    1.898090
  C     -0.683080    6.290230    0.648450
  C     -0.269550    5.803290   -0.601210
  C      0.838600    4.949380   -0.532290
  C     -0.864760    6.113180   -1.836390
  N     -1.315390    6.335910   -2.868690
  C     -1.727010    7.187050    0.998980
  C     -2.624710    7.690300    0.118230
  C     -3.687050    8.620670    0.362320
  C     -3.928830    9.296180    1.587740
  O     -3.103580    9.030390    2.630060
  C     -3.298530    9.705960    3.852950
  C     -4.974390   10.195220    1.652730
  C     -5.833690   10.464750    0.576080
  C     -5.594910    9.785160   -0.649720
  C     -4.534740    8.900870   -0.717840
  O     -6.423760   10.053900   -1.684610
  C     -6.142940    9.561380   -2.984870
  C     -4.998920   10.308190   -3.661430
  C     -6.865350   11.432140    0.793190
  C     -7.923660   11.728890   -0.005090
  C     -8.868450   12.742930    0.297680
  C     -8.859580   13.678180    1.312290
  C     -9.996820   14.517620    1.193320
  C    -10.749140   14.025740    0.016540
  C    -10.063840   12.978920   -0.505800
  C    -11.948350   14.534820   -0.492330
  N    -12.930050   14.925270   -0.944070
  C    -10.323840   15.600960    1.977780
  C    -11.434410   16.484460    1.820670
  C    -11.327980   17.509580    2.735010
  C    -10.159710   17.253940    3.561980
  C     -9.559720   16.113550    3.123590
  C     -8.428510   15.529230    3.701570
  N     -7.504790   15.057270    4.197080
  C    -12.227900   18.606650    2.843600
  C    -11.895690   19.877640    3.200010
  C    -12.806200   20.989790    3.406090
  C    -14.156830   20.898090    3.616050
  C    -14.997790   22.008290    3.838840
  N    -15.730280   22.873610    4.018690
  C    -14.877960   19.686830    3.679920
  N    -15.521070   18.740170    3.770410
  C    -12.014860   22.212780    3.440700
  C    -10.637310   21.866010    3.334540
  C    -10.503030   20.405740    3.201420
  O     -9.475900   19.782220    3.042350
  C     -9.652700   22.811720    3.338800
  C    -10.007480   24.174490    3.451380
  C    -11.383610   24.530400    3.553040
  C    -12.381160   23.528680    3.545850
  C    -11.725900   25.893970    3.657720
  C    -10.757360   26.860550    3.661990
  C     -9.402910   26.508930    3.561860
  C     -9.035880   25.194490    3.459740
  H      5.735760    3.111240   -2.810930
  H      6.987260    1.262930    1.648250
  H      9.122220    0.557370    0.756590
  H     10.708830    0.387920   -1.119100
  H     10.116340    1.289160   -3.333520
  H      7.930430    2.368190   -3.689970
  H      2.329300    3.913220    2.367400
  H      1.288510    4.495240   -1.396530
  H     -1.778150    7.456040    2.041890
  H     -2.555900    7.361120   -0.909930
  H     -2.522200    9.331110    4.518130
  H     -4.279470    9.483430    4.282550
  H     -3.183490   10.787360    3.737340
  H     -5.166780   10.725140    2.571940
  H     -4.330030    8.378060   -1.638430
  H     -7.072410    9.731120   -3.535600
  H     -5.952430    8.482530   -2.960430
  H     -5.223830   11.371200   -3.699740
  H     -4.872790    9.937040   -4.674290
  H     -4.066050   10.173290   -3.120000
  H     -6.781710   11.972200    1.728220
  H     -8.085550   11.176550   -0.917000
  H     -8.110910   13.789870    2.070170
  H    -10.340810   12.399880   -1.367940
  H    -12.190810   16.393140    1.065320
  H     -9.860330   17.840820    4.408240
  H    -13.251930   18.395050    2.558390
  H     -8.615300   22.522950    3.256230
  H    -13.414470   23.829740    3.615660
  H    -12.769920   26.159760    3.735400
  H    -11.029770   27.902200    3.742340
  H     -8.651910   27.284710    3.565520
  H     -7.994670   24.917490    3.381960

 Total Charge           Charge          ....    0
 Multiplicity           Mult            ....    1
 Number of Electrons    NEL             ....  514
 Basis Dimension        Dim             .... 1233

ORBITAL ENERGIES
----------------

  NO   OCC          E(Eh)            E(eV)
   0   2.0000     -88.981198     -2421.3015
   1   2.0000     -19.263976      -524.1995
   2   2.0000     -19.259813      -524.0862
   3   2.0000     -19.223260      -523.0915
   4   2.0000     -19.220905      -523.0274
   5   2.0000     -14.418143      -392.3376
   6   2.0000     -14.417564      -392.3219
   7   2.0000     -14.416946      -392.3051
   8   2.0000     -14.414765      -392.2457
   9   2.0000     -14.413339      -392.2069
  10   2.0000     -14.409985      -392.1156
  11   2.0000     -14.403502      -391.9392
  12   2.0000     -10.373776      -282.2848
  13   2.0000     -10.372098      -282.2391
  14   2.0000     -10.348441      -281.5954
  15   2.0000     -10.348177      -281.5882
  16   2.0000     -10.346754      -281.5495
  17   2.0000     -10.343643      -281.4648
  18   2.0000     -10.342673      -281.4385
  19   2.0000     -10.342511      -281.4340
  20   2.0000     -10.341817      -281.4152
  21   2.0000     -10.336866      -281.2804
  22   2.0000     -10.336344      -281.2662
  23   2.0000     -10.328841      -281.0621
  24   2.0000     -10.325343      -280.9669
  25   2.0000     -10.324245      -280.9370
  26   2.0000     -10.323680      -280.9216
  27   2.0000     -10.320447      -280.8336
  28   2.0000     -10.320095      -280.8241
  29   2.0000     -10.319887      -280.8184
  30   2.0000     -10.319643      -280.8118
  31   2.0000     -10.319497      -280.8078
  32   2.0000     -10.317817      -280.7621
  33   2.0000     -10.317742      -280.7600
  34   2.0000     -10.315232      -280.6917
  35   2.0000     -10.311943      -280.6022
  36   2.0000     -10.309841      -280.5450
  37   2.0000     -10.306998      -280.4677
  38   2.0000     -10.306637      -280.4578
  39   2.0000     -10.306254      -280.4474
  40   2.0000     -10.306006      -280.4407
  41   2.0000     -10.304916      -280.4110
  42   2.0000     -10.303844      -280.3818
  43   2.0000     -10.303633      -280.3761
  44   2.0000     -10.303432      -280.3706
  45   2.0000     -10.303123      -280.3622
  46   2.0000     -10.302836      -280.3544
  47   2.0000     -10.301208      -280.3101
  48   2.0000     -10.300994      -280.3043
  49   2.0000     -10.300617      -280.2940
  50   2.0000     -10.300207      -280.2829
  51   2.0000     -10.299813      -280.2722
  52   2.0000     -10.298915      -280.2477
  53   2.0000     -10.298763      -280.2436
  54   2.0000     -10.298575      -280.2385
  55   2.0000     -10.298515      -280.2368
  56   2.0000     -10.297848      -280.2187
  57   2.0000     -10.297684      -280.2142
  58   2.0000     -10.297270      -280.2030
  59   2.0000     -10.296537      -280.1830
  60   2.0000     -10.292828      -280.0821
  61   2.0000     -10.292706      -280.0788
  62   2.0000     -10.289715      -279.9974
  63   2.0000     -10.289695      -279.9968
  64   2.0000     -10.289163      -279.9824
  65   2.0000     -10.288797      -279.9724
  66   2.0000     -10.288267      -279.9580
  67   2.0000     -10.287649      -279.9412
  68   2.0000     -10.287321      -279.9322
  69   2.0000     -10.287191      -279.9287
  70   2.0000     -10.287115      -279.9266
  71   2.0000     -10.286796      -279.9180
  72   2.0000     -10.286321      -279.9050
  73   2.0000     -10.283930      -279.8400
  74   2.0000     -10.277198      -279.6568
  75   2.0000     -10.270664      -279.4790
  76   2.0000      -8.076967      -219.7854
  77   2.0000      -6.046051      -164.5214
  78   2.0000      -6.041991      -164.4109
  79   2.0000      -6.039317      -164.3382
  80   2.0000      -1.168101       -31.7856
  81   2.0000      -1.165210       -31.7070
  82   2.0000      -1.138497       -30.9801
  83   2.0000      -1.135808       -30.9069
  84   2.0000      -1.021243       -27.7894
  85   2.0000      -1.020695       -27.7745
  86   2.0000      -1.017493       -27.6874
  87   2.0000      -1.015184       -27.6246
  88   2.0000      -1.001700       -27.2577
  89   2.0000      -0.999807       -27.2061
  90   2.0000      -0.999024       -27.1848
  91   2.0000      -0.996068       -27.1044
  92   2.0000      -0.994477       -27.0611
  93   2.0000      -0.992651       -27.0114
  94   2.0000      -0.984574       -26.7916
  95   2.0000      -0.980939       -26.6927
  96   2.0000      -0.973853       -26.4999
  97   2.0000      -0.972800       -26.4712
  98   2.0000      -0.970895       -26.4194
  99   2.0000      -0.931733       -25.3537
 100   2.0000      -0.928638       -25.2695
 101   2.0000      -0.924523       -25.1576
 102   2.0000      -0.912980       -24.8435
 103   2.0000      -0.908925       -24.7331
 104   2.0000      -0.896935       -24.4068
 105   2.0000      -0.887024       -24.1372
 106   2.0000      -0.884652       -24.0726
 107   2.0000      -0.882160       -24.0048
 108   2.0000      -0.880996       -23.9731
 109   2.0000      -0.875379       -23.8203
 110   2.0000      -0.869225       -23.6528
 111   2.0000      -0.861318       -23.4377
 112   2.0000      -0.854362       -23.2484
 113   2.0000      -0.845169       -22.9982
 114   2.0000      -0.843118       -22.9424
 115   2.0000      -0.832911       -22.6647
 116   2.0000      -0.831634       -22.6299
 117   2.0000      -0.829318       -22.5669
 118   2.0000      -0.818471       -22.2717
 119   2.0000      -0.802262       -21.8307
 120   2.0000      -0.797090       -21.6899
 121   2.0000      -0.786119       -21.3914
 122   2.0000      -0.772336       -21.0163
 123   2.0000      -0.765162       -20.8211
 124   2.0000      -0.763387       -20.7728
 125   2.0000      -0.750008       -20.4088
 126   2.0000      -0.741307       -20.1720
 127   2.0000      -0.733123       -19.9493
 128   2.0000      -0.727925       -19.8079
 129   2.0000      -0.716509       -19.4972
 130   2.0000      -0.709963       -19.3191
 131   2.0000      -0.706536       -19.2258
 132   2.0000      -0.704770       -19.1778
 133   2.0000      -0.701417       -19.0865
 134   2.0000      -0.699870       -19.0444
 135   2.0000      -0.697430       -18.9780
 136   2.0000      -0.684540       -18.6273
 137   2.0000      -0.681901       -18.5555
 138   2.0000      -0.680270       -18.5111
 139   2.0000      -0.675205       -18.3733
 140   2.0000      -0.668566       -18.1926
 141   2.0000      -0.661163       -17.9912
 142   2.0000      -0.657441       -17.8899
 143   2.0000      -0.647505       -17.6195
 144   2.0000      -0.640790       -17.4368
 145   2.0000      -0.636555       -17.3216
 146   2.0000      -0.632355       -17.2073
 147   2.0000      -0.629885       -17.1400
 148   2.0000      -0.617113       -16.7925
 149   2.0000      -0.616827       -16.7847
 150   2.0000      -0.614390       -16.7184
 151   2.0000      -0.609811       -16.5938
 152   2.0000      -0.608764       -16.5653
 153   2.0000      -0.607002       -16.5174
 154   2.0000      -0.589423       -16.0390
 155   2.0000      -0.584941       -15.9170
 156   2.0000      -0.581392       -15.8205
 157   2.0000      -0.573489       -15.6054
 158   2.0000      -0.569814       -15.5054
 159   2.0000      -0.568730       -15.4759
 160   2.0000      -0.561179       -15.2705
 161   2.0000      -0.556920       -15.1546
 162   2.0000      -0.555504       -15.1160
 163   2.0000      -0.554106       -15.0780
 164   2.0000      -0.550065       -14.9680
 165   2.0000      -0.547636       -14.9019
 166   2.0000      -0.547377       -14.8949
 167   2.0000      -0.545024       -14.8309
 168   2.0000      -0.542449       -14.7608
 169   2.0000      -0.540594       -14.7103
 170   2.0000      -0.539495       -14.6804
 171   2.0000      -0.537620       -14.6294
 172   2.0000      -0.533310       -14.5121
 173   2.0000      -0.529630       -14.4120
 174   2.0000      -0.526986       -14.3400
 175   2.0000      -0.525028       -14.2867
 176   2.0000      -0.523865       -14.2551
 177   2.0000      -0.519162       -14.1271
 178   2.0000      -0.518309       -14.1039
 179   2.0000      -0.517758       -14.0889
 180   2.0000      -0.516964       -14.0673
 181   2.0000      -0.514378       -13.9969
 182   2.0000      -0.512975       -13.9588
 183   2.0000      -0.511258       -13.9120
 184   2.0000      -0.509351       -13.8601
 185   2.0000      -0.506789       -13.7904
 186   2.0000      -0.503195       -13.6926
 187   2.0000      -0.500146       -13.6097
 188   2.0000      -0.498709       -13.5706
 189   2.0000      -0.498059       -13.5529
 190   2.0000      -0.496317       -13.5055
 191   2.0000      -0.494354       -13.4521
 192   2.0000      -0.489007       -13.3066
 193   2.0000      -0.488129       -13.2827
 194   2.0000      -0.487106       -13.2548
 195   2.0000      -0.484122       -13.1736
 196   2.0000      -0.483266       -13.1503
 197   2.0000      -0.478336       -13.0162
 198   2.0000      -0.475443       -12.9375
 199   2.0000      -0.473949       -12.8968
 200   2.0000      -0.472172       -12.8484
 201   2.0000      -0.467999       -12.7349
 202   2.0000      -0.467002       -12.7078
 203   2.0000      -0.466237       -12.6869
 204   2.0000      -0.459460       -12.5025
 205   2.0000      -0.450740       -12.2653
 206   2.0000      -0.450708       -12.2644
 207   2.0000      -0.449069       -12.2198
 208   2.0000      -0.447637       -12.1808
 209   2.0000      -0.446288       -12.1441
 210   2.0000      -0.445642       -12.1265
 211   2.0000      -0.444013       -12.0822
 212   2.0000      -0.443821       -12.0770
 213   2.0000      -0.441253       -12.0071
 214   2.0000      -0.441009       -12.0005
 215   2.0000      -0.440005       -11.9732
 216   2.0000      -0.439462       -11.9584
 217   2.0000      -0.437076       -11.8934
 218   2.0000      -0.436070       -11.8661
 219   2.0000      -0.435697       -11.8559
 220   2.0000      -0.434983       -11.8365
 221   2.0000      -0.434536       -11.8243
 222   2.0000      -0.434108       -11.8127
 223   2.0000      -0.432059       -11.7569
 224   2.0000      -0.428004       -11.6466
 225   2.0000      -0.427653       -11.6370
 226   2.0000      -0.424977       -11.5642
 227   2.0000      -0.422641       -11.5006
 228   2.0000      -0.422191       -11.4884
 229   2.0000      -0.419639       -11.4190
 230   2.0000      -0.415233       -11.2991
 231   2.0000      -0.411867       -11.2075
 232   2.0000      -0.408863       -11.1257
 233   2.0000      -0.407230       -11.0813
 234   2.0000      -0.404019       -10.9939
 235   2.0000      -0.401329       -10.9207
 236   2.0000      -0.399719       -10.8769
 237   2.0000      -0.396002       -10.7758
 238   2.0000      -0.395219       -10.7545
 239   2.0000      -0.384048       -10.4505
 240   2.0000      -0.380736       -10.3603
 241   2.0000      -0.375198       -10.2097
 242   2.0000      -0.364354        -9.9146
 243   2.0000      -0.350908        -9.5487
 244   2.0000      -0.347115        -9.4455
 245   2.0000      -0.343777        -9.3546
 246   2.0000      -0.338765        -9.2183
 247   2.0000      -0.328910        -8.9501
 248   2.0000      -0.322392        -8.7727
 249   2.0000      -0.317861        -8.6494
 250   2.0000      -0.316774        -8.6199
 251   2.0000      -0.302390        -8.2284
 252   2.0000      -0.298199        -8.1144
 253   2.0000      -0.296604        -8.0710
 254   2.0000      -0.291895        -7.9429
 255   2.0000      -0.283023        -7.7014
 256   2.0000      -0.252052        -6.8587
 257   0.0000      -0.129842        -3.5332
 258   0.0000      -0.098967        -2.6930
 259   0.0000      -0.082487        -2.2446
 260   0.0000      -0.063929        -1.7396
 261   0.0000      -0.059506        -1.6192

MULLIKEN ATOMIC CHARGES
-----------------------
   0 C :    0.301520
   1 C :   -0.349210
   2 C :   -0.179888
   3 N :    0.147404
   4 C :   -0.203639
   5 N :    0.160098
   6 C :    0.048614
   7 C :   -0.000867
   8 C :   -0.083648
   9 C :    0.099803
  10 C :    0.095875
  11 C :   -0.084015
  12 C :   -0.018364
  13 C :    0.038590
  14 C :    0.035136
  15 C :   -0.016624
  16 C :    0.160895
  17 O :   -0.154319
  18 C :   -0.092480
  19 C :    0.055478
  20 C :   -0.109775
  21 S :    0.167924
  22 C :   -0.035102
  23 C :   -0.097485
  24 C :    0.044618
  25 C :   -0.159660
  26 N :    0.106714
  27 C :    0.061966
  28 C :   -0.036709
  29 C :    0.101158
  30 C :    0.232483
  31 O :   -0.318977
  32 C :    0.176233
  33 C :   -0.166558
  34 C :    0.103265
  35 C :    0.235866
  36 C :   -0.154621
  37 O :   -0.314320
  38 C :    0.155235
  39 C :   -0.017047
  40 C :   -0.012765
  41 C :    0.002743
  42 C :    0.130811
  43 C :   -0.132394
  44 C :    0.128356
  45 C :   -0.091218
  46 C :   -0.006081
  47 C :   -0.175769
  48 N :    0.136374
  49 C :    0.097455
  50 C :   -0.074568
  51 C :    0.074339
  52 C :    0.078400
  53 C :   -0.134417
  54 C :   -0.166239
  55 N :    0.117357
  56 C :   -0.019274
  57 C :   -0.094813
  58 C :    0.301093
  59 C :   -0.331256
  60 C :   -0.180283
  61 N :    0.152254
  62 C :   -0.205182
  63 N :    0.167821
  64 C :    0.052128
  65 C :   -0.011862
  66 C :    0.144964
  67 O :   -0.142022
  68 C :   -0.073334
  69 C :    0.095445
  70 C :    0.093301
  71 C :   -0.079708
  72 C :   -0.016025
  73 C :    0.036307
  74 C :    0.034343
  75 C :   -0.015612
  76 H :   -0.012832
  77 H :   -0.006533
  78 H :   -0.009481
  79 H :   -0.004898
  80 H :   -0.003722
  81 H :   -0.017641
  82 H :    0.016926
  83 H :    0.026791
  84 H :   -0.001056
  85 H :   -0.008061
  86 H :    0.041765
  87 H :    0.033134
  88 H :    0.035317
  89 H :   -0.029610
  90 H :   -0.014882
  91 H :    0.023897
  92 H :    0.025840
  93 H :    0.029984
  94 H :    0.031190
  95 H :    0.030266
  96 H :   -0.003619
  97 H :   -0.003797
  98 H :   -0.000150
  99 H :   -0.002386
 100 H :    0.012606
 101 H :   -0.000630
 102 H :    0.041536
 103 H :   -0.010947
 104 H :   -0.006724
 105 H :   -0.007326
 106 H :   -0.002978
 107 H :   -0.002148
 108 H :   -0.016069
Sum of atomic charges:   -0.0000000

LOEWDIN ATOMIC CHARGES
----------------------
   0 C :    0.076797
   1 C :   -0.141726
   2 C :   -0.017087
   3 N :   -0.054113
   4 C :   -0.026042
   5 N :   -0.052149
   6 C :   -0.026477
   7 C :   -0.055230
   8 C :    0.032426
   9 C :   -0.008245
  10 C :   -0.006204
  11 C :    0.019819
  12 C :   -0.005206
  13 C :   -0.012996
  14 C :   -0.012165
  15 C :   -0.009303
  16 C :    0.087756
  17 O :   -0.141488
  18 C :   -0.091866
  19 C :    0.047376
  20 C :   -0.185752
  21 S :    0.478424
  22 C :   -0.112855
  23 C :   -0.119583
  24 C :    0.025843
  25 C :   -0.023721
  26 N :   -0.064660
  27 C :   -0.054962
  28 C :    0.019463
  29 C :   -0.033515
  30 C :    0.055335
  31 O :   -0.092535
  32 C :    0.080010
  33 C :   -0.051609
  34 C :   -0.033276
  35 C :    0.058134
  36 C :   -0.047610
  37 O :   -0.087536
  38 C :    0.081754
  39 C :   -0.068654
  40 C :    0.025033
  41 C :   -0.029395
  42 C :    0.000446
  43 C :   -0.042546
  44 C :    0.051372
  45 C :   -0.078460
  46 C :    0.057699
  47 C :   -0.032492
  48 N :   -0.061178
  49 C :    0.022671
  50 C :    0.021646
  51 C :   -0.034785
  52 C :    0.076772
  53 C :   -0.098518
  54 C :   -0.024211
  55 N :   -0.078723
  56 C :    0.076932
  57 C :   -0.083480
  58 C :    0.072712
  59 C :   -0.131064
  60 C :   -0.016938
  61 N :   -0.048609
  62 C :   -0.025173
  63 N :   -0.042967
  64 C :   -0.025660
  65 C :   -0.057140
  66 C :    0.084888
  67 O :   -0.130805
  68 C :    0.034513
  69 C :   -0.008207
  70 C :   -0.005374
  71 C :    0.020397
  72 C :   -0.004891
  73 C :   -0.011744
  74 C :   -0.011253
  75 C :   -0.008856
  76 H :    0.038978
  77 H :    0.039148
  78 H :    0.034724
  79 H :    0.033324
  80 H :    0.033092
  81 H :    0.031918
  82 H :    0.044133
  83 H :    0.042824
  84 H :    0.029398
  85 H :    0.037738
  86 H :    0.031290
  87 H :    0.019744
  88 H :    0.020571
  89 H :    0.032666
  90 H :    0.034351
  91 H :    0.027241
  92 H :    0.016154
  93 H :    0.031843
  94 H :    0.036720
  95 H :    0.028684
  96 H :    0.035840
  97 H :    0.029442
  98 H :    0.031067
  99 H :    0.037171
 100 H :    0.038973
 101 H :    0.036505
 102 H :    0.052743
 103 H :    0.039775
 104 H :    0.039466
 105 H :    0.035326
 106 H :    0.033911
 107 H :    0.033646
 108 H :    0.032413

  Mayer bond orders larger than 0.100000
B(  0-C ,  1-C ) :   1.6339 B(  0-C ,  6-C ) :   0.9861 B(  0-C , 18-C ) :   1.0686
B(  1-C ,  2-C ) :   1.1465 B(  1-C ,  4-C ) :   1.1370 B(  2-C ,  3-N ) :   2.9686
B(  4-C ,  5-N ) :   2.9926 B(  6-C ,  7-C ) :   1.2157 B(  6-C , 11-C ) :   1.4503
B(  7-C ,  8-C ) :   1.4702 B(  7-C , 16-C ) :   0.9536 B(  8-C ,  9-C ) :   1.1784
B(  8-C , 76-H ) :   1.0165 B(  9-C , 10-C ) :   1.2570 B(  9-C , 15-C ) :   1.2443
B( 10-C , 11-C ) :   1.2057 B( 10-C , 12-C ) :   1.2410 B( 11-C , 77-H ) :   0.9900
B( 12-C , 13-C ) :   1.4902 B( 12-C , 78-H ) :   0.9968 B( 13-C , 14-C ) :   1.2599
B( 13-C , 79-H ) :   0.9879 B( 14-C , 15-C ) :   1.4893 B( 14-C , 80-H ) :   0.9887
B( 15-C , 81-H ) :   0.9975 B( 16-C , 17-O ) :   2.1745 B( 16-C , 18-C ) :   0.9385
B( 18-C , 19-C ) :   1.6104 B( 19-C , 20-C ) :   1.1927 B( 19-C , 82-H ) :   0.9190
B( 20-C , 21-S ) :   1.0915 B( 20-C , 24-C ) :   1.4387 B( 21-S , 22-C ) :   1.1810
B( 22-C , 23-C ) :   1.3918 B( 22-C , 27-C ) :   1.1324 B( 23-C , 24-C ) :   1.3089
B( 23-C , 25-C ) :   1.1195 B( 24-C , 83-H ) :   0.9817 B( 25-C , 26-N ) :   2.9666
B( 27-C , 28-C ) :   1.6466 B( 27-C , 84-H ) :   0.9436 B( 28-C , 29-C ) :   1.1341
B( 28-C , 85-H ) :   0.9605 B( 29-C , 30-C ) :   1.2926 B( 29-C , 36-C ) :   1.2945
B( 30-C , 31-O ) :   1.1483 B( 30-C , 33-C ) :   1.3078 B( 31-O , 32-C ) :   0.9486
B( 32-C , 86-H ) :   0.9770 B( 32-C , 87-H ) :   0.9699 B( 32-C , 88-H ) :   0.9696
B( 33-C , 34-C ) :   1.2751 B( 33-C , 89-H ) :   1.0022 B( 34-C , 35-C ) :   1.2976
B( 34-C , 40-C ) :   1.1263 B( 35-C , 36-C ) :   1.2929 B( 35-C , 37-O ) :   1.1476
B( 36-C , 90-H ) :   1.0002 B( 37-O , 38-C ) :   0.9348 B( 38-C , 39-C ) :   1.1122
B( 38-C , 91-H ) :   0.9562 B( 38-C , 92-H ) :   0.9504 B( 39-C , 93-H ) :   0.9623
B( 39-C , 94-H ) :   0.9619 B( 39-C , 95-H ) :   0.9666 B( 40-C , 41-C ) :   1.6236
B( 40-C , 96-H ) :   0.9777 B( 41-C , 42-C ) :   1.0988 B( 41-C , 97-H ) :   0.9742
B( 42-C , 43-C ) :   1.5257 B( 42-C , 46-C ) :   1.0176 B( 43-C , 44-C ) :   1.1543
B( 43-C , 98-H ) :   0.9957 B( 44-C , 45-C ) :   1.0858 B( 44-C , 49-C ) :   1.4030
B( 45-C , 46-C ) :   1.6865 B( 45-C , 47-C ) :   1.0868 B( 46-C , 99-H ) :   1.0255
B( 47-C , 48-N ) :   2.9672 B( 49-C , 50-C ) :   1.1067 B( 49-C , 53-C ) :   1.1242
B( 50-C , 51-C ) :   1.5133 B( 50-C ,100-H ) :   1.0063 B( 51-C , 52-C ) :   1.0676
B( 51-C , 56-C ) :   1.0948 B( 52-C , 53-C ) :   1.6567 B( 52-C ,101-H ) :   1.0079
B( 53-C , 54-C ) :   1.0945 B( 54-C , 55-N ) :   2.9663 B( 56-C , 57-C ) :   1.6324
B( 56-C ,102-H ) :   0.9504 B( 57-C , 58-C ) :   1.0409 B( 57-C , 66-C ) :   0.9369
B( 58-C , 59-C ) :   1.6564 B( 58-C , 64-C ) :   0.9965 B( 59-C , 60-C ) :   1.1417
B( 59-C , 62-C ) :   1.1392 B( 60-C , 61-N ) :   2.9678 B( 62-C , 63-N ) :   2.9945
B( 64-C , 65-C ) :   1.2118 B( 64-C , 71-C ) :   1.4497 B( 65-C , 66-C ) :   0.9485
B( 65-C , 68-C ) :   1.4688 B( 66-C , 67-O ) :   2.2150 B( 68-C , 69-C ) :   1.1835
B( 68-C ,103-H ) :   1.0167 B( 69-C , 70-C ) :   1.2562 B( 69-C , 75-C ) :   1.2411
B( 70-C , 71-C ) :   1.2054 B( 70-C , 72-C ) :   1.2412 B( 71-C ,104-H ) :   0.9910
B( 72-C , 73-C ) :   1.4874 B( 72-C ,105-H ) :   0.9979 B( 73-C , 74-C ) :   1.2598
B( 73-C ,106-H ) :   0.9893 B( 74-C , 75-C ) :   1.4901 B( 74-C ,107-H ) :   0.9889
B( 75-C ,108-H ) :   0.9983

-----------------------------------------------------------------------------
         ABSORPTION SPECTRUM VIA TRANSITION ELECTRIC DIPOLE MOMENTS
-----------------------------------------------------------------------------
State   Energy  Wavelength   fosc         T2         TX        TY        TZ
        (cm-1)    (nm)                  (au**2)     (au)      (au)      (au)
-----------------------------------------------------------------------------
   0   12203.8    819.4   1.116238005  30.11195   3.19372  -4.28153  -1.25720
   1   18007.8    555.3   0.023720602   0.43365  -0.53648  -0.19839  -0.32632
   2   19167.9    521.7   1.151440971  19.77616   3.53491  -2.69464   0.13958
   3   20698.0    483.1   0.275078689   4.37527  -1.69290   1.17528  -0.35787
   4   22706.5    440.4   0.217138575   3.14820   0.89453  -1.39973  -0.62351
   5   23362.0    428.0   0.126529436   1.78302  -0.85711   0.94018  -0.40552
   6   23918.4    418.1   0.229632169   3.16065   0.08932  -1.60115  -0.76747
   7   25502.6    392.1   0.024829493   0.32052   0.26695  -0.39745   0.30215
   8   26186.3    381.9   0.091427904   1.14942   0.80903  -0.42276  -0.56229
   9   26877.5    372.1   0.055180483   0.67588  -0.06951  -0.55781  -0.59992
  10   27062.4    369.5   0.024249157   0.29499  -0.49161  -0.11148   0.20220
  11   27559.9    362.8   0.124393101   1.48592   0.22115  -1.18975  -0.14665
  12   28001.6    357.1   0.150910573   1.77424   0.97303  -0.80790  -0.41803
  13   28951.9    345.4   0.133803455   1.52148  -0.91619   0.80611   0.17963
  14   29142.4    343.1   0.060766601   0.68646   0.74128  -0.36862   0.03297
  15   29426.3    339.8   0.070815978   0.79227  -0.59965   0.63383   0.17592
  16   29675.7    337.0   0.271464513   3.01153  -1.54540   0.64425   0.45628
  17   29891.1    334.5   0.076540343   0.84299  -0.22880  -0.88208   0.11216
  18   30142.4    331.8   0.131045413   1.43126  -0.43354   1.07712  -0.28828
  19   30680.2    325.9   0.049647618   0.53274   0.01874   0.21768  -0.69642
  20   31023.6    322.3   0.349928043   3.71331   0.50061   1.74386   0.64936
  21   31406.0    318.4   0.194574651   2.03962  -1.05748  -0.94319   0.17817
  22   32476.6    307.9   0.062229649   0.63082   0.55300   0.49567   0.28163
  23   33287.2    300.4   0.141581934   1.40025  -0.66593  -0.95683   0.20315
  24   33447.1    299.0   0.499760923   4.91903   1.40295  -0.78226  -1.52932
  25   33536.0    298.2   0.036688771   0.36016  -0.35145  -0.44947   0.18608
  26   34355.8    291.1   0.024602186   0.23575  -0.17358  -0.01731   0.45312
  27   34583.7    289.2   0.096342464   0.91711  -0.80704  -0.29276   0.42436
  28   34740.5    287.8   0.015982058   0.15145  -0.08384   0.00024   0.38003
  29   34895.5    286.6   0.232478523   2.19325  -0.83993  -0.39360   1.15449
  30   35202.1    284.1   0.041462757   0.38776  -0.16565  -0.43696  -0.41156
  31   35448.3    282.1   0.018661360   0.17331   0.38302  -0.05530   0.15344
  32   35880.8    278.7   0.002573948   0.02362   0.09774   0.07152   0.09460
  33   35988.5    277.9   0.239815355   2.19376   1.14894   0.92963   0.09741
  34   36203.7    276.2   0.279490267   2.54150  -1.32365  -0.86058   0.22104
  35   36398.8    274.7   0.000630517   0.00570  -0.05980   0.04609   0.00176
  36   36845.0    271.4   0.011439760   0.10221  -0.02533  -0.23195  -0.21857
  37   36996.9    270.3   0.211891669   1.88549  -1.25908  -0.06902   0.54354
  38   37368.7    267.6   0.110815872   0.97627  -0.58612   0.79346  -0.05623
  39   37976.7    263.3   0.071499806   0.61982   0.52843   0.55414   0.18306
  40   38008.4    263.1   0.014655225   0.12694  -0.24641  -0.16735  -0.19549
  41   38522.6    259.6   0.050387919   0.43061  -0.45805  -0.10774  -0.45737
  42   38596.3    259.1   0.015246333   0.13005   0.16770  -0.30782  -0.08466
  43   38689.8    258.5   0.011030548   0.09386   0.09440  -0.18743   0.22320
  44   39120.0    255.6   0.083544928   0.70307  -0.08055   0.53850  -0.63765
  45   39264.4    254.7   0.004669892   0.03915  -0.03493  -0.11485   0.15730
  46   39814.8    251.2   0.118501794   0.97984  -0.54303   0.82327  -0.08478
  47   40010.3    249.9   0.219140672   1.80313  -0.63153   0.64696  -0.99284
  48   40137.0    249.1   0.071454420   0.58608  -0.33776   0.43578   0.53113

FINAL SINGLE POINT ENERGY     -3536.722802528847

DIPOLE MOMENT
-------------
                                X             Y             Z
Electronic contribution:    -12.40652      -3.64272      20.18666
Nuclear contribution   :     15.82224       4.98888     -21.83449
                        -----------------------------------------
Total Dipole Moment    :      3.41572       1.34616      -1.64783
                        -----------------------------------------
Magnitude (a.u.)       :      4.02426
Magnitude (Debye)      :     10.22884

Rotational constants in cm-1:     0.002028     0.000150     0.000147
Rotational constants in MHz :    60.793016     4.503391     4.397552

                             ****ORCA TERMINATED NORMALLY****
TOTAL RUN TIME: 0 days 0 hours 10 minutes 56 seconds 626 msec
