                         Program Version 4.2.0 -  RELEASE  -
|  1> # ORCA input file
|  2> # SCF done       -221.432264347218          0.000936555404
|  3> ! CAM-B3LYP def2-SVP def2/J RIJCOSX Grid4 TightSCF
|  4> %maxcore 5000
|  5> %tddft
|  6>     Mode sTDDFT
|  7>     Ethresh 5.0
|  8>     maxcore 5000
|  9> end
| 10>
| 11> %pal
| 12>   nprocs 6
| 13>   end
| 14> * xyz 0 1
| 15>    C       -4.50068         2.38634         2.67318
| 16>    C       -5.12182         2.88923         1.56153
| 17>    C       -6.50936         3.12970         1.48278
| 18>    N       -7.63004         3.35049         1.37250
| 19>    C       -4.46249         3.13035         0.33812
| 20>    N       -3.97725         3.29836        -0.68864
| 21>    C       -5.17258         1.85045         3.84940
| 22>    C       -4.27692         0.96487         4.51920
| 23>    C       -4.65634         0.27109         5.63252
| 24>    C       -5.96487         0.44073         6.13813
| 25>    C       -6.85713         1.33975         5.48412
| 26>    C       -6.43974         2.04214         4.33087
| 27>    C       -8.15780         1.50353         6.00268
| 28>    C       -8.56195         0.80984         7.11058
| 29>    C       -7.68409        -0.07672         7.75236
| 30>    C       -6.41357        -0.25714         7.27687
| 31>    C       -2.97692         0.96119         3.82516
| 32>    O       -1.99676         0.30140         4.07135
| 33>    C       -3.09967         2.01874         2.77316
| 34>    C       -1.99431         2.52530         2.17838
| 35>    C       -1.87717         3.74872         1.46042
| 36>    S       -2.80162         5.18917         1.84392
| 37>    C       -1.02886         4.03036         0.41674
| 38>    C       -0.03222         3.28582        -0.37304
| 39>    O        0.37876         2.16176        -0.24780
| 40>    N        0.39321         4.19455        -1.33595
| 41>    C        1.35577         3.86146        -2.36493
| 42>    C        0.66237         3.53075        -3.68178
| 43>    C       -0.22768         5.43202        -1.25842
| 44>    O       -0.00078         6.35617        -2.00443
| 45>    C       -1.15146         5.33069        -0.11494
| 46>    C       -2.07219         6.12022         0.55152
| 47>    C       -2.49589         7.45622         0.35071
| 48>    C       -2.10512         8.20443        -0.71395
| 49>    C       -2.56291         9.52717        -0.92610
| 50>    N       -2.28657        10.24666        -2.06227
| 51>    C       -1.57173         9.77372        -3.22401
| 52>    C       -2.44194         8.86998        -4.09331
| 53>    C       -2.86473        11.53227        -2.02972
| 54>    O       -2.75216        12.34549        -2.91962
| 55>    C       -3.53572        11.57893        -0.74618
| 56>    C       -3.32969        10.34299        -0.09213
| 57>    C       -3.96919        10.42479         1.20018
| 58>    O       -4.08384         9.61831         2.10293
| 59>    N       -4.49788        11.73138         1.25697
| 60>    C       -5.30325        12.12200         2.39058
| 61>    C       -6.77936        12.26148         2.03183
| 62>    C       -4.25877        12.42424         0.09065
| 63>    C       -4.64655        13.73935        -0.28599
| 64>    C       -5.02431        14.76564         0.51132
| 65>    C       -5.40879        16.07007         0.05461
| 66>    C       -5.88465        16.39073        -1.21110
| 67>    F       -6.04714        15.43128        -2.13548
| 68>    C       -6.26621        17.68735        -1.58893
| 69>    F       -6.71034        17.82877        -2.84762
| 70>    C       -6.17908        18.79103        -0.74965
| 71>    C       -5.69003        18.50308         0.55371
| 72>    C       -5.33962        17.16912         0.95459
| 73>    N       -4.93525        17.11898         2.22182
| 74>    S       -4.98957        18.60191         2.84199
| 75>    N       -5.52937        19.37674         1.54412
| 76>    C       -6.49424        20.14564        -1.10544
| 77>    C       -7.31158        20.52951        -2.11141
| 78>    C       -7.57149        21.88195        -2.47633
| 79>    C       -6.68081        22.91125        -2.47862
| 80>    C       -6.98128        24.27353        -2.88818
| 81>    C       -8.20930        24.87507        -2.82178
| 82>    C       -8.45129        26.21355        -3.19401
| 83>    N       -8.70436        27.29218        -3.49423
| 84>    C       -9.37236        24.24782        -2.32624
| 85>    N      -10.34402        23.80360        -1.90628
| 86>    C       -5.73280        24.90239        -3.29232
| 87>    C       -4.66522        24.00107        -3.01539
| 88>    C       -5.19834        22.76616        -2.41017
| 89>    O       -4.55187        21.83098        -1.99364
| 90>    C       -3.36784        24.31328        -3.30319
| 91>    C       -3.07518        25.56200        -3.89637
| 92>    C       -4.13881        26.46745        -4.17899
| 93>    C       -5.47245        26.11857        -3.86616
| 94>    C       -3.83432        27.70725        -4.77712
| 95>    C       -2.54245        28.03856        -5.08297
| 96>    C       -1.49614        27.14638        -4.80483
| 97>    C       -1.75663        25.93536        -4.22291
| 98>    H       -3.96751        -0.40230         6.12046
| 99>    H       -7.12984         2.72414         3.85901
|100>    H       -8.83090         2.18419         5.50249
|101>    H       -9.56121         0.93957         7.49824
|102>    H       -8.01971        -0.61588         8.62550
|103>    H       -5.73368        -0.93842         7.76713
|104>    H       -1.07678         1.95467         2.28881
|105>    H        1.92351         3.00197        -2.00134
|106>    H        2.02169         4.71907        -2.49282
|107>    H       -0.01761         2.69206        -3.54987
|108>    H        1.40358         3.26762        -4.43093
|109>    H        0.09804         4.39129        -4.03377
|110>    H       -3.18187         7.86505         1.08125
|111>    H       -1.43041         7.78056        -1.44303
|112>    H       -0.66692         9.24720        -2.91061
|113>    H       -1.28919        10.66713        -3.78771
|114>    H       -2.75001         7.98368        -3.54353
|115>    H       -1.88159         8.55789        -4.96978
|116>    H       -3.33005         9.40626        -4.41927
|117>    H       -4.91479        13.04509         2.82815
|118>    H       -5.17816        11.31728         3.12207
|119>    H       -6.93081        13.03549         1.28360
|120>    H       -7.34777        12.51939         2.92109
|121>    H       -7.15688        11.32041         1.63926
|122>    H       -4.55010        13.89946        -1.35173
|123>    H       -4.98927        14.68395         1.58710
|124>    H       -6.06804        20.88366        -0.44244
|125>    H       -7.87547        19.79054        -2.66444
|126>    H       -8.56179        22.07024        -2.87668
|127>    H       -2.57422        23.61408        -3.08521
|128>    H       -6.25931        26.81823        -4.10067
|129>    H       -4.64336        28.39094        -4.98856
|130>    H       -2.31972        28.99012        -5.54191
|131>    H       -0.48289        27.42305        -5.05481
|132>    H       -0.95503        25.24426        -4.00689
|133> *
|134>
|135>                          ****END OF INPUT****

CARTESIAN COORDINATES (ANGSTROEM)
---------------------------------
  C     -4.500680    2.386340    2.673180
  C     -5.121820    2.889230    1.561530
  C     -6.509360    3.129700    1.482780
  N     -7.630040    3.350490    1.372500
  C     -4.462490    3.130350    0.338120
  N     -3.977250    3.298360   -0.688640
  C     -5.172580    1.850450    3.849400
  C     -4.276920    0.964870    4.519200
  C     -4.656340    0.271090    5.632520
  C     -5.964870    0.440730    6.138130
  C     -6.857130    1.339750    5.484120
  C     -6.439740    2.042140    4.330870
  C     -8.157800    1.503530    6.002680
  C     -8.561950    0.809840    7.110580
  C     -7.684090   -0.076720    7.752360
  C     -6.413570   -0.257140    7.276870
  C     -2.976920    0.961190    3.825160
  O     -1.996760    0.301400    4.071350
  C     -3.099670    2.018740    2.773160
  C     -1.994310    2.525300    2.178380
  C     -1.877170    3.748720    1.460420
  S     -2.801620    5.189170    1.843920
  C     -1.028860    4.030360    0.416740
  C     -0.032220    3.285820   -0.373040
  O      0.378760    2.161760   -0.247800
  N      0.393210    4.194550   -1.335950
  C      1.355770    3.861460   -2.364930
  C      0.662370    3.530750   -3.681780
  C     -0.227680    5.432020   -1.258420
  O     -0.000780    6.356170   -2.004430
  C     -1.151460    5.330690   -0.114940
  C     -2.072190    6.120220    0.551520
  C     -2.495890    7.456220    0.350710
  C     -2.105120    8.204430   -0.713950
  C     -2.562910    9.527170   -0.926100
  N     -2.286570   10.246660   -2.062270
  C     -1.571730    9.773720   -3.224010
  C     -2.441940    8.869980   -4.093310
  C     -2.864730   11.532270   -2.029720
  O     -2.752160   12.345490   -2.919620
  C     -3.535720   11.578930   -0.746180
  C     -3.329690   10.342990   -0.092130
  C     -3.969190   10.424790    1.200180
  O     -4.083840    9.618310    2.102930
  N     -4.497880   11.731380    1.256970
  C     -5.303250   12.122000    2.390580
  C     -6.779360   12.261480    2.031830
  C     -4.258770   12.424240    0.090650
  C     -4.646550   13.739350   -0.285990
  C     -5.024310   14.765640    0.511320
  C     -5.408790   16.070070    0.054610
  C     -5.884650   16.390730   -1.211100
  F     -6.047140   15.431280   -2.135480
  C     -6.266210   17.687350   -1.588930
  F     -6.710340   17.828770   -2.847620
  C     -6.179080   18.791030   -0.749650
  C     -5.690030   18.503080    0.553710
  C     -5.339620   17.169120    0.954590
  N     -4.935250   17.118980    2.221820
  S     -4.989570   18.601910    2.841990
  N     -5.529370   19.376740    1.544120
  C     -6.494240   20.145640   -1.105440
  C     -7.311580   20.529510   -2.111410
  C     -7.571490   21.881950   -2.476330
  C     -6.680810   22.911250   -2.478620
  C     -6.981280   24.273530   -2.888180
  C     -8.209300   24.875070   -2.821780
  C     -8.451290   26.213550   -3.194010
  N     -8.704360   27.292180   -3.494230
  C     -9.372360   24.247820   -2.326240
  N    -10.344020   23.803600   -1.906280
  C     -5.732800   24.902390   -3.292320
  C     -4.665220   24.001070   -3.015390
  C     -5.198340   22.766160   -2.410170
  O     -4.551870   21.830980   -1.993640
  C     -3.367840   24.313280   -3.303190
  C     -3.075180   25.562000   -3.896370
  C     -4.138810   26.467450   -4.178990
  C     -5.472450   26.118570   -3.866160
  C     -3.834320   27.707250   -4.777120
  C     -2.542450   28.038560   -5.082970
  C     -1.496140   27.146380   -4.804830
  C     -1.756630   25.935360   -4.222910
  H     -3.967510   -0.402300    6.120460
  H     -7.129840    2.724140    3.859010
  H     -8.830900    2.184190    5.502490
  H     -9.561210    0.939570    7.498240
  H     -8.019710   -0.615880    8.625500
  H     -5.733680   -0.938420    7.767130
  H     -1.076780    1.954670    2.288810
  H      1.923510    3.001970   -2.001340
  H      2.021690    4.719070   -2.492820
  H     -0.017610    2.692060   -3.549870
  H      1.403580    3.267620   -4.430930
  H      0.098040    4.391290   -4.033770
  H     -3.181870    7.865050    1.081250
  H     -1.430410    7.780560   -1.443030
  H     -0.666920    9.247200   -2.910610
  H     -1.289190   10.667130   -3.787710
  H     -2.750010    7.983680   -3.543530
  H     -1.881590    8.557890   -4.969780
  H     -3.330050    9.406260   -4.419270
  H     -4.914790   13.045090    2.828150
  H     -5.178160   11.317280    3.122070
  H     -6.930810   13.035490    1.283600
  H     -7.347770   12.519390    2.921090
  H     -7.156880   11.320410    1.639260
  H     -4.550100   13.899460   -1.351730
  H     -4.989270   14.683950    1.587100
  H     -6.068040   20.883660   -0.442440
  H     -7.875470   19.790540   -2.664440
  H     -8.561790   22.070240   -2.876680
  H     -2.574220   23.614080   -3.085210
  H     -6.259310   26.818230   -4.100670
  H     -4.643360   28.390940   -4.988560
  H     -2.319720   28.990120   -5.541910
  H     -0.482890   27.423050   -5.054810
  H     -0.955030   25.244260   -4.006890

 Total Charge           Charge          ....    0
 Multiplicity           Mult            ....    1
 Number of Electrons    NEL             ....  580
 Basis Dimension        Dim             .... 1345

ORBITAL ENERGIES
----------------

  NO   OCC          E(Eh)            E(eV)
   0   2.0000     -89.033379     -2422.7214
   1   2.0000     -88.985466     -2421.4176
   2   2.0000     -24.809008      -675.0874
   3   2.0000     -24.806666      -675.0237
   4   2.0000     -19.222339      -523.0664
   5   2.0000     -19.220293      -523.0108
   6   2.0000     -19.218531      -522.9628
   7   2.0000     -19.215683      -522.8853
   8   2.0000     -19.194265      -522.3025
   9   2.0000     -19.190723      -522.2061
  10   2.0000     -14.460804      -393.4985
  11   2.0000     -14.455069      -393.3424
  12   2.0000     -14.452648      -393.2766
  13   2.0000     -14.449240      -393.1838
  14   2.0000     -14.447940      -393.1484
  15   2.0000     -14.420993      -392.4152
  16   2.0000     -14.420281      -392.3958
  17   2.0000     -14.413101      -392.2004
  18   2.0000     -14.411525      -392.1575
  19   2.0000     -10.404417      -283.1186
  20   2.0000     -10.400725      -283.0181
  21   2.0000     -10.391440      -282.7655
  22   2.0000     -10.388740      -282.6920
  23   2.0000     -10.376261      -282.3524
  24   2.0000     -10.374399      -282.3017
  25   2.0000     -10.371672      -282.2275
  26   2.0000     -10.367408      -282.1115
  27   2.0000     -10.350673      -281.6561
  28   2.0000     -10.347363      -281.5661
  29   2.0000     -10.342437      -281.4320
  30   2.0000     -10.341658      -281.4108
  31   2.0000     -10.340259      -281.3727
  32   2.0000     -10.338772      -281.3323
  33   2.0000     -10.338534      -281.3258
  34   2.0000     -10.338497      -281.3248
  35   2.0000     -10.338069      -281.3132
  36   2.0000     -10.337578      -281.2998
  37   2.0000     -10.327583      -281.0278
  38   2.0000     -10.322852      -280.8991
  39   2.0000     -10.322333      -280.8850
  40   2.0000     -10.318515      -280.7811
  41   2.0000     -10.315719      -280.7050
  42   2.0000     -10.314540      -280.6729
  43   2.0000     -10.314331      -280.6672
  44   2.0000     -10.314307      -280.6666
  45   2.0000     -10.308995      -280.5220
  46   2.0000     -10.308783      -280.5163
  47   2.0000     -10.308522      -280.5091
  48   2.0000     -10.306962      -280.4667
  49   2.0000     -10.306565      -280.4559
  50   2.0000     -10.302663      -280.3497
  51   2.0000     -10.302386      -280.3422
  52   2.0000     -10.302263      -280.3388
  53   2.0000     -10.302249      -280.3384
  54   2.0000     -10.302040      -280.3328
  55   2.0000     -10.301742      -280.3247
  56   2.0000     -10.301505      -280.3182
  57   2.0000     -10.301418      -280.3158
  58   2.0000     -10.301317      -280.3131
  59   2.0000     -10.300407      -280.2883
  60   2.0000     -10.297831      -280.2182
  61   2.0000     -10.297000      -280.1956
  62   2.0000     -10.296737      -280.1885
  63   2.0000     -10.296587      -280.1844
  64   2.0000     -10.295927      -280.1664
  65   2.0000     -10.295565      -280.1566
  66   2.0000     -10.294692      -280.1328
  67   2.0000     -10.294282      -280.1216
  68   2.0000     -10.289969      -280.0043
  69   2.0000     -10.289561      -279.9932
  70   2.0000     -10.289329      -279.9869
  71   2.0000     -10.288867      -279.9743
  72   2.0000     -10.288085      -279.9530
  73   2.0000     -10.287664      -279.9416
  74   2.0000     -10.286039      -279.8973
  75   2.0000     -10.285406      -279.8801
  76   2.0000     -10.285113      -279.8722
  77   2.0000     -10.284595      -279.8581
  78   2.0000     -10.264605      -279.3141
  79   2.0000     -10.263771      -279.2914
  80   2.0000     -10.262234      -279.2496
  81   2.0000     -10.259634      -279.1788
  82   2.0000     -10.257532      -279.1216
  83   2.0000      -8.125264      -221.0997
  84   2.0000      -8.080210      -219.8737
  85   2.0000      -6.096476      -165.8936
  86   2.0000      -6.088779      -165.6841
  87   2.0000      -6.087544      -165.6505
  88   2.0000      -6.049633      -164.6189
  89   2.0000      -6.045242      -164.4994
  90   2.0000      -6.042276      -164.4187
  91   2.0000      -1.331885       -36.2424
  92   2.0000      -1.313105       -35.7314
  93   2.0000      -1.166369       -31.7385
  94   2.0000      -1.142962       -31.1016
  95   2.0000      -1.135970       -30.9113
  96   2.0000      -1.135943       -30.9106
  97   2.0000      -1.134707       -30.8769
  98   2.0000      -1.131104       -30.7789
  99   2.0000      -1.127816       -30.6894
 100   2.0000      -1.064447       -28.9651
 101   2.0000      -1.057744       -28.7827
 102   2.0000      -1.055392       -28.7187
 103   2.0000      -1.025870       -27.9153
 104   2.0000      -1.015725       -27.6393
 105   2.0000      -1.010524       -27.4977
 106   2.0000      -1.003226       -27.2992
 107   2.0000      -0.997823       -27.1521
 108   2.0000      -0.996527       -27.1169
 109   2.0000      -0.992690       -27.0125
 110   2.0000      -0.990913       -26.9641
 111   2.0000      -0.985699       -26.8222
 112   2.0000      -0.976321       -26.5671
 113   2.0000      -0.970506       -26.4088
 114   2.0000      -0.934166       -25.4199
 115   2.0000      -0.931070       -25.3357
 116   2.0000      -0.929040       -25.2805
 117   2.0000      -0.923200       -25.1215
 118   2.0000      -0.920587       -25.0504
 119   2.0000      -0.912020       -24.8173
 120   2.0000      -0.909373       -24.7453
 121   2.0000      -0.899337       -24.4722
 122   2.0000      -0.890011       -24.2184
 123   2.0000      -0.885900       -24.1066
 124   2.0000      -0.881909       -23.9980
 125   2.0000      -0.879865       -23.9424
 126   2.0000      -0.872942       -23.7539
 127   2.0000      -0.870683       -23.6925
 128   2.0000      -0.866604       -23.5815
 129   2.0000      -0.845974       -23.0201
 130   2.0000      -0.838253       -22.8100
 131   2.0000      -0.833154       -22.6713
 132   2.0000      -0.832455       -22.6523
 133   2.0000      -0.827234       -22.5102
 134   2.0000      -0.819040       -22.2872
 135   2.0000      -0.811510       -22.0823
 136   2.0000      -0.803806       -21.8727
 137   2.0000      -0.786807       -21.4101
 138   2.0000      -0.776961       -21.1422
 139   2.0000      -0.766270       -20.8513
 140   2.0000      -0.759461       -20.6660
 141   2.0000      -0.759077       -20.6555
 142   2.0000      -0.758108       -20.6292
 143   2.0000      -0.751465       -20.4484
 144   2.0000      -0.747853       -20.3501
 145   2.0000      -0.733672       -19.9642
 146   2.0000      -0.730209       -19.8700
 147   2.0000      -0.721796       -19.6411
 148   2.0000      -0.711988       -19.3742
 149   2.0000      -0.710072       -19.3220
 150   2.0000      -0.707565       -19.2538
 151   2.0000      -0.702819       -19.1247
 152   2.0000      -0.701561       -19.0904
 153   2.0000      -0.701061       -19.0768
 154   2.0000      -0.695620       -18.9288
 155   2.0000      -0.687308       -18.7026
 156   2.0000      -0.681576       -18.5466
 157   2.0000      -0.678115       -18.4524
 158   2.0000      -0.675102       -18.3705
 159   2.0000      -0.671822       -18.2812
 160   2.0000      -0.667404       -18.1610
 161   2.0000      -0.659303       -17.9405
 162   2.0000      -0.650760       -17.7081
 163   2.0000      -0.646308       -17.5869
 164   2.0000      -0.644999       -17.5513
 165   2.0000      -0.638195       -17.3662
 166   2.0000      -0.635542       -17.2940
 167   2.0000      -0.627919       -17.0865
 168   2.0000      -0.625904       -17.0317
 169   2.0000      -0.613581       -16.6964
 170   2.0000      -0.611889       -16.6503
 171   2.0000      -0.607842       -16.5402
 172   2.0000      -0.605534       -16.4774
 173   2.0000      -0.602107       -16.3842
 174   2.0000      -0.600781       -16.3481
 175   2.0000      -0.592748       -16.1295
 176   2.0000      -0.591683       -16.1005
 177   2.0000      -0.585932       -15.9440
 178   2.0000      -0.583117       -15.8674
 179   2.0000      -0.580970       -15.8090
 180   2.0000      -0.577943       -15.7266
 181   2.0000      -0.571487       -15.5510
 182   2.0000      -0.569892       -15.5076
 183   2.0000      -0.564384       -15.3577
 184   2.0000      -0.560956       -15.2644
 185   2.0000      -0.556116       -15.1327
 186   2.0000      -0.554874       -15.0989
 187   2.0000      -0.554540       -15.0898
 188   2.0000      -0.552713       -15.0401
 189   2.0000      -0.550676       -14.9847
 190   2.0000      -0.550199       -14.9717
 191   2.0000      -0.548360       -14.9216
 192   2.0000      -0.545942       -14.8558
 193   2.0000      -0.544184       -14.8080
 194   2.0000      -0.543906       -14.8004
 195   2.0000      -0.543382       -14.7862
 196   2.0000      -0.540773       -14.7152
 197   2.0000      -0.538555       -14.6548
 198   2.0000      -0.533596       -14.5199
 199   2.0000      -0.532074       -14.4785
 200   2.0000      -0.530771       -14.4430
 201   2.0000      -0.525492       -14.2994
 202   2.0000      -0.524665       -14.2769
 203   2.0000      -0.521179       -14.1820
 204   2.0000      -0.518726       -14.1153
 205   2.0000      -0.517674       -14.0866
 206   2.0000      -0.516735       -14.0611
 207   2.0000      -0.515882       -14.0379
 208   2.0000      -0.513809       -13.9815
 209   2.0000      -0.513159       -13.9638
 210   2.0000      -0.511644       -13.9225
 211   2.0000      -0.510826       -13.9003
 212   2.0000      -0.510040       -13.8789
 213   2.0000      -0.507834       -13.8189
 214   2.0000      -0.502551       -13.6751
 215   2.0000      -0.501297       -13.6410
 216   2.0000      -0.500038       -13.6067
 217   2.0000      -0.498230       -13.5575
 218   2.0000      -0.495550       -13.4846
 219   2.0000      -0.494674       -13.4608
 220   2.0000      -0.490386       -13.3441
 221   2.0000      -0.487983       -13.2787
 222   2.0000      -0.487611       -13.2686
 223   2.0000      -0.482749       -13.1363
 224   2.0000      -0.478745       -13.0273
 225   2.0000      -0.477439       -12.9918
 226   2.0000      -0.474800       -12.9200
 227   2.0000      -0.473316       -12.8796
 228   2.0000      -0.469376       -12.7724
 229   2.0000      -0.467351       -12.7173
 230   2.0000      -0.465218       -12.6592
 231   2.0000      -0.463907       -12.6235
 232   2.0000      -0.461163       -12.5489
 233   2.0000      -0.456482       -12.4215
 234   2.0000      -0.455393       -12.3919
 235   2.0000      -0.453912       -12.3516
 236   2.0000      -0.453148       -12.3308
 237   2.0000      -0.451598       -12.2886
 238   2.0000      -0.450031       -12.2460
 239   2.0000      -0.449613       -12.2346
 240   2.0000      -0.449119       -12.2211
 241   2.0000      -0.446255       -12.1432
 242   2.0000      -0.444001       -12.0819
 243   2.0000      -0.443481       -12.0677
 244   2.0000      -0.442286       -12.0352
 245   2.0000      -0.441746       -12.0205
 246   2.0000      -0.441027       -12.0010
 247   2.0000      -0.438528       -11.9329
 248   2.0000      -0.436996       -11.8913
 249   2.0000      -0.434312       -11.8182
 250   2.0000      -0.432218       -11.7613
 251   2.0000      -0.430487       -11.7142
 252   2.0000      -0.430196       -11.7062
 253   2.0000      -0.428274       -11.6539
 254   2.0000      -0.426716       -11.6115
 255   2.0000      -0.425344       -11.5742
 256   2.0000      -0.424047       -11.5389
 257   2.0000      -0.421319       -11.4647
 258   2.0000      -0.417863       -11.3706
 259   2.0000      -0.417080       -11.3493
 260   2.0000      -0.415612       -11.3094
 261   2.0000      -0.412725       -11.2308
 262   2.0000      -0.409449       -11.1417
 263   2.0000      -0.406949       -11.0736
 264   2.0000      -0.404811       -11.0155
 265   2.0000      -0.387381       -10.5412
 266   2.0000      -0.383072       -10.4239
 267   2.0000      -0.379696       -10.3321
 268   2.0000      -0.377458       -10.2712
 269   2.0000      -0.373644       -10.1674
 270   2.0000      -0.369909       -10.0657
 271   2.0000      -0.363085        -9.8801
 272   2.0000      -0.361197        -9.8287
 273   2.0000      -0.354685        -9.6515
 274   2.0000      -0.349968        -9.5231
 275   2.0000      -0.347904        -9.4669
 276   2.0000      -0.341455        -9.2915
 277   2.0000      -0.338833        -9.2201
 278   2.0000      -0.337890        -9.1945
 279   2.0000      -0.336413        -9.1543
 280   2.0000      -0.333021        -9.0620
 281   2.0000      -0.323546        -8.8041
 282   2.0000      -0.320392        -8.7183
 283   2.0000      -0.317072        -8.6280
 284   2.0000      -0.315006        -8.5718
 285   2.0000      -0.302134        -8.2215
 286   2.0000      -0.295691        -8.0462
 287   2.0000      -0.294277        -8.0077
 288   2.0000      -0.281033        -7.6473
 289   2.0000      -0.238884        -6.5004
 290   0.0000      -0.112744        -3.0679
 291   0.0000      -0.099861        -2.7174
 292   0.0000      -0.082296        -2.2394
 293   0.0000      -0.066005        -1.7961
 294   0.0000      -0.060374        -1.6429

MULLIKEN ATOMIC CHARGES
-----------------------
   0 C :    0.255949
   1 C :   -0.320218
   2 C :   -0.177451
   3 N :    0.160309
   4 C :   -0.187431
   5 N :    0.168313
   6 C :    0.039240
   7 C :    0.008681
   8 C :   -0.080585
   9 C :    0.095959
  10 C :    0.096780
  11 C :   -0.079286
  12 C :   -0.018627
  13 C :    0.037996
  14 C :    0.036729
  15 C :   -0.016454
  16 C :    0.141991
  17 O :   -0.129995
  18 C :   -0.129478
  19 C :    0.050987
  20 C :   -0.232540
  21 S :    0.201497
  22 C :    0.097848
  23 C :    0.191168
  24 O :   -0.149552
  25 N :   -0.308091
  26 C :    0.130614
  27 C :   -0.009358
  28 C :    0.218821
  29 O :   -0.184946
  30 C :    0.017855
  31 C :   -0.137982
  32 C :    0.063100
  33 C :   -0.021782
  34 C :    0.139946
  35 N :   -0.263201
  36 C :    0.095051
  37 C :    0.007486
  38 C :    0.148559
  39 O :   -0.183536
  40 C :   -0.028650
  41 C :   -0.060599
  42 C :    0.159438
  43 O :   -0.212043
  44 N :   -0.266519
  45 C :    0.097991
  46 C :   -0.001345
  47 C :    0.097375
  48 C :   -0.015513
  49 C :   -0.029866
  50 C :    0.019562
  51 C :    0.170365
  52 F :   -0.164505
  53 C :    0.185508
  54 F :   -0.165213
  55 C :   -0.016919
  56 C :    0.015724
  57 C :    0.009502
  58 N :   -0.281539
  59 S :    0.518399
  60 N :   -0.270981
  61 C :    0.072811
  62 C :   -0.014584
  63 C :    0.009106
  64 C :   -0.099651
  65 C :    0.280725
  66 C :   -0.336239
  67 C :   -0.181528
  68 N :    0.150790
  69 C :   -0.212527
  70 N :    0.167446
  71 C :    0.052480
  72 C :   -0.003396
  73 C :    0.152508
  74 O :   -0.144463
  75 C :   -0.079244
  76 C :    0.097333
  77 C :    0.095991
  78 C :   -0.083768
  79 C :   -0.018626
  80 C :    0.037557
  81 C :    0.035567
  82 C :   -0.017147
  83 H :   -0.008741
  84 H :   -0.002920
  85 H :   -0.008778
  86 H :   -0.003435
  87 H :   -0.003799
  88 H :   -0.015013
  89 H :    0.048413
  90 H :    0.037808
  91 H :    0.028948
  92 H :    0.029830
  93 H :    0.023682
  94 H :    0.031547
  95 H :    0.002851
  96 H :   -0.002537
  97 H :    0.040024
  98 H :    0.040320
  99 H :    0.019805
 100 H :    0.024507
 101 H :    0.025050
 102 H :    0.030528
 103 H :    0.044611
 104 H :    0.026691
 105 H :    0.022110
 106 H :    0.024721
 107 H :    0.026657
 108 H :    0.002846
 109 H :    0.025078
 110 H :    0.017912
 111 H :    0.034147
 112 H :   -0.013489
 113 H :   -0.007494
 114 H :   -0.009132
 115 H :   -0.005373
 116 H :   -0.005485
 117 H :   -0.017575
Sum of atomic charges:   -0.0000000

LOEWDIN ATOMIC CHARGES
----------------------
   0 C :    0.061205
   1 C :   -0.132756
   2 C :   -0.018204
   3 N :   -0.044933
   4 C :   -0.029125
   5 N :   -0.048055
   6 C :   -0.023628
   7 C :   -0.058146
   8 C :    0.034995
   9 C :   -0.008148
  10 C :   -0.004478
  11 C :    0.017877
  12 C :   -0.005732
  13 C :   -0.011137
  14 C :   -0.011233
  15 C :   -0.008424
  16 C :    0.084308
  17 O :   -0.130802
  18 C :   -0.076516
  19 C :    0.052970
  20 C :   -0.153879
  21 S :    0.493574
  22 C :   -0.056387
  23 C :    0.092055
  24 O :   -0.149536
  25 N :   -0.027536
  26 C :    0.043836
  27 C :   -0.059183
  28 C :    0.100222
  29 O :   -0.167528
  30 C :   -0.088072
  31 C :   -0.116791
  32 C :   -0.004519
  33 C :   -0.013226
  34 C :    0.080210
  35 N :   -0.000025
  36 C :    0.036822
  37 C :   -0.058974
  38 C :    0.079965
  39 O :   -0.186719
  40 C :   -0.104873
  41 C :   -0.120898
  42 C :    0.082390
  43 O :   -0.200907
  44 N :   -0.003380
  45 C :    0.035404
  46 C :   -0.062120
  47 C :    0.067381
  48 C :   -0.010295
  49 C :   -0.006115
  50 C :   -0.048056
  51 C :    0.072925
  52 F :   -0.036861
  53 C :    0.084698
  54 F :   -0.036377
  55 C :   -0.058014
  56 C :   -0.043015
  57 C :   -0.047462
  58 N :   -0.287295
  59 S :    0.651214
  60 N :   -0.279787
  61 C :    0.055197
  62 C :   -0.037070
  63 C :    0.068207
  64 C :   -0.087233
  65 C :    0.075066
  66 C :   -0.137573
  67 C :   -0.017543
  68 N :   -0.053122
  69 C :   -0.026162
  70 N :   -0.049682
  71 C :   -0.025978
  72 C :   -0.054188
  73 C :    0.084152
  74 O :   -0.133432
  75 C :    0.031345
  76 C :   -0.008166
  77 C :   -0.006350
  78 C :    0.019347
  79 C :   -0.005636
  80 C :   -0.013413
  81 C :   -0.012417
  82 C :   -0.009768
  83 H :    0.040499
  84 H :    0.039442
  85 H :    0.034938
  86 H :    0.033835
  87 H :    0.033436
  88 H :    0.032639
  89 H :    0.060085
  90 H :    0.034250
  91 H :    0.031468
  92 H :    0.030276
  93 H :    0.030883
  94 H :    0.028760
  95 H :    0.036785
  96 H :    0.033420
  97 H :    0.029629
  98 H :    0.036851
  99 H :    0.024075
 100 H :    0.031909
 101 H :    0.029973
 102 H :    0.021878
 103 H :    0.037090
 104 H :    0.022892
 105 H :    0.031116
 106 H :    0.030795
 107 H :    0.045886
 108 H :    0.035300
 109 H :    0.042486
 110 H :    0.034247
 111 H :    0.046665
 112 H :    0.038714
 113 H :    0.039040
 114 H :    0.034730
 115 H :    0.033068
 116 H :    0.032627
 117 H :    0.031832

  Mayer bond orders larger than 0.100000
B(  0-C ,  1-C ) :   1.6695 B(  0-C ,  6-C ) :   1.0068 B(  0-C , 18-C ) :   1.0173
B(  1-C ,  2-C ) :   1.1354 B(  1-C ,  4-C ) :   1.1561 B(  2-C ,  3-N ) :   2.9911
B(  4-C ,  5-N ) :   3.0097 B(  6-C ,  7-C ) :   1.2128 B(  6-C , 11-C ) :   1.4531
B(  7-C ,  8-C ) :   1.4708 B(  7-C , 16-C ) :   0.9214 B(  8-C ,  9-C ) :   1.1874
B(  8-C , 83-H ) :   1.0164 B(  9-C , 10-C ) :   1.2539 B(  9-C , 15-C ) :   1.2440
B( 10-C , 11-C ) :   1.2074 B( 10-C , 12-C ) :   1.2389 B( 11-C , 84-H ) :   0.9939
B( 12-C , 13-C ) :   1.4899 B( 12-C , 85-H ) :   0.9981 B( 13-C , 14-C ) :   1.2588
B( 13-C , 86-H ) :   0.9889 B( 14-C , 15-C ) :   1.4893 B( 14-C , 87-H ) :   0.9896
B( 15-C , 88-H ) :   0.9982 B( 16-C , 17-O ) :   2.2885 B( 16-C , 18-C ) :   0.9232
B( 18-C , 19-C ) :   1.7076 B( 19-C , 20-C ) :   1.0817 B( 19-C , 89-H ) :   0.9429
B( 20-C , 21-S ) :   1.1263 B( 20-C , 22-C ) :   1.5065 B( 21-S , 31-C ) :   1.1447
B( 22-C , 23-C ) :   0.8804 B( 22-C , 30-C ) :   1.2875 B( 23-C , 24-O ) :   2.2059
B( 23-C , 25-N ) :   1.0653 B( 25-N , 26-C ) :   0.9178 B( 25-N , 28-C ) :   1.0973
B( 26-C , 27-C ) :   1.1254 B( 26-C , 90-H ) :   0.9391 B( 26-C , 91-H ) :   0.9441
B( 27-C , 92-H ) :   0.9675 B( 27-C , 93-H ) :   0.9697 B( 27-C , 94-H ) :   0.9692
B( 28-C , 29-O ) :   2.0712 B( 28-C , 30-C ) :   0.9017 B( 29-O , 96-H ) :   0.1003
B( 30-C , 31-C ) :   1.4638 B( 31-C , 32-C ) :   1.1424 B( 32-C , 33-C ) :   1.6044
B( 32-C , 95-H ) :   0.9403 B( 33-C , 34-C ) :   1.1661 B( 33-C , 96-H ) :   0.9380
B( 34-C , 35-N ) :   1.1769 B( 34-C , 41-C ) :   1.3150 B( 35-N , 36-C ) :   0.9397
B( 35-N , 38-C ) :   1.0317 B( 36-C , 37-C ) :   1.1239 B( 36-C , 97-H ) :   0.9477
B( 36-C , 98-H ) :   0.9277 B( 37-C , 99-H ) :   0.9673 B( 37-C ,100-H ) :   0.9675
B( 37-C ,101-H ) :   0.9642 B( 38-C , 39-O ) :   2.1456 B( 38-C , 40-C ) :   0.9673
B( 40-C , 41-C ) :   1.2449 B( 40-C , 47-C ) :   1.3596 B( 41-C , 42-C ) :   0.9931
B( 42-C , 43-O ) :   2.0281 B( 42-C , 44-N ) :   1.0590 B( 43-O , 95-H ) :   0.1020
B( 44-N , 45-C ) :   0.9419 B( 44-N , 47-C ) :   1.1672 B( 45-C , 46-C ) :   1.1163
B( 45-C ,102-H ) :   0.9513 B( 45-C ,103-H ) :   0.9233 B( 46-C ,104-H ) :   0.9665
B( 46-C ,105-H ) :   0.9668 B( 46-C ,106-H ) :   0.9628 B( 47-C , 48-C ) :   1.1737
B( 48-C , 49-C ) :   1.5797 B( 48-C ,107-H ) :   0.9492 B( 49-C , 50-C ) :   1.1366
B( 49-C ,108-H ) :   0.9752 B( 50-C , 51-C ) :   1.3690 B( 50-C , 55-C ) :   0.1248
B( 50-C , 57-C ) :   1.1543 B( 51-C , 52-F ) :   1.1420 B( 51-C , 53-C ) :   1.1633
B( 53-C , 54-F ) :   1.1395 B( 53-C , 55-C ) :   1.3755 B( 55-C , 56-C ) :   1.1494
B( 55-C , 61-C ) :   1.1601 B( 56-C , 57-C ) :   1.1438 B( 56-C , 60-N ) :   1.5699
B( 57-C , 58-N ) :   1.5616 B( 58-N , 59-S ) :   1.2597 B( 58-N , 60-N ) :   0.1464
B( 59-S , 60-N ) :   1.2652 B( 61-C , 62-C ) :   1.6606 B( 61-C ,109-H ) :   0.9554
B( 62-C , 63-C ) :   1.1553 B( 62-C ,110-H ) :   0.9527 B( 63-C , 64-C ) :   1.6444
B( 63-C ,111-H ) :   0.9480 B( 64-C , 65-C ) :   1.0449 B( 64-C , 73-C ) :   0.9321
B( 65-C , 66-C ) :   1.6592 B( 65-C , 71-C ) :   0.9977 B( 66-C , 67-C ) :   1.1408
B( 66-C , 69-C ) :   1.1371 B( 67-C , 68-N ) :   2.9747 B( 69-C , 70-N ) :   3.0156
B( 71-C , 72-C ) :   1.2120 B( 71-C , 78-C ) :   1.4507 B( 72-C , 73-C ) :   0.9476
B( 72-C , 75-C ) :   1.4741 B( 73-C , 74-O ) :   2.2122 B( 75-C , 76-C ) :   1.1806
B( 75-C ,112-H ) :   1.0157 B( 76-C , 77-C ) :   1.2573 B( 76-C , 82-C ) :   1.2432
B( 77-C , 78-C ) :   1.2052 B( 77-C , 79-C ) :   1.2395 B( 78-C ,113-H ) :   0.9919
B( 79-C , 80-C ) :   1.4885 B( 79-C ,114-H ) :   0.9975 B( 80-C , 81-C ) :   1.2609
B( 80-C ,115-H ) :   0.9882 B( 81-C , 82-C ) :   1.4895 B( 81-C ,116-H ) :   0.9886
B( 82-C ,117-H ) :   0.9977

-----------------------------------------------------------------------------
         ABSORPTION SPECTRUM VIA TRANSITION ELECTRIC DIPOLE MOMENTS
-----------------------------------------------------------------------------
State   Energy  Wavelength   fosc         T2         TX        TY        TZ
        (cm-1)    (nm)                  (au**2)     (au)      (au)      (au)
-----------------------------------------------------------------------------
   0   13080.2    764.5   1.112950783  28.01151  -1.10402   5.16429  -0.35042
   1   17437.9    573.5   0.187757116   3.54469  -1.22326   1.40419   0.27675
   2   20771.6    481.4   0.201851022   3.19917  -0.78644  -0.90645   1.32628
   3   22311.2    448.2   0.411158657   6.06682  -0.65162   2.23557  -0.80277
   4   24101.3    414.9   0.224298944   3.06381   0.74642   1.52750  -0.41641
   5   25183.4    397.1   0.006368671   0.08325   0.01276   0.26681  -0.10910
   6   25493.4    392.3   0.194355038   2.50983   0.70309   0.98414  -1.02321
   7   25674.3    389.5   0.025872539   0.33175  -0.28818  -0.34518   0.35994
   8   26465.8    377.8   0.146416191   1.82129   0.30656   1.20954  -0.51412
   9   27014.7    370.2   0.093911112   1.14444   0.46871  -0.94239   0.19145
  10   27100.4    369.0   0.010005874   0.12155   0.25675   0.04268  -0.23197
  11   27494.5    363.7   0.086360089   1.03405  -0.05583  -0.67090   0.76212
  12   27697.8    361.0   0.002416499   0.02872  -0.11876   0.09189  -0.07858
  13   28398.1    352.1   0.015641885   0.18133  -0.19394   0.36082   0.11633
  14   28646.0    349.1   0.096206289   1.10564   0.95137  -0.36947  -0.25305
  15   28912.0    345.9   0.036152580   0.41166  -0.36593  -0.20966   0.48352
  16   29349.0    340.7   0.199121924   2.23358   0.10520  -0.95142   1.14774
  17   29544.6    338.5   0.082516901   0.91948   0.73238   0.38492  -0.48470
  18   29913.1    334.3   0.101658677   1.11882  -0.02679  -0.98498   0.38460
  19   31027.2    322.3   0.026977737   0.28625  -0.50504   0.03489   0.17309
  20   31096.3    321.6   0.005506774   0.05830  -0.08319   0.17624  -0.14254
  21   32046.3    312.0   0.080898056   0.83107   0.79497  -0.06669  -0.44118
  22   32443.7    308.2   0.010547105   0.10702   0.12005  -0.12305  -0.27833
  23   32837.6    304.5   0.123477410   1.23792  -0.22811  -0.08390   1.08575
  24   32977.8    303.2   0.207111681   2.06756   1.32586  -0.48122   0.27941
  25   33081.5    302.3   0.662249411   6.59040   1.56892   1.12397  -1.69280
  26   33199.1    301.2   0.129857328   1.28770   0.67956   0.81683   0.39835
  27   33380.6    299.6   0.113412374   1.11852   0.05314   0.02620   1.05594
  28   33477.5    298.7   0.173586796   1.70702  -0.67401  -0.70581   0.86865
  29   33527.8    298.3   0.043148273   0.42368  -0.17009   0.00151   0.62829
  30   34255.7    291.9   0.027981755   0.26892  -0.34856   0.17134  -0.34360
  31   34395.9    290.7   0.055199680   0.52833  -0.56366  -0.21966   0.40295
  32   34565.8    289.3   0.043324671   0.41263  -0.57781  -0.14570   0.23988
  33   35144.6    284.5   0.294195912   2.75584   1.06935   0.60090  -1.11859
  34   35279.2    283.5   0.060928386   0.56856   0.16860   0.28517  -0.67736
  35   35331.6    283.0   0.109319861   1.01862  -0.19081  -0.65342   0.74515
  36   35501.1    281.7   0.012581316   0.11667   0.24306  -0.20786  -0.11994
  37   35830.9    279.1   0.147378851   1.35411  -0.82922  -0.16181   0.80020
  38   36465.9    274.2   0.015692848   0.14167   0.14115   0.08659  -0.33801
  39   36488.4    274.1   0.059616768   0.53789   0.30562  -0.53876   0.39270
  40   36607.5    273.2   0.040174434   0.36129   0.16013  -0.55926   0.15125
  41   36775.9    271.9   0.072648195   0.65033  -0.79334  -0.11659   0.08573
  42   36956.7    270.6   0.041292443   0.36784  -0.38606  -0.23796   0.40270
  43   37195.6    268.8   0.057400875   0.50804  -0.23237   0.18322   0.64845
  44   37420.5    267.2   0.014253776   0.12540   0.05525  -0.21868   0.27299
  45   37618.9    265.8   0.217460686   1.90305  -0.95620   0.97089  -0.21471
  46   37837.2    264.3   0.213659909   1.85900   1.32516   0.28243  -0.15229
  47   38210.9    261.7   0.030915052   0.26635  -0.49680   0.02622  -0.13733
  48   38667.0    258.6   0.009220214   0.07850  -0.01079   0.12040  -0.25276
  49   38766.7    258.0   0.090450120   0.76812   0.38682  -0.73517   0.27930
  50   38984.7    256.5   0.124043524   1.04750   0.26857  -0.80197   0.57639
  51   39225.8    254.9   0.041815780   0.35095  -0.52825   0.25250  -0.09026
  52   39378.0    253.9   0.029030738   0.24271   0.48940  -0.05259  -0.02066
  53   39887.3    250.7   0.000975817   0.00805  -0.05301  -0.05568   0.04630
  54   40093.7    249.4   0.038169664   0.31341   0.34183  -0.42058   0.14028

FINAL SINGLE POINT ENERGY     -4395.308233906407

DIPOLE MOMENT
-------------
                                X             Y             Z
Electronic contribution:    -19.61931      34.88805      10.76005
Nuclear contribution   :     21.32473     -35.56269      -8.89685
                        -----------------------------------------
Total Dipole Moment    :      1.70541      -0.67464       1.86321
                        -----------------------------------------
Magnitude (a.u.)       :      2.61441
Magnitude (Debye)      :      6.64529

Rotational constants in cm-1:     0.001447     0.000171     0.000158
Rotational constants in MHz :    43.366672     5.119196     4.747720

                             ****ORCA TERMINATED NORMALLY****
TOTAL RUN TIME: 0 days 0 hours 23 minutes 24 seconds 130 msec
