                         Program Version 4.2.0 -  RELEASE  -
|  1> # ORCA input file
|  2> # SCF done       -202.214923989854          0.000568885102
|  3> ! CAM-B3LYP def2-SVP def2/J RIJCOSX Grid4 TightSCF
|  4> %maxcore 5000
|  5> %tddft
|  6>     Mode sTDDFT
|  7>     Ethresh 5.0
|  8>     maxcore 5000
|  9> end
| 10>
| 11> %pal
| 12>   nprocs 6
| 13>   end
| 14> * xyz 0 1
| 15>    C       -0.62851        -0.14765         2.89630
| 16>    C       -1.92898         0.02032         2.50430
| 17>    C       -3.03047        -0.53580         3.18929
| 18>    N       -3.95451        -0.96660         3.71511
| 19>    C       -2.30474         0.67812         1.31551
| 20>    N       -2.64154         1.16215         0.33070
| 21>    C       -0.17145        -1.03906         3.95578
| 22>    C        1.20633        -1.33830         3.73768
| 23>    C        1.89253        -2.19325         4.55205
| 24>    C        1.22453        -2.78842         5.64514
| 25>    C       -0.14659        -2.47712         5.88069
| 26>    C       -0.83433        -1.59332         5.01807
| 27>    C       -0.79822        -3.07229         6.98012
| 28>    C       -0.13139        -3.93675         7.80489
| 29>    C        1.21744        -4.24426         7.57083
| 30>    C        1.88100        -3.68231         6.51417
| 31>    C        1.69075        -0.58956         2.56789
| 32>    O        2.77954        -0.62645         2.04615
| 33>    C        0.55171         0.30030         2.17705
| 34>    C        0.79327         1.35911         1.37111
| 35>    C       -0.02742         2.50398         1.14870
| 36>    S        0.11497         3.38904        -0.33577
| 37>    C       -1.08583         4.54210         0.16254
| 38>    C       -1.44987         5.58930        -0.80922
| 39>    O       -1.86164         6.68019        -0.50934
| 40>    O       -1.26962         5.27682        -2.10034
| 41>    C       -1.54889         4.27012         1.45041
| 42>    C       -0.94204         3.10179         1.97440
| 43>    C       -2.56274         4.91266         2.24011
| 44>    C       -3.12095         6.12793         2.05030
| 45>    C       -4.15243         6.61512         2.89996
| 46>    N       -4.75866         7.83456         2.71670
| 47>    C       -4.49342         8.77992         1.65729
| 48>    C       -5.14011         8.35947         0.34054
| 49>    C       -5.76039         8.07215         3.66923
| 50>    O       -6.42691         9.08992         3.70740
| 51>    C       -5.74969         6.89251         4.50585
| 52>    C       -4.74471         6.01942         4.01107
| 53>    C       -4.73151         4.84198         4.84696
| 54>    O       -4.04562         3.83541         4.83162
| 55>    N       -5.75035         5.06893         5.78632
| 56>    C       -6.02914         4.11658         6.83326
| 57>    C       -5.42183         4.54281         8.16774
| 58>    C       -6.36423         6.28778         5.59807
| 59>    C       -7.44126         6.76304         6.39214
| 60>    C       -7.99724         7.98153         6.18289
| 61>    C       -9.08876         8.52203         6.91784
| 62>    S       -9.64537        10.11734         6.50368
| 63>    C      -10.88664        10.06208         7.70874
| 64>    C      -11.78958        11.20334         7.91915
| 65>    O      -12.59316        11.25533         8.81369
| 66>    O      -11.67792        12.22235         7.05022
| 67>    C      -10.86538         8.85112         8.40802
| 68>    C       -9.83870         7.99848         7.94401
| 69>    C      -11.80255         8.51932         9.44304
| 70>    C      -11.72157         7.42241        10.23241
| 71>    C      -12.70405         7.15217        11.21945
| 72>    C      -12.67338         6.08954        12.07343
| 73>    C      -13.65393         5.77212        13.09906
| 74>    C      -14.88615         6.34654        13.26333
| 75>    C      -15.79876         5.98157        14.27602
| 76>    N      -16.58456         5.73301        15.07520
| 77>    C      -15.44581         7.34529        12.43747
| 78>    N      -15.98639         8.13756        11.80687
| 79>    C      -13.11955         4.67662        13.89992
| 80>    C      -11.88043         4.26075        13.33462
| 81>    C      -11.57003         5.09589        12.16212
| 82>    O      -10.60437         4.98694        11.43336
| 83>    C      -11.15138         3.23729        13.86890
| 84>    C      -11.63432         2.57288        15.01807
| 85>    C      -12.86957         2.98785        15.59411
| 86>    C      -13.60372         4.04904        15.01734
| 87>    C      -13.34155         2.32068        16.74294
| 88>    C      -12.62956         1.29212        17.29703
| 89>    C      -11.41335         0.88401        16.72896
| 90>    C      -10.92646         1.51053        15.61404
| 91>    H        2.93286        -2.41314         4.36390
| 92>    H       -1.86864        -1.36595         5.22411
| 93>    H       -1.83741        -2.83534         7.15429
| 94>    H       -0.64000        -4.38965         8.64261
| 95>    H        1.72793        -4.92830         8.23194
| 96>    H        2.91935        -3.91488         6.32883
| 97>    H        1.75884         1.35611         0.87435
| 98>    H       -0.99291         4.36205        -2.24898
| 99>    H       -1.16310         2.74305         2.96465
|100>    H       -2.88926         4.32393         3.08852
|101>    H       -2.79688         6.75890         1.23919
|102>    H       -3.41444         8.89720         1.53186
|103>    H       -4.92020         9.73006         1.99101
|104>    H       -4.70670         7.43315        -0.02716
|105>    H       -4.98025         9.13297        -0.40469
|106>    H       -6.21010         8.22022         0.47622
|107>    H       -5.58057         3.17308         6.50958
|108>    H       -7.11004         3.97744         6.92462
|109>    H       -4.34199         4.62821         8.07361
|110>    H       -5.64789         3.80087         8.92848
|111>    H       -5.81750         5.50418         8.48796
|112>    H       -7.81695         6.11863         7.17308
|113>    H       -7.59930         8.61082         5.39720
|114>    H      -11.00970        12.08323         6.36579
|115>    H       -9.66664         7.01756         8.34615
|116>    H      -12.61509         9.21917         9.58357
|117>    H      -10.90593         6.72145        10.14262
|118>    H      -13.51974         7.86092        11.28789
|119>    H      -10.21537         2.93888        13.42020
|120>    H      -14.53273         4.34142        15.48002
|121>    H      -14.27889         2.63818        17.17567
|122>    H      -12.99967         0.78682        18.17648
|123>    H      -10.86436         0.07067        17.17957
|124>    H       -9.99051         1.20045        15.17256
|125> *
|126>
|127>                          ****END OF INPUT****

CARTESIAN COORDINATES (ANGSTROEM)
---------------------------------
  C     -0.628510   -0.147650    2.896300
  C     -1.928980    0.020320    2.504300
  C     -3.030470   -0.535800    3.189290
  N     -3.954510   -0.966600    3.715110
  C     -2.304740    0.678120    1.315510
  N     -2.641540    1.162150    0.330700
  C     -0.171450   -1.039060    3.955780
  C      1.206330   -1.338300    3.737680
  C      1.892530   -2.193250    4.552050
  C      1.224530   -2.788420    5.645140
  C     -0.146590   -2.477120    5.880690
  C     -0.834330   -1.593320    5.018070
  C     -0.798220   -3.072290    6.980120
  C     -0.131390   -3.936750    7.804890
  C      1.217440   -4.244260    7.570830
  C      1.881000   -3.682310    6.514170
  C      1.690750   -0.589560    2.567890
  O      2.779540   -0.626450    2.046150
  C      0.551710    0.300300    2.177050
  C      0.793270    1.359110    1.371110
  C     -0.027420    2.503980    1.148700
  S      0.114970    3.389040   -0.335770
  C     -1.085830    4.542100    0.162540
  C     -1.449870    5.589300   -0.809220
  O     -1.861640    6.680190   -0.509340
  O     -1.269620    5.276820   -2.100340
  C     -1.548890    4.270120    1.450410
  C     -0.942040    3.101790    1.974400
  C     -2.562740    4.912660    2.240110
  C     -3.120950    6.127930    2.050300
  C     -4.152430    6.615120    2.899960
  N     -4.758660    7.834560    2.716700
  C     -4.493420    8.779920    1.657290
  C     -5.140110    8.359470    0.340540
  C     -5.760390    8.072150    3.669230
  O     -6.426910    9.089920    3.707400
  C     -5.749690    6.892510    4.505850
  C     -4.744710    6.019420    4.011070
  C     -4.731510    4.841980    4.846960
  O     -4.045620    3.835410    4.831620
  N     -5.750350    5.068930    5.786320
  C     -6.029140    4.116580    6.833260
  C     -5.421830    4.542810    8.167740
  C     -6.364230    6.287780    5.598070
  C     -7.441260    6.763040    6.392140
  C     -7.997240    7.981530    6.182890
  C     -9.088760    8.522030    6.917840
  S     -9.645370   10.117340    6.503680
  C    -10.886640   10.062080    7.708740
  C    -11.789580   11.203340    7.919150
  O    -12.593160   11.255330    8.813690
  O    -11.677920   12.222350    7.050220
  C    -10.865380    8.851120    8.408020
  C     -9.838700    7.998480    7.944010
  C    -11.802550    8.519320    9.443040
  C    -11.721570    7.422410   10.232410
  C    -12.704050    7.152170   11.219450
  C    -12.673380    6.089540   12.073430
  C    -13.653930    5.772120   13.099060
  C    -14.886150    6.346540   13.263330
  C    -15.798760    5.981570   14.276020
  N    -16.584560    5.733010   15.075200
  C    -15.445810    7.345290   12.437470
  N    -15.986390    8.137560   11.806870
  C    -13.119550    4.676620   13.899920
  C    -11.880430    4.260750   13.334620
  C    -11.570030    5.095890   12.162120
  O    -10.604370    4.986940   11.433360
  C    -11.151380    3.237290   13.868900
  C    -11.634320    2.572880   15.018070
  C    -12.869570    2.987850   15.594110
  C    -13.603720    4.049040   15.017340
  C    -13.341550    2.320680   16.742940
  C    -12.629560    1.292120   17.297030
  C    -11.413350    0.884010   16.728960
  C    -10.926460    1.510530   15.614040
  H      2.932860   -2.413140    4.363900
  H     -1.868640   -1.365950    5.224110
  H     -1.837410   -2.835340    7.154290
  H     -0.640000   -4.389650    8.642610
  H      1.727930   -4.928300    8.231940
  H      2.919350   -3.914880    6.328830
  H      1.758840    1.356110    0.874350
  H     -0.992910    4.362050   -2.248980
  H     -1.163100    2.743050    2.964650
  H     -2.889260    4.323930    3.088520
  H     -2.796880    6.758900    1.239190
  H     -3.414440    8.897200    1.531860
  H     -4.920200    9.730060    1.991010
  H     -4.706700    7.433150   -0.027160
  H     -4.980250    9.132970   -0.404690
  H     -6.210100    8.220220    0.476220
  H     -5.580570    3.173080    6.509580
  H     -7.110040    3.977440    6.924620
  H     -4.341990    4.628210    8.073610
  H     -5.647890    3.800870    8.928480
  H     -5.817500    5.504180    8.487960
  H     -7.816950    6.118630    7.173080
  H     -7.599300    8.610820    5.397200
  H    -11.009700   12.083230    6.365790
  H     -9.666640    7.017560    8.346150
  H    -12.615090    9.219170    9.583570
  H    -10.905930    6.721450   10.142620
  H    -13.519740    7.860920   11.287890
  H    -10.215370    2.938880   13.420200
  H    -14.532730    4.341420   15.480020
  H    -14.278890    2.638180   17.175670
  H    -12.999670    0.786820   18.176480
  H    -10.864360    0.070670   17.179570
  H     -9.990510    1.200450   15.172560

 Total Charge           Charge          ....    0
 Multiplicity           Mult            ....    1
 Number of Electrons    NEL             ....  532
 Basis Dimension        Dim             .... 1242

ORBITAL ENERGIES
----------------

  NO   OCC          E(Eh)            E(eV)
   0   2.0000     -88.990426     -2421.5526
   1   2.0000     -88.984252     -2421.3846
   2   2.0000     -19.273222      -524.4510
   3   2.0000     -19.264232      -524.2064
   4   2.0000     -19.225959      -523.1649
   5   2.0000     -19.216557      -522.9091
   6   2.0000     -19.216349      -522.9034
   7   2.0000     -19.203062      -522.5419
   8   2.0000     -19.193786      -522.2895
   9   2.0000     -19.192550      -522.2558
  10   2.0000     -14.455571      -393.3561
  11   2.0000     -14.453274      -393.2936
  12   2.0000     -14.425018      -392.5247
  13   2.0000     -14.423918      -392.4948
  14   2.0000     -14.411692      -392.1621
  15   2.0000     -14.411399      -392.1541
  16   2.0000     -10.425414      -283.6899
  17   2.0000     -10.413792      -283.3737
  18   2.0000     -10.376963      -282.3715
  19   2.0000     -10.375431      -282.3298
  20   2.0000     -10.375396      -282.3289
  21   2.0000     -10.367258      -282.1074
  22   2.0000     -10.355004      -281.7740
  23   2.0000     -10.352247      -281.6990
  24   2.0000     -10.341036      -281.3939
  25   2.0000     -10.339229      -281.3447
  26   2.0000     -10.337651      -281.3018
  27   2.0000     -10.337284      -281.2918
  28   2.0000     -10.335891      -281.2539
  29   2.0000     -10.334131      -281.2060
  30   2.0000     -10.332445      -281.1601
  31   2.0000     -10.329369      -281.0764
  32   2.0000     -10.326332      -280.9938
  33   2.0000     -10.325757      -280.9781
  34   2.0000     -10.323946      -280.9289
  35   2.0000     -10.315635      -280.7027
  36   2.0000     -10.314543      -280.6730
  37   2.0000     -10.313994      -280.6580
  38   2.0000     -10.313638      -280.6484
  39   2.0000     -10.313118      -280.6342
  40   2.0000     -10.312397      -280.6146
  41   2.0000     -10.311012      -280.5769
  42   2.0000     -10.310461      -280.5619
  43   2.0000     -10.306441      -280.4525
  44   2.0000     -10.306361      -280.4503
  45   2.0000     -10.305910      -280.4381
  46   2.0000     -10.305844      -280.4363
  47   2.0000     -10.305724      -280.4330
  48   2.0000     -10.302638      -280.3490
  49   2.0000     -10.301322      -280.3132
  50   2.0000     -10.301238      -280.3109
  51   2.0000     -10.299822      -280.2724
  52   2.0000     -10.298893      -280.2471
  53   2.0000     -10.297958      -280.2217
  54   2.0000     -10.297282      -280.2033
  55   2.0000     -10.297188      -280.2007
  56   2.0000     -10.296776      -280.1895
  57   2.0000     -10.296249      -280.1752
  58   2.0000     -10.296049      -280.1697
  59   2.0000     -10.295066      -280.1430
  60   2.0000     -10.294139      -280.1178
  61   2.0000     -10.293736      -280.1068
  62   2.0000     -10.293493      -280.1002
  63   2.0000     -10.293035      -280.0877
  64   2.0000     -10.290674      -280.0235
  65   2.0000     -10.287552      -279.9385
  66   2.0000     -10.286535      -279.9109
  67   2.0000     -10.286040      -279.8974
  68   2.0000     -10.285460      -279.8816
  69   2.0000     -10.284870      -279.8655
  70   2.0000     -10.284305      -279.8502
  71   2.0000     -10.283369      -279.8247
  72   2.0000     -10.267071      -279.3812
  73   2.0000     -10.262805      -279.2651
  74   2.0000     -10.261018      -279.2165
  75   2.0000     -10.254879      -279.0495
  76   2.0000      -8.086279      -220.0388
  77   2.0000      -8.079982      -219.8675
  78   2.0000      -6.055519      -164.7791
  79   2.0000      -6.051224      -164.6622
  80   2.0000      -6.049055      -164.6032
  81   2.0000      -6.048590      -164.5905
  82   2.0000      -6.044986      -164.4924
  83   2.0000      -6.042474      -164.4241
  84   2.0000      -1.199967       -32.6527
  85   2.0000      -1.188542       -32.3419
  86   2.0000      -1.141641       -31.0656
  87   2.0000      -1.134864       -30.8812
  88   2.0000      -1.130313       -30.7574
  89   2.0000      -1.128210       -30.7002
  90   2.0000      -1.112951       -30.2849
  91   2.0000      -1.101767       -29.9806
  92   2.0000      -1.064848       -28.9760
  93   2.0000      -1.056523       -28.7495
  94   2.0000      -1.029549       -28.0154
  95   2.0000      -1.015137       -27.6233
  96   2.0000      -1.014866       -27.6159
  97   2.0000      -1.009096       -27.4589
  98   2.0000      -1.007454       -27.4142
  99   2.0000      -1.001669       -27.2568
 100   2.0000      -0.996258       -27.1096
 101   2.0000      -0.990008       -26.9395
 102   2.0000      -0.980378       -26.6774
 103   2.0000      -0.970087       -26.3974
 104   2.0000      -0.935672       -25.4609
 105   2.0000      -0.932725       -25.3807
 106   2.0000      -0.928970       -25.2785
 107   2.0000      -0.922825       -25.1113
 108   2.0000      -0.920141       -25.0383
 109   2.0000      -0.912688       -24.8355
 110   2.0000      -0.907614       -24.6974
 111   2.0000      -0.891794       -24.2669
 112   2.0000      -0.890683       -24.2367
 113   2.0000      -0.887669       -24.1547
 114   2.0000      -0.880218       -23.9520
 115   2.0000      -0.874959       -23.8088
 116   2.0000      -0.868925       -23.6446
 117   2.0000      -0.861577       -23.4447
 118   2.0000      -0.855286       -23.2735
 119   2.0000      -0.846608       -23.0374
 120   2.0000      -0.836939       -22.7743
 121   2.0000      -0.829769       -22.5792
 122   2.0000      -0.827262       -22.5109
 123   2.0000      -0.819337       -22.2953
 124   2.0000      -0.804572       -21.8935
 125   2.0000      -0.797166       -21.6920
 126   2.0000      -0.784575       -21.3494
 127   2.0000      -0.778028       -21.1712
 128   2.0000      -0.770591       -20.9688
 129   2.0000      -0.759904       -20.6780
 130   2.0000      -0.759702       -20.6725
 131   2.0000      -0.743270       -20.2254
 132   2.0000      -0.736872       -20.0513
 133   2.0000      -0.729790       -19.8586
 134   2.0000      -0.723969       -19.7002
 135   2.0000      -0.714312       -19.4374
 136   2.0000      -0.712104       -19.3773
 137   2.0000      -0.708521       -19.2798
 138   2.0000      -0.708210       -19.2714
 139   2.0000      -0.703150       -19.1337
 140   2.0000      -0.702480       -19.1155
 141   2.0000      -0.695854       -18.9352
 142   2.0000      -0.693141       -18.8613
 143   2.0000      -0.686801       -18.6888
 144   2.0000      -0.684946       -18.6383
 145   2.0000      -0.677191       -18.4273
 146   2.0000      -0.672893       -18.3103
 147   2.0000      -0.665481       -18.1086
 148   2.0000      -0.652942       -17.7675
 149   2.0000      -0.650300       -17.6956
 150   2.0000      -0.648657       -17.6509
 151   2.0000      -0.642117       -17.4729
 152   2.0000      -0.634789       -17.2735
 153   2.0000      -0.621638       -16.9156
 154   2.0000      -0.619592       -16.8600
 155   2.0000      -0.616256       -16.7692
 156   2.0000      -0.614072       -16.7098
 157   2.0000      -0.605784       -16.4842
 158   2.0000      -0.604710       -16.4550
 159   2.0000      -0.599515       -16.3136
 160   2.0000      -0.588583       -16.0162
 161   2.0000      -0.586859       -15.9692
 162   2.0000      -0.584267       -15.8987
 163   2.0000      -0.583742       -15.8844
 164   2.0000      -0.572429       -15.5766
 165   2.0000      -0.567775       -15.4499
 166   2.0000      -0.565823       -15.3968
 167   2.0000      -0.559583       -15.2270
 168   2.0000      -0.558345       -15.1933
 169   2.0000      -0.554923       -15.1002
 170   2.0000      -0.553665       -15.0660
 171   2.0000      -0.550203       -14.9718
 172   2.0000      -0.549094       -14.9416
 173   2.0000      -0.547744       -14.9049
 174   2.0000      -0.545817       -14.8524
 175   2.0000      -0.545342       -14.8395
 176   2.0000      -0.542871       -14.7723
 177   2.0000      -0.540703       -14.7133
 178   2.0000      -0.536226       -14.5915
 179   2.0000      -0.534491       -14.5442
 180   2.0000      -0.532205       -14.4820
 181   2.0000      -0.532151       -14.4806
 182   2.0000      -0.529280       -14.4025
 183   2.0000      -0.528471       -14.3804
 184   2.0000      -0.527058       -14.3420
 185   2.0000      -0.526227       -14.3194
 186   2.0000      -0.521282       -14.1848
 187   2.0000      -0.520050       -14.1513
 188   2.0000      -0.518700       -14.1146
 189   2.0000      -0.514974       -14.0132
 190   2.0000      -0.513799       -13.9812
 191   2.0000      -0.513249       -13.9662
 192   2.0000      -0.512194       -13.9375
 193   2.0000      -0.509774       -13.8717
 194   2.0000      -0.503526       -13.7016
 195   2.0000      -0.500315       -13.6143
 196   2.0000      -0.499286       -13.5863
 197   2.0000      -0.496847       -13.5199
 198   2.0000      -0.496387       -13.5074
 199   2.0000      -0.495085       -13.4719
 200   2.0000      -0.493002       -13.4153
 201   2.0000      -0.491931       -13.3861
 202   2.0000      -0.487655       -13.2698
 203   2.0000      -0.485874       -13.2213
 204   2.0000      -0.484895       -13.1947
 205   2.0000      -0.482152       -13.1200
 206   2.0000      -0.474075       -12.9002
 207   2.0000      -0.473187       -12.8761
 208   2.0000      -0.467473       -12.7206
 209   2.0000      -0.465826       -12.6758
 210   2.0000      -0.464645       -12.6436
 211   2.0000      -0.460964       -12.5435
 212   2.0000      -0.459658       -12.5079
 213   2.0000      -0.458443       -12.4749
 214   2.0000      -0.455739       -12.4013
 215   2.0000      -0.453291       -12.3347
 216   2.0000      -0.452682       -12.3181
 217   2.0000      -0.449337       -12.2271
 218   2.0000      -0.448366       -12.2006
 219   2.0000      -0.447830       -12.1861
 220   2.0000      -0.445007       -12.1092
 221   2.0000      -0.444362       -12.0917
 222   2.0000      -0.442277       -12.0350
 223   2.0000      -0.441416       -12.0115
 224   2.0000      -0.440688       -11.9917
 225   2.0000      -0.439764       -11.9666
 226   2.0000      -0.438551       -11.9336
 227   2.0000      -0.437634       -11.9086
 228   2.0000      -0.436190       -11.8693
 229   2.0000      -0.434620       -11.8266
 230   2.0000      -0.432842       -11.7782
 231   2.0000      -0.431591       -11.7442
 232   2.0000      -0.430584       -11.7168
 233   2.0000      -0.428162       -11.6509
 234   2.0000      -0.424997       -11.5648
 235   2.0000      -0.422562       -11.4985
 236   2.0000      -0.421528       -11.4704
 237   2.0000      -0.418332       -11.3834
 238   2.0000      -0.416722       -11.3396
 239   2.0000      -0.411786       -11.2053
 240   2.0000      -0.405628       -11.0377
 241   2.0000      -0.403459       -10.9787
 242   2.0000      -0.401189       -10.9169
 243   2.0000      -0.392709       -10.6861
 244   2.0000      -0.389772       -10.6062
 245   2.0000      -0.383853       -10.4452
 246   2.0000      -0.378639       -10.3033
 247   2.0000      -0.372928       -10.1479
 248   2.0000      -0.369260       -10.0481
 249   2.0000      -0.365972        -9.9586
 250   2.0000      -0.356634        -9.7045
 251   2.0000      -0.351222        -9.5572
 252   2.0000      -0.349901        -9.5213
 253   2.0000      -0.346250        -9.4219
 254   2.0000      -0.334790        -9.1101
 255   2.0000      -0.333931        -9.0867
 256   2.0000      -0.327061        -8.8998
 257   2.0000      -0.324635        -8.8338
 258   2.0000      -0.318245        -8.6599
 259   2.0000      -0.316045        -8.6000
 260   2.0000      -0.313293        -8.5251
 261   2.0000      -0.308126        -8.3845
 262   2.0000      -0.300502        -8.1771
 263   2.0000      -0.296592        -8.0707
 264   2.0000      -0.282644        -7.6911
 265   2.0000      -0.239977        -6.5301
 266   0.0000      -0.104076        -2.8320
 267   0.0000      -0.097198        -2.6449
 268   0.0000      -0.089663        -2.4399
 269   0.0000      -0.065728        -1.7885
 270   0.0000      -0.057634        -1.5683

MULLIKEN ATOMIC CHARGES
-----------------------
   0 C :    0.262484
   1 C :   -0.321664
   2 C :   -0.169791
   3 N :    0.160746
   4 C :   -0.193471
   5 N :    0.170685
   6 C :    0.030897
   7 C :    0.011360
   8 C :   -0.075887
   9 C :    0.094173
  10 C :    0.092487
  11 C :   -0.075475
  12 C :   -0.016439
  13 C :    0.036697
  14 C :    0.035372
  15 C :   -0.013359
  16 C :    0.138506
  17 O :   -0.136001
  18 C :   -0.120433
  19 C :    0.089296
  20 C :   -0.100709
  21 S :    0.138635
  22 C :   -0.235325
  23 C :    0.226890
  24 O :   -0.176654
  25 O :   -0.153594
  26 C :    0.150860
  27 C :    0.005244
  28 C :   -0.034578
  29 C :   -0.002570
  30 C :    0.120212
  31 N :   -0.253038
  32 C :    0.095432
  33 C :    0.008410
  34 C :    0.168228
  35 O :   -0.215546
  36 C :   -0.065188
  37 C :   -0.061099
  38 C :    0.166368
  39 O :   -0.221494
  40 N :   -0.257072
  41 C :    0.096278
  42 C :    0.003872
  43 C :    0.124292
  44 C :   -0.015614
  45 C :    0.074476
  46 C :   -0.057917
  47 S :    0.134356
  48 C :   -0.215264
  49 C :    0.200136
  50 O :   -0.171527
  51 O :   -0.156165
  52 C :    0.120869
  53 C :   -0.028464
  54 C :    0.005788
  55 C :    0.002945
  56 C :   -0.037534
  57 C :   -0.067289
  58 C :    0.328170
  59 C :   -0.344089
  60 C :   -0.184911
  61 N :    0.146986
  62 C :   -0.201839
  63 N :    0.161291
  64 C :    0.043611
  65 C :   -0.000875
  66 C :    0.151650
  67 O :   -0.159063
  68 C :   -0.077416
  69 C :    0.095811
  70 C :    0.092888
  71 C :   -0.079490
  72 C :   -0.016200
  73 C :    0.036393
  74 C :    0.034237
  75 C :   -0.014105
  76 H :   -0.008740
  77 H :   -0.002533
  78 H :   -0.008746
  79 H :   -0.002567
  80 H :   -0.002010
  81 H :   -0.014814
  82 H :    0.029576
  83 H :    0.185108
  84 H :    0.020971
  85 H :    0.008474
  86 H :   -0.000299
  87 H :    0.037745
  88 H :    0.037576
  89 H :    0.022719
  90 H :    0.026087
  91 H :    0.021676
  92 H :    0.044732
  93 H :    0.026604
  94 H :    0.028653
  95 H :    0.025712
  96 H :    0.015275
  97 H :   -0.022532
  98 H :    0.006556
  99 H :    0.180529
 100 H :    0.001068
 101 H :    0.036013
 102 H :    0.020981
 103 H :    0.023444
 104 H :   -0.018092
 105 H :   -0.009055
 106 H :   -0.008977
 107 H :   -0.004961
 108 H :   -0.005584
 109 H :   -0.020474
Sum of atomic charges:   -0.0000000

LOEWDIN ATOMIC CHARGES
----------------------
   0 C :    0.065164
   1 C :   -0.127119
   2 C :   -0.017346
   3 N :   -0.042133
   4 C :   -0.015601
   5 N :   -0.043351
   6 C :   -0.023644
   7 C :   -0.059186
   8 C :    0.035970
   9 C :   -0.008330
  10 C :   -0.004264
  11 C :    0.019172
  12 C :   -0.005552
  13 C :   -0.010544
  14 C :   -0.010864
  15 C :   -0.007923
  16 C :    0.084965
  17 O :   -0.135939
  18 C :   -0.073197
  19 C :    0.044518
  20 C :   -0.171718
  21 S :    0.465919
  22 C :   -0.212244
  23 C :    0.073881
  24 O :   -0.151374
  25 O :   -0.023900
  26 C :   -0.022668
  27 C :   -0.007840
  28 C :    0.014897
  29 C :   -0.026059
  30 C :    0.079689
  31 N :    0.006322
  32 C :    0.037371
  33 C :   -0.059021
  34 C :    0.081135
  35 O :   -0.203493
  36 C :   -0.118845
  37 C :   -0.123079
  38 C :    0.081266
  39 O :   -0.210286
  40 N :    0.000430
  41 C :    0.036221
  42 C :   -0.061274
  43 C :    0.072319
  44 C :   -0.034391
  45 C :    0.000885
  46 C :   -0.150457
  47 S :    0.464717
  48 C :   -0.225677
  49 C :    0.068300
  50 O :   -0.152508
  51 O :   -0.029247
  52 C :   -0.030405
  53 C :   -0.030781
  54 C :    0.039788
  55 C :   -0.027024
  56 C :    0.076188
  57 C :   -0.091680
  58 C :    0.074295
  59 C :   -0.135329
  60 C :   -0.016419
  61 N :   -0.054023
  62 C :   -0.024360
  63 N :   -0.044203
  64 C :   -0.024683
  65 C :   -0.055727
  66 C :    0.086733
  67 O :   -0.153115
  68 C :    0.030941
  69 C :   -0.008917
  70 C :   -0.005984
  71 C :    0.019403
  72 C :   -0.004831
  73 C :   -0.013595
  74 C :   -0.013290
  75 C :   -0.010264
  76 H :    0.040594
  77 H :    0.039914
  78 H :    0.034999
  79 H :    0.034086
  80 H :    0.033937
  81 H :    0.032840
  82 H :    0.048576
  83 H :    0.078960
  84 H :    0.041856
  85 H :    0.036727
  86 H :    0.029833
  87 H :    0.029328
  88 H :    0.035330
  89 H :    0.024879
  90 H :    0.032775
  91 H :    0.028440
  92 H :    0.038386
  93 H :    0.023873
  94 H :    0.031668
  95 H :    0.031416
  96 H :    0.022031
  97 H :    0.030116
  98 H :    0.035765
  99 H :    0.076483
 100 H :    0.035980
 101 H :    0.042474
 102 H :    0.028361
 103 H :    0.046185
 104 H :    0.037145
 105 H :    0.039004
 106 H :    0.034946
 107 H :    0.033102
 108 H :    0.032420
 109 H :    0.030788

  Mayer bond orders larger than 0.100000
B(  0-C ,  1-C ) :   1.6749 B(  0-C ,  6-C ) :   1.0039 B(  0-C , 18-C ) :   1.0110
B(  1-C ,  2-C ) :   1.1257 B(  1-C ,  4-C ) :   1.1663 B(  2-C ,  3-N ) :   2.9917
B(  4-C ,  5-N ) :   3.0042 B(  6-C ,  7-C ) :   1.2118 B(  6-C , 11-C ) :   1.4553
B(  7-C ,  8-C ) :   1.4719 B(  7-C , 16-C ) :   0.9235 B(  8-C ,  9-C ) :   1.1897
B(  8-C , 76-H ) :   1.0150 B(  9-C , 10-C ) :   1.2510 B(  9-C , 15-C ) :   1.2440
B( 10-C , 11-C ) :   1.2088 B( 10-C , 12-C ) :   1.2413 B( 11-C , 77-H ) :   0.9938
B( 12-C , 13-C ) :   1.4909 B( 12-C , 78-H ) :   0.9971 B( 13-C , 14-C ) :   1.2581
B( 13-C , 79-H ) :   0.9892 B( 14-C , 15-C ) :   1.4906 B( 14-C , 80-H ) :   0.9894
B( 15-C , 81-H ) :   0.9974 B( 16-C , 17-O ) :   2.2771 B( 16-C , 18-C ) :   0.9248
B( 18-C , 19-C ) :   1.7510 B( 19-C , 20-C ) :   1.0560 B( 19-C , 82-H ) :   0.9296
B( 20-C , 21-S ) :   1.1257 B( 20-C , 27-C ) :   1.4872 B( 21-S , 22-C ) :   1.1200
B( 22-C , 23-C ) :   0.9277 B( 22-C , 26-C ) :   1.4805 B( 23-C , 24-O ) :   2.0672
B( 23-C , 25-O ) :   1.2612 B( 24-O , 86-H ) :   0.1036 B( 25-O , 83-H ) :   0.9413
B( 26-C , 27-C ) :   1.2413 B( 26-C , 28-C ) :   1.1028 B( 27-C , 84-H ) :   1.0035
B( 28-C , 29-C ) :   1.6279 B( 28-C , 85-H ) :   0.9464 B( 29-C , 30-C ) :   1.1361
B( 29-C , 86-H ) :   0.9423 B( 30-C , 31-N ) :   1.1670 B( 30-C , 37-C ) :   1.3365
B( 31-N , 32-C ) :   0.9384 B( 31-N , 34-C ) :   1.0721 B( 32-C , 33-C ) :   1.1251
B( 32-C , 87-H ) :   0.9484 B( 32-C , 88-H ) :   0.9283 B( 33-C , 89-H ) :   0.9662
B( 33-C , 90-H ) :   0.9672 B( 33-C , 91-H ) :   0.9629 B( 34-C , 35-O ) :   2.0083
B( 34-C , 36-C ) :   0.9829 B( 35-O , 98-H ) :   0.1259 B( 36-C , 37-C ) :   1.2494
B( 36-C , 43-C ) :   1.3541 B( 37-C , 38-C ) :   0.9911 B( 38-C , 39-O ) :   2.0098
B( 38-C , 40-N ) :   1.0666 B( 39-O , 85-H ) :   0.1180 B( 40-N , 41-C ) :   0.9460
B( 40-N , 43-C ) :   1.1531 B( 41-C , 42-C ) :   1.1210 B( 41-C , 92-H ) :   0.9281
B( 41-C , 93-H ) :   0.9497 B( 42-C , 94-H ) :   0.9634 B( 42-C , 95-H ) :   0.9680
B( 42-C , 96-H ) :   0.9683 B( 43-C , 44-C ) :   1.1569 B( 44-C , 45-C ) :   1.6420
B( 44-C , 97-H ) :   0.9640 B( 45-C , 46-C ) :   1.1061 B( 45-C , 98-H ) :   0.9314
B( 46-C , 47-S ) :   1.1452 B( 46-C , 53-C ) :   1.4973 B( 47-S , 48-C ) :   1.1152
B( 48-C , 49-C ) :   0.9495 B( 48-C , 52-C ) :   1.4597 B( 49-C , 50-O ) :   2.1204
B( 49-C , 51-O ) :   1.2479 B( 51-O , 99-H ) :   0.9482 B( 52-C , 53-C ) :   1.2589
B( 52-C , 54-C ) :   1.0773 B( 53-C ,100-H ) :   0.9911 B( 54-C , 55-C ) :   1.5903
B( 54-C ,101-H ) :   0.9742 B( 55-C , 56-C ) :   1.1434 B( 55-C ,102-H ) :   0.9729
B( 56-C , 57-C ) :   1.5496 B( 56-C ,103-H ) :   0.9697 B( 57-C , 58-C ) :   1.0516
B( 57-C , 66-C ) :   0.9433 B( 58-C , 59-C ) :   1.6383 B( 58-C , 64-C ) :   0.9888
B( 59-C , 60-C ) :   1.1461 B( 59-C , 62-C ) :   1.1410 B( 60-C , 61-N ) :   2.9639
B( 62-C , 63-N ) :   2.9811 B( 64-C , 65-C ) :   1.2172 B( 64-C , 71-C ) :   1.4502
B( 65-C , 66-C ) :   0.9470 B( 65-C , 68-C ) :   1.4712 B( 66-C , 67-O ) :   2.1908
B( 68-C , 69-C ) :   1.1812 B( 68-C ,104-H ) :   1.0149 B( 69-C , 70-C ) :   1.2571
B( 69-C , 75-C ) :   1.2442 B( 70-C , 71-C ) :   1.2083 B( 70-C , 72-C ) :   1.2390
B( 71-C ,105-H ) :   0.9884 B( 72-C , 73-C ) :   1.4912 B( 72-C ,106-H ) :   0.9969
B( 73-C , 74-C ) :   1.2586 B( 73-C ,107-H ) :   0.9886 B( 74-C , 75-C ) :   1.4903
B( 74-C ,108-H ) :   0.9889 B( 75-C ,109-H ) :   0.9968

-----------------------------------------------------------------------------
         ABSORPTION SPECTRUM VIA TRANSITION ELECTRIC DIPOLE MOMENTS
-----------------------------------------------------------------------------
State   Energy  Wavelength   fosc         T2         TX        TY        TZ
        (cm-1)    (nm)                  (au**2)     (au)      (au)      (au)
-----------------------------------------------------------------------------
   0   15842.9    631.2   0.393400442   8.17475  -1.96004   0.30788   2.05869
   1   16711.9    598.4   0.424470456   8.36173  -2.11196   0.76645   1.82041
   2   19863.5    503.4   0.060007843   0.99455   0.39944   0.49403  -0.76872
   3   24286.0    411.8   0.498472971   6.75712  -1.29083  -1.43277   1.74300
   4   24975.6    400.4   0.186680734   2.46070   0.94026   0.34460  -1.20742
   5   25677.7    389.4   0.150817483   1.93362  -0.50253  -1.22935   0.41205
   6   26511.7    377.2   0.294947750   3.66255  -0.15001   1.52868  -1.14157
   7   26643.8    375.3   0.050665578   0.62603  -0.37275  -0.41877   0.55832
   8   27064.3    369.5   0.310278541   3.77426   0.57258   1.02818  -1.54572
   9   27695.1    361.1   0.090206873   1.07229   0.35866   0.63093  -0.73863
  10   27845.7    359.1   0.006565276   0.07762  -0.17734  -0.09364   0.19339
  11   28196.8    354.7   0.059877469   0.69910   0.59398  -0.53596   0.24297
  12   28340.3    352.9   0.117358504   1.36328  -0.60291   0.99514   0.09733
  13   29005.0    344.8   0.002088099   0.02370   0.08200  -0.07878  -0.10377
  14   29188.8    342.6   0.006875253   0.07754   0.11734  -0.12501  -0.21943
  15   29572.7    338.1   0.004784652   0.05326   0.12250  -0.07254   0.18165
  16   30002.2    333.3   0.088935445   0.97588  -0.28913   0.81945  -0.46988
  17   30698.4    325.8   0.100513548   1.07792  -0.55346   0.77142   0.42013
  18   30944.3    323.2   0.243523013   2.59080   1.08371  -0.39699  -1.12195
  19   31856.0    313.9   0.038926610   0.40228   0.26178   0.28249  -0.50394
  20   32050.5    312.0   0.091753996   0.94247  -0.13071   0.60461  -0.74822
  21   32138.7    311.2   0.281710956   2.88570  -0.78992   1.23063  -0.86446
  22   32652.7    306.3   0.012590984   0.12695  -0.09675   0.28378  -0.19250
  23   32845.5    304.5   0.317571541   3.18303  -1.05865   1.43560   0.03667
  24   33424.1    299.2   0.173590284   1.70979  -0.71705   0.95595  -0.53084
  25   33454.9    298.9   0.790232109   7.77627   1.37432  -1.71722   1.71425
  26   33505.6    298.5   0.200935736   1.97431   0.60882  -0.72407   1.03893
  27   33796.5    295.9   0.142894532   1.39193   0.55409  -1.04110  -0.03202
  28   33984.0    294.3   0.802154560   7.77068  -1.28215   2.08838  -1.32870
  29   34097.7    293.3   0.025137997   0.24271  -0.23792   0.12147   0.41394
  30   34209.3    292.3   0.114009377   1.09717  -0.42228   0.84385  -0.45471
  31   34572.6    289.2   0.094075801   0.89582   0.02947  -0.45244   0.83081
  32   34963.4    286.0   0.113779562   1.07134   0.42317  -0.86198   0.38633
  33   35033.9    285.4   0.003165576   0.02975  -0.07265   0.15563   0.01574
  34   35150.6    284.5   0.010294288   0.09641  -0.14196   0.22347   0.16224
  35   35370.5    282.7   0.003045062   0.02834   0.06050   0.06838   0.14144
  36   35872.8    278.8   0.004473244   0.04105  -0.06114   0.19066  -0.03106
  37   36322.7    275.3   0.013681538   0.12400   0.15291  -0.17183  -0.26664
  38   36910.7    270.9   0.000504873   0.00450   0.00517   0.06563   0.01301
  39   36962.7    270.5   0.003449634   0.03072  -0.08656   0.05194  -0.14329
  40   36982.5    270.4   0.006986981   0.06220   0.00347  -0.15619   0.19440
  41   37758.1    264.8   0.018868939   0.16452   0.28162  -0.27595   0.09520
  42   37943.0    263.6   0.029261557   0.25389   0.07250   0.04548  -0.49655
  43   38171.9    262.0   0.375169876   3.23564  -1.14712   1.34176   0.34559
  44   38291.3    261.2   0.114428116   0.98380  -0.80561   0.52935  -0.23363
  45   39150.4    255.4   0.170285085   1.43191  -1.01238  -0.08011   0.63291
  46   39345.2    254.2   0.002847141   0.02382  -0.08912  -0.12557   0.01057
  47   39604.8    252.5   0.033237170   0.27628  -0.43804   0.01889   0.28991
  48   40027.4    249.8   0.004431021   0.03644   0.15619  -0.02183   0.10757
  49   40316.5    248.0   0.000735454   0.00601  -0.06495   0.02118   0.03658

FINAL SINGLE POINT ENERGY     -4029.235514925799

DIPOLE MOMENT
-------------
                                X             Y             Z
Electronic contribution:     -4.70701       7.48154     -16.54180
Nuclear contribution   :      9.47380     -11.12942      17.45028
                        -----------------------------------------
Total Dipole Moment    :      4.76679      -3.64788       0.90848
                        -----------------------------------------
Magnitude (a.u.)       :      6.07080
Magnitude (Debye)      :     15.43075

Rotational constants in cm-1:     0.000899     0.000300     0.000230
Rotational constants in MHz :    26.955320     9.007811     6.885693

                             ****ORCA TERMINATED NORMALLY****
TOTAL RUN TIME: 0 days 0 hours 9 minutes 56 seconds 33 msec
