                         Program Version 4.2.0 -  RELEASE  -
|  1> # ORCA input file
|  2> # SCF done       -202.447523274887          0.000896075627
|  3> ! CAM-B3LYP def2-SVP def2/J RIJCOSX Grid4 TightSCF
|  4> %maxcore 5000
|  5> %tddft
|  6>     Mode sTDDFT
|  7>     Ethresh 5.0
|  8>     maxcore 5000
|  9> end
| 10>
| 11> %pal
| 12>   nprocs 6
| 13>   end
| 14> * xyz 0 1
| 15>    C       -0.41268         6.08047         3.34171
| 16>    C       -1.36827         6.88436         2.78664
| 17>    C       -1.47224         8.26753         3.03582
| 18>    N       -1.56694         9.40535         3.15512
| 19>    C       -2.38095         6.42419         1.91910
| 20>    N       -3.25219         6.08979         1.25058
| 21>    C        0.45594         6.43950         4.45393
| 22>    C        0.93790         5.24232         5.06283
| 23>    C        1.74449         5.27354         6.16492
| 24>    C        2.12320         6.52225         6.70637
| 25>    C        1.66114         7.72176         6.08953
| 26>    C        0.81709         7.65941         4.95796
| 27>    C        2.05632         8.96072         6.63411
| 28>    C        2.86494         9.01530         7.73645
| 29>    C        3.31603         7.83431         8.34520
| 30>    C        2.95293         6.61479         7.84154
| 31>    C        0.44746         4.07628         4.31063
| 32>    O        0.58941         2.90427         4.55682
| 33>    C       -0.22257         4.66111         3.10063
| 34>    C       -0.33826         3.90551         1.98227
| 35>    C       -0.56650         4.35336         0.65254
| 36>    O       -0.54986         5.66470         0.33393
| 37>    C       -0.78921         3.64069        -0.50981
| 38>    C       -0.90598         2.27977        -1.04916
| 39>    O       -0.84335         1.20726        -0.51597
| 40>    N       -1.10597         2.49484        -2.41219
| 41>    C       -1.11902         3.82237        -2.81379
| 42>    O       -1.22492         4.18794        -3.95620
| 43>    C       -0.94303         4.57947        -1.56141
| 44>    C       -0.79673         5.83390        -0.98822
| 45>    C       -0.83246         7.20355        -1.39187
| 46>    N       -1.42787         7.73617        -2.50024
| 47>    C       -2.29605         7.06419        -3.43709
| 48>    C       -3.64418         6.73392        -2.80102
| 49>    C       -1.30393         9.14795        -2.52478
| 50>    O       -1.76658         9.83368        -3.40976
| 51>    C       -0.55170         9.46006        -1.33147
| 52>    C       -0.27843         8.24743        -0.65518
| 53>    C        0.48198         8.57028         0.53381
| 54>    O        0.92853         7.88275         1.42952
| 55>    N        0.61796         9.97174         0.49521
| 56>    C        1.28764        10.65927         1.57292
| 57>    C        2.77348        10.85734         1.28277
| 58>    C        0.00740        10.51372        -0.60883
| 59>    C       -0.09758        11.87068        -1.01097
| 60>    C        0.56825        12.97069        -0.57796
| 61>    C        0.30002        14.23961        -1.16342
| 62>    O       -0.61013        14.33314        -2.15339
| 63>    C        0.80807        15.50732        -0.93009
| 64>    C        1.75927        16.27910        -0.12095
| 65>    O        2.51132        15.93616         0.75248
| 66>    N        1.61520        17.57764        -0.60130
| 67>    C        0.68509        17.74106        -1.62905
| 68>    O        0.43761        18.77713        -2.18024
| 69>    C        0.15673        16.38201        -1.83086
| 70>    C       -0.73017        15.61205        -2.56762
| 71>    C       -1.61929        15.96507        -3.62195
| 72>    C       -2.51033        15.13237        -4.21840
| 73>    C       -3.26267        15.41720        -5.43689
| 74>    C       -3.53980        16.65211        -5.95391
| 75>    C       -4.27737        16.85689        -7.14046
| 76>    N       -4.86625        17.08257        -8.09925
| 77>    C       -3.18567        17.88144        -5.35513
| 78>    N       -2.95276        18.91721        -4.92055
| 79>    C       -3.70441        14.14037        -5.98445
| 80>    C       -3.41690        13.11495        -5.03799
| 81>    C       -2.82162        13.71099        -3.83599
| 82>    O       -2.71015        13.19471        -2.75062
| 83>    C       -3.69314        11.79942        -5.27713
| 84>    C       -4.29496        11.44491        -6.50444
| 85>    C       -4.60305        12.46356        -7.45391
| 86>    C       -4.29400        13.81550        -7.17870
| 87>    C       -5.21390        12.09341        -8.66995
| 88>    C       -5.50482        10.78338        -8.93696
| 89>    C       -5.19643         9.78170        -8.00362
| 90>    C       -4.60386        10.10565        -6.81356
| 91>    H        2.09179         4.35648         6.61715
| 92>    H        0.48380         8.57908         4.50475
| 93>    H        1.70350         9.86727         6.16465
| 94>    H        3.16116         9.96913         8.14649
| 95>    H        3.95296         7.89605         9.21472
| 96>    H        3.29763         5.70260         8.30592
| 97>    H       -0.16477         2.84032         2.08401
| 98>    H       -1.20618         1.73660        -3.07273
| 99>    H       -1.81279         6.16339        -3.81473
|100>    H       -2.43473         7.76457        -4.26518
|101>    H       -3.51709         6.09856        -1.92736
|102>    H       -4.26885         6.21354        -3.52115
|103>    H       -4.15039         7.64534        -2.49038
|104>    H        1.17679        10.02295         2.45546
|105>    H        0.78002        11.60647         1.76124
|106>    H        3.26581         9.89046         1.21101
|107>    H        3.23432        11.42350         2.08727
|108>    H        2.92601        11.39023         0.34701
|109>    H       -0.81897        12.01168        -1.80867
|110>    H        1.32897        12.96850         0.18507
|111>    H        2.15142        18.35200        -0.23566
|112>    H       -1.49998        16.98149        -3.97363
|113>    H       -3.42900        11.04634        -4.54993
|114>    H       -4.52339        14.55955        -7.92514
|115>    H       -5.44976        12.86677        -9.38620
|116>    H       -5.97407        10.51113        -9.87048
|117>    H       -5.43151         8.75319        -8.23336
|118>    H       -4.36308         9.34280        -6.08823
|119> *
|120>
|121>                          ****END OF INPUT****

CARTESIAN COORDINATES (ANGSTROEM)
---------------------------------
  C     -0.412680    6.080470    3.341710
  C     -1.368270    6.884360    2.786640
  C     -1.472240    8.267530    3.035820
  N     -1.566940    9.405350    3.155120
  C     -2.380950    6.424190    1.919100
  N     -3.252190    6.089790    1.250580
  C      0.455940    6.439500    4.453930
  C      0.937900    5.242320    5.062830
  C      1.744490    5.273540    6.164920
  C      2.123200    6.522250    6.706370
  C      1.661140    7.721760    6.089530
  C      0.817090    7.659410    4.957960
  C      2.056320    8.960720    6.634110
  C      2.864940    9.015300    7.736450
  C      3.316030    7.834310    8.345200
  C      2.952930    6.614790    7.841540
  C      0.447460    4.076280    4.310630
  O      0.589410    2.904270    4.556820
  C     -0.222570    4.661110    3.100630
  C     -0.338260    3.905510    1.982270
  C     -0.566500    4.353360    0.652540
  O     -0.549860    5.664700    0.333930
  C     -0.789210    3.640690   -0.509810
  C     -0.905980    2.279770   -1.049160
  O     -0.843350    1.207260   -0.515970
  N     -1.105970    2.494840   -2.412190
  C     -1.119020    3.822370   -2.813790
  O     -1.224920    4.187940   -3.956200
  C     -0.943030    4.579470   -1.561410
  C     -0.796730    5.833900   -0.988220
  C     -0.832460    7.203550   -1.391870
  N     -1.427870    7.736170   -2.500240
  C     -2.296050    7.064190   -3.437090
  C     -3.644180    6.733920   -2.801020
  C     -1.303930    9.147950   -2.524780
  O     -1.766580    9.833680   -3.409760
  C     -0.551700    9.460060   -1.331470
  C     -0.278430    8.247430   -0.655180
  C      0.481980    8.570280    0.533810
  O      0.928530    7.882750    1.429520
  N      0.617960    9.971740    0.495210
  C      1.287640   10.659270    1.572920
  C      2.773480   10.857340    1.282770
  C      0.007400   10.513720   -0.608830
  C     -0.097580   11.870680   -1.010970
  C      0.568250   12.970690   -0.577960
  C      0.300020   14.239610   -1.163420
  O     -0.610130   14.333140   -2.153390
  C      0.808070   15.507320   -0.930090
  C      1.759270   16.279100   -0.120950
  O      2.511320   15.936160    0.752480
  N      1.615200   17.577640   -0.601300
  C      0.685090   17.741060   -1.629050
  O      0.437610   18.777130   -2.180240
  C      0.156730   16.382010   -1.830860
  C     -0.730170   15.612050   -2.567620
  C     -1.619290   15.965070   -3.621950
  C     -2.510330   15.132370   -4.218400
  C     -3.262670   15.417200   -5.436890
  C     -3.539800   16.652110   -5.953910
  C     -4.277370   16.856890   -7.140460
  N     -4.866250   17.082570   -8.099250
  C     -3.185670   17.881440   -5.355130
  N     -2.952760   18.917210   -4.920550
  C     -3.704410   14.140370   -5.984450
  C     -3.416900   13.114950   -5.037990
  C     -2.821620   13.710990   -3.835990
  O     -2.710150   13.194710   -2.750620
  C     -3.693140   11.799420   -5.277130
  C     -4.294960   11.444910   -6.504440
  C     -4.603050   12.463560   -7.453910
  C     -4.294000   13.815500   -7.178700
  C     -5.213900   12.093410   -8.669950
  C     -5.504820   10.783380   -8.936960
  C     -5.196430    9.781700   -8.003620
  C     -4.603860   10.105650   -6.813560
  H      2.091790    4.356480    6.617150
  H      0.483800    8.579080    4.504750
  H      1.703500    9.867270    6.164650
  H      3.161160    9.969130    8.146490
  H      3.952960    7.896050    9.214720
  H      3.297630    5.702600    8.305920
  H     -0.164770    2.840320    2.084010
  H     -1.206180    1.736600   -3.072730
  H     -1.812790    6.163390   -3.814730
  H     -2.434730    7.764570   -4.265180
  H     -3.517090    6.098560   -1.927360
  H     -4.268850    6.213540   -3.521150
  H     -4.150390    7.645340   -2.490380
  H      1.176790   10.022950    2.455460
  H      0.780020   11.606470    1.761240
  H      3.265810    9.890460    1.211010
  H      3.234320   11.423500    2.087270
  H      2.926010   11.390230    0.347010
  H     -0.818970   12.011680   -1.808670
  H      1.328970   12.968500    0.185070
  H      2.151420   18.352000   -0.235660
  H     -1.499980   16.981490   -3.973630
  H     -3.429000   11.046340   -4.549930
  H     -4.523390   14.559550   -7.925140
  H     -5.449760   12.866770   -9.386200
  H     -5.974070   10.511130   -9.870480
  H     -5.431510    8.753190   -8.233360
  H     -4.363080    9.342800   -6.088230

 Total Charge           Charge          ....    0
 Multiplicity           Mult            ....    1
 Number of Electrons    NEL             ....  512
 Basis Dimension        Dim             .... 1204

ORBITAL ENERGIES
----------------

  NO   OCC          E(Eh)            E(eV)
   0   2.0000     -19.330933      -526.0214
   1   2.0000     -19.318999      -525.6967
   2   2.0000     -19.234084      -523.3860
   3   2.0000     -19.230431      -523.2866
   4   2.0000     -19.223665      -523.1025
   5   2.0000     -19.220945      -523.0285
   6   2.0000     -19.220803      -523.0246
   7   2.0000     -19.215731      -522.8866
   8   2.0000     -19.207986      -522.6759
   9   2.0000     -19.204691      -522.5862
  10   2.0000     -14.474347      -393.8670
  11   2.0000     -14.468720      -393.7139
  12   2.0000     -14.468266      -393.7015
  13   2.0000     -14.463390      -393.5688
  14   2.0000     -14.423171      -392.4744
  15   2.0000     -14.420609      -392.4047
  16   2.0000     -14.416974      -392.3058
  17   2.0000     -14.416662      -392.2973
  18   2.0000     -10.424326      -283.6603
  19   2.0000     -10.419272      -283.5228
  20   2.0000     -10.410492      -283.2839
  21   2.0000     -10.410288      -283.2783
  22   2.0000     -10.393278      -282.8155
  23   2.0000     -10.390996      -282.7534
  24   2.0000     -10.388303      -282.6801
  25   2.0000     -10.384167      -282.5676
  26   2.0000     -10.377818      -282.3948
  27   2.0000     -10.376169      -282.3499
  28   2.0000     -10.374534      -282.3054
  29   2.0000     -10.368814      -282.1498
  30   2.0000     -10.364084      -282.0211
  31   2.0000     -10.356687      -281.8198
  32   2.0000     -10.348239      -281.5899
  33   2.0000     -10.346865      -281.5525
  34   2.0000     -10.344570      -281.4901
  35   2.0000     -10.344147      -281.4786
  36   2.0000     -10.329949      -281.0922
  37   2.0000     -10.327644      -281.0295
  38   2.0000     -10.325860      -280.9809
  39   2.0000     -10.324042      -280.9315
  40   2.0000     -10.322712      -280.8953
  41   2.0000     -10.319117      -280.7974
  42   2.0000     -10.318660      -280.7850
  43   2.0000     -10.317958      -280.7659
  44   2.0000     -10.317251      -280.7467
  45   2.0000     -10.316358      -280.7224
  46   2.0000     -10.316206      -280.7182
  47   2.0000     -10.314355      -280.6679
  48   2.0000     -10.310796      -280.5710
  49   2.0000     -10.309892      -280.5464
  50   2.0000     -10.307171      -280.4724
  51   2.0000     -10.305977      -280.4399
  52   2.0000     -10.302572      -280.3472
  53   2.0000     -10.302000      -280.3317
  54   2.0000     -10.301781      -280.3257
  55   2.0000     -10.301657      -280.3223
  56   2.0000     -10.301427      -280.3161
  57   2.0000     -10.299511      -280.2639
  58   2.0000     -10.295400      -280.1521
  59   2.0000     -10.295069      -280.1431
  60   2.0000     -10.294649      -280.1317
  61   2.0000     -10.293689      -280.1055
  62   2.0000     -10.290239      -280.0116
  63   2.0000     -10.290123      -280.0085
  64   2.0000     -10.289611      -279.9946
  65   2.0000     -10.289490      -279.9913
  66   2.0000     -10.288310      -279.9591
  67   2.0000     -10.284735      -279.8619
  68   2.0000     -10.283935      -279.8401
  69   2.0000     -10.283696      -279.8336
  70   2.0000     -10.283496      -279.8282
  71   2.0000     -10.282875      -279.8112
  72   2.0000     -10.282587      -279.8034
  73   2.0000     -10.278401      -279.6895
  74   2.0000     -10.270730      -279.4808
  75   2.0000     -10.261177      -279.2208
  76   2.0000      -1.254977       -34.1497
  77   2.0000      -1.245498       -33.8917
  78   2.0000      -1.177970       -32.0542
  79   2.0000      -1.165782       -31.7225
  80   2.0000      -1.157175       -31.4883
  81   2.0000      -1.149015       -31.2663
  82   2.0000      -1.145557       -31.1722
  83   2.0000      -1.141937       -31.0737
  84   2.0000      -1.139604       -31.0102
  85   2.0000      -1.133016       -30.8309
  86   2.0000      -1.079240       -29.3676
  87   2.0000      -1.069729       -29.1088
  88   2.0000      -1.064369       -28.9630
  89   2.0000      -1.052862       -28.6498
  90   2.0000      -1.023895       -27.8616
  91   2.0000      -1.019600       -27.7447
  92   2.0000      -1.004088       -27.3226
  93   2.0000      -1.000581       -27.2272
  94   2.0000      -0.998074       -27.1590
  95   2.0000      -0.995032       -27.0762
  96   2.0000      -0.977613       -26.6022
  97   2.0000      -0.971619       -26.4391
  98   2.0000      -0.949468       -25.8363
  99   2.0000      -0.948247       -25.8031
 100   2.0000      -0.942591       -25.6492
 101   2.0000      -0.938587       -25.5403
 102   2.0000      -0.936117       -25.4730
 103   2.0000      -0.924105       -25.1462
 104   2.0000      -0.923400       -25.1270
 105   2.0000      -0.910758       -24.7830
 106   2.0000      -0.901346       -24.5269
 107   2.0000      -0.887507       -24.1503
 108   2.0000      -0.885323       -24.0909
 109   2.0000      -0.880723       -23.9657
 110   2.0000      -0.877407       -23.8755
 111   2.0000      -0.868108       -23.6224
 112   2.0000      -0.854672       -23.2568
 113   2.0000      -0.832589       -22.6559
 114   2.0000      -0.828382       -22.5414
 115   2.0000      -0.826916       -22.5015
 116   2.0000      -0.825745       -22.4697
 117   2.0000      -0.815956       -22.2033
 118   2.0000      -0.798384       -21.7251
 119   2.0000      -0.790637       -21.5143
 120   2.0000      -0.786029       -21.3889
 121   2.0000      -0.778436       -21.1823
 122   2.0000      -0.775588       -21.1048
 123   2.0000      -0.768405       -20.9094
 124   2.0000      -0.767793       -20.8927
 125   2.0000      -0.763335       -20.7714
 126   2.0000      -0.760902       -20.7052
 127   2.0000      -0.730422       -19.8758
 128   2.0000      -0.728384       -19.8203
 129   2.0000      -0.719469       -19.5777
 130   2.0000      -0.717668       -19.5287
 131   2.0000      -0.715610       -19.4727
 132   2.0000      -0.709096       -19.2955
 133   2.0000      -0.704379       -19.1671
 134   2.0000      -0.703078       -19.1317
 135   2.0000      -0.699132       -19.0244
 136   2.0000      -0.694971       -18.9111
 137   2.0000      -0.690640       -18.7933
 138   2.0000      -0.681143       -18.5348
 139   2.0000      -0.676566       -18.4103
 140   2.0000      -0.665805       -18.1175
 141   2.0000      -0.657418       -17.8893
 142   2.0000      -0.647873       -17.6295
 143   2.0000      -0.640544       -17.4301
 144   2.0000      -0.632603       -17.2140
 145   2.0000      -0.630846       -17.1662
 146   2.0000      -0.622910       -16.9503
 147   2.0000      -0.616664       -16.7803
 148   2.0000      -0.612691       -16.6722
 149   2.0000      -0.611696       -16.6451
 150   2.0000      -0.611267       -16.6334
 151   2.0000      -0.606793       -16.5117
 152   2.0000      -0.605018       -16.4634
 153   2.0000      -0.603909       -16.4332
 154   2.0000      -0.601352       -16.3636
 155   2.0000      -0.598196       -16.2777
 156   2.0000      -0.596091       -16.2205
 157   2.0000      -0.587100       -15.9758
 158   2.0000      -0.585771       -15.9396
 159   2.0000      -0.583464       -15.8769
 160   2.0000      -0.580965       -15.8089
 161   2.0000      -0.576995       -15.7008
 162   2.0000      -0.566983       -15.4284
 163   2.0000      -0.565245       -15.3811
 164   2.0000      -0.564426       -15.3588
 165   2.0000      -0.556645       -15.1471
 166   2.0000      -0.556470       -15.1423
 167   2.0000      -0.553875       -15.0717
 168   2.0000      -0.550878       -14.9902
 169   2.0000      -0.549082       -14.9413
 170   2.0000      -0.547047       -14.8859
 171   2.0000      -0.546783       -14.8787
 172   2.0000      -0.541897       -14.7458
 173   2.0000      -0.539877       -14.6908
 174   2.0000      -0.538994       -14.6668
 175   2.0000      -0.538082       -14.6419
 176   2.0000      -0.535874       -14.5819
 177   2.0000      -0.532201       -14.4819
 178   2.0000      -0.531972       -14.4757
 179   2.0000      -0.527443       -14.3525
 180   2.0000      -0.525456       -14.2984
 181   2.0000      -0.524918       -14.2837
 182   2.0000      -0.523349       -14.2410
 183   2.0000      -0.522698       -14.2233
 184   2.0000      -0.519232       -14.1290
 185   2.0000      -0.516884       -14.0651
 186   2.0000      -0.515265       -14.0211
 187   2.0000      -0.513871       -13.9832
 188   2.0000      -0.511165       -13.9095
 189   2.0000      -0.509785       -13.8719
 190   2.0000      -0.506598       -13.7852
 191   2.0000      -0.502567       -13.6755
 192   2.0000      -0.500366       -13.6156
 193   2.0000      -0.497499       -13.5376
 194   2.0000      -0.496299       -13.5050
 195   2.0000      -0.495722       -13.4893
 196   2.0000      -0.492584       -13.4039
 197   2.0000      -0.490347       -13.3430
 198   2.0000      -0.488545       -13.2940
 199   2.0000      -0.487345       -13.2613
 200   2.0000      -0.481181       -13.0936
 201   2.0000      -0.477511       -12.9937
 202   2.0000      -0.473949       -12.8968
 203   2.0000      -0.472439       -12.8557
 204   2.0000      -0.470525       -12.8036
 205   2.0000      -0.467935       -12.7332
 206   2.0000      -0.464686       -12.6447
 207   2.0000      -0.459923       -12.5151
 208   2.0000      -0.458471       -12.4756
 209   2.0000      -0.455465       -12.3938
 210   2.0000      -0.450112       -12.2482
 211   2.0000      -0.449732       -12.2378
 212   2.0000      -0.449293       -12.2259
 213   2.0000      -0.445993       -12.1361
 214   2.0000      -0.443831       -12.0773
 215   2.0000      -0.443268       -12.0619
 216   2.0000      -0.438623       -11.9355
 217   2.0000      -0.438479       -11.9316
 218   2.0000      -0.434831       -11.8324
 219   2.0000      -0.433841       -11.8054
 220   2.0000      -0.432718       -11.7749
 221   2.0000      -0.431342       -11.7374
 222   2.0000      -0.430274       -11.7083
 223   2.0000      -0.428129       -11.6500
 224   2.0000      -0.426296       -11.6001
 225   2.0000      -0.424266       -11.5449
 226   2.0000      -0.420875       -11.4526
 227   2.0000      -0.418027       -11.3751
 228   2.0000      -0.416789       -11.3414
 229   2.0000      -0.411009       -11.1841
 230   2.0000      -0.408124       -11.1056
 231   2.0000      -0.397604       -10.8194
 232   2.0000      -0.396600       -10.7920
 233   2.0000      -0.388971       -10.5844
 234   2.0000      -0.386442       -10.5156
 235   2.0000      -0.384818       -10.4714
 236   2.0000      -0.380402       -10.3513
 237   2.0000      -0.379524       -10.3274
 238   2.0000      -0.374331       -10.1861
 239   2.0000      -0.371046       -10.0967
 240   2.0000      -0.370305       -10.0765
 241   2.0000      -0.365011        -9.9325
 242   2.0000      -0.361716        -9.8428
 243   2.0000      -0.355026        -9.6607
 244   2.0000      -0.354163        -9.6373
 245   2.0000      -0.347622        -9.4593
 246   2.0000      -0.344525        -9.3750
 247   2.0000      -0.333744        -9.0816
 248   2.0000      -0.328643        -8.9428
 249   2.0000      -0.323301        -8.7975
 250   2.0000      -0.315307        -8.5800
 251   2.0000      -0.313222        -8.5232
 252   2.0000      -0.302170        -8.2225
 253   2.0000      -0.296226        -8.0607
 254   2.0000      -0.290202        -7.8968
 255   2.0000      -0.256371        -6.9762
 256   0.0000      -0.118255        -3.2179
 257   0.0000      -0.103294        -2.8108
 258   0.0000      -0.091867        -2.4998
 259   0.0000      -0.061155        -1.6641
 260   0.0000      -0.055956        -1.5226

MULLIKEN ATOMIC CHARGES
-----------------------
   0 C :    0.317141
   1 C :   -0.313933
   2 C :   -0.168003
   3 N :    0.138533
   4 C :   -0.203878
   5 N :    0.165852
   6 C :    0.053217
   7 C :    0.002752
   8 C :   -0.075309
   9 C :    0.090139
  10 C :    0.100099
  11 C :   -0.071178
  12 C :   -0.019114
  13 C :    0.038104
  14 C :    0.032738
  15 C :   -0.011857
  16 C :    0.137171
  17 O :   -0.128658
  18 C :   -0.104629
  19 C :    0.012133
  20 C :    0.094180
  21 O :   -0.188307
  22 C :   -0.028838
  23 C :    0.178334
  24 O :   -0.120337
  25 N :   -0.157881
  26 C :    0.191524
  27 O :   -0.141010
  28 C :   -0.062353
  29 C :    0.073277
  30 C :    0.106831
  31 N :   -0.254935
  32 C :    0.078936
  33 C :   -0.006181
  34 C :    0.164127
  35 O :   -0.179227
  36 C :   -0.046555
  37 C :   -0.021560
  38 C :    0.157109
  39 O :   -0.203519
  40 N :   -0.262958
  41 C :    0.113623
  42 C :    0.005028
  43 C :    0.147637
  44 C :   -0.020418
  45 C :   -0.023257
  46 C :    0.086722
  47 O :   -0.171710
  48 C :   -0.035056
  49 C :    0.169454
  50 O :   -0.138722
  51 N :   -0.166663
  52 C :    0.168069
  53 O :   -0.117630
  54 C :   -0.019004
  55 C :    0.073341
  56 C :   -0.026312
  57 C :   -0.060620
  58 C :    0.287160
  59 C :   -0.335239
  60 C :   -0.182068
  61 N :    0.154002
  62 C :   -0.199576
  63 N :    0.177184
  64 C :    0.059111
  65 C :    0.003006
  66 C :    0.145955
  67 O :   -0.133686
  68 C :   -0.062740
  69 C :    0.096512
  70 C :    0.093235
  71 C :   -0.086633
  72 C :   -0.017834
  73 C :    0.036954
  74 C :    0.037944
  75 C :   -0.014044
  76 H :   -0.010278
  77 H :   -0.012907
  78 H :   -0.014793
  79 H :   -0.004307
  80 H :   -0.002905
  81 H :   -0.016570
  82 H :    0.037334
  83 H :    0.146634
  84 H :    0.041725
  85 H :    0.033927
  86 H :    0.030134
  87 H :    0.023933
  88 H :    0.026494
  89 H :    0.031863
  90 H :    0.033009
  91 H :    0.029120
  92 H :    0.028313
  93 H :    0.018928
  94 H :    0.043409
  95 H :    0.012710
  96 H :    0.142796
  97 H :    0.035141
  98 H :   -0.010805
  99 H :   -0.007530
 100 H :   -0.010287
 101 H :   -0.006081
 102 H :   -0.006901
 103 H :   -0.017811
Sum of atomic charges:   -0.0000000

LOEWDIN ATOMIC CHARGES
----------------------
   0 C :    0.079286
   1 C :   -0.120391
   2 C :   -0.009690
   3 N :   -0.059080
   4 C :   -0.020277
   5 N :   -0.061623
   6 C :   -0.013503
   7 C :   -0.058354
   8 C :    0.034675
   9 C :   -0.008946
  10 C :   -0.003724
  11 C :    0.020091
  12 C :   -0.007856
  13 C :   -0.011340
  14 C :   -0.012855
  15 C :   -0.007512
  16 C :    0.085473
  17 O :   -0.128985
  18 C :   -0.048227
  19 C :    0.035214
  20 C :    0.062584
  21 O :    0.062315
  22 C :   -0.067325
  23 C :    0.086849
  24 O :   -0.137117
  25 N :    0.003222
  26 C :    0.094175
  27 O :   -0.144235
  28 C :   -0.086638
  29 C :    0.073459
  30 C :    0.054335
  31 N :    0.009325
  32 C :    0.025929
  33 C :   -0.061988
  34 C :    0.089888
  35 O :   -0.185282
  36 C :   -0.108085
  37 C :   -0.104350
  38 C :    0.085214
  39 O :   -0.189200
  40 N :    0.008990
  41 C :    0.038475
  42 C :   -0.062172
  43 C :    0.083620
  44 C :    0.004363
  45 C :   -0.019512
  46 C :    0.077542
  47 O :    0.053885
  48 C :   -0.093665
  49 C :    0.084179
  50 O :   -0.156556
  51 N :   -0.005049
  52 C :    0.084810
  53 O :   -0.136063
  54 C :   -0.069702
  55 C :    0.056661
  56 C :    0.033390
  57 C :   -0.053540
  58 C :    0.072472
  59 C :   -0.128305
  60 C :   -0.016335
  61 N :   -0.046604
  62 C :   -0.027736
  63 N :   -0.034580
  64 C :   -0.026830
  65 C :   -0.057472
  66 C :    0.080535
  67 O :   -0.122746
  68 C :    0.043469
  69 C :   -0.006605
  70 C :   -0.005423
  71 C :    0.016844
  72 C :   -0.006754
  73 C :   -0.013240
  74 C :   -0.012787
  75 C :   -0.006951
  76 H :    0.040009
  77 H :    0.036295
  78 H :    0.032709
  79 H :    0.033429
  80 H :    0.033440
  81 H :    0.032352
  82 H :    0.061822
  83 H :    0.100016
  84 H :    0.022094
  85 H :    0.031972
  86 H :    0.024534
  87 H :    0.031362
  88 H :    0.029887
  89 H :    0.033082
  90 H :    0.028809
  91 H :    0.032788
  92 H :    0.033270
  93 H :    0.021450
  94 H :    0.054078
  95 H :    0.044019
  96 H :    0.097414
  97 H :    0.058315
  98 H :    0.040154
  99 H :    0.038325
 100 H :    0.034193
 101 H :    0.032723
 102 H :    0.032235
 103 H :    0.033167

  Mayer bond orders larger than 0.100000
B(  0-C ,  1-C ) :   1.6762 B(  0-C ,  6-C ) :   1.0151 B(  0-C , 18-C ) :   1.0118
B(  1-C ,  2-C ) :   1.1384 B(  1-C ,  4-C ) :   1.1627 B(  2-C ,  3-N ) :   2.9490
B(  4-C ,  5-N ) :   2.9986 B(  6-C ,  7-C ) :   1.2088 B(  6-C , 11-C ) :   1.4631
B(  7-C ,  8-C ) :   1.4686 B(  7-C , 16-C ) :   0.9227 B(  8-C ,  9-C ) :   1.1906
B(  8-C , 76-H ) :   1.0161 B(  9-C , 10-C ) :   1.2538 B(  9-C , 15-C ) :   1.2434
B( 10-C , 11-C ) :   1.2049 B( 10-C , 12-C ) :   1.2373 B( 11-C , 77-H ) :   0.9903
B( 12-C , 13-C ) :   1.4925 B( 12-C , 78-H ) :   0.9979 B( 13-C , 14-C ) :   1.2581
B( 13-C , 79-H ) :   0.9890 B( 14-C , 15-C ) :   1.4908 B( 14-C , 80-H ) :   0.9895
B( 15-C , 81-H ) :   0.9980 B( 16-C , 17-O ) :   2.2857 B( 16-C , 18-C ) :   0.9151
B( 18-C , 19-C ) :   1.6642 B( 19-C , 20-C ) :   1.1270 B( 19-C , 82-H ) :   0.9445
B( 20-C , 21-O ) :   1.1397 B( 20-C , 22-C ) :   1.4225 B( 20-C , 29-C ) :   0.1061
B( 21-O , 29-C ) :   1.1993 B( 22-C , 23-C ) :   0.8685 B( 22-C , 28-C ) :   1.2808
B( 23-C , 24-O ) :   2.2820 B( 23-C , 25-N ) :   1.0685 B( 25-N , 26-C ) :   1.1157
B( 25-N , 83-H ) :   0.9125 B( 26-C , 27-O ) :   2.1686 B( 26-C , 28-C ) :   0.8621
B( 28-C , 29-C ) :   1.4100 B( 29-C , 30-C ) :   1.0476 B( 30-C , 31-N ) :   1.2387
B( 30-C , 37-C ) :   1.3595 B( 31-N , 32-C ) :   0.9236 B( 31-N , 34-C ) :   1.0250
B( 32-C , 33-C ) :   1.1136 B( 32-C , 84-H ) :   0.9265 B( 32-C , 85-H ) :   0.9250
B( 33-C , 86-H ) :   0.9660 B( 33-C , 87-H ) :   0.9673 B( 33-C , 88-H ) :   0.9644
B( 34-C , 35-O ) :   2.0720 B( 34-C , 36-C ) :   0.9874 B( 36-C , 37-C ) :   1.2321
B( 36-C , 43-C ) :   1.3403 B( 37-C , 38-C ) :   0.9615 B( 38-C , 39-O ) :   2.0760
B( 38-C , 40-N ) :   1.0517 B( 40-N , 41-C ) :   0.9342 B( 40-N , 43-C ) :   1.1854
B( 41-C , 42-C ) :   1.1154 B( 41-C , 89-H ) :   0.9292 B( 41-C , 90-H ) :   0.9476
B( 42-C , 91-H ) :   0.9599 B( 42-C , 92-H ) :   0.9687 B( 42-C , 93-H ) :   0.9661
B( 43-C , 44-C ) :   1.1332 B( 44-C , 45-C ) :   1.5751 B( 44-C , 94-H ) :   0.9496
B( 45-C , 46-C ) :   1.1740 B( 45-C , 95-H ) :   0.9625 B( 46-C , 47-O ) :   1.1917
B( 46-C , 48-C ) :   1.3505 B( 47-O , 55-C ) :   1.1589 B( 48-C , 49-C ) :   0.8736
B( 48-C , 54-C ) :   1.3092 B( 49-C , 50-O ) :   2.2747 B( 49-C , 51-N ) :   1.0794
B( 51-N , 52-C ) :   1.0770 B( 51-N , 96-H ) :   0.9128 B( 52-C , 53-O ) :   2.2832
B( 52-C , 54-C ) :   0.8634 B( 54-C , 55-C ) :   1.3894 B( 55-C , 56-C ) :   1.1757
B( 56-C , 57-C ) :   1.6346 B( 56-C , 97-H ) :   0.9368 B( 57-C , 58-C ) :   1.0318
B( 57-C , 66-C ) :   0.9033 B( 58-C , 59-C ) :   1.6638 B( 58-C , 64-C ) :   1.0004
B( 59-C , 60-C ) :   1.1413 B( 59-C , 62-C ) :   1.1327 B( 60-C , 61-N ) :   2.9740
B( 62-C , 63-N ) :   2.9975 B( 64-C , 65-C ) :   1.2061 B( 64-C , 71-C ) :   1.4453
B( 65-C , 66-C ) :   0.9339 B( 65-C , 68-C ) :   1.4714 B( 66-C , 67-O ) :   2.2125
B( 68-C , 69-C ) :   1.1815 B( 68-C , 98-H ) :   1.0048 B( 69-C , 70-C ) :   1.2488
B( 69-C , 75-C ) :   1.2473 B( 70-C , 71-C ) :   1.2126 B( 70-C , 72-C ) :   1.2386
B( 71-C , 99-H ) :   0.9912 B( 72-C , 73-C ) :   1.4910 B( 72-C ,100-H ) :   0.9972
B( 73-C , 74-C ) :   1.2579 B( 73-C ,101-H ) :   0.9879 B( 74-C , 75-C ) :   1.4865
B( 74-C ,102-H ) :   0.9892 B( 75-C ,103-H ) :   0.9987

-----------------------------------------------------------------------------
         ABSORPTION SPECTRUM VIA TRANSITION ELECTRIC DIPOLE MOMENTS
-----------------------------------------------------------------------------
State   Energy  Wavelength   fosc         T2         TX        TY        TZ
        (cm-1)    (nm)                  (au**2)     (au)      (au)      (au)
-----------------------------------------------------------------------------
   0   13550.8    738.0   0.385935879   9.37618  -0.01664  -2.79742   1.24512
   1   17604.3    568.0   0.125601531   2.34883   0.36888  -1.47036  -0.22537
   2   21043.4    475.2   0.371444675   5.81104  -1.40046  -1.30495  -1.46521
   3   22505.0    444.3   0.065559838   0.95903   0.20240   0.04308  -0.95719
   4   22806.8    438.5   0.041523660   0.59939   0.44655  -0.55813   0.29744
   5   24010.0    416.5   0.241054276   3.30520  -1.04423   0.76022  -1.27940
   6   24709.4    404.7   0.097438898   1.29821  -0.70294   0.36472  -0.81919
   7   24899.0    401.6   0.071877224   0.95035  -0.47652   0.39611  -0.75259
   8   25490.0    392.3   0.053342487   0.68894  -0.15013   0.27770   0.76765
   9   26900.5    371.7   0.022052892   0.26989  -0.12501   0.50405  -0.01386
  10   27069.3    369.4   0.006303040   0.07666   0.15450   0.00309   0.22973
  11   27145.7    368.4   0.057475267   0.69704  -0.09503  -0.82942   0.00836
  12   27292.1    366.4   0.165198658   1.99272  -0.51877   0.22469  -1.29349
  13   28006.9    357.1   0.025104036   0.29509   0.39087  -0.07203   0.37030
  14   28045.9    356.6   0.162236866   1.90439  -0.17347  -0.48033  -1.28202
  15   28217.5    354.4   0.008152693   0.09512   0.21198  -0.20603   0.08795
  16   28511.9    350.7   0.028485957   0.32891  -0.35256   0.45229   0.00702
  17   28755.4    347.8   0.007718286   0.08836  -0.24114  -0.17341  -0.01212
  18   29415.4    340.0   0.424883576   4.75523   1.06800   1.51475   1.14897
  19   30171.6    331.4   0.002442727   0.02665   0.02600  -0.09103   0.13301
  20   30842.3    324.2   0.240546687   2.56760  -0.32035  -1.29574  -0.88659
  21   31227.3    320.2   0.015974365   0.16841  -0.01117  -0.07079  -0.40407
  22   31661.0    315.8   0.094719259   0.98489  -0.27210  -0.81393  -0.49837
  23   31890.2    313.6   0.013101886   0.13525   0.34552   0.06753   0.10636
  24   32125.1    311.3   0.313403009   3.21169   1.11675  -0.41872   1.33762
  25   32492.3    307.8   0.008936822   0.09055  -0.23235  -0.07960  -0.17385
  26   32920.6    303.8   0.014055175   0.14055  -0.04205   0.28913  -0.23493
  27   33270.0    300.6   0.027653877   0.27364   0.08973   0.47704   0.19500
  28   33571.8    297.9   0.021613255   0.21194   0.02901   0.44669  -0.10758
  29   33794.0    295.9   0.180928569   1.76256   0.32240  -1.18817   0.49685
  30   33966.8    294.4   0.790885359   7.66539   1.14817   2.00353   1.52740
  31   34016.8    294.0   0.104785003   1.01410   0.50187  -0.42672   0.76167
  32   34255.3    291.9   0.005565043   0.05348  -0.11004  -0.20291  -0.01419
  33   34686.9    288.3   0.043567528   0.41350   0.36258  -0.07873   0.52520
  34   34974.0    285.9   0.255862799   2.40845   0.83457   0.49549   1.21097
  35   35143.9    284.5   0.037874414   0.35479   0.40313  -0.02090   0.43800
  36   35931.9    278.3   0.013302481   0.12188  -0.00738   0.02041   0.34844
  37   35960.5    278.1   0.004333665   0.03967  -0.02155   0.16019  -0.11640
  38   36044.6    277.4   0.102827048   0.93917  -0.39187  -0.51172  -0.72371
  39   36091.4    277.1   0.011477059   0.10469   0.00245   0.32184  -0.03319
  40   36159.8    276.6   0.028438245   0.25891  -0.10339   0.30346  -0.39514
  41   36435.0    274.5   0.281434949   2.54294   0.58094   1.39904   0.49814
  42   36557.0    273.5   0.221108099   1.99118  -0.68498  -0.99653  -0.72725
  43   37130.2    269.3   0.001822220   0.01616  -0.07298  -0.00414  -0.10399
  44   37481.1    266.8   0.021229090   0.18646  -0.00819   0.43052  -0.03242
  45   37656.8    265.6   0.218302254   1.90849  -0.06877  -1.33394   0.35266
  46   37955.4    263.5   0.106055830   0.91989   0.12425  -0.63216   0.71051
  47   38038.7    262.9   0.143644696   1.24320  -0.36710   0.98174  -0.38029
  48   38503.6    259.7   0.003572869   0.03055   0.07715   0.07612   0.13712
  49   38901.5    257.1   0.063141080   0.53434  -0.41085  -0.24074  -0.55461
  50   39395.3    253.8   0.106709038   0.89173   0.10910  -0.93555  -0.06756
  51   39462.0    253.4   0.013172297   0.10989   0.16662  -0.25179   0.13686
  52   39850.3    250.9   0.194835376   1.60958   0.62680  -0.72159   0.83427
  53   40099.2    249.4   0.002559626   0.02101  -0.13286  -0.05789  -0.00347
  54   40208.3    248.7   0.198083962   1.62184   0.11133  -1.25323   0.19711
  55   40278.9    248.3   0.178689799   1.46049   0.43079  -1.11475   0.17955

FINAL SINGLE POINT ENERGY     -3413.068482657381

DIPOLE MOMENT
-------------
                                X             Y             Z
Electronic contribution:     -4.88529       9.68528      -5.42904
Nuclear contribution   :      6.98041     -11.97983       6.54946
                        -----------------------------------------
Total Dipole Moment    :      2.09512      -2.29455       1.12042
                        -----------------------------------------
Magnitude (a.u.)       :      3.30301
Magnitude (Debye)      :      8.39557

Rotational constants in cm-1:     0.001253     0.000530     0.000389
Rotational constants in MHz :    37.571743    15.879466    11.651577

                             ****ORCA TERMINATED NORMALLY****
TOTAL RUN TIME: 0 days 0 hours 12 minutes 3 seconds 620 msec
