                         Program Version 4.2.0 -  RELEASE  -
|  1> # ORCA input file
|  2> # SCF done       -179.074378812506          0.000928425016
|  3> ! CAM-B3LYP def2-SVP def2/J RIJCOSX Grid4 TightSCF
|  4> %maxcore 5000
|  5> %tddft
|  6>     Mode sTDDFT
|  7>     Ethresh 5.0
|  8>     maxcore 5000
|  9> end
| 10>
| 11> %pal
| 12>   nprocs 6
| 13>   end
| 14> * xyz 0 1
| 15>    C        1.70788         2.56425        -4.00946
| 16>    C        2.77970         1.88702        -3.48910
| 17>    C        3.55248         0.95469        -4.21423
| 18>    N        4.22213         0.18678        -4.74298
| 19>    C        3.27613         2.00845        -2.17444
| 20>    N        3.74099         2.04879        -1.12475
| 21>    C        1.20823         2.42826        -5.37410
| 22>    C        0.08885         3.29405        -5.53791
| 23>    C       -0.59466         3.38302        -6.71623
| 24>    C       -0.18028         2.59358        -7.81176
| 25>    C        0.93955         1.72571        -7.65945
| 26>    C        1.62595         1.65495        -6.42496
| 27>    C        1.34600         0.94383        -8.75968
| 28>    C        0.67958         1.01435        -9.95299
| 29>    C       -0.42336         1.86838       -10.10111
| 30>    C       -0.84437         2.64145        -9.05301
| 31>    C       -0.15398         4.01061        -4.28020
| 32>    O       -1.02920         4.83213        -4.07027
| 33>    C        0.86623         3.53682        -3.33073
| 34>    C        0.98790         3.94210        -2.03087
| 35>    C        0.22433         4.87098        -1.29540
| 36>    S       -1.13413         5.81584        -1.85440
| 37>    C       -1.32033         6.55997        -0.30729
| 38>    C       -0.36417         6.09179         0.60689
| 39>    C        0.49437         5.14884         0.03920
| 40>    C       -0.24694         6.50136         1.94493
| 41>    N       -0.13847         6.82356         3.04173
| 42>    C       -2.36897         7.50928        -0.14370
| 43>    C       -2.66438         8.12887         1.01561
| 44>    N       -3.67250         9.04945         1.19753
| 45>    C       -3.98292         9.59948         2.42780
| 46>    C       -3.27820         9.25715         3.67964
| 47>    C       -5.02492        10.46957         2.25400
| 48>    C       -5.39549        10.47988         0.86515
| 49>    C       -4.53220         9.56616         0.16352
| 50>    O       -4.47479         9.25182        -1.00006
| 51>    C       -6.44922        11.33033         0.67955
| 52>    C       -7.13956        11.60677        -0.59696
| 53>    N       -6.76723        11.87461         1.91369
| 54>    C       -5.91385        11.35946         2.94053
| 55>    O       -6.03678        11.68108         4.10297
| 56>    C       -7.75989        12.77026         2.25435
| 57>    S       -8.03656        13.10591         3.93829
| 58>    C       -9.36096        14.16941         3.54638
| 59>    C       -9.52504        14.26854         2.16894
| 60>    C       -8.61284        13.47412         1.44425
| 61>    C      -10.42538        15.11118         1.49334
| 62>    N      -11.10301        15.79370         0.86786
| 63>    C      -10.09606        14.77820         4.59391
| 64>    C      -11.31105        15.37079         4.45450
| 65>    C      -11.98507        15.94963         5.55514
| 66>    C      -13.26546        16.42294         5.51656
| 67>    C      -13.98803        17.08136         6.58958
| 68>    C      -13.52466        17.35349         7.85157
| 69>    C      -14.28155        18.00087         8.85065
| 70>    N      -14.83844        18.51903         9.71080
| 71>    C      -12.24353        17.03368         8.34657
| 72>    N      -11.22529        16.81059         8.82946
| 73>    C      -15.31690        17.41962         6.08974
| 74>    C      -15.42629        16.97000         4.74340
| 75>    C      -14.16918        16.31724         4.33864
| 76>    O      -13.94653        15.77664         3.27679
| 77>    C      -16.56479        17.14476         4.01160
| 78>    C      -17.67153        17.79243         4.60416
| 79>    C      -17.57192        18.24650         5.95089
| 80>    C      -16.37867        18.05068         6.68344
| 81>    C      -18.68327        18.88926         6.53380
| 82>    C      -19.83753        19.07435         5.82280
| 83>    C      -19.93416        18.62653         4.49674
| 84>    C      -18.87395        17.99969         3.90029
| 85>    H       -1.44018         4.04815        -6.81066
| 86>    H        2.46813         0.98650        -6.34498
| 87>    H        2.19554         0.28744        -8.64123
| 88>    H        0.99917         0.41177       -10.78988
| 89>    H       -0.93771         1.91099       -11.04946
| 90>    H       -1.69290         3.30116        -9.16066
| 91>    H        1.78468         3.49784        -1.44652
| 92>    H        1.29499         4.67563         0.58159
| 93>    H       -2.94640         7.71681        -1.03195
| 94>    H       -2.09659         7.91898         1.90934
| 95>    H       -2.21669         9.49714         3.61140
| 96>    H       -3.36228         8.19177         3.89599
| 97>    H       -3.71799         9.82161         4.49742
| 98>    H       -6.71939        10.95340        -1.35798
| 99>    H       -6.98891        12.64085        -0.90710
|100>    H       -8.20946        11.41885        -0.51365
|101>    H       -8.61047        13.45988         0.37241
|102>    H       -9.65314        14.70450         5.58041
|103>    H      -11.80154        15.39165         3.49283
|104>    H      -11.42746        16.01528         6.48098
|105>    H      -16.61839        16.79257         2.99214
|106>    H      -16.33786        18.40626         7.70063
|107>    H      -18.60432        19.23236         7.55501
|108>    H      -20.68333        19.56716         6.27848
|109>    H      -20.85280        18.78069         3.95051
|110>    H      -18.94171        17.65256         2.87959
|111> *
|112>
|113>                          ****END OF INPUT****

CARTESIAN COORDINATES (ANGSTROEM)
---------------------------------
  C      1.707880    2.564250   -4.009460
  C      2.779700    1.887020   -3.489100
  C      3.552480    0.954690   -4.214230
  N      4.222130    0.186780   -4.742980
  C      3.276130    2.008450   -2.174440
  N      3.740990    2.048790   -1.124750
  C      1.208230    2.428260   -5.374100
  C      0.088850    3.294050   -5.537910
  C     -0.594660    3.383020   -6.716230
  C     -0.180280    2.593580   -7.811760
  C      0.939550    1.725710   -7.659450
  C      1.625950    1.654950   -6.424960
  C      1.346000    0.943830   -8.759680
  C      0.679580    1.014350   -9.952990
  C     -0.423360    1.868380  -10.101110
  C     -0.844370    2.641450   -9.053010
  C     -0.153980    4.010610   -4.280200
  O     -1.029200    4.832130   -4.070270
  C      0.866230    3.536820   -3.330730
  C      0.987900    3.942100   -2.030870
  C      0.224330    4.870980   -1.295400
  S     -1.134130    5.815840   -1.854400
  C     -1.320330    6.559970   -0.307290
  C     -0.364170    6.091790    0.606890
  C      0.494370    5.148840    0.039200
  C     -0.246940    6.501360    1.944930
  N     -0.138470    6.823560    3.041730
  C     -2.368970    7.509280   -0.143700
  C     -2.664380    8.128870    1.015610
  N     -3.672500    9.049450    1.197530
  C     -3.982920    9.599480    2.427800
  C     -3.278200    9.257150    3.679640
  C     -5.024920   10.469570    2.254000
  C     -5.395490   10.479880    0.865150
  C     -4.532200    9.566160    0.163520
  O     -4.474790    9.251820   -1.000060
  C     -6.449220   11.330330    0.679550
  C     -7.139560   11.606770   -0.596960
  N     -6.767230   11.874610    1.913690
  C     -5.913850   11.359460    2.940530
  O     -6.036780   11.681080    4.102970
  C     -7.759890   12.770260    2.254350
  S     -8.036560   13.105910    3.938290
  C     -9.360960   14.169410    3.546380
  C     -9.525040   14.268540    2.168940
  C     -8.612840   13.474120    1.444250
  C    -10.425380   15.111180    1.493340
  N    -11.103010   15.793700    0.867860
  C    -10.096060   14.778200    4.593910
  C    -11.311050   15.370790    4.454500
  C    -11.985070   15.949630    5.555140
  C    -13.265460   16.422940    5.516560
  C    -13.988030   17.081360    6.589580
  C    -13.524660   17.353490    7.851570
  C    -14.281550   18.000870    8.850650
  N    -14.838440   18.519030    9.710800
  C    -12.243530   17.033680    8.346570
  N    -11.225290   16.810590    8.829460
  C    -15.316900   17.419620    6.089740
  C    -15.426290   16.970000    4.743400
  C    -14.169180   16.317240    4.338640
  O    -13.946530   15.776640    3.276790
  C    -16.564790   17.144760    4.011600
  C    -17.671530   17.792430    4.604160
  C    -17.571920   18.246500    5.950890
  C    -16.378670   18.050680    6.683440
  C    -18.683270   18.889260    6.533800
  C    -19.837530   19.074350    5.822800
  C    -19.934160   18.626530    4.496740
  C    -18.873950   17.999690    3.900290
  H     -1.440180    4.048150   -6.810660
  H      2.468130    0.986500   -6.344980
  H      2.195540    0.287440   -8.641230
  H      0.999170    0.411770  -10.789880
  H     -0.937710    1.910990  -11.049460
  H     -1.692900    3.301160   -9.160660
  H      1.784680    3.497840   -1.446520
  H      1.294990    4.675630    0.581590
  H     -2.946400    7.716810   -1.031950
  H     -2.096590    7.918980    1.909340
  H     -2.216690    9.497140    3.611400
  H     -3.362280    8.191770    3.895990
  H     -3.717990    9.821610    4.497420
  H     -6.719390   10.953400   -1.357980
  H     -6.988910   12.640850   -0.907100
  H     -8.209460   11.418850   -0.513650
  H     -8.610470   13.459880    0.372410
  H     -9.653140   14.704500    5.580410
  H    -11.801540   15.391650    3.492830
  H    -11.427460   16.015280    6.480980
  H    -16.618390   16.792570    2.992140
  H    -16.337860   18.406260    7.700630
  H    -18.604320   19.232360    7.555010
  H    -20.683330   19.567160    6.278480
  H    -20.852800   18.780690    3.950510
  H    -18.941710   17.652560    2.879590

 Total Charge           Charge          ....    0
 Multiplicity           Mult            ....    1
 Number of Electrons    NEL             ....  482
 Basis Dimension        Dim             .... 1118

ORBITAL ENERGIES
----------------

  NO   OCC          E(Eh)            E(eV)
   0   2.0000     -88.982861     -2421.3468
   1   2.0000     -88.981028     -2421.2969
   2   2.0000     -19.233286      -523.3643
   3   2.0000     -19.229641      -523.2651
   4   2.0000     -19.228505      -523.2342
   5   2.0000     -19.209826      -522.7259
   6   2.0000     -14.506874      -394.7521
   7   2.0000     -14.502401      -394.6304
   8   2.0000     -14.422434      -392.4544
   9   2.0000     -14.422204      -392.4481
  10   2.0000     -14.418111      -392.3367
  11   2.0000     -14.412666      -392.1886
  12   2.0000     -14.410052      -392.1175
  13   2.0000     -14.409012      -392.0891
  14   2.0000     -10.414175      -283.3841
  15   2.0000     -10.413416      -283.3635
  16   2.0000     -10.376333      -282.3544
  17   2.0000     -10.374049      -282.2922
  18   2.0000     -10.373417      -282.2750
  19   2.0000     -10.370070      -282.1839
  20   2.0000     -10.360378      -281.9202
  21   2.0000     -10.348046      -281.5847
  22   2.0000     -10.346816      -281.5512
  23   2.0000     -10.346244      -281.5356
  24   2.0000     -10.338205      -281.3169
  25   2.0000     -10.337053      -281.2855
  26   2.0000     -10.335951      -281.2555
  27   2.0000     -10.332408      -281.1591
  28   2.0000     -10.327575      -281.0276
  29   2.0000     -10.325173      -280.9622
  30   2.0000     -10.324101      -280.9331
  31   2.0000     -10.323422      -280.9146
  32   2.0000     -10.323354      -280.9128
  33   2.0000     -10.322041      -280.8770
  34   2.0000     -10.321109      -280.8517
  35   2.0000     -10.316172      -280.7173
  36   2.0000     -10.315523      -280.6996
  37   2.0000     -10.313152      -280.6351
  38   2.0000     -10.310622      -280.5663
  39   2.0000     -10.310342      -280.5587
  40   2.0000     -10.308876      -280.5188
  41   2.0000     -10.307854      -280.4910
  42   2.0000     -10.307071      -280.4697
  43   2.0000     -10.305619      -280.4302
  44   2.0000     -10.304202      -280.3916
  45   2.0000     -10.303643      -280.3764
  46   2.0000     -10.302696      -280.3506
  47   2.0000     -10.302463      -280.3443
  48   2.0000     -10.302223      -280.3377
  49   2.0000     -10.301556      -280.3196
  50   2.0000     -10.298411      -280.2340
  51   2.0000     -10.297919      -280.2206
  52   2.0000     -10.294168      -280.1186
  53   2.0000     -10.293860      -280.1102
  54   2.0000     -10.293230      -280.0930
  55   2.0000     -10.292971      -280.0860
  56   2.0000     -10.292594      -280.0757
  57   2.0000     -10.291925      -280.0575
  58   2.0000     -10.291148      -280.0364
  59   2.0000     -10.291101      -280.0351
  60   2.0000     -10.290938      -280.0307
  61   2.0000     -10.290660      -280.0231
  62   2.0000     -10.290247      -280.0119
  63   2.0000     -10.289754      -279.9984
  64   2.0000     -10.285235      -279.8755
  65   2.0000     -10.282813      -279.8096
  66   2.0000     -10.282693      -279.8063
  67   2.0000     -10.282064      -279.7892
  68   2.0000     -10.281915      -279.7851
  69   2.0000     -10.281443      -279.7723
  70   2.0000      -8.076577      -219.7748
  71   2.0000      -8.074424      -219.7162
  72   2.0000      -6.046221      -164.5260
  73   2.0000      -6.043814      -164.4605
  74   2.0000      -6.041509      -164.3978
  75   2.0000      -6.039172      -164.3342
  76   2.0000      -6.038517      -164.3164
  77   2.0000      -6.036737      -164.2680
  78   2.0000      -1.177862       -32.0512
  79   2.0000      -1.167659       -31.7736
  80   2.0000      -1.144020       -31.1304
  81   2.0000      -1.124697       -30.6046
  82   2.0000      -1.106340       -30.1050
  83   2.0000      -1.099724       -29.9250
  84   2.0000      -1.024342       -27.8738
  85   2.0000      -1.021847       -27.8059
  86   2.0000      -1.016766       -27.6676
  87   2.0000      -1.013584       -27.5810
  88   2.0000      -1.004496       -27.3337
  89   2.0000      -1.000149       -27.2154
  90   2.0000      -0.998172       -27.1616
  91   2.0000      -0.993902       -27.0454
  92   2.0000      -0.989497       -26.9256
  93   2.0000      -0.989406       -26.9231
  94   2.0000      -0.976620       -26.5752
  95   2.0000      -0.967064       -26.3151
  96   2.0000      -0.962699       -26.1964
  97   2.0000      -0.933872       -25.4119
  98   2.0000      -0.929065       -25.2811
  99   2.0000      -0.921461       -25.0742
 100   2.0000      -0.914971       -24.8976
 101   2.0000      -0.908840       -24.7308
 102   2.0000      -0.896221       -24.3874
 103   2.0000      -0.890042       -24.2193
 104   2.0000      -0.886344       -24.1187
 105   2.0000      -0.884153       -24.0590
 106   2.0000      -0.883245       -24.0343
 107   2.0000      -0.876561       -23.8524
 108   2.0000      -0.874187       -23.7878
 109   2.0000      -0.869685       -23.6653
 110   2.0000      -0.861878       -23.4529
 111   2.0000      -0.843835       -22.9619
 112   2.0000      -0.833312       -22.6756
 113   2.0000      -0.824668       -22.4404
 114   2.0000      -0.823528       -22.4093
 115   2.0000      -0.804835       -21.9007
 116   2.0000      -0.791191       -21.5294
 117   2.0000      -0.786805       -21.4101
 118   2.0000      -0.776819       -21.1383
 119   2.0000      -0.768569       -20.9138
 120   2.0000      -0.757312       -20.6075
 121   2.0000      -0.756453       -20.5841
 122   2.0000      -0.739239       -20.1157
 123   2.0000      -0.733845       -19.9690
 124   2.0000      -0.727191       -19.7879
 125   2.0000      -0.715456       -19.4686
 126   2.0000      -0.708497       -19.2792
 127   2.0000      -0.702434       -19.1142
 128   2.0000      -0.700017       -19.0484
 129   2.0000      -0.697002       -18.9664
 130   2.0000      -0.688998       -18.7486
 131   2.0000      -0.686068       -18.6688
 132   2.0000      -0.684174       -18.6173
 133   2.0000      -0.680617       -18.5205
 134   2.0000      -0.672621       -18.3030
 135   2.0000      -0.665573       -18.1112
 136   2.0000      -0.657264       -17.8851
 137   2.0000      -0.641945       -17.4682
 138   2.0000      -0.639139       -17.3919
 139   2.0000      -0.636546       -17.3213
 140   2.0000      -0.623310       -16.9611
 141   2.0000      -0.620267       -16.8783
 142   2.0000      -0.614933       -16.7332
 143   2.0000      -0.611579       -16.6419
 144   2.0000      -0.609152       -16.5759
 145   2.0000      -0.602933       -16.4066
 146   2.0000      -0.602129       -16.3848
 147   2.0000      -0.600638       -16.3442
 148   2.0000      -0.588962       -16.0265
 149   2.0000      -0.588140       -16.0041
 150   2.0000      -0.582904       -15.8616
 151   2.0000      -0.574994       -15.6464
 152   2.0000      -0.573005       -15.5923
 153   2.0000      -0.568810       -15.4781
 154   2.0000      -0.558002       -15.1840
 155   2.0000      -0.556082       -15.1317
 156   2.0000      -0.554150       -15.0792
 157   2.0000      -0.550202       -14.9718
 158   2.0000      -0.546646       -14.8750
 159   2.0000      -0.546563       -14.8727
 160   2.0000      -0.543701       -14.7949
 161   2.0000      -0.541574       -14.7370
 162   2.0000      -0.537579       -14.6283
 163   2.0000      -0.535890       -14.5823
 164   2.0000      -0.535015       -14.5585
 165   2.0000      -0.532692       -14.4953
 166   2.0000      -0.531801       -14.4711
 167   2.0000      -0.531153       -14.4534
 168   2.0000      -0.527134       -14.3440
 169   2.0000      -0.526662       -14.3312
 170   2.0000      -0.523569       -14.2470
 171   2.0000      -0.523273       -14.2390
 172   2.0000      -0.519823       -14.1451
 173   2.0000      -0.517862       -14.0917
 174   2.0000      -0.514506       -14.0004
 175   2.0000      -0.513351       -13.9690
 176   2.0000      -0.511003       -13.9051
 177   2.0000      -0.509095       -13.8532
 178   2.0000      -0.508588       -13.8394
 179   2.0000      -0.502751       -13.6805
 180   2.0000      -0.501162       -13.6373
 181   2.0000      -0.500120       -13.6089
 182   2.0000      -0.496880       -13.5208
 183   2.0000      -0.492895       -13.4124
 184   2.0000      -0.492508       -13.4018
 185   2.0000      -0.491704       -13.3800
 186   2.0000      -0.486744       -13.2450
 187   2.0000      -0.482084       -13.1182
 188   2.0000      -0.480747       -13.0818
 189   2.0000      -0.471755       -12.8371
 190   2.0000      -0.471241       -12.8231
 191   2.0000      -0.467311       -12.7162
 192   2.0000      -0.463061       -12.6005
 193   2.0000      -0.459939       -12.5156
 194   2.0000      -0.457335       -12.4447
 195   2.0000      -0.454678       -12.3724
 196   2.0000      -0.453492       -12.3401
 197   2.0000      -0.452843       -12.3225
 198   2.0000      -0.451578       -12.2881
 199   2.0000      -0.449890       -12.2421
 200   2.0000      -0.446397       -12.1471
 201   2.0000      -0.445359       -12.1188
 202   2.0000      -0.440588       -11.9890
 203   2.0000      -0.440355       -11.9827
 204   2.0000      -0.439884       -11.9699
 205   2.0000      -0.436924       -11.8893
 206   2.0000      -0.436203       -11.8697
 207   2.0000      -0.435227       -11.8431
 208   2.0000      -0.433509       -11.7964
 209   2.0000      -0.432043       -11.7565
 210   2.0000      -0.429967       -11.7000
 211   2.0000      -0.429633       -11.6909
 212   2.0000      -0.427636       -11.6366
 213   2.0000      -0.424928       -11.5629
 214   2.0000      -0.422886       -11.5073
 215   2.0000      -0.420504       -11.4425
 216   2.0000      -0.415903       -11.3173
 217   2.0000      -0.415547       -11.3076
 218   2.0000      -0.410166       -11.1612
 219   2.0000      -0.409073       -11.1314
 220   2.0000      -0.405749       -11.0410
 221   2.0000      -0.401261       -10.9189
 222   2.0000      -0.392098       -10.6695
 223   2.0000      -0.383862       -10.4454
 224   2.0000      -0.376782       -10.2528
 225   2.0000      -0.375068       -10.2061
 226   2.0000      -0.369325       -10.0499
 227   2.0000      -0.359425        -9.7805
 228   2.0000      -0.350029        -9.5248
 229   2.0000      -0.344159        -9.3650
 230   2.0000      -0.343066        -9.3353
 231   2.0000      -0.339300        -9.2328
 232   2.0000      -0.330021        -8.9803
 233   2.0000      -0.328583        -8.9412
 234   2.0000      -0.322477        -8.7750
 235   2.0000      -0.312715        -8.5094
 236   2.0000      -0.304778        -8.2934
 237   2.0000      -0.297835        -8.1045
 238   2.0000      -0.290182        -7.8963
 239   2.0000      -0.273263        -7.4359
 240   2.0000      -0.267249        -7.2722
 241   0.0000      -0.101889        -2.7725
 242   0.0000      -0.098386        -2.6772
 243   0.0000      -0.073802        -2.0082
 244   0.0000      -0.064932        -1.7669
 245   0.0000      -0.054850        -1.4925

MULLIKEN ATOMIC CHARGES
-----------------------
   0 C :    0.335826
   1 C :   -0.352166
   2 C :   -0.183058
   3 N :    0.149845
   4 C :   -0.190771
   5 N :    0.147677
   6 C :    0.045071
   7 C :   -0.002825
   8 C :   -0.082473
   9 C :    0.100735
  10 C :    0.099921
  11 C :   -0.086087
  12 C :   -0.022307
  13 C :    0.038714
  14 C :    0.037630
  15 C :   -0.018389
  16 C :    0.175069
  17 O :   -0.182951
  18 C :   -0.096542
  19 C :   -0.011861
  20 C :   -0.055183
  21 S :    0.220356
  22 C :   -0.051383
  23 C :   -0.049367
  24 C :    0.012479
  25 C :   -0.167284
  26 N :    0.101999
  27 C :    0.038649
  28 C :    0.055261
  29 N :   -0.197140
  30 C :   -0.086920
  31 C :    0.133562
  32 C :   -0.025859
  33 C :   -0.037914
  34 C :    0.190615
  35 O :   -0.164213
  36 C :   -0.076972
  37 C :    0.130172
  38 N :   -0.200148
  39 C :    0.203951
  40 O :   -0.189443
  41 C :    0.036880
  42 S :    0.199923
  43 C :   -0.051331
  44 C :   -0.053539
  45 C :   -0.030939
  46 C :   -0.195806
  47 N :    0.138080
  48 C :    0.053153
  49 C :   -0.021400
  50 C :   -0.045335
  51 C :   -0.066570
  52 C :    0.343277
  53 C :   -0.358981
  54 C :   -0.182405
  55 N :    0.146072
  56 C :   -0.189247
  57 N :    0.144415
  58 C :    0.044048
  59 C :   -0.001389
  60 C :    0.147640
  61 O :   -0.139504
  62 C :   -0.079755
  63 C :    0.098348
  64 C :    0.095687
  65 C :   -0.082902
  66 C :   -0.017987
  67 C :    0.035746
  68 C :    0.035914
  69 C :   -0.015801
  70 H :   -0.011911
  71 H :   -0.007607
  72 H :   -0.007006
  73 H :   -0.003339
  74 H :   -0.003928
  75 H :   -0.016465
  76 H :    0.010840
  77 H :    0.017519
  78 H :    0.023018
  79 H :    0.009611
  80 H :    0.065011
  81 H :    0.058521
  82 H :    0.049709
  83 H :    0.047515
  84 H :    0.059224
  85 H :    0.054032
  86 H :   -0.023785
  87 H :    0.007274
  88 H :    0.052499
  89 H :    0.012498
  90 H :   -0.013090
  91 H :   -0.011168
  92 H :   -0.010347
  93 H :   -0.006456
  94 H :   -0.006414
  95 H :   -0.018325
Sum of atomic charges:   -0.0000000

LOEWDIN ATOMIC CHARGES
----------------------
   0 C :    0.077631
   1 C :   -0.140262
   2 C :   -0.017103
   3 N :   -0.052468
   4 C :   -0.021228
   5 N :   -0.052104
   6 C :   -0.025651
   7 C :   -0.056360
   8 C :    0.033780
   9 C :   -0.008475
  10 C :   -0.005625
  11 C :    0.021089
  12 C :   -0.004664
  13 C :   -0.011857
  14 C :   -0.011138
  15 C :   -0.009165
  16 C :    0.086835
  17 O :   -0.167702
  18 C :   -0.104890
  19 C :    0.060267
  20 C :   -0.191315
  21 S :    0.538809
  22 C :   -0.123087
  23 C :   -0.128150
  24 C :    0.017681
  25 C :   -0.025774
  26 N :   -0.069317
  27 C :   -0.077770
  28 C :    0.051347
  29 N :    0.020011
  30 C :    0.101551
  31 C :   -0.046693
  32 C :   -0.129948
  33 C :   -0.124790
  34 C :    0.105495
  35 O :   -0.154299
  36 C :    0.093262
  37 C :   -0.046362
  38 N :    0.003733
  39 C :    0.095646
  40 O :   -0.178134
  41 C :   -0.114913
  42 S :    0.506524
  43 C :   -0.168987
  44 C :   -0.086393
  45 C :   -0.068769
  46 C :   -0.033821
  47 N :   -0.042604
  48 C :    0.004363
  49 C :   -0.018584
  50 C :    0.066475
  51 C :   -0.088240
  52 C :    0.076112
  53 C :   -0.140429
  54 C :   -0.016741
  55 N :   -0.056165
  56 C :   -0.019619
  57 N :   -0.055459
  58 C :   -0.025889
  59 C :   -0.054356
  60 C :    0.083494
  61 O :   -0.135031
  62 C :    0.031944
  63 C :   -0.008021
  64 C :   -0.006769
  65 C :    0.018776
  66 C :   -0.005510
  67 C :   -0.014800
  68 C :   -0.013133
  69 C :   -0.009772
  70 H :    0.039427
  71 H :    0.039496
  72 H :    0.035429
  73 H :    0.033923
  74 H :    0.033387
  75 H :    0.032154
  76 H :    0.051781
  77 H :    0.046944
  78 H :    0.037632
  79 H :    0.035960
  80 H :    0.056573
  81 H :    0.055171
  82 H :    0.055900
  83 H :    0.055097
  84 H :    0.051083
  85 H :    0.049908
  86 H :    0.036148
  87 H :    0.036819
  88 H :    0.040012
  89 H :    0.041936
  90 H :    0.039318
  91 H :    0.038463
  92 H :    0.034402
  93 H :    0.032555
  94 H :    0.032239
  95 H :    0.031755

  Mayer bond orders larger than 0.100000
B(  0-C ,  1-C ) :   1.6274 B(  0-C ,  6-C ) :   0.9850 B(  0-C , 18-C ) :   1.0701
B(  1-C ,  2-C ) :   1.1485 B(  1-C ,  4-C ) :   1.1434 B(  2-C ,  3-N ) :   2.9617
B(  4-C ,  5-N ) :   2.9556 B(  6-C ,  7-C ) :   1.2137 B(  6-C , 11-C ) :   1.4508
B(  7-C ,  8-C ) :   1.4654 B(  7-C , 16-C ) :   0.9638 B(  8-C ,  9-C ) :   1.1761
B(  8-C , 70-H ) :   1.0181 B(  9-C , 10-C ) :   1.2555 B(  9-C , 15-C ) :   1.2433
B( 10-C , 11-C ) :   1.2026 B( 10-C , 12-C ) :   1.2400 B( 11-C , 71-H ) :   0.9905
B( 12-C , 13-C ) :   1.4881 B( 12-C , 72-H ) :   0.9982 B( 13-C , 14-C ) :   1.2591
B( 13-C , 73-H ) :   0.9887 B( 14-C , 15-C ) :   1.4882 B( 14-C , 74-H ) :   0.9889
B( 15-C , 75-H ) :   0.9985 B( 16-C , 17-O ) :   2.1243 B( 16-C , 18-C ) :   0.9710
B( 18-C , 19-C ) :   1.5281 B( 19-C , 20-C ) :   1.2306 B( 19-C , 76-H ) :   0.9376
B( 20-C , 21-S ) :   1.0833 B( 20-C , 24-C ) :   1.3790 B( 21-S , 22-C ) :   1.1590
B( 22-C , 23-C ) :   1.3826 B( 22-C , 27-C ) :   1.1390 B( 23-C , 24-C ) :   1.3276
B( 23-C , 25-C ) :   1.0979 B( 24-C , 77-H ) :   1.0131 B( 25-C , 26-N ) :   2.9608
B( 27-C , 28-C ) :   1.6953 B( 27-C , 78-H ) :   0.9375 B( 28-C , 29-N ) :   1.0722
B( 28-C , 79-H ) :   0.9506 B( 29-N , 30-C ) :   1.1410 B( 29-N , 34-C ) :   0.9577
B( 30-C , 31-C ) :   1.1345 B( 30-C , 32-C ) :   1.4743 B( 31-C , 80-H ) :   0.9205
B( 31-C , 81-H ) :   0.9227 B( 31-C , 82-H ) :   0.9287 B( 32-C , 33-C ) :   1.1765
B( 32-C , 39-C ) :   0.9981 B( 33-C , 34-C ) :   0.9832 B( 33-C , 36-C ) :   1.5229
B( 34-C , 35-O ) :   2.1369 B( 36-C , 37-C ) :   1.1388 B( 36-C , 38-N ) :   1.1119
B( 37-C , 83-H ) :   0.9224 B( 37-C , 84-H ) :   0.9233 B( 37-C , 85-H ) :   0.9263
B( 38-N , 39-C ) :   0.9762 B( 38-N , 41-C ) :   1.0381 B( 39-C , 40-O ) :   2.0900
B( 41-C , 42-S ) :   1.1669 B( 41-C , 45-C ) :   1.4704 B( 42-S , 43-C ) :   1.0686
B( 43-C , 44-C ) :   1.4703 B( 43-C , 48-C ) :   1.1285 B( 44-C , 45-C ) :   1.2777
B( 44-C , 46-C ) :   1.1195 B( 45-C , 86-H ) :   1.0078 B( 46-C , 47-N ) :   2.9973
B( 48-C , 49-C ) :   1.5977 B( 48-C , 87-H ) :   0.9593 B( 49-C , 50-C ) :   1.1621
B( 49-C , 88-H ) :   0.9644 B( 50-C , 51-C ) :   1.5470 B( 50-C , 89-H ) :   0.9622
B( 51-C , 52-C ) :   1.0620 B( 51-C , 60-C ) :   0.9365 B( 52-C , 53-C ) :   1.6234
B( 52-C , 58-C ) :   0.9866 B( 53-C , 54-C ) :   1.1466 B( 53-C , 56-C ) :   1.1489
B( 54-C , 55-N ) :   2.9613 B( 56-C , 57-N ) :   2.9586 B( 58-C , 59-C ) :   1.2187
B( 58-C , 65-C ) :   1.4480 B( 59-C , 60-C ) :   0.9434 B( 59-C , 62-C ) :   1.4730
B( 60-C , 61-O ) :   2.2067 B( 62-C , 63-C ) :   1.1778 B( 62-C , 90-H ) :   1.0155
B( 63-C , 64-C ) :   1.2592 B( 63-C , 69-C ) :   1.2425 B( 64-C , 65-C ) :   1.2070
B( 64-C , 66-C ) :   1.2393 B( 65-C , 91-H ) :   0.9882 B( 66-C , 67-C ) :   1.4903
B( 66-C , 92-H ) :   0.9967 B( 67-C , 68-C ) :   1.2599 B( 67-C , 93-H ) :   0.9881
B( 68-C , 69-C ) :   1.4901 B( 68-C , 94-H ) :   0.9882 B( 69-C , 95-H ) :   0.9972

-----------------------------------------------------------------------------
         ABSORPTION SPECTRUM VIA TRANSITION ELECTRIC DIPOLE MOMENTS
-----------------------------------------------------------------------------
State   Energy  Wavelength   fosc         T2         TX        TY        TZ
        (cm-1)    (nm)                  (au**2)     (au)      (au)      (au)
-----------------------------------------------------------------------------
   0   20599.4    485.5   2.778925714  44.41168  -4.31626   3.68093   3.49748
   1   21847.0    457.7   0.290358564   4.37540  -0.54774   1.59012   1.24374
   2   24502.1    408.1   0.000382369   0.00514  -0.05563  -0.03753   0.02518
   3   25782.3    387.9   0.092015992   1.17494   0.99464  -0.42773   0.05180
   4   26016.6    384.4   0.011901776   0.15060  -0.14178   0.30302   0.19667
   5   26371.4    379.2   0.012473443   0.15571  -0.34348   0.16565   0.10147
   6   26752.1    373.8   0.080733655   0.99351   0.02758   0.34734   0.93387
   7   27910.6    358.3   0.049155058   0.57979   0.44898  -0.55366  -0.26771
   8   28450.0    351.5   0.058793027   0.68033   0.01215   0.27672   0.77692
   9   28504.9    350.8   0.040961483   0.47308   0.08049  -0.27194  -0.62662
  10   28552.3    350.2   0.004193989   0.04836   0.01307   0.15105   0.15928
  11   29106.2    343.6   0.085096389   0.96250  -0.69036   0.55807   0.41768
  12   29952.9    333.9   0.052864645   0.58103   0.06057  -0.22907  -0.72449
  13   30284.5    330.2   0.411286985   4.47095  -1.81326   0.46797  -0.98185
  14   31675.9    315.7   0.124202696   1.29086   0.79796  -0.55104   0.59201
  15   32616.2    306.6   0.081939399   0.82706  -0.42346   0.70448   0.38916
  16   32844.0    304.5   0.072233180   0.72403  -0.39207  -0.30905  -0.68906
  17   33309.5    300.2   0.452657725   4.47381  -0.80570  -0.14223  -1.95049
  18   33458.2    298.9   0.078333077   0.77076   0.41666  -0.31405   0.70606
  19   33723.0    296.5   0.648343104   6.32927   2.30223  -0.58194   0.83087
  20   33801.3    295.8   0.001481509   0.01443   0.07134  -0.07331   0.06297
  21   34548.5    289.4   0.080666470   0.76867  -0.27229  -0.05994  -0.83122
  22   35067.2    285.2   0.381790523   3.58426   1.55130  -0.89903   0.60784
  23   35148.5    284.5   0.048086235   0.45039   0.09921  -0.33953  -0.57032
  24   35363.1    282.8   0.090111685   0.83889   0.66579  -0.48872  -0.39594
  25   36036.4    277.5   0.095531739   0.87273   0.30051  -0.51312  -0.72051
  26   36237.6    276.0   0.088619521   0.80509   0.62778  -0.35687   0.53257
  27   36736.1    272.2   0.085351789   0.76488  -0.53930   0.39939  -0.56083
  28   37516.8    266.5   0.034984787   0.30699   0.36990  -0.40906   0.05323
  29   37584.2    266.1   0.096887478   0.84867  -0.48005  -0.09674  -0.78030
  30   37823.5    264.4   0.123417837   1.07422  -0.81108   0.54674  -0.34270
  31   38532.3    259.5   0.078900532   0.67411  -0.44322  -0.01140  -0.69104
  32   38736.2    258.2   0.094251099   0.80102   0.12298   0.23394   0.85508
  33   39011.4    256.3   0.066215262   0.55878   0.45314  -0.52443  -0.28004
  34   39317.1    254.3   0.079360669   0.66451   0.07638   0.19902   0.78681
  35   39406.9    253.8   0.015885243   0.13271   0.06975  -0.17470  -0.31197
  36   39810.7    251.2   0.162354969   1.34258   0.51716  -0.71974  -0.74639
  37   39982.4    250.1   0.005755681   0.04739  -0.06279   0.15755   0.13648
  38   40179.9    248.9   0.038629986   0.31651   0.42447  -0.19648   0.31262
  39   40226.2    248.6   0.069237964   0.56664  -0.15997   0.24868   0.69225

FINAL SINGLE POINT ENERGY     -3680.933382264476

DIPOLE MOMENT
-------------
                                X             Y             Z
Electronic contribution:     20.12234      -5.35829      12.97725
Nuclear contribution   :    -21.37466       4.28973     -16.77679
                        -----------------------------------------
Total Dipole Moment    :     -1.25232      -1.06857      -3.79953
                        -----------------------------------------
Magnitude (a.u.)       :      4.14085
Magnitude (Debye)      :     10.52519

Rotational constants in cm-1:     0.002647     0.000179     0.000169
Rotational constants in MHz :    79.348538     5.367790     5.068926

                             ****ORCA TERMINATED NORMALLY****
TOTAL RUN TIME: 0 days 0 hours 8 minutes 42 seconds 585 msec
