                         Program Version 4.2.0 -  RELEASE  -
|  1> # ORCA input file
|  2> # SCF done       -189.371004573843          0.000886265362
|  3> ! CAM-B3LYP def2-SVP def2/J RIJCOSX Grid4 TightSCF
|  4> %maxcore 5000
|  5> %tddft
|  6>     Mode sTDDFT
|  7>     Ethresh 5.0
|  8>     maxcore 5000
|  9> end
| 10>
| 11> %pal
| 12>   nprocs 6
| 13>   end
| 14> * xyz 0 1
| 15>    C        0.87498         4.90306         3.52539
| 16>    C        1.87569         5.45761         2.77314
| 17>    C        2.56628         6.63019         3.14357
| 18>    N        3.13936         7.59196         3.39689
| 19>    C        2.36712         4.87405         1.58619
| 20>    N        2.79942         4.42141         0.62447
| 21>    C        0.47637         5.34113         4.85671
| 22>    C       -0.17006         4.25347         5.51391
| 23>    C       -0.62932         4.36525         6.79481
| 24>    C       -0.46604         5.59063         7.48103
| 25>    C        0.16521         6.68478         6.82134
| 26>    C        0.63212         6.54134         5.49512
| 27>    C        0.32307         7.90024         7.51739
| 28>    C       -0.12240         8.03268         8.80433
| 29>    C       -0.74708         6.95661         9.45268
| 30>    C       -0.91362         5.76189         8.80610
| 31>    C       -0.24992         3.10140         4.59338
| 32>    O       -0.66301         1.99136         4.81905
| 33>    C        0.22768         3.63228         3.27697
| 34>    C       -0.10652         3.00083         2.12027
| 35>    C       -0.18697         3.57540         0.82788
| 36>    O       -0.16710         4.91273         0.66272
| 37>    C       -0.40933         5.18166        -0.64061
| 38>    C       -0.56802         3.99951        -1.34513
| 39>    C       -0.43504         2.96033        -0.40931
| 40>    C       -0.54666         1.52913        -0.66435
| 41>    O       -0.42830         0.66567         0.16632
| 42>    C       -0.51132         6.51104        -1.13055
| 43>    N       -0.33600         7.66516        -0.39886
| 44>    C        0.03333         7.79122         0.98955
| 45>    C       -1.10914         7.47403         1.94888
| 46>    C       -0.50407         8.81064        -1.19742
| 47>    O       -0.39820         9.94518        -0.76538
| 48>    C       -0.80857         8.29940        -2.50594
| 49>    C       -0.81477         6.87792        -2.43303
| 50>    C       -1.19872         6.37391        -3.73435
| 51>    O       -1.31915         5.24935        -4.17019
| 52>    N       -1.42223         7.53777        -4.50276
| 53>    C       -1.86727         7.46349        -5.87475
| 54>    C       -3.38965         7.39544        -5.96119
| 55>    C       -1.19360         8.67520        -3.78414
| 56>    C       -1.41462        10.01395        -4.25685
| 57>    C       -0.75149        11.06721        -3.76332
| 58>    C       -1.17555        12.44249        -4.00387
| 59>    C       -0.65254        13.48212        -4.72486
| 60>    O       -1.40541        14.57883        -4.61697
| 61>    C       -2.43781        14.26846        -3.81238
| 62>    N       -3.39681        15.24329        -3.46141
| 63>    O       -4.28184        14.86748        -2.71297
| 64>    O       -3.28390        16.35601        -3.92146
| 65>    C       -2.35771        12.96006        -3.39127
| 66>    C       -3.20390        12.17160        -2.51549
| 67>    C       -2.74932        11.75309        -1.32380
| 68>    C       -3.30366        10.74927        -0.43329
| 69>    C       -3.99853         9.65113        -0.86003
| 70>    C       -4.32810         8.56526        -0.02430
| 71>    N       -4.57650         7.64939         0.62143
| 72>    C       -4.31188         9.43558        -2.21680
| 73>    N       -4.53530         9.20883        -3.31979
| 74>    C       -2.71464        10.94560         0.87777
| 75>    C       -1.64354        11.88034         0.75756
| 76>    C       -1.57231        12.37572        -0.62739
| 77>    O       -0.79945        13.16697        -1.10727
| 78>    C       -0.83261        12.17016         1.81632
| 79>    C       -1.06190        11.53253         3.05762
| 80>    C       -2.15836        10.63223         3.19347
| 81>    C       -2.98838        10.35615         2.08352
| 82>    C       -2.37358        10.00199         4.43636
| 83>    C       -1.54228        10.24101         5.49639
| 84>    C       -0.46267        11.12717         5.36225
| 85>    C       -0.22852        11.75941         4.17091
| 86>    H       -1.11047         3.52996         7.28107
| 87>    H        1.09498         7.38859         5.01267
| 88>    H        0.81357         8.72008         7.01347
| 89>    H        0.00649         8.96602         9.33200
| 90>    H       -1.09295         7.07837        10.46807
| 91>    H       -1.39029         4.92976         9.30270
| 92>    H       -0.45485         1.97634         2.19193
| 93>    H       -0.76612         3.92030        -2.39595
| 94>    H       -0.76578         1.29382        -1.72137
| 95>    H        0.33588         8.83554         1.11732
| 96>    H        0.89583         7.15081         1.18786
| 97>    H       -1.99336         8.04385         1.67743
| 98>    H       -0.81863         7.74593         2.96082
| 99>    H       -1.36470         6.41857         1.93147
|100>    H       -1.43463         6.55291        -6.29874
|101>    H       -1.47872         8.32859        -6.41711
|102>    H       -3.74335         6.47632        -5.50144
|103>    H       -3.70031         7.40651        -7.00205
|104>    H       -3.84661         8.23399        -5.44232
|105>    H       -2.18676        10.15192        -5.00156
|106>    H        0.05153        10.93224        -3.05172
|107>    H        0.22494        13.54354        -5.33863
|108>    H       -4.17920        11.89012        -2.88991
|109>    H       -0.01244        12.86316         1.70534
|110>    H       -3.82493         9.68479         2.21090
|111>    H       -3.20399         9.31779         4.53246
|112>    H       -1.71224         9.74743         6.44199
|113>    H        0.18149        11.31102         6.20925
|114>    H        0.60219        12.44107         4.06462
|115> *
|116>
|117>                          ****END OF INPUT****

CARTESIAN COORDINATES (ANGSTROEM)
---------------------------------
  C      0.874980    4.903060    3.525390
  C      1.875690    5.457610    2.773140
  C      2.566280    6.630190    3.143570
  N      3.139360    7.591960    3.396890
  C      2.367120    4.874050    1.586190
  N      2.799420    4.421410    0.624470
  C      0.476370    5.341130    4.856710
  C     -0.170060    4.253470    5.513910
  C     -0.629320    4.365250    6.794810
  C     -0.466040    5.590630    7.481030
  C      0.165210    6.684780    6.821340
  C      0.632120    6.541340    5.495120
  C      0.323070    7.900240    7.517390
  C     -0.122400    8.032680    8.804330
  C     -0.747080    6.956610    9.452680
  C     -0.913620    5.761890    8.806100
  C     -0.249920    3.101400    4.593380
  O     -0.663010    1.991360    4.819050
  C      0.227680    3.632280    3.276970
  C     -0.106520    3.000830    2.120270
  C     -0.186970    3.575400    0.827880
  O     -0.167100    4.912730    0.662720
  C     -0.409330    5.181660   -0.640610
  C     -0.568020    3.999510   -1.345130
  C     -0.435040    2.960330   -0.409310
  C     -0.546660    1.529130   -0.664350
  O     -0.428300    0.665670    0.166320
  C     -0.511320    6.511040   -1.130550
  N     -0.336000    7.665160   -0.398860
  C      0.033330    7.791220    0.989550
  C     -1.109140    7.474030    1.948880
  C     -0.504070    8.810640   -1.197420
  O     -0.398200    9.945180   -0.765380
  C     -0.808570    8.299400   -2.505940
  C     -0.814770    6.877920   -2.433030
  C     -1.198720    6.373910   -3.734350
  O     -1.319150    5.249350   -4.170190
  N     -1.422230    7.537770   -4.502760
  C     -1.867270    7.463490   -5.874750
  C     -3.389650    7.395440   -5.961190
  C     -1.193600    8.675200   -3.784140
  C     -1.414620   10.013950   -4.256850
  C     -0.751490   11.067210   -3.763320
  C     -1.175550   12.442490   -4.003870
  C     -0.652540   13.482120   -4.724860
  O     -1.405410   14.578830   -4.616970
  C     -2.437810   14.268460   -3.812380
  N     -3.396810   15.243290   -3.461410
  O     -4.281840   14.867480   -2.712970
  O     -3.283900   16.356010   -3.921460
  C     -2.357710   12.960060   -3.391270
  C     -3.203900   12.171600   -2.515490
  C     -2.749320   11.753090   -1.323800
  C     -3.303660   10.749270   -0.433290
  C     -3.998530    9.651130   -0.860030
  C     -4.328100    8.565260   -0.024300
  N     -4.576500    7.649390    0.621430
  C     -4.311880    9.435580   -2.216800
  N     -4.535300    9.208830   -3.319790
  C     -2.714640   10.945600    0.877770
  C     -1.643540   11.880340    0.757560
  C     -1.572310   12.375720   -0.627390
  O     -0.799450   13.166970   -1.107270
  C     -0.832610   12.170160    1.816320
  C     -1.061900   11.532530    3.057620
  C     -2.158360   10.632230    3.193470
  C     -2.988380   10.356150    2.083520
  C     -2.373580   10.001990    4.436360
  C     -1.542280   10.241010    5.496390
  C     -0.462670   11.127170    5.362250
  C     -0.228520   11.759410    4.170910
  H     -1.110470    3.529960    7.281070
  H      1.094980    7.388590    5.012670
  H      0.813570    8.720080    7.013470
  H      0.006490    8.966020    9.332000
  H     -1.092950    7.078370   10.468070
  H     -1.390290    4.929760    9.302700
  H     -0.454850    1.976340    2.191930
  H     -0.766120    3.920300   -2.395950
  H     -0.765780    1.293820   -1.721370
  H      0.335880    8.835540    1.117320
  H      0.895830    7.150810    1.187860
  H     -1.993360    8.043850    1.677430
  H     -0.818630    7.745930    2.960820
  H     -1.364700    6.418570    1.931470
  H     -1.434630    6.552910   -6.298740
  H     -1.478720    8.328590   -6.417110
  H     -3.743350    6.476320   -5.501440
  H     -3.700310    7.406510   -7.002050
  H     -3.846610    8.233990   -5.442320
  H     -2.186760   10.151920   -5.001560
  H      0.051530   10.932240   -3.051720
  H      0.224940   13.543540   -5.338630
  H     -4.179200   11.890120   -2.889910
  H     -0.012440   12.863160    1.705340
  H     -3.824930    9.684790    2.210900
  H     -3.203990    9.317790    4.532460
  H     -1.712240    9.747430    6.441990
  H      0.181490   11.311020    6.209250
  H      0.602190   12.441070    4.064620

 Total Charge           Charge          ....    0
 Multiplicity           Mult            ....    1
 Number of Electrons    NEL             ....  480
 Basis Dimension        Dim             .... 1139

ORBITAL ENERGIES
----------------

  NO   OCC          E(Eh)            E(eV)
   0   2.0000     -19.327968      -525.9408
   1   2.0000     -19.326912      -525.9120
   2   2.0000     -19.246410      -523.7215
   3   2.0000     -19.244964      -523.6821
   4   2.0000     -19.227869      -523.2169
   5   2.0000     -19.220951      -523.0287
   6   2.0000     -19.220401      -523.0137
   7   2.0000     -19.206960      -522.6479
   8   2.0000     -19.203442      -522.5522
   9   2.0000     -14.659251      -398.8985
  10   2.0000     -14.468100      -393.6970
  11   2.0000     -14.466409      -393.6510
  12   2.0000     -14.430354      -392.6699
  13   2.0000     -14.427317      -392.5873
  14   2.0000     -14.424549      -392.5119
  15   2.0000     -14.421018      -392.4158
  16   2.0000     -10.388616      -282.6886
  17   2.0000     -10.386893      -282.6417
  18   2.0000     -10.383726      -282.5556
  19   2.0000     -10.372992      -282.2635
  20   2.0000     -10.372896      -282.2608
  21   2.0000     -10.372789      -282.2579
  22   2.0000     -10.369943      -282.1805
  23   2.0000     -10.368693      -282.1465
  24   2.0000     -10.358564      -281.8709
  25   2.0000     -10.358152      -281.8596
  26   2.0000     -10.354738      -281.7667
  27   2.0000     -10.354195      -281.7520
  28   2.0000     -10.351602      -281.6814
  29   2.0000     -10.350281      -281.6455
  30   2.0000     -10.347914      -281.5810
  31   2.0000     -10.334419      -281.2138
  32   2.0000     -10.329627      -281.0834
  33   2.0000     -10.327823      -281.0344
  34   2.0000     -10.326517      -280.9988
  35   2.0000     -10.324044      -280.9315
  36   2.0000     -10.322921      -280.9010
  37   2.0000     -10.322478      -280.8889
  38   2.0000     -10.313389      -280.6416
  39   2.0000     -10.310905      -280.5740
  40   2.0000     -10.310351      -280.5589
  41   2.0000     -10.309763      -280.5429
  42   2.0000     -10.309530      -280.5366
  43   2.0000     -10.308473      -280.5078
  44   2.0000     -10.307676      -280.4861
  45   2.0000     -10.306870      -280.4642
  46   2.0000     -10.306051      -280.4419
  47   2.0000     -10.305755      -280.4339
  48   2.0000     -10.305202      -280.4188
  49   2.0000     -10.305173      -280.4180
  50   2.0000     -10.304328      -280.3950
  51   2.0000     -10.303993      -280.3859
  52   2.0000     -10.303734      -280.3788
  53   2.0000     -10.302762      -280.3524
  54   2.0000     -10.302465      -280.3443
  55   2.0000     -10.301867      -280.3280
  56   2.0000     -10.298124      -280.2262
  57   2.0000     -10.296880      -280.1923
  58   2.0000     -10.295002      -280.1412
  59   2.0000     -10.294285      -280.1217
  60   2.0000     -10.294019      -280.1145
  61   2.0000     -10.293532      -280.1012
  62   2.0000     -10.292896      -280.0839
  63   2.0000     -10.292402      -280.0705
  64   2.0000     -10.291602      -280.0487
  65   2.0000     -10.291196      -280.0377
  66   2.0000     -10.290892      -280.0294
  67   2.0000     -10.277139      -279.6552
  68   2.0000     -10.271799      -279.5098
  69   2.0000     -10.260751      -279.2092
  70   2.0000     -10.255767      -279.0736
  71   2.0000      -1.330488       -36.2044
  72   2.0000      -1.247700       -33.9516
  73   2.0000      -1.247323       -33.9414
  74   2.0000      -1.147496       -31.2250
  75   2.0000      -1.147407       -31.2225
  76   2.0000      -1.141035       -31.0491
  77   2.0000      -1.140815       -31.0432
  78   2.0000      -1.137115       -30.9425
  79   2.0000      -1.136833       -30.9348
  80   2.0000      -1.077734       -29.3266
  81   2.0000      -1.068458       -29.0742
  82   2.0000      -1.029880       -28.0245
  83   2.0000      -1.025932       -27.9170
  84   2.0000      -1.008228       -27.4353
  85   2.0000      -1.005884       -27.3715
  86   2.0000      -1.005001       -27.3475
  87   2.0000      -1.001307       -27.2470
  88   2.0000      -0.980206       -26.6728
  89   2.0000      -0.979915       -26.6648
  90   2.0000      -0.964507       -26.2456
  91   2.0000      -0.942230       -25.6394
  92   2.0000      -0.938702       -25.5434
  93   2.0000      -0.933264       -25.3954
  94   2.0000      -0.930874       -25.3304
  95   2.0000      -0.928967       -25.2785
  96   2.0000      -0.923390       -25.1267
  97   2.0000      -0.908009       -24.7082
  98   2.0000      -0.900404       -24.5012
  99   2.0000      -0.896160       -24.3857
 100   2.0000      -0.888922       -24.1888
 101   2.0000      -0.886496       -24.1228
 102   2.0000      -0.878067       -23.8934
 103   2.0000      -0.868022       -23.6201
 104   2.0000      -0.865621       -23.5547
 105   2.0000      -0.836121       -22.7520
 106   2.0000      -0.833705       -22.6863
 107   2.0000      -0.826333       -22.4857
 108   2.0000      -0.823035       -22.3959
 109   2.0000      -0.814626       -22.1671
 110   2.0000      -0.803198       -21.8561
 111   2.0000      -0.790190       -21.5022
 112   2.0000      -0.783012       -21.3069
 113   2.0000      -0.770427       -20.9644
 114   2.0000      -0.766566       -20.8593
 115   2.0000      -0.764334       -20.7986
 116   2.0000      -0.763458       -20.7748
 117   2.0000      -0.739419       -20.1206
 118   2.0000      -0.732969       -19.9451
 119   2.0000      -0.720250       -19.5990
 120   2.0000      -0.714870       -19.4526
 121   2.0000      -0.711576       -19.3630
 122   2.0000      -0.710293       -19.3281
 123   2.0000      -0.707882       -19.2625
 124   2.0000      -0.702832       -19.1250
 125   2.0000      -0.701142       -19.0790
 126   2.0000      -0.692365       -18.8402
 127   2.0000      -0.687930       -18.7195
 128   2.0000      -0.683232       -18.5917
 129   2.0000      -0.672276       -18.2936
 130   2.0000      -0.671566       -18.2742
 131   2.0000      -0.656557       -17.8658
 132   2.0000      -0.651473       -17.7275
 133   2.0000      -0.648645       -17.6505
 134   2.0000      -0.643077       -17.4990
 135   2.0000      -0.642025       -17.4704
 136   2.0000      -0.636234       -17.3128
 137   2.0000      -0.632061       -17.1992
 138   2.0000      -0.622793       -16.9471
 139   2.0000      -0.616238       -16.7687
 140   2.0000      -0.615318       -16.7436
 141   2.0000      -0.612974       -16.6799
 142   2.0000      -0.610171       -16.6036
 143   2.0000      -0.603657       -16.4264
 144   2.0000      -0.600504       -16.3405
 145   2.0000      -0.599770       -16.3206
 146   2.0000      -0.597537       -16.2598
 147   2.0000      -0.586421       -15.9573
 148   2.0000      -0.583736       -15.8843
 149   2.0000      -0.581798       -15.8315
 150   2.0000      -0.573458       -15.6046
 151   2.0000      -0.570596       -15.5267
 152   2.0000      -0.564627       -15.3643
 153   2.0000      -0.563141       -15.3239
 154   2.0000      -0.559698       -15.2302
 155   2.0000      -0.559020       -15.2117
 156   2.0000      -0.556195       -15.1348
 157   2.0000      -0.553925       -15.0731
 158   2.0000      -0.551554       -15.0085
 159   2.0000      -0.550281       -14.9739
 160   2.0000      -0.546748       -14.8778
 161   2.0000      -0.543942       -14.8014
 162   2.0000      -0.543633       -14.7930
 163   2.0000      -0.542098       -14.7512
 164   2.0000      -0.536402       -14.5962
 165   2.0000      -0.533092       -14.5062
 166   2.0000      -0.530709       -14.4413
 167   2.0000      -0.527320       -14.3491
 168   2.0000      -0.525052       -14.2874
 169   2.0000      -0.523595       -14.2477
 170   2.0000      -0.522784       -14.2257
 171   2.0000      -0.520570       -14.1654
 172   2.0000      -0.519631       -14.1399
 173   2.0000      -0.517953       -14.0942
 174   2.0000      -0.515986       -14.0407
 175   2.0000      -0.514964       -14.0129
 176   2.0000      -0.510956       -13.9038
 177   2.0000      -0.504728       -13.7344
 178   2.0000      -0.503051       -13.6887
 179   2.0000      -0.502153       -13.6643
 180   2.0000      -0.499034       -13.5794
 181   2.0000      -0.497299       -13.5322
 182   2.0000      -0.496452       -13.5091
 183   2.0000      -0.492073       -13.3900
 184   2.0000      -0.489613       -13.3230
 185   2.0000      -0.485141       -13.2013
 186   2.0000      -0.483952       -13.1690
 187   2.0000      -0.479312       -13.0427
 188   2.0000      -0.474912       -12.9230
 189   2.0000      -0.473268       -12.8783
 190   2.0000      -0.472260       -12.8508
 191   2.0000      -0.470200       -12.7948
 192   2.0000      -0.469401       -12.7730
 193   2.0000      -0.463936       -12.6243
 194   2.0000      -0.458707       -12.4820
 195   2.0000      -0.457312       -12.4441
 196   2.0000      -0.455991       -12.4081
 197   2.0000      -0.451234       -12.2787
 198   2.0000      -0.450703       -12.2642
 199   2.0000      -0.448180       -12.1956
 200   2.0000      -0.447795       -12.1851
 201   2.0000      -0.444294       -12.0898
 202   2.0000      -0.443844       -12.0776
 203   2.0000      -0.441886       -12.0243
 204   2.0000      -0.439811       -11.9679
 205   2.0000      -0.438093       -11.9211
 206   2.0000      -0.434785       -11.8311
 207   2.0000      -0.433990       -11.8095
 208   2.0000      -0.432006       -11.7555
 209   2.0000      -0.428829       -11.6690
 210   2.0000      -0.425630       -11.5820
 211   2.0000      -0.424156       -11.5419
 212   2.0000      -0.423272       -11.5178
 213   2.0000      -0.421193       -11.4613
 214   2.0000      -0.418500       -11.3880
 215   2.0000      -0.407983       -11.1018
 216   2.0000      -0.407302       -11.0833
 217   2.0000      -0.393570       -10.7096
 218   2.0000      -0.389373       -10.5954
 219   2.0000      -0.387684       -10.5494
 220   2.0000      -0.382941       -10.4203
 221   2.0000      -0.382181       -10.3997
 222   2.0000      -0.377078       -10.2608
 223   2.0000      -0.375807       -10.2262
 224   2.0000      -0.369538       -10.0556
 225   2.0000      -0.364756        -9.9255
 226   2.0000      -0.361763        -9.8441
 227   2.0000      -0.347225        -9.4485
 228   2.0000      -0.346135        -9.4188
 229   2.0000      -0.345607        -9.4044
 230   2.0000      -0.341873        -9.3028
 231   2.0000      -0.333849        -9.0845
 232   2.0000      -0.326096        -8.8735
 233   2.0000      -0.325371        -8.8538
 234   2.0000      -0.324587        -8.8325
 235   2.0000      -0.320283        -8.7153
 236   2.0000      -0.311007        -8.4629
 237   2.0000      -0.301414        -8.2019
 238   2.0000      -0.299242        -8.1428
 239   2.0000      -0.254501        -6.9253
 240   0.0000      -0.112634        -3.0649
 241   0.0000      -0.094549        -2.5728
 242   0.0000      -0.074829        -2.0362
 243   0.0000      -0.060679        -1.6512
 244   0.0000      -0.059005        -1.6056

MULLIKEN ATOMIC CHARGES
-----------------------
   0 C :    0.266798
   1 C :   -0.343073
   2 C :   -0.197548
   3 N :    0.167433
   4 C :   -0.205760
   5 N :    0.184327
   6 C :    0.044016
   7 C :    0.015444
   8 C :   -0.087364
   9 C :    0.094372
  10 C :    0.093316
  11 C :   -0.080948
  12 C :   -0.019161
  13 C :    0.035856
  14 C :    0.035605
  15 C :   -0.014512
  16 C :    0.139166
  17 O :   -0.123886
  18 C :   -0.105634
  19 C :    0.018729
  20 C :    0.127634
  21 O :   -0.207023
  22 C :    0.098083
  23 C :   -0.039182
  24 C :    0.016842
  25 C :    0.161788
  26 O :   -0.165931
  27 C :    0.189829
  28 N :   -0.262112
  29 C :    0.118688
  30 C :    0.010018
  31 C :    0.160027
  32 O :   -0.230405
  33 C :   -0.051619
  34 C :   -0.085359
  35 C :    0.167512
  36 O :   -0.192210
  37 N :   -0.254961
  38 C :    0.105337
  39 C :   -0.001541
  40 C :    0.130510
  41 C :   -0.018828
  42 C :   -0.014035
  43 C :    0.044536
  44 C :    0.102667
  45 O :   -0.138717
  46 C :    0.159539
  47 N :    0.274989
  48 O :   -0.254217
  49 O :   -0.229931
  50 C :    0.006070
  51 C :   -0.028667
  52 C :   -0.096894
  53 C :    0.290764
  54 C :   -0.333508
  55 C :   -0.170447
  56 N :    0.152595
  57 C :   -0.166487
  58 N :    0.154224
  59 C :    0.043522
  60 C :    0.045284
  61 C :    0.203079
  62 O :   -0.138201
  63 C :   -0.088891
  64 C :    0.102122
  65 C :    0.078508
  66 C :   -0.092107
  67 C :   -0.014486
  68 C :    0.024604
  69 C :    0.032837
  70 C :   -0.017525
  71 H :   -0.008119
  72 H :   -0.002922
  73 H :   -0.020064
  74 H :   -0.005163
  75 H :   -0.003090
  76 H :   -0.014443
  77 H :    0.043393
  78 H :    0.014826
  79 H :    0.001305
  80 H :    0.043220
  81 H :    0.027852
  82 H :    0.011758
  83 H :    0.016409
  84 H :    0.024538
  85 H :    0.037243
  86 H :    0.019279
  87 H :    0.029519
  88 H :    0.016412
  89 H :    0.031831
  90 H :    0.018962
  91 H :    0.061670
  92 H :    0.021659
  93 H :    0.053554
  94 H :   -0.011347
  95 H :   -0.001570
  96 H :   -0.012071
  97 H :   -0.003766
  98 H :   -0.003491
  99 H :   -0.012881
Sum of atomic charges:   -0.0000000

LOEWDIN ATOMIC CHARGES
----------------------
   0 C :    0.069166
   1 C :   -0.136313
   2 C :   -0.022489
   3 N :   -0.049316
   4 C :   -0.027349
   5 N :   -0.045598
   6 C :   -0.021117
   7 C :   -0.055051
   8 C :    0.034260
   9 C :   -0.008397
  10 C :   -0.005549
  11 C :    0.014712
  12 C :   -0.008965
  13 C :   -0.016134
  14 C :   -0.012660
  15 C :   -0.006661
  16 C :    0.083634
  17 O :   -0.127055
  18 C :   -0.067609
  19 C :    0.048678
  20 C :    0.059013
  21 O :    0.045521
  22 C :    0.039378
  23 C :    0.003056
  24 C :   -0.084672
  25 C :    0.117458
  26 O :   -0.117817
  27 C :    0.062533
  28 N :    0.008974
  29 C :    0.035976
  30 C :   -0.066251
  31 C :    0.084142
  32 O :   -0.205216
  33 C :   -0.131621
  34 C :   -0.110457
  35 C :    0.088471
  36 O :   -0.185146
  37 N :    0.011012
  38 C :    0.039094
  39 C :   -0.063813
  40 C :    0.092286
  41 C :   -0.030342
  42 C :    0.030711
  43 C :   -0.057928
  44 C :    0.077338
  45 O :    0.053762
  46 C :    0.004593
  47 N :    0.275566
  48 O :   -0.214118
  49 O :   -0.190816
  50 C :   -0.019491
  51 C :    0.067957
  52 C :   -0.057355
  53 C :    0.088559
  54 C :   -0.134649
  55 C :   -0.018058
  56 N :   -0.049063
  57 C :   -0.003180
  58 N :   -0.055857
  59 C :   -0.022956
  60 C :   -0.038863
  61 C :    0.095460
  62 O :   -0.129433
  63 C :    0.035721
  64 C :   -0.005984
  65 C :   -0.008085
  66 C :    0.017617
  67 C :   -0.007258
  68 C :   -0.017618
  69 C :   -0.016920
  70 C :   -0.005658
  71 H :    0.040813
  72 H :    0.037641
  73 H :    0.031882
  74 H :    0.032695
  75 H :    0.033805
  76 H :    0.033214
  77 H :    0.059393
  78 H :    0.042412
  79 H :    0.006927
  80 H :    0.037684
  81 H :    0.023995
  82 H :    0.024641
  83 H :    0.027432
  84 H :    0.019279
  85 H :    0.035681
  86 H :    0.025028
  87 H :    0.032210
  88 H :    0.028193
  89 H :    0.022330
  90 H :    0.038293
  91 H :    0.046292
  92 H :    0.034055
  93 H :    0.051778
  94 H :    0.040497
  95 H :    0.037731
  96 H :    0.033817
  97 H :    0.031827
  98 H :    0.030644
  99 H :    0.034050

  Mayer bond orders larger than 0.100000
B(  0-C ,  1-C ) :   1.6685 B(  0-C ,  6-C ) :   0.9999 B(  0-C , 18-C ) :   1.0406
B(  1-C ,  2-C ) :   1.1396 B(  1-C ,  4-C ) :   1.1523 B(  2-C ,  3-N ) :   2.9788
B(  4-C ,  5-N ) :   3.0054 B(  6-C ,  7-C ) :   1.2168 B(  6-C , 11-C ) :   1.4561
B(  7-C ,  8-C ) :   1.4723 B(  7-C , 16-C ) :   0.9151 B(  8-C ,  9-C ) :   1.1834
B(  8-C , 71-H ) :   1.0161 B(  9-C , 10-C ) :   1.2586 B(  9-C , 15-C ) :   1.2449
B( 10-C , 11-C ) :   1.2093 B( 10-C , 12-C ) :   1.2443 B( 11-C , 72-H ) :   0.9894
B( 12-C , 13-C ) :   1.4776 B( 12-C , 73-H ) :   0.9950 B( 13-C , 14-C ) :   1.2611
B( 13-C , 74-H ) :   0.9899 B( 14-C , 15-C ) :   1.4896 B( 14-C , 75-H ) :   0.9890
B( 15-C , 76-H ) :   0.9973 B( 16-C , 17-O ) :   2.2918 B( 16-C , 18-C ) :   0.9230
B( 18-C , 19-C ) :   1.6119 B( 19-C , 20-C ) :   1.1562 B( 19-C , 77-H ) :   0.9353
B( 20-C , 21-O ) :   1.1305 B( 20-C , 22-C ) :   0.1083 B( 20-C , 24-C ) :   1.3733
B( 21-O , 22-C ) :   1.1236 B( 22-C , 23-C ) :   1.4828 B( 22-C , 27-C ) :   1.0657
B( 23-C , 24-C ) :   1.2132 B( 23-C , 78-H ) :   0.9805 B( 24-C , 25-C ) :   0.9736
B( 25-C , 26-O ) :   2.1559 B( 25-C , 79-H ) :   0.9633 B( 27-C , 28-N ) :   1.1771
B( 27-C , 34-C ) :   1.4238 B( 28-N , 29-C ) :   0.9273 B( 28-N , 31-C ) :   1.0608
B( 29-C , 30-C ) :   1.1248 B( 29-C , 80-H ) :   0.9206 B( 29-C , 81-H ) :   0.9473
B( 30-C , 82-H ) :   0.9512 B( 30-C , 83-H ) :   0.9585 B( 30-C , 84-H ) :   0.9559
B( 31-C , 32-O ) :   1.9863 B( 31-C , 33-C ) :   1.0024 B( 33-C , 34-C ) :   1.2231
B( 33-C , 40-C ) :   1.3639 B( 34-C , 35-C ) :   0.9659 B( 35-C , 36-O ) :   2.0763
B( 35-C , 37-N ) :   1.0383 B( 37-N , 38-C ) :   0.9361 B( 37-N , 40-C ) :   1.2035
B( 38-C , 39-C ) :   1.1208 B( 38-C , 85-H ) :   0.9339 B( 38-C , 86-H ) :   0.9496
B( 39-C , 87-H ) :   0.9632 B( 39-C , 88-H ) :   0.9634 B( 39-C , 89-H ) :   0.9573
B( 40-C , 41-C ) :   1.0816 B( 41-C , 42-C ) :   1.8063 B( 41-C , 90-H ) :   0.9572
B( 42-C , 43-C ) :   0.9867 B( 42-C , 91-H ) :   0.9545 B( 43-C , 44-C ) :   1.4956
B( 43-C , 50-C ) :   1.3107 B( 44-C , 45-O ) :   1.1682 B( 44-C , 92-H ) :   1.0181
B( 45-O , 46-C ) :   1.1835 B( 46-C , 47-N ) :   0.9460 B( 46-C , 50-C ) :   1.4700
B( 47-N , 48-O ) :   1.5092 B( 47-N , 49-O ) :   1.5036 B( 48-O , 49-O ) :   0.2701
B( 50-C , 51-C ) :   1.0027 B( 51-C , 52-C ) :   1.7863 B( 51-C , 93-H ) :   0.9425
B( 52-C , 53-C ) :   1.0128 B( 52-C , 61-C ) :   0.9142 B( 53-C , 54-C ) :   1.6796
B( 53-C , 59-C ) :   1.0021 B( 54-C , 55-C ) :   1.1454 B( 54-C , 57-C ) :   1.1474
B( 55-C , 56-N ) :   2.9459 B( 57-C , 58-N ) :   2.9520 B( 59-C , 60-C ) :   1.2266
B( 59-C , 66-C ) :   1.4353 B( 60-C , 61-C ) :   0.9319 B( 60-C , 63-C ) :   1.4802
B( 61-C , 62-O ) :   2.2401 B( 63-C , 64-C ) :   1.1754 B( 63-C , 94-H ) :   1.0164
B( 64-C , 65-C ) :   1.2636 B( 64-C , 70-C ) :   1.2422 B( 65-C , 66-C ) :   1.2018
B( 65-C , 67-C ) :   1.2352 B( 66-C , 95-H ) :   0.9986 B( 67-C , 68-C ) :   1.4898
B( 67-C , 96-H ) :   0.9990 B( 68-C , 69-C ) :   1.2518 B( 68-C , 97-H ) :   0.9843
B( 69-C , 70-C ) :   1.4903 B( 69-C , 98-H ) :   0.9849 B( 70-C , 99-H ) :   0.9984

-----------------------------------------------------------------------------
         ABSORPTION SPECTRUM VIA TRANSITION ELECTRIC DIPOLE MOMENTS
-----------------------------------------------------------------------------
State   Energy  Wavelength   fosc         T2         TX        TY        TZ
        (cm-1)    (nm)                  (au**2)     (au)      (au)      (au)
-----------------------------------------------------------------------------
   0   14964.9    668.2   0.441880229   9.72087  -0.77132   0.94059  -2.87075
   1   17220.2    580.7   0.007701562   0.14724   0.17882  -0.33756   0.03625
   2   22481.9    444.8   0.203448763   2.97919   0.13193  -1.16075   1.27061
   3   24410.8    409.7   0.037357751   0.50382   0.70089   0.06234   0.09319
   4   25611.9    390.4   0.079735171   1.02491  -0.26708  -0.21839  -0.95178
   5   25985.5    384.8   0.005363615   0.06795  -0.01965  -0.23613  -0.10866
   6   26278.0    380.5   0.042298692   0.52992  -0.25834  -0.24156  -0.63626
   7   26627.0    375.6   0.002577406   0.03187  -0.02223   0.15088  -0.09278
   8   26735.8    374.0   0.013452781   0.16565   0.13142  -0.08391   0.37595
   9   27126.5    368.6   0.017534826   0.21281  -0.11515  -0.16504  -0.41510
  10   27588.7    362.5   0.136237442   1.62570  -0.32417  -0.66770   1.03672
  11   27668.2    361.4   0.017465772   0.20782   0.08336   0.36045   0.26636
  12   28174.8    354.9   0.003431119   0.04009  -0.15599  -0.07886  -0.09767
  13   28883.7    346.2   0.067125634   0.76509   0.33912  -0.09992  -0.80006
  14   29485.7    339.1   0.159350536   1.77917  -0.55416  -0.25862  -1.18541
  15   30042.7    332.9   0.053037514   0.58119   0.25535   0.25944   0.66984
  16   30390.9    329.0   0.005327752   0.05771  -0.21605   0.10461   0.00961
  17   30890.6    323.7   0.003340098   0.03560  -0.17175   0.01015  -0.07742
  18   31765.5    314.8   0.029653683   0.30733  -0.11957  -0.54125   0.00878
  19   32220.0    310.4   0.005440591   0.05559  -0.15893  -0.00547   0.17407
  20   32357.6    309.0   0.016523667   0.16811  -0.03046   0.33223  -0.23835
  21   32609.3    306.7   0.114026620   1.15117   0.21840  -0.86737   0.59257
  22   32941.3    303.6   0.100973559   1.00912  -0.87990  -0.37063   0.31229
  23   33094.3    302.2   0.386226431   3.84207   0.82103  -0.49152  -1.71067
  24   33195.0    301.3   0.037845386   0.37533  -0.29430  -0.49339   0.21281
  25   33684.8    296.9   0.016919969   0.16536  -0.03459   0.38250  -0.13366
  26   33735.9    296.4   0.008368861   0.08167   0.00230  -0.09234   0.27044
  27   33897.4    295.0   0.042953309   0.41716  -0.20671  -0.01845  -0.61163
  28   33979.6    294.3   0.136024105   1.31787  -0.05810  -0.41094  -1.07034
  29   34050.0    293.7   0.036974963   0.35749  -0.47882   0.35494   0.04730
  30   34296.6    291.6   0.115843833   1.11198   0.36431   0.62619   0.76625
  31   34488.8    289.9   0.102956981   0.98277   0.19355   0.69447   0.68046
  32   34738.7    287.9   0.127946397   1.21252  -0.56192  -0.62963  -0.70735
  33   34807.6    287.3   0.020475250   0.19366  -0.28209  -0.12611  -0.31333
  34   35231.0    283.8   0.710676537   6.64084   0.67336  -0.31989   2.46680
  35   35755.0    279.7   0.053826678   0.49561   0.01791   0.70376   0.00057
  36   36553.3    273.6   0.070480740   0.63477   0.22981  -0.69837  -0.30700
  37   36821.1    271.6   0.034485184   0.30833   0.17069   0.21897  -0.48088
  38   37016.4    270.2   0.032740811   0.29119  -0.21901  -0.01342  -0.49299
  39   37274.3    268.3   0.292010239   2.57908   0.33722  -1.00908  -1.20296
  40   37583.9    266.1   0.116130127   1.01723   0.04774  -0.89944  -0.45383
  41   37966.2    263.4   0.035030359   0.30375  -0.02644   0.37057  -0.40710
  42   38194.0    261.8   0.004878501   0.04205  -0.16443  -0.11558   0.04065
  43   38310.4    261.0   0.007117795   0.06117  -0.04652   0.14400   0.19561
  44   38393.3    260.5   0.019441634   0.16671   0.19850  -0.26319  -0.24090
  45   38630.7    258.9   0.002233725   0.01904   0.06743   0.11574   0.03306
  46   38987.5    256.5   0.056448420   0.47665   0.14817   0.64654  -0.19152
  47   39384.0    253.9   0.203575306   1.70169  -0.40043  -1.24010   0.05918
  48   39572.8    252.7   0.306750008   2.55190  -0.47692  -1.26366   0.85300
  49   39936.5    250.4   0.020131023   0.16595  -0.16929  -0.05479  -0.36645
  50   39982.4    250.1   0.029500850   0.24291  -0.37951  -0.31294  -0.03090
  51   40259.2    248.4   0.018611792   0.15219  -0.16770  -0.27055   0.22555

FINAL SINGLE POINT ENERGY     -3169.468106005487

DIPOLE MOMENT
-------------
                                X             Y             Z
Electronic contribution:      2.83973       5.94311     -13.79106
Nuclear contribution   :     -2.85508      -5.11326      15.39894
                        -----------------------------------------
Total Dipole Moment    :     -0.01534       0.82984       1.60788
                        -----------------------------------------
Magnitude (a.u.)       :      1.80946
Magnitude (Debye)      :      4.59928

Rotational constants in cm-1:     0.001660     0.000802     0.000609
Rotational constants in MHz :    49.772092    24.036338    18.254206

                             ****ORCA TERMINATED NORMALLY****
TOTAL RUN TIME: 0 days 0 hours 11 minutes 1 seconds 459 msec
