                         Program Version 4.2.0 -  RELEASE  -
|  1> # ORCA input file
|  2> # SCF done       -208.944136935707          0.000893963019
|  3> ! CAM-B3LYP def2-SVP def2/J RIJCOSX Grid4 TightSCF
|  4> %maxcore 5000
|  5> %tddft
|  6>     Mode sTDDFT
|  7>     Ethresh 5.0
|  8>     maxcore 5000
|  9> end
| 10>
| 11> %pal
| 12>   nprocs 6
| 13>   end
| 14> * xyz 0 1
| 15>    C        3.96553         3.48251        -0.65144
| 16>    C        3.89509         4.49617         0.26360
| 17>    C        4.97386         5.35761         0.56339
| 18>    N        5.81623         6.08280         0.84655
| 19>    C        2.76738         4.76761         1.06132
| 20>    N        1.87461         5.02001         1.73786
| 21>    C        5.16422         3.06994        -1.36704
| 22>    C        4.97620         1.74296        -1.85637
| 23>    C        5.95481         1.08874        -2.54966
| 24>    C        7.17969         1.74661        -2.79876
| 25>    C        7.36666         3.07974        -2.32811
| 26>    C        6.34026         3.73022        -1.60719
| 27>    C        8.58962         3.72895        -2.59447
| 28>    C        9.58200         3.09352        -3.28990
| 29>    C        9.39785         1.78110        -3.75118
| 30>    C        8.22310         1.12164        -3.51015
| 31>    C        3.62392         1.28188        -1.51302
| 32>    O        3.12342         0.19979        -1.69334
| 33>    C        2.93983         2.48720        -0.92749
| 34>    C        1.59515         2.49914        -0.86091
| 35>    C        0.70352         3.61886        -0.63752
| 36>    C        0.93161         4.89571        -1.16213
| 37>    F        2.02179         5.11660        -1.90932
| 38>    C        0.05121         5.94028        -0.93919
| 39>    F        0.34040         7.14660        -1.42750
| 40>    C       -1.09578         5.76878        -0.15810
| 41>    C       -1.34606         4.48952         0.33930
| 42>    C       -0.47788         3.43915         0.09004
| 43>    F       -0.75562         2.22814         0.58178
| 44>    F       -2.46452         4.25963         1.03581
| 45>    C       -1.99825         6.89970         0.01812
| 46>    N       -2.44976         7.39302         1.20587
| 47>    C       -2.06749         6.97806         2.53606
| 48>    C       -0.58833         7.22588         2.81552
| 49>    C       -3.25542         8.54951         1.00510
| 50>    O       -3.74438         9.18081         1.91289
| 51>    C       -3.29884         8.70300        -0.43149
| 52>    C       -2.50785         7.67112        -1.00425
| 53>    C       -2.56775         7.80972        -2.44171
| 54>    O       -2.10796         7.14345        -3.34113
| 55>    N       -3.35291         8.96967        -2.64564
| 56>    C       -3.69728         9.34857        -3.99631
| 57>    C       -5.17732         9.13336        -4.29732
| 58>    C       -3.78941         9.50486        -1.45364
| 59>    C       -4.54576        10.68877        -1.19886
| 60>    C       -4.80292        11.70328        -2.05121
| 61>    C       -5.48339        12.93350        -1.72377
| 62>    C       -6.29671        13.14357        -0.59865
| 63>    F       -6.57328        12.13199         0.23043
| 64>    C       -6.86356        14.37765        -0.33065
| 65>    F       -7.66947        14.50237         0.72740
| 66>    C       -6.66516        15.47808        -1.17101
| 67>    C       -5.91706        15.25841        -2.33008
| 68>    C       -5.33973        14.03014        -2.59062
| 69>    F       -4.60093        13.88439        -3.70165
| 70>    F       -5.72224        16.27687        -3.17754
| 71>    C       -7.22817        16.78687        -0.88327
| 72>    C       -7.11149        17.39412         0.31461
| 73>    C       -7.70843        18.65508         0.74100
| 74>    C       -8.68248        19.34923         0.07886
| 75>    C       -9.24964        20.55599         0.54402
| 76>    N       -9.74373        21.54039         0.86542
| 77>    C       -9.26924        18.95130        -1.14234
| 78>    N       -9.79772        18.68069        -2.12437
| 79>    C       -7.13470        18.99961         2.03342
| 80>    C       -6.22972        17.97135         2.42790
| 81>    C       -6.16770        16.93699         1.38822
| 82>    O       -5.44298        15.96955         1.35445
| 83>    C       -5.54927        18.02213         3.61141
| 84>    C       -5.74908        19.12198         4.47378
| 85>    C       -6.64647        20.15927         4.08412
| 86>    C       -7.33361        20.08179         2.85205
| 87>    C       -6.83351        21.25576         4.95093
| 88>    C       -6.16992        21.32428         6.14553
| 89>    C       -5.28859        20.30165         6.52872
| 90>    C       -5.08258        19.22390         5.71090
| 91>    H        5.79458         0.08247        -2.90705
| 92>    H        6.50134         4.74389        -1.27534
| 93>    H        8.72747         4.73795        -2.23500
| 94>    H       10.51508         3.59877        -3.48877
| 95>    H       10.19127         1.29575        -4.29935
| 96>    H        8.07597         0.11163        -3.86333
| 97>    H        1.10827         1.54287        -1.02917
| 98>    H       -2.31836         5.92620         2.68797
| 99>    H       -2.68086         7.58344         3.21030
|100>    H        0.04795         6.58980         2.20554
|101>    H       -0.37914         7.01185         3.85936
|102>    H       -0.33799         8.26580         2.61933
|103>    H       -3.09545         8.69622        -4.63714
|104>    H       -3.39608        10.38121        -4.19056
|105>    H       -5.43439         8.08545        -4.16276
|106>    H       -5.38355         9.41089        -5.32724
|107>    H       -5.80667         9.73016        -3.64154
|108>    H       -4.85487        10.75445        -0.16484
|109>    H       -4.42556        11.67430        -3.06136
|110>    H       -7.72472        17.27579        -1.71145
|111>    H       -4.87100        17.22804         3.88589
|112>    H       -8.00093        20.88534         2.58358
|113>    H       -7.51381        22.03981         4.65267
|114>    H       -6.32075        22.16724         6.80293
|115>    H       -4.77380        20.37253         7.47505
|116>    H       -4.40555        18.43365         6.00001
|117> *
|118>
|119>                          ****END OF INPUT****

CARTESIAN COORDINATES (ANGSTROEM)
---------------------------------
  C      3.965530    3.482510   -0.651440
  C      3.895090    4.496170    0.263600
  C      4.973860    5.357610    0.563390
  N      5.816230    6.082800    0.846550
  C      2.767380    4.767610    1.061320
  N      1.874610    5.020010    1.737860
  C      5.164220    3.069940   -1.367040
  C      4.976200    1.742960   -1.856370
  C      5.954810    1.088740   -2.549660
  C      7.179690    1.746610   -2.798760
  C      7.366660    3.079740   -2.328110
  C      6.340260    3.730220   -1.607190
  C      8.589620    3.728950   -2.594470
  C      9.582000    3.093520   -3.289900
  C      9.397850    1.781100   -3.751180
  C      8.223100    1.121640   -3.510150
  C      3.623920    1.281880   -1.513020
  O      3.123420    0.199790   -1.693340
  C      2.939830    2.487200   -0.927490
  C      1.595150    2.499140   -0.860910
  C      0.703520    3.618860   -0.637520
  C      0.931610    4.895710   -1.162130
  F      2.021790    5.116600   -1.909320
  C      0.051210    5.940280   -0.939190
  F      0.340400    7.146600   -1.427500
  C     -1.095780    5.768780   -0.158100
  C     -1.346060    4.489520    0.339300
  C     -0.477880    3.439150    0.090040
  F     -0.755620    2.228140    0.581780
  F     -2.464520    4.259630    1.035810
  C     -1.998250    6.899700    0.018120
  N     -2.449760    7.393020    1.205870
  C     -2.067490    6.978060    2.536060
  C     -0.588330    7.225880    2.815520
  C     -3.255420    8.549510    1.005100
  O     -3.744380    9.180810    1.912890
  C     -3.298840    8.703000   -0.431490
  C     -2.507850    7.671120   -1.004250
  C     -2.567750    7.809720   -2.441710
  O     -2.107960    7.143450   -3.341130
  N     -3.352910    8.969670   -2.645640
  C     -3.697280    9.348570   -3.996310
  C     -5.177320    9.133360   -4.297320
  C     -3.789410    9.504860   -1.453640
  C     -4.545760   10.688770   -1.198860
  C     -4.802920   11.703280   -2.051210
  C     -5.483390   12.933500   -1.723770
  C     -6.296710   13.143570   -0.598650
  F     -6.573280   12.131990    0.230430
  C     -6.863560   14.377650   -0.330650
  F     -7.669470   14.502370    0.727400
  C     -6.665160   15.478080   -1.171010
  C     -5.917060   15.258410   -2.330080
  C     -5.339730   14.030140   -2.590620
  F     -4.600930   13.884390   -3.701650
  F     -5.722240   16.276870   -3.177540
  C     -7.228170   16.786870   -0.883270
  C     -7.111490   17.394120    0.314610
  C     -7.708430   18.655080    0.741000
  C     -8.682480   19.349230    0.078860
  C     -9.249640   20.555990    0.544020
  N     -9.743730   21.540390    0.865420
  C     -9.269240   18.951300   -1.142340
  N     -9.797720   18.680690   -2.124370
  C     -7.134700   18.999610    2.033420
  C     -6.229720   17.971350    2.427900
  C     -6.167700   16.936990    1.388220
  O     -5.442980   15.969550    1.354450
  C     -5.549270   18.022130    3.611410
  C     -5.749080   19.121980    4.473780
  C     -6.646470   20.159270    4.084120
  C     -7.333610   20.081790    2.852050
  C     -6.833510   21.255760    4.950930
  C     -6.169920   21.324280    6.145530
  C     -5.288590   20.301650    6.528720
  C     -5.082580   19.223900    5.710900
  H      5.794580    0.082470   -2.907050
  H      6.501340    4.743890   -1.275340
  H      8.727470    4.737950   -2.235000
  H     10.515080    3.598770   -3.488770
  H     10.191270    1.295750   -4.299350
  H      8.075970    0.111630   -3.863330
  H      1.108270    1.542870   -1.029170
  H     -2.318360    5.926200    2.687970
  H     -2.680860    7.583440    3.210300
  H      0.047950    6.589800    2.205540
  H     -0.379140    7.011850    3.859360
  H     -0.337990    8.265800    2.619330
  H     -3.095450    8.696220   -4.637140
  H     -3.396080   10.381210   -4.190560
  H     -5.434390    8.085450   -4.162760
  H     -5.383550    9.410890   -5.327240
  H     -5.806670    9.730160   -3.641540
  H     -4.854870   10.754450   -0.164840
  H     -4.425560   11.674300   -3.061360
  H     -7.724720   17.275790   -1.711450
  H     -4.871000   17.228040    3.885890
  H     -8.000930   20.885340    2.583580
  H     -7.513810   22.039810    4.652670
  H     -6.320750   22.167240    6.802930
  H     -4.773800   20.372530    7.475050
  H     -4.405550   18.433650    6.000010

 Total Charge           Charge          ....    0
 Multiplicity           Mult            ....    1
 Number of Electrons    NEL             ....  520
 Basis Dimension        Dim             .... 1194

ORBITAL ENERGIES
----------------

  NO   OCC          E(Eh)            E(eV)
   0   2.0000     -24.815208      -675.2561
   1   2.0000     -24.812513      -675.1828
   2   2.0000     -24.811149      -675.1457
   3   2.0000     -24.806861      -675.0290
   4   2.0000     -24.805911      -675.0031
   5   2.0000     -24.804676      -674.9695
   6   2.0000     -24.802410      -674.9079
   7   2.0000     -24.801776      -674.8906
   8   2.0000     -19.226084      -523.1683
   9   2.0000     -19.224150      -523.1157
  10   2.0000     -19.191898      -522.2381
  11   2.0000     -19.190365      -522.1964
  12   2.0000     -14.455493      -393.3540
  13   2.0000     -14.453713      -393.3055
  14   2.0000     -14.430826      -392.6827
  15   2.0000     -14.425100      -392.5269
  16   2.0000     -14.422762      -392.4633
  17   2.0000     -14.422371      -392.4527
  18   2.0000     -10.391890      -282.7777
  19   2.0000     -10.391503      -282.7672
  20   2.0000     -10.390873      -282.7500
  21   2.0000     -10.389688      -282.7178
  22   2.0000     -10.386132      -282.6210
  23   2.0000     -10.384389      -282.5736
  24   2.0000     -10.382834      -282.5313
  25   2.0000     -10.381311      -282.4898
  26   2.0000     -10.376536      -282.3599
  27   2.0000     -10.375212      -282.3239
  28   2.0000     -10.374827      -282.3134
  29   2.0000     -10.374563      -282.3062
  30   2.0000     -10.355762      -281.7946
  31   2.0000     -10.352262      -281.6994
  32   2.0000     -10.352171      -281.6969
  33   2.0000     -10.350248      -281.6446
  34   2.0000     -10.348249      -281.5902
  35   2.0000     -10.342498      -281.4337
  36   2.0000     -10.332888      -281.1722
  37   2.0000     -10.331066      -281.1226
  38   2.0000     -10.329919      -281.0914
  39   2.0000     -10.329536      -281.0810
  40   2.0000     -10.329026      -281.0671
  41   2.0000     -10.327003      -281.0120
  42   2.0000     -10.324553      -280.9454
  43   2.0000     -10.324324      -280.9391
  44   2.0000     -10.322501      -280.8895
  45   2.0000     -10.320206      -280.8271
  46   2.0000     -10.314892      -280.6825
  47   2.0000     -10.312604      -280.6202
  48   2.0000     -10.312183      -280.6088
  49   2.0000     -10.309607      -280.5387
  50   2.0000     -10.305952      -280.4392
  51   2.0000     -10.305570      -280.4288
  52   2.0000     -10.305540      -280.4280
  53   2.0000     -10.305147      -280.4173
  54   2.0000     -10.305072      -280.4153
  55   2.0000     -10.304756      -280.4067
  56   2.0000     -10.303305      -280.3672
  57   2.0000     -10.303017      -280.3593
  58   2.0000     -10.302790      -280.3532
  59   2.0000     -10.302398      -280.3425
  60   2.0000     -10.298371      -280.2329
  61   2.0000     -10.298238      -280.2293
  62   2.0000     -10.297908      -280.2203
  63   2.0000     -10.294813      -280.1361
  64   2.0000     -10.293052      -280.0882
  65   2.0000     -10.292599      -280.0759
  66   2.0000     -10.292366      -280.0695
  67   2.0000     -10.291852      -280.0555
  68   2.0000     -10.291122      -280.0357
  69   2.0000     -10.290623      -280.0221
  70   2.0000     -10.290424      -280.0167
  71   2.0000     -10.290000      -280.0051
  72   2.0000     -10.264255      -279.3046
  73   2.0000     -10.263349      -279.2799
  74   2.0000     -10.262361      -279.2530
  75   2.0000     -10.249294      -278.8975
  76   2.0000      -1.335701       -36.3463
  77   2.0000      -1.334684       -36.3186
  78   2.0000      -1.329287       -36.1717
  79   2.0000      -1.326700       -36.1013
  80   2.0000      -1.319903       -35.9164
  81   2.0000      -1.316939       -35.8357
  82   2.0000      -1.313610       -35.7451
  83   2.0000      -1.310197       -35.6523
  84   2.0000      -1.142220       -31.0814
  85   2.0000      -1.140038       -31.0220
  86   2.0000      -1.134216       -30.8636
  87   2.0000      -1.127452       -30.6795
  88   2.0000      -1.065849       -29.0032
  89   2.0000      -1.055580       -28.7238
  90   2.0000      -1.030552       -28.0427
  91   2.0000      -1.025250       -27.8985
  92   2.0000      -1.009861       -27.4797
  93   2.0000      -1.006082       -27.3769
  94   2.0000      -1.004867       -27.3438
  95   2.0000      -1.000937       -27.2369
  96   2.0000      -0.999181       -27.1891
  97   2.0000      -0.996035       -27.1035
  98   2.0000      -0.979751       -26.6604
  99   2.0000      -0.976994       -26.5853
 100   2.0000      -0.937663       -25.5151
 101   2.0000      -0.936964       -25.4961
 102   2.0000      -0.929159       -25.2837
 103   2.0000      -0.926881       -25.2217
 104   2.0000      -0.924721       -25.1629
 105   2.0000      -0.907137       -24.6844
 106   2.0000      -0.900580       -24.5060
 107   2.0000      -0.889275       -24.1984
 108   2.0000      -0.888467       -24.1764
 109   2.0000      -0.885534       -24.0966
 110   2.0000      -0.874230       -23.7890
 111   2.0000      -0.864555       -23.5257
 112   2.0000      -0.863808       -23.5054
 113   2.0000      -0.857151       -23.3243
 114   2.0000      -0.854548       -23.2534
 115   2.0000      -0.836324       -22.7575
 116   2.0000      -0.833809       -22.6891
 117   2.0000      -0.825727       -22.4692
 118   2.0000      -0.817492       -22.2451
 119   2.0000      -0.814624       -22.1670
 120   2.0000      -0.792510       -21.5653
 121   2.0000      -0.781077       -21.2542
 122   2.0000      -0.769553       -20.9406
 123   2.0000      -0.768207       -20.9040
 124   2.0000      -0.757259       -20.6061
 125   2.0000      -0.753283       -20.4979
 126   2.0000      -0.745223       -20.2785
 127   2.0000      -0.738726       -20.1018
 128   2.0000      -0.737907       -20.0795
 129   2.0000      -0.720960       -19.6183
 130   2.0000      -0.713097       -19.4044
 131   2.0000      -0.709914       -19.3177
 132   2.0000      -0.708682       -19.2842
 133   2.0000      -0.707975       -19.2650
 134   2.0000      -0.700285       -19.0557
 135   2.0000      -0.698000       -18.9935
 136   2.0000      -0.693998       -18.8847
 137   2.0000      -0.690770       -18.7968
 138   2.0000      -0.686695       -18.6859
 139   2.0000      -0.682643       -18.5756
 140   2.0000      -0.676802       -18.4167
 141   2.0000      -0.672111       -18.2891
 142   2.0000      -0.670886       -18.2557
 143   2.0000      -0.658920       -17.9301
 144   2.0000      -0.657697       -17.8968
 145   2.0000      -0.648654       -17.6508
 146   2.0000      -0.646033       -17.5795
 147   2.0000      -0.643177       -17.5017
 148   2.0000      -0.642561       -17.4850
 149   2.0000      -0.630635       -17.1604
 150   2.0000      -0.625613       -17.0238
 151   2.0000      -0.621707       -16.9175
 152   2.0000      -0.620070       -16.8730
 153   2.0000      -0.615745       -16.7553
 154   2.0000      -0.613229       -16.6868
 155   2.0000      -0.612204       -16.6589
 156   2.0000      -0.607482       -16.5304
 157   2.0000      -0.605574       -16.4785
 158   2.0000      -0.601069       -16.3559
 159   2.0000      -0.599140       -16.3034
 160   2.0000      -0.594393       -16.1743
 161   2.0000      -0.591491       -16.0953
 162   2.0000      -0.590795       -16.0763
 163   2.0000      -0.585753       -15.9392
 164   2.0000      -0.581424       -15.8213
 165   2.0000      -0.574640       -15.6367
 166   2.0000      -0.566034       -15.4026
 167   2.0000      -0.564864       -15.3707
 168   2.0000      -0.563263       -15.3272
 169   2.0000      -0.562089       -15.2952
 170   2.0000      -0.559131       -15.2147
 171   2.0000      -0.558673       -15.2023
 172   2.0000      -0.557136       -15.1604
 173   2.0000      -0.554892       -15.0994
 174   2.0000      -0.553982       -15.0746
 175   2.0000      -0.553313       -15.0564
 176   2.0000      -0.552391       -15.0313
 177   2.0000      -0.550501       -14.9799
 178   2.0000      -0.548234       -14.9182
 179   2.0000      -0.547501       -14.8983
 180   2.0000      -0.541270       -14.7287
 181   2.0000      -0.538663       -14.6578
 182   2.0000      -0.537480       -14.6256
 183   2.0000      -0.533350       -14.5132
 184   2.0000      -0.531487       -14.4625
 185   2.0000      -0.528762       -14.3883
 186   2.0000      -0.527267       -14.3477
 187   2.0000      -0.525879       -14.3099
 188   2.0000      -0.525097       -14.2886
 189   2.0000      -0.519891       -14.1469
 190   2.0000      -0.519362       -14.1325
 191   2.0000      -0.516740       -14.0612
 192   2.0000      -0.515278       -14.0214
 193   2.0000      -0.512001       -13.9323
 194   2.0000      -0.509621       -13.8675
 195   2.0000      -0.507643       -13.8137
 196   2.0000      -0.506934       -13.7944
 197   2.0000      -0.504527       -13.7289
 198   2.0000      -0.502860       -13.6835
 199   2.0000      -0.502477       -13.6731
 200   2.0000      -0.501862       -13.6564
 201   2.0000      -0.497249       -13.5308
 202   2.0000      -0.494901       -13.4669
 203   2.0000      -0.493227       -13.4214
 204   2.0000      -0.491162       -13.3652
 205   2.0000      -0.485065       -13.1993
 206   2.0000      -0.480504       -13.0752
 207   2.0000      -0.478025       -13.0077
 208   2.0000      -0.473258       -12.8780
 209   2.0000      -0.471618       -12.8334
 210   2.0000      -0.470671       -12.8076
 211   2.0000      -0.470469       -12.8021
 212   2.0000      -0.467295       -12.7157
 213   2.0000      -0.466519       -12.6946
 214   2.0000      -0.462149       -12.5757
 215   2.0000      -0.458300       -12.4710
 216   2.0000      -0.455466       -12.3939
 217   2.0000      -0.455072       -12.3831
 218   2.0000      -0.452168       -12.3041
 219   2.0000      -0.451271       -12.2797
 220   2.0000      -0.450368       -12.2551
 221   2.0000      -0.449370       -12.2280
 222   2.0000      -0.447444       -12.1756
 223   2.0000      -0.445096       -12.1117
 224   2.0000      -0.443434       -12.0664
 225   2.0000      -0.441863       -12.0237
 226   2.0000      -0.439596       -11.9620
 227   2.0000      -0.438498       -11.9321
 228   2.0000      -0.438080       -11.9207
 229   2.0000      -0.436146       -11.8681
 230   2.0000      -0.434180       -11.8146
 231   2.0000      -0.432147       -11.7593
 232   2.0000      -0.428645       -11.6640
 233   2.0000      -0.425743       -11.5851
 234   2.0000      -0.423805       -11.5323
 235   2.0000      -0.419058       -11.4031
 236   2.0000      -0.415101       -11.2955
 237   2.0000      -0.414528       -11.2799
 238   2.0000      -0.410832       -11.1793
 239   2.0000      -0.409177       -11.1343
 240   2.0000      -0.402031       -10.9398
 241   2.0000      -0.389465       -10.5979
 242   2.0000      -0.385256       -10.4833
 243   2.0000      -0.380342       -10.3496
 244   2.0000      -0.369334       -10.0501
 245   2.0000      -0.350179        -9.5289
 246   2.0000      -0.347974        -9.4688
 247   2.0000      -0.346149        -9.4192
 248   2.0000      -0.345620        -9.4048
 249   2.0000      -0.332780        -9.0554
 250   2.0000      -0.329064        -8.9543
 251   2.0000      -0.327021        -8.8987
 252   2.0000      -0.322742        -8.7823
 253   2.0000      -0.320275        -8.7151
 254   2.0000      -0.320115        -8.7108
 255   2.0000      -0.316089        -8.6012
 256   2.0000      -0.308951        -8.4070
 257   2.0000      -0.301630        -8.2078
 258   2.0000      -0.297966        -8.1081
 259   2.0000      -0.248438        -6.7603
 260   0.0000      -0.104276        -2.8375
 261   0.0000      -0.099090        -2.6964
 262   0.0000      -0.076394        -2.0788
 263   0.0000      -0.063442        -1.7264
 264   0.0000      -0.060095        -1.6353

MULLIKEN ATOMIC CHARGES
-----------------------
   0 C :    0.289478
   1 C :   -0.322015
   2 C :   -0.182495
   3 N :    0.163192
   4 C :   -0.180736
   5 N :    0.172272
   6 C :    0.033217
   7 C :    0.012365
   8 C :   -0.075235
   9 C :    0.094699
  10 C :    0.094827
  11 C :   -0.073626
  12 C :   -0.015739
  13 C :    0.038137
  14 C :    0.036120
  15 C :   -0.012677
  16 C :    0.135973
  17 O :   -0.128135
  18 C :   -0.104326
  19 C :    0.030608
  20 C :   -0.107538
  21 C :    0.192591
  22 F :   -0.161640
  23 C :    0.254156
  24 F :   -0.146654
  25 C :   -0.183580
  26 C :    0.236388
  27 C :    0.209530
  28 F :   -0.156188
  29 F :   -0.156398
  30 C :    0.097106
  31 N :   -0.257854
  32 C :    0.094330
  33 C :   -0.008867
  34 C :    0.157777
  35 O :   -0.174933
  36 C :   -0.054363
  37 C :   -0.015401
  38 C :    0.137321
  39 O :   -0.185167
  40 N :   -0.275819
  41 C :    0.092136
  42 C :   -0.000951
  43 C :    0.104704
  44 C :   -0.003978
  45 C :    0.001374
  46 C :   -0.053112
  47 C :    0.184560
  48 F :   -0.161146
  49 C :    0.256509
  50 F :   -0.162088
  51 C :   -0.120713
  52 C :    0.205172
  53 C :    0.189008
  54 F :   -0.172327
  55 F :   -0.161628
  56 C :   -0.021517
  57 C :   -0.064634
  58 C :    0.303572
  59 C :   -0.334691
  60 C :   -0.181523
  61 N :    0.159580
  62 C :   -0.200764
  63 N :    0.169340
  64 C :    0.054715
  65 C :   -0.008980
  66 C :    0.152597
  67 O :   -0.137639
  68 C :   -0.072906
  69 C :    0.096880
  70 C :    0.099250
  71 C :   -0.084714
  72 C :   -0.019454
  73 C :    0.038776
  74 C :    0.038351
  75 C :   -0.015431
  76 H :   -0.008559
  77 H :   -0.002707
  78 H :   -0.008491
  79 H :   -0.002110
  80 H :   -0.001938
  81 H :   -0.015371
  82 H :    0.043244
  83 H :    0.029731
  84 H :    0.043778
  85 H :    0.034026
  86 H :    0.022161
  87 H :    0.017216
  88 H :    0.046758
  89 H :    0.032607
  90 H :    0.025338
  91 H :    0.024135
  92 H :    0.023729
  93 H :    0.027428
  94 H :   -0.009755
  95 H :    0.051091
  96 H :   -0.008055
  97 H :   -0.007312
  98 H :   -0.007128
  99 H :   -0.001952
 100 H :   -0.002729
 101 H :   -0.014165
Sum of atomic charges:   -0.0000000

LOEWDIN ATOMIC CHARGES
----------------------
   0 C :    0.072555
   1 C :   -0.128387
   2 C :   -0.017894
   3 N :   -0.041675
   4 C :   -0.006226
   5 N :   -0.043387
   6 C :   -0.022948
   7 C :   -0.058913
   8 C :    0.037115
   9 C :   -0.007407
  10 C :   -0.003891
  11 C :    0.021696
  12 C :   -0.004525
  13 C :   -0.009760
  14 C :   -0.009781
  15 C :   -0.007552
  16 C :    0.086996
  17 O :   -0.128079
  18 C :   -0.063371
  19 C :    0.068028
  20 C :   -0.075671
  21 C :    0.068973
  22 F :   -0.035612
  23 C :    0.080949
  24 F :   -0.026872
  25 C :   -0.064029
  26 C :    0.069653
  27 C :    0.074421
  28 F :   -0.037598
  29 F :   -0.035151
  30 C :    0.078466
  31 N :    0.005267
  32 C :    0.032313
  33 C :   -0.064751
  34 C :    0.083114
  35 O :   -0.178468
  36 C :   -0.111183
  37 C :   -0.117927
  38 C :    0.082548
  39 O :   -0.187356
  40 N :   -0.009825
  41 C :    0.034184
  42 C :   -0.062606
  43 C :    0.076851
  44 C :   -0.007965
  45 C :   -0.008246
  46 C :   -0.056319
  47 C :    0.066251
  48 F :   -0.033538
  49 C :    0.078290
  50 F :   -0.036561
  51 C :   -0.074798
  52 C :    0.069089
  53 C :    0.059669
  54 F :   -0.048555
  55 F :   -0.043802
  56 C :    0.073389
  57 C :   -0.063777
  58 C :    0.073483
  59 C :   -0.125217
  60 C :   -0.016628
  61 N :   -0.044200
  62 C :   -0.021690
  63 N :   -0.040434
  64 C :   -0.026122
  65 C :   -0.056840
  66 C :    0.084916
  67 O :   -0.127361
  68 C :    0.037731
  69 C :   -0.006855
  70 C :   -0.004509
  71 C :    0.021588
  72 C :   -0.004697
  73 C :   -0.010504
  74 C :   -0.009283
  75 C :   -0.007693
  76 H :    0.040892
  77 H :    0.040016
  78 H :    0.035335
  79 H :    0.034404
  80 H :    0.034085
  81 H :    0.032920
  82 H :    0.053665
  83 H :    0.021001
  84 H :    0.036388
  85 H :    0.019854
  86 H :    0.032871
  87 H :    0.026907
  88 H :    0.038377
  89 H :    0.020909
  90 H :    0.031317
  91 H :    0.031882
  92 H :    0.022150
  93 H :    0.046178
  94 H :    0.031602
  95 H :    0.050313
  96 H :    0.041288
  97 H :    0.039431
  98 H :    0.035503
  99 H :    0.034317
 100 H :    0.034001
 101 H :    0.033302

  Mayer bond orders larger than 0.100000
B(  0-C ,  1-C ) :   1.6721 B(  0-C ,  6-C ) :   1.0092 B(  0-C , 18-C ) :   0.9997
B(  1-C ,  2-C ) :   1.1296 B(  1-C ,  4-C ) :   1.1661 B(  2-C ,  3-N ) :   2.9926
B(  4-C ,  5-N ) :   2.9632 B(  6-C ,  7-C ) :   1.2122 B(  6-C , 11-C ) :   1.4498
B(  7-C ,  8-C ) :   1.4693 B(  7-C , 16-C ) :   0.9254 B(  8-C ,  9-C ) :   1.1890
B(  8-C , 76-H ) :   1.0151 B(  9-C , 10-C ) :   1.2546 B(  9-C , 15-C ) :   1.2435
B( 10-C , 11-C ) :   1.2122 B( 10-C , 12-C ) :   1.2382 B( 11-C , 77-H ) :   0.9922
B( 12-C , 13-C ) :   1.4921 B( 12-C , 78-H ) :   0.9974 B( 13-C , 14-C ) :   1.2598
B( 13-C , 79-H ) :   0.9884 B( 14-C , 15-C ) :   1.4903 B( 14-C , 80-H ) :   0.9886
B( 15-C , 81-H ) :   0.9975 B( 16-C , 17-O ) :   2.2831 B( 16-C , 18-C ) :   0.9171
B( 18-C , 19-C ) :   1.7836 B( 19-C , 20-C ) :   1.0108 B( 19-C , 82-H ) :   0.9351
B( 20-C , 21-C ) :   1.2967 B( 20-C , 25-C ) :   0.1383 B( 20-C , 27-C ) :   1.3124
B( 21-C , 22-F ) :   1.1461 B( 21-C , 23-C ) :   1.3011 B( 23-C , 24-F ) :   1.1956
B( 23-C , 25-C ) :   1.3476 B( 25-C , 26-C ) :   1.3051 B( 25-C , 30-C ) :   0.9490
B( 26-C , 27-C ) :   1.2888 B( 26-C , 29-F ) :   1.1751 B( 27-C , 28-F ) :   1.1966
B( 30-C , 31-N ) :   1.2395 B( 30-C , 37-C ) :   1.4683 B( 31-N , 32-C ) :   0.9387
B( 31-N , 34-C ) :   1.0093 B( 32-C , 33-C ) :   1.1152 B( 32-C , 83-H ) :   0.9468
B( 32-C , 84-H ) :   0.9280 B( 33-C , 85-H ) :   0.9587 B( 33-C , 86-H ) :   0.9637
B( 33-C , 87-H ) :   0.9608 B( 34-C , 35-O ) :   2.1425 B( 34-C , 36-C ) :   0.9807
B( 36-C , 37-C ) :   1.2047 B( 36-C , 43-C ) :   1.3881 B( 37-C , 38-C ) :   0.9610
B( 38-C , 39-O ) :   2.1560 B( 38-C , 40-N ) :   1.0260 B( 40-N , 41-C ) :   0.9431
B( 40-N , 43-C ) :   1.1671 B( 41-C , 42-C ) :   1.1156 B( 41-C , 88-H ) :   0.9209
B( 41-C , 89-H ) :   0.9505 B( 42-C , 90-H ) :   0.9624 B( 42-C , 91-H ) :   0.9676
B( 42-C , 92-H ) :   0.9674 B( 43-C , 44-C ) :   1.1625 B( 44-C , 45-C ) :   1.6110
B( 44-C , 93-H ) :   0.9477 B( 45-C , 46-C ) :   1.1105 B( 45-C , 94-H ) :   0.9735
B( 46-C , 47-C ) :   1.2633 B( 46-C , 51-C ) :   0.1270 B( 46-C , 53-C ) :   1.2852
B( 47-C , 48-F ) :   1.1476 B( 47-C , 49-C ) :   1.3186 B( 49-C , 50-F ) :   1.1605
B( 49-C , 51-C ) :   1.3126 B( 51-C , 52-C ) :   1.3134 B( 51-C , 56-C ) :   1.0034
B( 52-C , 53-C ) :   1.3047 B( 52-C , 55-F ) :   1.1902 B( 53-C , 54-F ) :   1.1375
B( 56-C , 57-C ) :   1.7599 B( 56-C , 95-H ) :   0.9403 B( 57-C , 58-C ) :   1.0338
B( 57-C , 66-C ) :   0.9147 B( 58-C , 59-C ) :   1.6695 B( 58-C , 64-C ) :   1.0033
B( 59-C , 60-C ) :   1.1407 B( 59-C , 62-C ) :   1.1398 B( 60-C , 61-N ) :   2.9687
B( 62-C , 63-N ) :   2.9852 B( 64-C , 65-C ) :   1.2110 B( 64-C , 71-C ) :   1.4395
B( 65-C , 66-C ) :   0.9518 B( 65-C , 68-C ) :   1.4682 B( 66-C , 67-O ) :   2.2279
B( 68-C , 69-C ) :   1.1831 B( 68-C , 96-H ) :   1.0168 B( 69-C , 70-C ) :   1.2521
B( 69-C , 75-C ) :   1.2425 B( 70-C , 71-C ) :   1.2127 B( 70-C , 72-C ) :   1.2365
B( 71-C , 97-H ) :   0.9902 B( 72-C , 73-C ) :   1.4914 B( 72-C , 98-H ) :   0.9977
B( 73-C , 74-C ) :   1.2582 B( 73-C , 99-H ) :   0.9883 B( 74-C , 75-C ) :   1.4903
B( 74-C ,100-H ) :   0.9885 B( 75-C ,101-H ) :   0.9981

-----------------------------------------------------------------------------
         ABSORPTION SPECTRUM VIA TRANSITION ELECTRIC DIPOLE MOMENTS
-----------------------------------------------------------------------------
State   Energy  Wavelength   fosc         T2         TX        TY        TZ
        (cm-1)    (nm)                  (au**2)     (au)      (au)      (au)
-----------------------------------------------------------------------------
   0   17347.3    576.5   0.621135644  11.78774  -1.94962   2.74664  -0.66536
   1   19872.2    503.2   0.154145265   2.55364  -0.29990   1.56825  -0.06550
   2   23682.8    422.2   0.140268616   1.94986  -0.20431   0.06681  -1.37973
   3   25792.9    387.7   0.121390728   1.54939   0.53853  -1.10467   0.19770
   4   26377.0    379.1   0.041808605   0.52181   0.35165   0.34019   0.53143
   5   26601.4    375.9   0.051717424   0.64004   0.48298  -0.26569  -0.57981
   6   27470.6    364.0   0.006921096   0.08294   0.21492  -0.18763  -0.03935
   7   28384.1    352.3   0.034255307   0.39731   0.35979   0.51439   0.05716
   8   28495.3    350.9   0.002125256   0.02455  -0.02008   0.14499  -0.05592
   9   28798.5    347.2   0.157273487   1.79788   0.50044  -0.81396  -0.94070
  10   29080.2    343.9   0.170057542   1.92519   1.00200  -0.92917  -0.24048
  11   29390.9    340.2   0.045021950   0.50430  -0.54691   0.05301  -0.44986
  12   29452.0    339.5   0.067041200   0.74938   0.09112  -0.02498  -0.86050
  13   29535.3    338.6   0.006223821   0.06937  -0.03262  -0.04982   0.25657
  14   30112.0    332.1   0.072569552   0.79340   0.82013  -0.05176  -0.34368
  15   30461.8    328.3   0.430096598   4.64821  -1.96234   0.87994   0.15211
  16   31175.6    320.8   0.402285471   4.24810  -0.16239   1.89053   0.80475
  17   32568.6    307.0   0.098847569   0.99918  -0.24388  -0.66351  -0.70672
  18   33369.8    299.7   0.150612763   1.48588   0.42222   0.64549   0.94390
  19   33608.4    297.5   0.020365034   0.19949  -0.11092   0.23610   0.36254
  20   33762.8    296.2   0.581891361   5.67387   1.17557   0.24315   2.05737
  21   33919.7    294.8   0.088051726   0.85460  -0.26404   0.23232  -0.85493
  22   34041.3    293.8   0.911577282   8.81583   2.13843  -1.22679  -1.65467
  23   34636.0    288.7   0.124036774   1.17896  -0.60806   0.13405  -0.88952
  24   34833.9    287.1   0.043494999   0.41107  -0.33871  -0.11635   0.53179
  25   34970.4    286.0   0.161493963   1.52030  -1.00918   0.38789   0.59279
  26   35362.1    282.8   0.010001323   0.09311  -0.28271   0.07443  -0.08745
  27   36463.9    274.2   0.019369178   0.17487  -0.13555   0.21616  -0.33132
  28   36632.3    273.0   0.012236820   0.10997   0.21609  -0.20915  -0.13976
  29   37037.8    270.0   0.114563821   1.01830  -0.39753   0.77669   0.50697
  30   37219.6    268.7   0.051185841   0.45274   0.21274  -0.53310  -0.35114
  31   37442.3    267.1   0.061815903   0.54352   0.54164  -0.46806  -0.17623
  32   37647.2    265.6   0.151703940   1.32660  -0.82694   0.77737   0.19611
  33   37848.7    264.2   0.148452752   1.29126  -0.70576   0.75133   0.47819
  34   38241.7    261.5   0.028298907   0.24362   0.05738  -0.06288   0.48618
  35   38340.5    260.8   0.004961215   0.04260  -0.00360   0.16369  -0.12567
  36   38519.1    259.6   0.230110772   1.96669  -0.78152   0.47698  -1.06226
  37   38846.3    257.4   0.047793010   0.40503  -0.27289   0.52811   0.22729
  38   39069.2    256.0   0.010153771   0.08556   0.10814  -0.17707  -0.20619
  39   39316.2    254.3   0.136023208   1.13898   1.02788  -0.07240  -0.27787
  40   39444.4    253.5   0.038728681   0.32324   0.16434  -0.01953   0.54392
  41   40111.0    249.3   0.249619366   2.04876   0.68440  -1.09959  -0.60931

FINAL SINGLE POINT ENERGY     -3649.483624333135

DIPOLE MOMENT
-------------
                                X             Y             Z
Electronic contribution:    -25.86301      -2.86172     -10.82945
Nuclear contribution   :     28.81177       2.15816      11.07920
                        -----------------------------------------
Total Dipole Moment    :      2.94876      -0.70356       0.24975
                        -----------------------------------------
Magnitude (a.u.)       :      3.04181
Magnitude (Debye)      :      7.73166

Rotational constants in cm-1:     0.001838     0.000241     0.000234
Rotational constants in MHz :    55.115242     7.228791     7.026184

                             ****ORCA TERMINATED NORMALLY****
TOTAL RUN TIME: 0 days 0 hours 10 minutes 3 seconds 878 msec
