                         Program Version 4.2.0 -  RELEASE  -
|  1> # ORCA input file
|  2> # SCF done       -173.758674279257          0.000509635844
|  3> ! CAM-B3LYP def2-SVP def2/J RIJCOSX Grid4 TightSCF
|  4> %maxcore 5000
|  5> %tddft
|  6>     Mode sTDDFT
|  7>     Ethresh 5.0
|  8>     maxcore 5000
|  9> end
| 10>
| 11> %pal
| 12>   nprocs 6
| 13>   end
| 14> * xyz 0 1
| 15>    C        2.73377         0.75513         0.05020
| 16>    N        1.83091        -0.16678         0.17631
| 17>    C        1.29913         0.00838         1.42723
| 18>    C        1.94131         1.13877         2.10480
| 19>    C        1.37893         1.33153         3.45035
| 20>    O        1.66856         2.16340         4.27867
| 21>    C        0.37197         0.24786         3.52862
| 22>    C        0.36383        -0.53181         2.26364
| 23>    N       -0.55534        -1.53156         2.32818
| 24>    C       -1.09615        -1.42436         3.51092
| 25>    C       -0.56252        -0.33228         4.31582
| 26>    C        2.87652         1.63135         1.22515
| 27>    C        3.76959         2.71789         1.41342
| 28>    C        4.68115         3.13100         0.49901
| 29>    C        5.58845         4.20453         0.69515
| 30>    S        6.73104         4.59619        -0.56026
| 31>    C        7.42903         5.88155         0.38368
| 32>    C        6.77057         5.98002         1.61725
| 33>    C        5.74592         5.04301         1.78398
| 34>    C        7.10650         6.93011         2.60114
| 35>    N        7.34929         7.68858         3.42482
| 36>    C        8.51073         6.66401        -0.06070
| 37>    C        9.10117         6.50486        -1.28131
| 38>    C       10.20958         7.26359        -1.70395
| 39>    N       10.82680         7.11550        -2.92275
| 40>    C       10.48951         6.16086        -3.95112
| 41>    C       11.01956         4.76593        -3.62815
| 42>    C       11.92785         7.98462        -3.06849
| 43>    O       12.62428         8.03223        -4.05810
| 44>    C       11.95493         8.72389        -1.82330
| 45>    C       10.89985         8.27136        -1.01466
| 46>    C       10.94592         9.02257         0.22243
| 47>    O       10.23896         8.99890         1.20771
| 48>    N       12.05138         9.88399         0.07647
| 49>    C       12.39158        10.78395         1.15405
| 50>    C       13.45985        10.19412         2.07193
| 51>    C       12.67675         9.71161        -1.13642
| 52>    C       13.81822        10.32771        -1.68761
| 53>    C       14.70952        11.18953        -1.11482
| 54>    C       15.84587        11.70176        -1.77621
| 55>    C       16.81408        12.49817        -1.18980
| 56>    C       17.81950        12.80098        -2.14291
| 57>    C       17.40135        12.13935        -3.39743
| 58>    C       16.23517        11.48646        -3.16692
| 59>    C       18.08112        12.14831        -4.62272
| 60>    N       18.60692        12.11678        -5.64264
| 61>    C       18.96857        13.53702        -1.94522
| 62>    C       19.98173        13.85174        -2.89669
| 63>    C       20.98738        14.55750        -2.26732
| 64>    C       20.60854        14.73817        -0.87687
| 65>    C       19.40045        14.14435        -0.67535
| 66>    C       18.71222        14.13344         0.54202
| 67>    N       18.17314        14.13802         1.55702
| 68>    C       22.16087        15.04963        -2.90440
| 69>    N       22.15265        15.29977        -4.20691
| 70>    C       23.35644        15.82546        -4.48913
| 71>    C       24.20245        15.90666        -3.27927
| 72>    C       25.51843        16.47961        -3.61280
| 73>    O       26.45247        16.71553        -2.87773
| 74>    C       25.41142        16.70925        -5.06496
| 75>    C       24.07542        16.30501        -5.55516
| 76>    N       23.97829        16.50209        -6.89307
| 77>    C       25.14254        16.98124        -7.25392
| 78>    C       26.08807        17.12854        -6.16401
| 79>    C       23.45907        15.37782        -2.26164
| 80>    C       23.82441        15.07921        -0.90196
| 81>    C       24.93364        15.53630        -0.32197
| 82>    H        3.30232         0.82851        -0.86054
| 83>    H       -1.86780        -2.10753         3.82132
| 84>    H       -0.87576        -0.08349         5.31041
| 85>    H        3.68915         3.21816         2.36860
| 86>    H        4.75472         2.62298        -0.45291
| 87>    H        5.14535         4.98418         2.67359
| 88>    H        8.87922         7.41628         0.62727
| 89>    H        8.70879         5.75650        -1.95726
| 90>    H       10.95932         6.52665        -4.86834
| 91>    H        9.40540         6.14427        -4.09277
| 92>    H       12.10241         4.79316        -3.53596
| 93>    H       10.75705         4.07952        -4.42809
| 94>    H       10.60204         4.39343        -2.69524
| 95>    H       11.47071        10.92840         1.72731
| 96>    H       12.69826        11.74636         0.73899
| 97>    H       13.07379         9.30032         2.55556
| 98>    H       13.72420        10.91606         2.83943
| 99>    H       14.35646         9.92508         1.51751
|100>    H       13.99639        10.01087        -2.70736
|101>    H       14.60273        11.50299        -0.08767
|102>    H       16.81314        12.83248        -0.17089
|103>    H       15.68521        10.90948        -3.88633
|104>    H       19.98558        13.56730        -3.93015
|105>    H       21.15872        15.30348        -0.14813
|106>    H       25.33093        17.23231        -8.28349
|107>    H       27.09103        17.49649        -6.25324
|108>    H       23.15839        14.41907        -0.36229
|109>    H       25.62100        16.18024        -0.84447
|110>    H       25.18434        15.27150         0.69112
|111> *
|112>
|113>                          ****END OF INPUT****

CARTESIAN COORDINATES (ANGSTROEM)
---------------------------------
  C      2.733770    0.755130    0.050200
  N      1.830910   -0.166780    0.176310
  C      1.299130    0.008380    1.427230
  C      1.941310    1.138770    2.104800
  C      1.378930    1.331530    3.450350
  O      1.668560    2.163400    4.278670
  C      0.371970    0.247860    3.528620
  C      0.363830   -0.531810    2.263640
  N     -0.555340   -1.531560    2.328180
  C     -1.096150   -1.424360    3.510920
  C     -0.562520   -0.332280    4.315820
  C      2.876520    1.631350    1.225150
  C      3.769590    2.717890    1.413420
  C      4.681150    3.131000    0.499010
  C      5.588450    4.204530    0.695150
  S      6.731040    4.596190   -0.560260
  C      7.429030    5.881550    0.383680
  C      6.770570    5.980020    1.617250
  C      5.745920    5.043010    1.783980
  C      7.106500    6.930110    2.601140
  N      7.349290    7.688580    3.424820
  C      8.510730    6.664010   -0.060700
  C      9.101170    6.504860   -1.281310
  C     10.209580    7.263590   -1.703950
  N     10.826800    7.115500   -2.922750
  C     10.489510    6.160860   -3.951120
  C     11.019560    4.765930   -3.628150
  C     11.927850    7.984620   -3.068490
  O     12.624280    8.032230   -4.058100
  C     11.954930    8.723890   -1.823300
  C     10.899850    8.271360   -1.014660
  C     10.945920    9.022570    0.222430
  O     10.238960    8.998900    1.207710
  N     12.051380    9.883990    0.076470
  C     12.391580   10.783950    1.154050
  C     13.459850   10.194120    2.071930
  C     12.676750    9.711610   -1.136420
  C     13.818220   10.327710   -1.687610
  C     14.709520   11.189530   -1.114820
  C     15.845870   11.701760   -1.776210
  C     16.814080   12.498170   -1.189800
  C     17.819500   12.800980   -2.142910
  C     17.401350   12.139350   -3.397430
  C     16.235170   11.486460   -3.166920
  C     18.081120   12.148310   -4.622720
  N     18.606920   12.116780   -5.642640
  C     18.968570   13.537020   -1.945220
  C     19.981730   13.851740   -2.896690
  C     20.987380   14.557500   -2.267320
  C     20.608540   14.738170   -0.876870
  C     19.400450   14.144350   -0.675350
  C     18.712220   14.133440    0.542020
  N     18.173140   14.138020    1.557020
  C     22.160870   15.049630   -2.904400
  N     22.152650   15.299770   -4.206910
  C     23.356440   15.825460   -4.489130
  C     24.202450   15.906660   -3.279270
  C     25.518430   16.479610   -3.612800
  O     26.452470   16.715530   -2.877730
  C     25.411420   16.709250   -5.064960
  C     24.075420   16.305010   -5.555160
  N     23.978290   16.502090   -6.893070
  C     25.142540   16.981240   -7.253920
  C     26.088070   17.128540   -6.164010
  C     23.459070   15.377820   -2.261640
  C     23.824410   15.079210   -0.901960
  C     24.933640   15.536300   -0.321970
  H      3.302320    0.828510   -0.860540
  H     -1.867800   -2.107530    3.821320
  H     -0.875760   -0.083490    5.310410
  H      3.689150    3.218160    2.368600
  H      4.754720    2.622980   -0.452910
  H      5.145350    4.984180    2.673590
  H      8.879220    7.416280    0.627270
  H      8.708790    5.756500   -1.957260
  H     10.959320    6.526650   -4.868340
  H      9.405400    6.144270   -4.092770
  H     12.102410    4.793160   -3.535960
  H     10.757050    4.079520   -4.428090
  H     10.602040    4.393430   -2.695240
  H     11.470710   10.928400    1.727310
  H     12.698260   11.746360    0.738990
  H     13.073790    9.300320    2.555560
  H     13.724200   10.916060    2.839430
  H     14.356460    9.925080    1.517510
  H     13.996390   10.010870   -2.707360
  H     14.602730   11.502990   -0.087670
  H     16.813140   12.832480   -0.170890
  H     15.685210   10.909480   -3.886330
  H     19.985580   13.567300   -3.930150
  H     21.158720   15.303480   -0.148130
  H     25.330930   17.232310   -8.283490
  H     27.091030   17.496490   -6.253240
  H     23.158390   14.419070   -0.362290
  H     25.621000   16.180240   -0.844470
  H     25.184340   15.271500    0.691120

 Total Charge           Charge          ....    0
 Multiplicity           Mult            ....    1
 Number of Electrons    NEL             ....  458
 Basis Dimension        Dim             .... 1087

ORBITAL ENERGIES
----------------

  NO   OCC          E(Eh)            E(eV)
   0   2.0000     -88.992066     -2421.5972
   1   2.0000     -19.223594      -523.1006
   2   2.0000     -19.207985      -522.6758
   3   2.0000     -19.207981      -522.6757
   4   2.0000     -19.200676      -522.4770
   5   2.0000     -14.468367      -393.7043
   6   2.0000     -14.464129      -393.5890
   7   2.0000     -14.429087      -392.6354
   8   2.0000     -14.421020      -392.4159
   9   2.0000     -14.415174      -392.2568
  10   2.0000     -14.411586      -392.1592
  11   2.0000     -14.409580      -392.1046
  12   2.0000     -14.406605      -392.0236
  13   2.0000     -14.401089      -391.8735
  14   2.0000     -10.390257      -282.7333
  15   2.0000     -10.383956      -282.5618
  16   2.0000     -10.383707      -282.5550
  17   2.0000     -10.368022      -282.1282
  18   2.0000     -10.358869      -281.8792
  19   2.0000     -10.349365      -281.6205
  20   2.0000     -10.349283      -281.6183
  21   2.0000     -10.345569      -281.5173
  22   2.0000     -10.342513      -281.4341
  23   2.0000     -10.341894      -281.4173
  24   2.0000     -10.341838      -281.4157
  25   2.0000     -10.341635      -281.4102
  26   2.0000     -10.340578      -281.3814
  27   2.0000     -10.336101      -281.2596
  28   2.0000     -10.333388      -281.1858
  29   2.0000     -10.327888      -281.0361
  30   2.0000     -10.325224      -280.9636
  31   2.0000     -10.323381      -280.9135
  32   2.0000     -10.322268      -280.8832
  33   2.0000     -10.320938      -280.8470
  34   2.0000     -10.319844      -280.8172
  35   2.0000     -10.318999      -280.7943
  36   2.0000     -10.318560      -280.7823
  37   2.0000     -10.317372      -280.7500
  38   2.0000     -10.317015      -280.7403
  39   2.0000     -10.315029      -280.6862
  40   2.0000     -10.314060      -280.6598
  41   2.0000     -10.313739      -280.6511
  42   2.0000     -10.313702      -280.6501
  43   2.0000     -10.312539      -280.6185
  44   2.0000     -10.312330      -280.6128
  45   2.0000     -10.312315      -280.6124
  46   2.0000     -10.312161      -280.6082
  47   2.0000     -10.312104      -280.6066
  48   2.0000     -10.311360      -280.5864
  49   2.0000     -10.310148      -280.5534
  50   2.0000     -10.308770      -280.5159
  51   2.0000     -10.305919      -280.4383
  52   2.0000     -10.303500      -280.3725
  53   2.0000     -10.302562      -280.3470
  54   2.0000     -10.302107      -280.3346
  55   2.0000     -10.301086      -280.3068
  56   2.0000     -10.295375      -280.1514
  57   2.0000     -10.288291      -279.9586
  58   2.0000     -10.286104      -279.8991
  59   2.0000     -10.285946      -279.8948
  60   2.0000     -10.284347      -279.8513
  61   2.0000     -10.281494      -279.7737
  62   2.0000     -10.280170      -279.7376
  63   2.0000     -10.276429      -279.6358
  64   2.0000     -10.275610      -279.6136
  65   2.0000     -10.270836      -279.4837
  66   2.0000     -10.266938      -279.3776
  67   2.0000      -8.087609      -220.0750
  68   2.0000      -6.056689      -164.8109
  69   2.0000      -6.052792      -164.7048
  70   2.0000      -6.049887      -164.6258
  71   2.0000      -1.148088       -31.2411
  72   2.0000      -1.139437       -31.0057
  73   2.0000      -1.138255       -30.9735
  74   2.0000      -1.122451       -30.5434
  75   2.0000      -1.092307       -29.7232
  76   2.0000      -1.078323       -29.3427
  77   2.0000      -1.074850       -29.2482
  78   2.0000      -1.074400       -29.2359
  79   2.0000      -1.066719       -29.0269
  80   2.0000      -1.055662       -28.7260
  81   2.0000      -1.027320       -27.9548
  82   2.0000      -1.020280       -27.7632
  83   2.0000      -1.002843       -27.2887
  84   2.0000      -0.994390       -27.0587
  85   2.0000      -0.988564       -26.9002
  86   2.0000      -0.983588       -26.7648
  87   2.0000      -0.950028       -25.8516
  88   2.0000      -0.946599       -25.7583
  89   2.0000      -0.941053       -25.6073
  90   2.0000      -0.931486       -25.3470
  91   2.0000      -0.926192       -25.2030
  92   2.0000      -0.922280       -25.0965
  93   2.0000      -0.905552       -24.6413
  94   2.0000      -0.893201       -24.3052
  95   2.0000      -0.886405       -24.1203
  96   2.0000      -0.876466       -23.8498
  97   2.0000      -0.875237       -23.8164
  98   2.0000      -0.871488       -23.7144
  99   2.0000      -0.863209       -23.4891
 100   2.0000      -0.856994       -23.3200
 101   2.0000      -0.847505       -23.0618
 102   2.0000      -0.844803       -22.9883
 103   2.0000      -0.831450       -22.6249
 104   2.0000      -0.827633       -22.5210
 105   2.0000      -0.817716       -22.2512
 106   2.0000      -0.799041       -21.7430
 107   2.0000      -0.787157       -21.4196
 108   2.0000      -0.782160       -21.2837
 109   2.0000      -0.773577       -21.0501
 110   2.0000      -0.770875       -20.9766
 111   2.0000      -0.760798       -20.7024
 112   2.0000      -0.754735       -20.5374
 113   2.0000      -0.744900       -20.2697
 114   2.0000      -0.737212       -20.0606
 115   2.0000      -0.728597       -19.8261
 116   2.0000      -0.720174       -19.5969
 117   2.0000      -0.716157       -19.4876
 118   2.0000      -0.716092       -19.4858
 119   2.0000      -0.709612       -19.3095
 120   2.0000      -0.702027       -19.1031
 121   2.0000      -0.689007       -18.7488
 122   2.0000      -0.678351       -18.4589
 123   2.0000      -0.673893       -18.3376
 124   2.0000      -0.666781       -18.1440
 125   2.0000      -0.663483       -18.0543
 126   2.0000      -0.661986       -18.0136
 127   2.0000      -0.654170       -17.8009
 128   2.0000      -0.651818       -17.7369
 129   2.0000      -0.645829       -17.5739
 130   2.0000      -0.639406       -17.3991
 131   2.0000      -0.629761       -17.1367
 132   2.0000      -0.627272       -17.0689
 133   2.0000      -0.617172       -16.7941
 134   2.0000      -0.616264       -16.7694
 135   2.0000      -0.605976       -16.4894
 136   2.0000      -0.598454       -16.2848
 137   2.0000      -0.597724       -16.2649
 138   2.0000      -0.594174       -16.1683
 139   2.0000      -0.590138       -16.0585
 140   2.0000      -0.586955       -15.9719
 141   2.0000      -0.580445       -15.7947
 142   2.0000      -0.578844       -15.7511
 143   2.0000      -0.563681       -15.3385
 144   2.0000      -0.561795       -15.2872
 145   2.0000      -0.559603       -15.2276
 146   2.0000      -0.557523       -15.1710
 147   2.0000      -0.556120       -15.1328
 148   2.0000      -0.551683       -15.0121
 149   2.0000      -0.548072       -14.9138
 150   2.0000      -0.545036       -14.8312
 151   2.0000      -0.542596       -14.7648
 152   2.0000      -0.541961       -14.7475
 153   2.0000      -0.538353       -14.6493
 154   2.0000      -0.535518       -14.5722
 155   2.0000      -0.531751       -14.4697
 156   2.0000      -0.529938       -14.4204
 157   2.0000      -0.527808       -14.3624
 158   2.0000      -0.527344       -14.3498
 159   2.0000      -0.525178       -14.2908
 160   2.0000      -0.524666       -14.2769
 161   2.0000      -0.520221       -14.1559
 162   2.0000      -0.519716       -14.1422
 163   2.0000      -0.517524       -14.0826
 164   2.0000      -0.515592       -14.0300
 165   2.0000      -0.511488       -13.9183
 166   2.0000      -0.508640       -13.8408
 167   2.0000      -0.506177       -13.7738
 168   2.0000      -0.505011       -13.7420
 169   2.0000      -0.498527       -13.5656
 170   2.0000      -0.497467       -13.5368
 171   2.0000      -0.496119       -13.5001
 172   2.0000      -0.493728       -13.4350
 173   2.0000      -0.487380       -13.2623
 174   2.0000      -0.486570       -13.2402
 175   2.0000      -0.485720       -13.2171
 176   2.0000      -0.482612       -13.1325
 177   2.0000      -0.481744       -13.1089
 178   2.0000      -0.476923       -12.9777
 179   2.0000      -0.475586       -12.9414
 180   2.0000      -0.473925       -12.8962
 181   2.0000      -0.472625       -12.8608
 182   2.0000      -0.471418       -12.8279
 183   2.0000      -0.470053       -12.7908
 184   2.0000      -0.466510       -12.6944
 185   2.0000      -0.465911       -12.6781
 186   2.0000      -0.460608       -12.5338
 187   2.0000      -0.459498       -12.5036
 188   2.0000      -0.456883       -12.4324
 189   2.0000      -0.456120       -12.4117
 190   2.0000      -0.453484       -12.3399
 191   2.0000      -0.451247       -12.2790
 192   2.0000      -0.449366       -12.2279
 193   2.0000      -0.440986       -11.9999
 194   2.0000      -0.440454       -11.9854
 195   2.0000      -0.439890       -11.9700
 196   2.0000      -0.438732       -11.9385
 197   2.0000      -0.436187       -11.8693
 198   2.0000      -0.434770       -11.8307
 199   2.0000      -0.430587       -11.7169
 200   2.0000      -0.426304       -11.6003
 201   2.0000      -0.423722       -11.5301
 202   2.0000      -0.418070       -11.3763
 203   2.0000      -0.417433       -11.3589
 204   2.0000      -0.400333       -10.8936
 205   2.0000      -0.393993       -10.7211
 206   2.0000      -0.392809       -10.6889
 207   2.0000      -0.383908       -10.4467
 208   2.0000      -0.370586       -10.0841
 209   2.0000      -0.367970       -10.0130
 210   2.0000      -0.361946        -9.8490
 211   2.0000      -0.355895        -9.6844
 212   2.0000      -0.354659        -9.6508
 213   2.0000      -0.351057        -9.5528
 214   2.0000      -0.349399        -9.5076
 215   2.0000      -0.348917        -9.4945
 216   2.0000      -0.348239        -9.4761
 217   2.0000      -0.344662        -9.3787
 218   2.0000      -0.342493        -9.3197
 219   2.0000      -0.339796        -9.2463
 220   2.0000      -0.331618        -9.0238
 221   2.0000      -0.329831        -8.9752
 222   2.0000      -0.328171        -8.9300
 223   2.0000      -0.325631        -8.8609
 224   2.0000      -0.310018        -8.4360
 225   2.0000      -0.300939        -8.1890
 226   2.0000      -0.290876        -7.9151
 227   2.0000      -0.286040        -7.7835
 228   2.0000      -0.241871        -6.5816
 229   0.0000      -0.142534        -3.8785
 230   0.0000      -0.122247        -3.3265
 231   0.0000      -0.102124        -2.7789
 232   0.0000      -0.092113        -2.5065
 233   0.0000      -0.065808        -1.7907

MULLIKEN ATOMIC CHARGES
-----------------------
   0 C :    0.060074
   1 N :   -0.027639
   2 C :    0.048148
   3 C :   -0.109942
   4 C :    0.211083
   5 O :   -0.124499
   6 C :   -0.034361
   7 C :   -0.002030
   8 N :   -0.046163
   9 C :    0.093871
  10 C :   -0.090020
  11 C :   -0.016167
  12 C :   -0.013906
  13 C :    0.069105
  14 C :   -0.059385
  15 S :    0.136388
  16 C :   -0.046416
  17 C :   -0.049426
  18 C :    0.016372
  19 C :   -0.182762
  20 N :    0.157525
  21 C :    0.010340
  22 C :   -0.049014
  23 C :    0.158807
  24 N :   -0.263776
  25 C :    0.094863
  26 C :    0.002215
  27 C :    0.151199
  28 O :   -0.182674
  29 C :   -0.037086
  30 C :   -0.059950
  31 C :    0.157113
  32 O :   -0.196437
  33 N :   -0.263039
  34 C :    0.100889
  35 C :    0.000714
  36 C :    0.124254
  37 C :   -0.031747
  38 C :    0.003866
  39 C :    0.115711
  40 C :   -0.116677
  41 C :    0.136806
  42 C :   -0.094426
  43 C :   -0.003908
  44 C :   -0.179032
  45 N :    0.155418
  46 C :    0.099819
  47 C :   -0.070443
  48 C :    0.047608
  49 C :   -0.005019
  50 C :   -0.106450
  51 C :   -0.173562
  52 N :    0.127973
  53 C :    0.021571
  54 N :   -0.029273
  55 C :    0.072979
  56 C :   -0.163839
  57 C :    0.217724
  58 O :   -0.137138
  59 C :   -0.025641
  60 C :   -0.023490
  61 N :   -0.050765
  62 C :    0.088995
  63 C :   -0.089862
  64 C :    0.034898
  65 C :   -0.072063
  66 C :    0.016003
  67 H :    0.011104
  68 H :    0.018131
  69 H :    0.002689
  70 H :    0.014037
  71 H :   -0.012910
  72 H :    0.010802
  73 H :    0.045461
  74 H :   -0.018538
  75 H :    0.047035
  76 H :    0.026372
  77 H :    0.034280
  78 H :    0.027884
  79 H :    0.014052
  80 H :    0.047870
  81 H :    0.027298
  82 H :    0.032351
  83 H :    0.030741
  84 H :    0.019744
  85 H :    0.007367
  86 H :   -0.009755
  87 H :    0.001701
  88 H :    0.018646
  89 H :    0.022448
  90 H :    0.007794
  91 H :    0.009355
  92 H :   -0.006215
  93 H :   -0.009090
  94 H :    0.048562
  95 H :    0.026482
Sum of atomic charges:   -0.0000000

LOEWDIN ATOMIC CHARGES
----------------------
   0 C :    0.088783
   1 N :   -0.076055
   2 C :    0.044452
   3 C :   -0.048433
   4 C :    0.066643
   5 O :   -0.133284
   6 C :   -0.036425
   7 C :    0.037931
   8 N :   -0.090151
   9 C :    0.085845
  10 C :   -0.025990
  11 C :   -0.043281
  12 C :    0.002911
  13 C :   -0.032640
  14 C :   -0.152639
  15 S :    0.457798
  16 C :   -0.149070
  17 C :   -0.079004
  18 C :   -0.018834
  19 C :   -0.034300
  20 N :   -0.028219
  21 C :    0.022848
  22 C :   -0.053198
  23 C :    0.086161
  24 N :   -0.003256
  25 C :    0.036529
  26 C :   -0.060900
  27 C :    0.081799
  28 O :   -0.184159
  29 C :   -0.095028
  30 C :   -0.121783
  31 C :    0.079223
  32 O :   -0.187921
  33 N :    0.000596
  34 C :    0.036570
  35 C :   -0.062134
  36 C :    0.059631
  37 C :   -0.009187
  38 C :   -0.008072
  39 C :   -0.000511
  40 C :   -0.034019
  41 C :    0.056085
  42 C :   -0.068718
  43 C :    0.058212
  44 C :   -0.034398
  45 N :   -0.044534
  46 C :    0.018696
  47 C :    0.037287
  48 C :   -0.045126
  49 C :    0.045864
  50 C :   -0.088173
  51 C :   -0.029382
  52 N :   -0.068834
  53 C :    0.069966
  54 N :   -0.091361
  55 C :    0.044916
  56 C :   -0.043534
  57 C :    0.068406
  58 O :   -0.138597
  59 C :   -0.039803
  60 C :    0.026062
  61 N :   -0.094027
  62 C :    0.074673
  63 C :   -0.035749
  64 C :   -0.023374
  65 C :   -0.051419
  66 C :    0.009449
  67 H :    0.024221
  68 H :    0.027045
  69 H :    0.037453
  70 H :    0.041973
  71 H :    0.029100
  72 H :    0.043978
  73 H :    0.049991
  74 H :    0.022868
  75 H :    0.039620
  76 H :    0.024013
  77 H :    0.034032
  78 H :    0.032501
  79 H :    0.021236
  80 H :    0.040186
  81 H :    0.023674
  82 H :    0.034442
  83 H :    0.034318
  84 H :    0.021311
  85 H :    0.045781
  86 H :    0.037222
  87 H :    0.035568
  88 H :    0.041990
  89 H :    0.044094
  90 H :    0.038383
  91 H :    0.023600
  92 H :    0.034005
  93 H :    0.028428
  94 H :    0.029231
  95 H :    0.027916

  Mayer bond orders larger than 0.100000
B(  0-C ,  1-N ) :   1.7504 B(  0-C , 11-C ) :   1.0122 B(  0-C , 67-H ) :   0.9883
B(  1-N ,  2-C ) :   1.2588 B(  2-C ,  3-C ) :   1.0566 B(  2-C ,  7-C ) :   1.4997
B(  3-C ,  4-C ) :   0.9040 B(  3-C , 11-C ) :   1.5592 B(  4-C ,  5-O ) :   2.2852
B(  4-C ,  6-C ) :   0.8922 B(  6-C ,  7-C ) :   1.0411 B(  6-C , 10-C ) :   1.6494
B(  7-C ,  8-N ) :   1.2862 B(  8-N ,  9-C ) :   1.6864 B(  9-C , 10-C ) :   1.0453
B(  9-C , 68-H ) :   0.9885 B( 10-C , 69-H ) :   1.0098 B( 11-C , 12-C ) :   1.1274
B( 12-C , 13-C ) :   1.6624 B( 12-C , 70-H ) :   0.9759 B( 13-C , 14-C ) :   1.1136
B( 13-C , 71-H ) :   0.9603 B( 14-C , 15-S ) :   1.1278 B( 14-C , 18-C ) :   1.4681
B( 15-S , 16-C ) :   1.1090 B( 16-C , 17-C ) :   1.4108 B( 16-C , 21-C ) :   1.2127
B( 17-C , 18-C ) :   1.3100 B( 17-C , 19-C ) :   1.1071 B( 18-C , 72-H ) :   1.0001
B( 19-C , 20-N ) :   3.0232 B( 21-C , 22-C ) :   1.5381 B( 21-C , 73-H ) :   0.9411
B( 22-C , 23-C ) :   1.1901 B( 22-C , 74-H ) :   0.9615 B( 23-C , 24-N ) :   1.1697
B( 23-C , 30-C ) :   1.2953 B( 24-N , 25-C ) :   0.9428 B( 24-N , 27-C ) :   1.0345
B( 25-C , 26-C ) :   1.1205 B( 25-C , 75-H ) :   0.9285 B( 25-C , 76-H ) :   0.9502
B( 26-C , 77-H ) :   0.9634 B( 26-C , 78-H ) :   0.9680 B( 26-C , 79-H ) :   0.9685
B( 27-C , 28-O ) :   2.1340 B( 27-C , 29-C ) :   0.9692 B( 29-C , 30-C ) :   1.2808
B( 29-C , 36-C ) :   1.3116 B( 30-C , 31-C ) :   0.9840 B( 31-C , 32-O ) :   2.0345
B( 31-C , 33-N ) :   1.0644 B( 32-O , 73-H ) :   0.1103 B( 33-N , 34-C ) :   0.9375
B( 33-N , 36-C ) :   1.1660 B( 34-C , 35-C ) :   1.1170 B( 34-C , 80-H ) :   0.9256
B( 34-C , 81-H ) :   0.9514 B( 35-C , 82-H ) :   0.9610 B( 35-C , 83-H ) :   0.9689
B( 35-C , 84-H ) :   0.9680 B( 36-C , 37-C ) :   1.2045 B( 37-C , 38-C ) :   1.5034
B( 37-C , 85-H ) :   0.9478 B( 38-C , 39-C ) :   1.1542 B( 38-C , 86-H ) :   0.9816
B( 39-C , 40-C ) :   1.4794 B( 39-C , 43-C ) :   1.0247 B( 40-C , 41-C ) :   1.1434
B( 40-C , 87-H ) :   1.0068 B( 41-C , 42-C ) :   1.0923 B( 41-C , 46-C ) :   1.3743
B( 42-C , 43-C ) :   1.7079 B( 42-C , 44-C ) :   1.0887 B( 43-C , 88-H ) :   1.0146
B( 44-C , 45-N ) :   2.9788 B( 46-C , 47-C ) :   1.0878 B( 46-C , 50-C ) :   1.1244
B( 47-C , 48-C ) :   1.5409 B( 47-C , 89-H ) :   1.0186 B( 48-C , 49-C ) :   1.0832
B( 48-C , 53-C ) :   0.9998 B( 49-C , 50-C ) :   1.6469 B( 49-C , 90-H ) :   1.0132
B( 50-C , 51-C ) :   1.0876 B( 51-C , 52-N ) :   2.9585 B( 53-C , 54-N ) :   1.6357
B( 53-C , 55-C ) :   0.1280 B( 53-C , 64-C ) :   1.0416 B( 54-N , 55-C ) :   1.3483
B( 55-C , 56-C ) :   1.0468 B( 55-C , 60-C ) :   1.4180 B( 56-C , 57-C ) :   0.8857
B( 56-C , 64-C ) :   1.5855 B( 57-C , 58-O ) :   2.2134 B( 57-C , 59-C ) :   0.9235
B( 59-C , 60-C ) :   1.0615 B( 59-C , 63-C ) :   1.6100 B( 60-C , 61-N ) :   1.3100
B( 61-N , 62-C ) :   1.6601 B( 62-C , 63-C ) :   1.0678 B( 62-C , 91-H ) :   0.9892
B( 63-C , 92-H ) :   1.0095 B( 64-C , 65-C ) :   1.0883 B( 65-C , 66-C ) :   1.9263
B( 65-C , 93-H ) :   0.9558 B( 66-C , 94-H ) :   0.9351 B( 66-C , 95-H ) :   0.9456

-----------------------------------------------------------------------------
         ABSORPTION SPECTRUM VIA TRANSITION ELECTRIC DIPOLE MOMENTS
-----------------------------------------------------------------------------
State   Energy  Wavelength   fosc         T2         TX        TY        TZ
        (cm-1)    (nm)                  (au**2)     (au)      (au)      (au)
-----------------------------------------------------------------------------
   0    8764.5   1141.0   1.278497899  48.02270   5.62087   3.95689  -0.87838
   1   15074.8    663.4   0.311118016   6.79436  -1.86973  -1.71539   0.59661
   2   16330.4    612.4   0.062540270   1.26078   0.93306   0.57868  -0.23518
   3   17806.8    561.6   0.014009718   0.25901   0.26025   0.34836   0.26444
   4   18096.4    552.6   0.006418748   0.11677   0.18330   0.07909  -0.27734
   5   18700.0    534.8   0.030240694   0.53238   0.38102   0.14355  -0.60548
   6   20896.1    478.6   0.322478207   5.08056  -1.69856  -1.24678   0.80061
   7   21136.9    473.1   0.058917609   0.91765   0.67812   0.48814  -0.46853
   8   21869.8    457.3   0.402940694   6.06559  -1.81233  -0.95281   1.36866
   9   22496.8    444.5   0.000423553   0.00620  -0.05668   0.04758  -0.02686
  10   22835.1    437.9   0.033602861   0.48445  -0.48943  -0.28966   0.40125
  11   23934.0    417.8   0.260335420   3.58092   1.62883   0.89498  -0.35618
  12   24407.8    409.7   0.009517760   0.12838  -0.23328  -0.08075   0.25968
  13   24733.5    404.3   0.008945408   0.11907   0.22345   0.07914   0.25075
  14   24933.3    401.1   0.079932311   1.05540  -0.91644  -0.46085  -0.05618
  15   25430.0    393.2   0.290523340   3.76106   1.55532   0.99541  -0.59261
  16   25828.0    387.2   0.353057452   4.50019   1.41113   0.85214  -1.33519
  17   25998.4    384.6   0.201772703   2.55500  -1.09827  -0.65348   0.96009
  18   26542.1    376.8   0.003311696   0.04108   0.08919   0.14275  -0.11289
  19   26644.3    375.3   0.038914836   0.48083   0.49256   0.38610  -0.29855
  20   26701.9    374.5   0.021756019   0.26823   0.49528   0.11693  -0.09622
  21   26752.1    373.8   0.000120233   0.00148   0.03189  -0.01886   0.01033
  22   27333.4    365.9   0.144645766   1.74216   0.96160   0.87139  -0.24114
  23   27840.3    359.2   0.002309816   0.02731  -0.10388   0.11094  -0.06493
  24   29109.6    343.5   0.118696918   1.34239   0.99038   0.56822  -0.19664
  25   29350.7    340.7   0.003478760   0.03902   0.15046  -0.09695  -0.08355
  26   29774.2    335.9   0.022793684   0.25203   0.16202   0.17891   0.44019
  27   30016.2    333.2   0.016471609   0.18066  -0.06680   0.01112   0.41961
  28   30089.7    332.3   0.000008251   0.00009   0.00502   0.00386   0.00708
  29   30123.1    332.0   0.071968464   0.78654  -0.16145  -0.22091  -0.84361
  30   31155.3    321.0   0.090183514   0.95295  -0.75548  -0.40103   0.47050
  31   31399.7    318.5   0.037968971   0.39809   0.17858   0.07855  -0.60002
  32   31570.7    316.7   0.000188374   0.00196   0.01673   0.03642  -0.01892
  33   31754.1    314.9   0.004805495   0.04982  -0.16392  -0.10543   0.10880
  34   32781.6    305.0   0.001473972   0.01480  -0.01356   0.06291  -0.10325
  35   33040.6    302.7   0.165203814   1.64607   0.85571   0.95591  -0.00865
  36   33098.0    302.1   0.060750408   0.60426  -0.21025   0.19151   0.72345
  37   33217.4    301.0   0.046301864   0.45889   0.17471   0.37431   0.53689
  38   33388.4    299.5   0.007642945   0.07536   0.25764   0.03964   0.08608
  39   33565.9    297.9   0.029600011   0.29031  -0.07547  -0.21850  -0.48670
  40   33647.2    297.2   0.038480092   0.37650  -0.48892  -0.09368  -0.35872
  41   33831.4    295.6   0.022898119   0.22282   0.41225  -0.00184   0.22994
  42   33886.7    295.1   0.005454674   0.05299   0.00852   0.02383   0.22881
  43   34125.4    293.0   0.000317613   0.00306  -0.04153   0.02735  -0.02431
  44   34420.1    290.5   0.020611621   0.19714   0.32794   0.15545   0.25580
  45   35208.8    284.0   0.166497694   1.55680   0.87195   0.60528  -0.65585
  46   35481.9    281.8   0.020683386   0.19191  -0.27604  -0.17754   0.29015
  47   35759.2    279.6   0.290466278   2.67414  -1.10319  -0.70294   0.98132
  48   35992.3    277.8   0.169764451   1.55279   0.41701   0.35610  -1.11897
  49   36259.1    275.8   0.078645010   0.71405  -0.70923  -0.43602  -0.14466
  50   36469.0    274.2   0.004098147   0.03699  -0.18314  -0.03192  -0.04934
  51   36512.2    273.9   0.087938035   0.79289   0.65009   0.42345   0.43699
  52   37031.1    270.0   0.014579132   0.12961  -0.31818  -0.09301  -0.14043
  53   37126.8    269.3   0.006044483   0.05360   0.17608   0.10120  -0.11114
  54   37333.1    267.9   0.008401506   0.07409   0.10929  -0.00789   0.24916
  55   37407.5    267.3   0.000062166   0.00055  -0.01711   0.00932  -0.01294
  56   37421.1    267.2   0.021454269   0.18874  -0.21404  -0.05346  -0.37427
  57   37486.0    266.8   0.030128863   0.26460  -0.47336  -0.19329  -0.05634
  58   37803.8    264.5   0.134199983   1.16867  -0.47211  -0.14540   0.96158
  59   38082.4    262.6   0.030309685   0.26202   0.48942  -0.13077   0.07342
  60   38448.8    260.1   0.001335698   0.01144   0.02916  -0.09927   0.02705
  61   38665.1    258.6   0.012207574   0.10394  -0.15931  -0.22701   0.16439
  62   39227.4    254.9   0.227639293   1.91044  -0.88035  -0.45664   0.96276
  63   39338.2    254.2   0.024335004   0.20365  -0.02084   0.04481   0.44857
  64   39617.3    252.4   0.031205615   0.25931  -0.26895  -0.07587   0.42570
  65   39838.2    251.0   0.000276780   0.00229   0.03390  -0.01273  -0.03124
  66   39962.9    250.2   0.000067662   0.00056   0.01682   0.00604  -0.01543
  67   40051.6    249.7   0.271929349   2.23518  -0.79538  -0.04816   1.26500
  68   40280.5    248.3   0.070409498   0.57546  -0.58170  -0.46631   0.14014

FINAL SINGLE POINT ENERGY     -3224.986644255022

DIPOLE MOMENT
-------------
                                X             Y             Z
Electronic contribution:     -8.33688       1.41511      -3.17673
Nuclear contribution   :      5.59171      -4.14902       3.33235
                        -----------------------------------------
Total Dipole Moment    :     -2.74517      -2.73390       0.15562
                        -----------------------------------------
Magnitude (a.u.)       :      3.87743
Magnitude (Debye)      :      9.85563

Rotational constants in cm-1:     0.004564     0.000186     0.000180
Rotational constants in MHz :   136.826360     5.576471     5.410050

                             ****ORCA TERMINATED NORMALLY****
TOTAL RUN TIME: 0 days 0 hours 11 minutes 22 seconds 557 msec
