                         Program Version 4.2.0 -  RELEASE  -
|  1> # ORCA input file
|  2> # SCF done       -230.339874912315          0.000850507885
|  3> ! CAM-B3LYP def2-SVP def2/J RIJCOSX Grid4 TightSCF
|  4> %maxcore 5000
|  5> %tddft
|  6>     Mode sTDDFT
|  7>     Ethresh 5.0
|  8>     maxcore 5000
|  9> end
| 10>
| 11> %pal
| 12>   nprocs 6
| 13>   end
| 14> * xyz 0 1
| 15>    C        2.79593        -1.26826         2.10458
| 16>    C        2.96641         0.06633         1.86351
| 17>    F        4.11565         0.66698         2.18962
| 18>    C        1.93706         0.82663         1.26964
| 19>    F        2.13363         2.13037         1.04606
| 20>    C        0.75166         0.24029         0.92391
| 21>    C        0.54632        -1.13344         1.15804
| 22>    C        1.58486        -1.90286         1.76124
| 23>    C        1.39906        -3.28095         2.01307
| 24>    C        0.20878        -3.87328         1.67667
| 25>    C       -0.81882        -3.09731         1.06911
| 26>    C       -0.66638        -1.76516         0.80761
| 27>    C       -1.98722        -3.94582         0.80352
| 28>    O       -2.97930        -3.65504         0.17641
| 29>    C       -1.63542        -5.29623         1.34479
| 30>    C       -0.26492        -5.24420         1.83322
| 31>    C        0.43779        -6.27482         2.39536
| 32>    C        1.75842        -6.15878         2.88354
| 33>    N        2.83230        -6.13031         3.28541
| 34>    C       -0.04723        -7.59010         2.56394
| 35>    N       -0.38253        -8.67467         2.73165
| 36>    C       -2.43483        -6.38778         1.24008
| 37>    C       -3.83347        -6.35255         0.95994
| 38>    O       -4.40486        -7.41466         0.35729
| 39>    C       -5.73238        -7.21227         0.27835
| 40>    C       -6.05014        -5.99502         0.85946
| 41>    C       -4.82542        -5.43716         1.30407
| 42>    C       -4.67112        -4.25235         2.04580
| 43>    N       -4.55647        -3.32050         2.70073
| 44>    C       -7.34892        -5.25715         0.91788
| 45>    F       -8.29255        -5.79750         0.13387
| 46>    F       -7.84467        -5.16393         2.15090
| 47>    F       -7.18949        -3.99591         0.47619
| 48>    C       -6.57823        -8.20115        -0.33068
| 49>    N       -6.22947        -8.93223        -1.43777
| 50>    C       -5.01867        -8.80753        -2.21384
| 51>    C       -4.99772        -7.52243        -3.03641
| 52>    C       -7.27629        -9.78947        -1.83544
| 53>    O       -7.22915       -10.49330        -2.82452
| 54>    C       -8.29538        -9.58689        -0.83467
| 55>    C       -7.84100        -8.59679         0.07008
| 56>    C       -8.84328        -8.46450         1.11448
| 57>    O       -8.87714        -7.80454         2.12269
| 58>    N       -9.87067        -9.35900         0.72772
| 59>    C      -11.03762        -9.51151         1.56488
| 60>    C      -10.94226       -10.74866         2.45419
| 61>    C       -9.54399       -10.04216        -0.41355
| 62>    C      -10.23746       -11.06210        -1.11320
| 63>    C      -11.43999       -11.65008        -0.88904
| 64>    C      -11.85978       -12.73561        -1.70357
| 65>    O      -11.05551       -13.19766        -2.67587
| 66>    C      -11.62602       -14.27746        -3.24349
| 67>    C      -12.85829       -14.50990        -2.64653
| 68>    C      -13.01371       -13.52302        -1.64503
| 69>    C      -14.08175       -13.32738        -0.75455
| 70>    N      -14.93417       -13.12332        -0.01755
| 71>    C      -13.81070       -15.59613        -3.01440
| 72>    F      -13.20361       -16.79016        -3.09613
| 73>    F      -14.81637       -15.72221        -2.14997
| 74>    F      -14.36123       -15.37587        -4.22543
| 75>    C      -10.95921       -14.95211        -4.30686
| 76>    C       -9.66696       -14.77098        -4.66767
| 77>    C       -9.20704       -15.18310        -6.03725
| 78>    O       -9.75203       -15.96692        -6.77096
| 79>    C       -8.01017       -14.35770        -6.29152
| 80>    C       -7.29914       -14.20240        -7.44802
| 81>    C       -6.22281       -13.28690        -7.47224
| 82>    C       -5.91472       -12.53134        -6.30195
| 83>    C       -4.86358       -11.59402        -6.34831
| 84>    C       -4.14416       -11.42069        -7.49674
| 85>    C       -4.44155       -12.17555        -8.65005
| 86>    C       -5.45903       -13.08828        -8.63956
| 87>    F       -3.71867       -11.98621        -9.76043
| 88>    F       -3.14677       -10.52767        -7.53670
| 89>    C       -6.65443       -12.72245        -5.11366
| 90>    C       -7.67288       -13.63652        -5.10953
| 91>    C       -8.57077       -14.04955        -4.03962
| 92>    C       -8.27864       -13.99588        -2.70665
| 93>    C       -9.07420       -14.59534        -1.70600
| 94>    N       -9.68891       -15.07859        -0.86645
| 95>    C       -7.10482       -13.41463        -2.17827
| 96>    N       -6.17168       -12.97108        -1.68059
| 97>    H        3.59333        -1.83352         2.56125
| 98>    H       -0.02646         0.83467         0.47137
| 99>    H        2.20522        -3.83317         2.46814
|100>    H       -1.46638        -1.20399         0.34976
|101>    H       -2.03025        -7.38343         1.36975
|102>    H       -5.00567        -9.67686        -2.87646
|103>    H       -4.15293        -8.85810        -1.54986
|104>    H       -5.86387        -7.48124        -3.69286
|105>    H       -4.09812        -7.49101        -3.64466
|106>    H       -5.00949        -6.64401        -2.39439
|107>    H      -11.93316        -9.53187         0.94000
|108>    H      -11.07182        -8.61674         2.19326
|109>    H      -10.79987       -11.65200         1.86536
|110>    H      -11.85271       -10.85078         3.03756
|111>    H      -10.10293       -10.64686         3.13739
|112>    H       -9.66691       -11.41826        -1.96313
|113>    H      -12.11432       -11.37134        -0.09650
|114>    H      -11.56101       -15.60709        -4.92438
|115>    H       -7.55918       -14.76134        -8.33392
|116>    H       -4.62445       -11.01201        -5.47253
|117>    H       -5.67547       -13.65457        -9.53185
|118>    H       -6.43634       -12.11899        -4.24699
|119> *
|120>
|121>                          ****END OF INPUT****

CARTESIAN COORDINATES (ANGSTROEM)
---------------------------------
  C      2.795930   -1.268260    2.104580
  C      2.966410    0.066330    1.863510
  F      4.115650    0.666980    2.189620
  C      1.937060    0.826630    1.269640
  F      2.133630    2.130370    1.046060
  C      0.751660    0.240290    0.923910
  C      0.546320   -1.133440    1.158040
  C      1.584860   -1.902860    1.761240
  C      1.399060   -3.280950    2.013070
  C      0.208780   -3.873280    1.676670
  C     -0.818820   -3.097310    1.069110
  C     -0.666380   -1.765160    0.807610
  C     -1.987220   -3.945820    0.803520
  O     -2.979300   -3.655040    0.176410
  C     -1.635420   -5.296230    1.344790
  C     -0.264920   -5.244200    1.833220
  C      0.437790   -6.274820    2.395360
  C      1.758420   -6.158780    2.883540
  N      2.832300   -6.130310    3.285410
  C     -0.047230   -7.590100    2.563940
  N     -0.382530   -8.674670    2.731650
  C     -2.434830   -6.387780    1.240080
  C     -3.833470   -6.352550    0.959940
  O     -4.404860   -7.414660    0.357290
  C     -5.732380   -7.212270    0.278350
  C     -6.050140   -5.995020    0.859460
  C     -4.825420   -5.437160    1.304070
  C     -4.671120   -4.252350    2.045800
  N     -4.556470   -3.320500    2.700730
  C     -7.348920   -5.257150    0.917880
  F     -8.292550   -5.797500    0.133870
  F     -7.844670   -5.163930    2.150900
  F     -7.189490   -3.995910    0.476190
  C     -6.578230   -8.201150   -0.330680
  N     -6.229470   -8.932230   -1.437770
  C     -5.018670   -8.807530   -2.213840
  C     -4.997720   -7.522430   -3.036410
  C     -7.276290   -9.789470   -1.835440
  O     -7.229150  -10.493300   -2.824520
  C     -8.295380   -9.586890   -0.834670
  C     -7.841000   -8.596790    0.070080
  C     -8.843280   -8.464500    1.114480
  O     -8.877140   -7.804540    2.122690
  N     -9.870670   -9.359000    0.727720
  C    -11.037620   -9.511510    1.564880
  C    -10.942260  -10.748660    2.454190
  C     -9.543990  -10.042160   -0.413550
  C    -10.237460  -11.062100   -1.113200
  C    -11.439990  -11.650080   -0.889040
  C    -11.859780  -12.735610   -1.703570
  O    -11.055510  -13.197660   -2.675870
  C    -11.626020  -14.277460   -3.243490
  C    -12.858290  -14.509900   -2.646530
  C    -13.013710  -13.523020   -1.645030
  C    -14.081750  -13.327380   -0.754550
  N    -14.934170  -13.123320   -0.017550
  C    -13.810700  -15.596130   -3.014400
  F    -13.203610  -16.790160   -3.096130
  F    -14.816370  -15.722210   -2.149970
  F    -14.361230  -15.375870   -4.225430
  C    -10.959210  -14.952110   -4.306860
  C     -9.666960  -14.770980   -4.667670
  C     -9.207040  -15.183100   -6.037250
  O     -9.752030  -15.966920   -6.770960
  C     -8.010170  -14.357700   -6.291520
  C     -7.299140  -14.202400   -7.448020
  C     -6.222810  -13.286900   -7.472240
  C     -5.914720  -12.531340   -6.301950
  C     -4.863580  -11.594020   -6.348310
  C     -4.144160  -11.420690   -7.496740
  C     -4.441550  -12.175550   -8.650050
  C     -5.459030  -13.088280   -8.639560
  F     -3.718670  -11.986210   -9.760430
  F     -3.146770  -10.527670   -7.536700
  C     -6.654430  -12.722450   -5.113660
  C     -7.672880  -13.636520   -5.109530
  C     -8.570770  -14.049550   -4.039620
  C     -8.278640  -13.995880   -2.706650
  C     -9.074200  -14.595340   -1.706000
  N     -9.688910  -15.078590   -0.866450
  C     -7.104820  -13.414630   -2.178270
  N     -6.171680  -12.971080   -1.680590
  H      3.593330   -1.833520    2.561250
  H     -0.026460    0.834670    0.471370
  H      2.205220   -3.833170    2.468140
  H     -1.466380   -1.203990    0.349760
  H     -2.030250   -7.383430    1.369750
  H     -5.005670   -9.676860   -2.876460
  H     -4.152930   -8.858100   -1.549860
  H     -5.863870   -7.481240   -3.692860
  H     -4.098120   -7.491010   -3.644660
  H     -5.009490   -6.644010   -2.394390
  H    -11.933160   -9.531870    0.940000
  H    -11.071820   -8.616740    2.193260
  H    -10.799870  -11.652000    1.865360
  H    -11.852710  -10.850780    3.037560
  H    -10.102930  -10.646860    3.137390
  H     -9.666910  -11.418260   -1.963130
  H    -12.114320  -11.371340   -0.096500
  H    -11.561010  -15.607090   -4.924380
  H     -7.559180  -14.761340   -8.333920
  H     -4.624450  -11.012010   -5.472530
  H     -5.675470  -13.654570   -9.531850
  H     -6.436340  -12.118990   -4.246990

 Total Charge           Charge          ....    0
 Multiplicity           Mult            ....    1
 Number of Electrons    NEL             ....  564
 Basis Dimension        Dim             .... 1258

ORBITAL ENERGIES
----------------

  NO   OCC          E(Eh)            E(eV)
   0   2.0000     -24.820599      -675.4028
   1   2.0000     -24.815954      -675.2764
   2   2.0000     -24.813222      -675.2021
   3   2.0000     -24.812729      -675.1887
   4   2.0000     -24.807664      -675.0509
   5   2.0000     -24.807085      -675.0351
   6   2.0000     -24.805891      -675.0026
   7   2.0000     -24.805531      -674.9928
   8   2.0000     -24.805251      -674.9852
   9   2.0000     -24.804467      -674.9639
  10   2.0000     -19.350906      -526.5649
  11   2.0000     -19.344638      -526.3944
  12   2.0000     -19.237403      -523.4763
  13   2.0000     -19.232434      -523.3411
  14   2.0000     -19.216173      -522.8987
  15   2.0000     -19.213021      -522.8129
  16   2.0000     -14.478128      -393.9699
  17   2.0000     -14.474699      -393.8766
  18   2.0000     -14.435610      -392.8129
  19   2.0000     -14.433629      -392.7590
  20   2.0000     -14.429397      -392.6439
  21   2.0000     -14.428860      -392.6292
  22   2.0000     -14.427541      -392.5933
  23   2.0000     -14.424866      -392.5205
  24   2.0000     -10.544147      -286.9208
  25   2.0000     -10.537745      -286.7466
  26   2.0000     -10.398291      -282.9519
  27   2.0000     -10.398202      -282.9495
  28   2.0000     -10.396983      -282.9163
  29   2.0000     -10.393568      -282.8234
  30   2.0000     -10.392776      -282.8018
  31   2.0000     -10.392033      -282.7816
  32   2.0000     -10.391553      -282.7685
  33   2.0000     -10.389658      -282.7170
  34   2.0000     -10.388817      -282.6941
  35   2.0000     -10.388488      -282.6851
  36   2.0000     -10.388239      -282.6784
  37   2.0000     -10.384017      -282.5635
  38   2.0000     -10.370856      -282.2053
  39   2.0000     -10.367394      -282.1111
  40   2.0000     -10.365660      -282.0640
  41   2.0000     -10.361669      -281.9553
  42   2.0000     -10.358691      -281.8743
  43   2.0000     -10.354678      -281.7651
  44   2.0000     -10.354191      -281.7519
  45   2.0000     -10.352298      -281.7004
  46   2.0000     -10.346349      -281.5385
  47   2.0000     -10.342219      -281.4261
  48   2.0000     -10.340396      -281.3765
  49   2.0000     -10.339635      -281.3558
  50   2.0000     -10.336931      -281.2822
  51   2.0000     -10.335194      -281.2349
  52   2.0000     -10.331953      -281.1467
  53   2.0000     -10.331922      -281.1459
  54   2.0000     -10.331005      -281.1209
  55   2.0000     -10.330573      -281.1092
  56   2.0000     -10.328408      -281.0503
  57   2.0000     -10.326462      -280.9973
  58   2.0000     -10.326163      -280.9892
  59   2.0000     -10.325034      -280.9585
  60   2.0000     -10.323994      -280.9302
  61   2.0000     -10.322820      -280.8982
  62   2.0000     -10.322746      -280.8962
  63   2.0000     -10.322511      -280.8898
  64   2.0000     -10.322334      -280.8850
  65   2.0000     -10.318452      -280.7793
  66   2.0000     -10.317584      -280.7557
  67   2.0000     -10.316156      -280.7169
  68   2.0000     -10.315615      -280.7022
  69   2.0000     -10.315511      -280.6993
  70   2.0000     -10.311985      -280.6034
  71   2.0000     -10.311162      -280.5810
  72   2.0000     -10.310744      -280.5696
  73   2.0000     -10.308278      -280.5025
  74   2.0000     -10.307621      -280.4846
  75   2.0000     -10.307460      -280.4803
  76   2.0000     -10.305929      -280.4386
  77   2.0000     -10.304698      -280.4051
  78   2.0000     -10.291594      -280.0485
  79   2.0000     -10.287726      -279.9433
  80   2.0000     -10.280017      -279.7335
  81   2.0000     -10.272848      -279.5384
  82   2.0000      -1.408108       -38.3166
  83   2.0000      -1.400148       -38.1000
  84   2.0000      -1.331172       -36.2230
  85   2.0000      -1.328559       -36.1519
  86   2.0000      -1.316208       -35.8159
  87   2.0000      -1.313739       -35.7487
  88   2.0000      -1.312939       -35.7269
  89   2.0000      -1.305338       -35.5201
  90   2.0000      -1.303905       -35.4811
  91   2.0000      -1.297626       -35.3102
  92   2.0000      -1.272375       -34.6231
  93   2.0000      -1.269577       -34.5469
  94   2.0000      -1.157331       -31.4926
  95   2.0000      -1.154813       -31.4241
  96   2.0000      -1.150621       -31.3100
  97   2.0000      -1.149214       -31.2717
  98   2.0000      -1.088575       -29.6216
  99   2.0000      -1.078722       -29.3535
 100   2.0000      -1.038048       -28.2467
 101   2.0000      -1.031651       -28.0726
 102   2.0000      -1.019520       -27.7426
 103   2.0000      -1.016232       -27.6531
 104   2.0000      -1.014738       -27.6124
 105   2.0000      -1.014190       -27.5975
 106   2.0000      -1.012698       -27.5569
 107   2.0000      -1.004509       -27.3341
 108   2.0000      -0.997105       -27.1326
 109   2.0000      -0.993276       -27.0284
 110   2.0000      -0.970776       -26.4162
 111   2.0000      -0.970243       -26.4017
 112   2.0000      -0.965723       -26.2786
 113   2.0000      -0.958727       -26.0883
 114   2.0000      -0.950270       -25.8582
 115   2.0000      -0.941800       -25.6277
 116   2.0000      -0.941008       -25.6061
 117   2.0000      -0.923765       -25.1369
 118   2.0000      -0.914862       -24.8946
 119   2.0000      -0.905230       -24.6326
 120   2.0000      -0.904212       -24.6048
 121   2.0000      -0.900119       -24.4935
 122   2.0000      -0.893323       -24.3086
 123   2.0000      -0.882658       -24.0183
 124   2.0000      -0.872959       -23.7544
 125   2.0000      -0.853433       -23.2231
 126   2.0000      -0.848960       -23.1014
 127   2.0000      -0.845175       -22.9984
 128   2.0000      -0.838573       -22.8187
 129   2.0000      -0.834397       -22.7051
 130   2.0000      -0.829761       -22.5790
 131   2.0000      -0.827662       -22.5218
 132   2.0000      -0.800334       -21.7782
 133   2.0000      -0.791669       -21.5424
 134   2.0000      -0.784029       -21.3345
 135   2.0000      -0.781906       -21.2768
 136   2.0000      -0.779893       -21.2220
 137   2.0000      -0.777259       -21.1503
 138   2.0000      -0.773419       -21.0458
 139   2.0000      -0.755289       -20.5524
 140   2.0000      -0.749075       -20.3834
 141   2.0000      -0.742464       -20.2035
 142   2.0000      -0.736876       -20.0514
 143   2.0000      -0.732413       -19.9300
 144   2.0000      -0.731078       -19.8936
 145   2.0000      -0.726723       -19.7751
 146   2.0000      -0.726209       -19.7611
 147   2.0000      -0.719435       -19.5768
 148   2.0000      -0.713141       -19.4056
 149   2.0000      -0.705295       -19.1920
 150   2.0000      -0.702293       -19.1104
 151   2.0000      -0.694304       -18.8930
 152   2.0000      -0.693557       -18.8726
 153   2.0000      -0.691066       -18.8049
 154   2.0000      -0.689435       -18.7605
 155   2.0000      -0.681762       -18.5517
 156   2.0000      -0.679225       -18.4827
 157   2.0000      -0.674223       -18.3466
 158   2.0000      -0.672288       -18.2939
 159   2.0000      -0.669559       -18.2196
 160   2.0000      -0.662511       -18.0278
 161   2.0000      -0.657966       -17.9042
 162   2.0000      -0.657396       -17.8887
 163   2.0000      -0.654336       -17.8054
 164   2.0000      -0.651626       -17.7316
 165   2.0000      -0.647622       -17.6227
 166   2.0000      -0.630172       -17.1478
 167   2.0000      -0.628875       -17.1126
 168   2.0000      -0.628073       -17.0907
 169   2.0000      -0.620270       -16.8784
 170   2.0000      -0.617626       -16.8064
 171   2.0000      -0.613820       -16.7029
 172   2.0000      -0.607782       -16.5386
 173   2.0000      -0.606244       -16.4967
 174   2.0000      -0.601474       -16.3669
 175   2.0000      -0.598923       -16.2975
 176   2.0000      -0.596184       -16.2230
 177   2.0000      -0.595232       -16.1971
 178   2.0000      -0.592902       -16.1337
 179   2.0000      -0.592404       -16.1201
 180   2.0000      -0.590225       -16.0608
 181   2.0000      -0.587364       -15.9830
 182   2.0000      -0.584535       -15.9060
 183   2.0000      -0.582684       -15.8556
 184   2.0000      -0.580657       -15.8005
 185   2.0000      -0.567440       -15.4408
 186   2.0000      -0.565038       -15.3755
 187   2.0000      -0.564771       -15.3682
 188   2.0000      -0.563939       -15.3456
 189   2.0000      -0.563613       -15.3367
 190   2.0000      -0.559149       -15.2152
 191   2.0000      -0.556574       -15.1451
 192   2.0000      -0.555930       -15.1276
 193   2.0000      -0.555015       -15.1027
 194   2.0000      -0.554633       -15.0923
 195   2.0000      -0.554159       -15.0794
 196   2.0000      -0.551488       -15.0068
 197   2.0000      -0.551249       -15.0003
 198   2.0000      -0.549006       -14.9392
 199   2.0000      -0.546762       -14.8781
 200   2.0000      -0.543512       -14.7897
 201   2.0000      -0.543243       -14.7824
 202   2.0000      -0.540834       -14.7168
 203   2.0000      -0.538294       -14.6477
 204   2.0000      -0.536019       -14.5858
 205   2.0000      -0.532911       -14.5013
 206   2.0000      -0.530432       -14.4338
 207   2.0000      -0.529499       -14.4084
 208   2.0000      -0.527952       -14.3663
 209   2.0000      -0.526651       -14.3309
 210   2.0000      -0.525697       -14.3049
 211   2.0000      -0.524138       -14.2625
 212   2.0000      -0.523066       -14.2333
 213   2.0000      -0.520075       -14.1520
 214   2.0000      -0.517788       -14.0897
 215   2.0000      -0.515964       -14.0401
 216   2.0000      -0.514883       -14.0107
 217   2.0000      -0.512354       -13.9419
 218   2.0000      -0.509153       -13.8548
 219   2.0000      -0.507540       -13.8109
 220   2.0000      -0.503211       -13.6931
 221   2.0000      -0.500957       -13.6317
 222   2.0000      -0.500298       -13.6138
 223   2.0000      -0.498028       -13.5520
 224   2.0000      -0.494200       -13.4479
 225   2.0000      -0.492078       -13.3901
 226   2.0000      -0.491680       -13.3793
 227   2.0000      -0.490398       -13.3444
 228   2.0000      -0.488740       -13.2993
 229   2.0000      -0.484203       -13.1758
 230   2.0000      -0.483998       -13.1703
 231   2.0000      -0.481431       -13.1004
 232   2.0000      -0.479414       -13.0455
 233   2.0000      -0.476916       -12.9775
 234   2.0000      -0.476653       -12.9704
 235   2.0000      -0.472800       -12.8655
 236   2.0000      -0.471266       -12.8238
 237   2.0000      -0.469905       -12.7868
 238   2.0000      -0.466293       -12.6885
 239   2.0000      -0.465268       -12.6606
 240   2.0000      -0.463791       -12.6204
 241   2.0000      -0.461125       -12.5479
 242   2.0000      -0.460642       -12.5347
 243   2.0000      -0.459217       -12.4959
 244   2.0000      -0.456394       -12.4191
 245   2.0000      -0.455825       -12.4036
 246   2.0000      -0.455143       -12.3851
 247   2.0000      -0.453962       -12.3529
 248   2.0000      -0.448757       -12.2113
 249   2.0000      -0.447066       -12.1653
 250   2.0000      -0.445235       -12.1155
 251   2.0000      -0.441328       -12.0091
 252   2.0000      -0.440963       -11.9992
 253   2.0000      -0.438944       -11.9443
 254   2.0000      -0.438413       -11.9298
 255   2.0000      -0.436075       -11.8662
 256   2.0000      -0.433789       -11.8040
 257   2.0000      -0.431400       -11.7390
 258   2.0000      -0.427923       -11.6444
 259   2.0000      -0.426932       -11.6174
 260   2.0000      -0.425056       -11.5664
 261   2.0000      -0.419457       -11.4140
 262   2.0000      -0.417860       -11.3705
 263   2.0000      -0.402837       -10.9617
 264   2.0000      -0.398550       -10.8451
 265   2.0000      -0.397438       -10.8148
 266   2.0000      -0.391965       -10.6659
 267   2.0000      -0.388776       -10.5791
 268   2.0000      -0.377921       -10.2837
 269   2.0000      -0.372401       -10.1335
 270   2.0000      -0.367081        -9.9888
 271   2.0000      -0.361301        -9.8315
 272   2.0000      -0.355433        -9.6718
 273   2.0000      -0.349914        -9.5216
 274   2.0000      -0.337906        -9.1949
 275   2.0000      -0.330570        -8.9953
 276   2.0000      -0.326737        -8.8910
 277   2.0000      -0.325442        -8.8557
 278   2.0000      -0.315075        -8.5736
 279   2.0000      -0.311242        -8.4693
 280   2.0000      -0.305875        -8.3233
 281   2.0000      -0.266423        -7.2497
 282   0.0000      -0.129444        -3.5223
 283   0.0000      -0.115959        -3.1554
 284   0.0000      -0.095445        -2.5972
 285   0.0000      -0.077193        -2.1005
 286   0.0000      -0.067670        -1.8414

MULLIKEN ATOMIC CHARGES
-----------------------
   0 C :   -0.107261
   1 C :    0.243784
   2 F :   -0.166018
   3 C :    0.241310
   4 F :   -0.166141
   5 C :   -0.102091
   6 C :    0.116308
   7 C :    0.117348
   8 C :   -0.087447
   9 C :    0.060492
  10 C :   -0.005293
  11 C :   -0.068720
  12 C :    0.145914
  13 O :   -0.134656
  14 C :   -0.069899
  15 C :    0.310513
  16 C :   -0.339188
  17 C :   -0.178730
  18 N :    0.162782
  19 C :   -0.189348
  20 N :    0.170024
  21 C :   -0.064558
  22 C :    0.179113
  23 O :   -0.172705
  24 C :    0.053602
  25 C :   -0.072039
  26 C :   -0.064092
  27 C :   -0.230270
  28 N :    0.205518
  29 C :    0.541630
  30 F :   -0.151765
  31 F :   -0.131474
  32 F :   -0.156433
  33 C :    0.083519
  34 N :   -0.258456
  35 C :    0.105580
  36 C :   -0.008727
  37 C :    0.186312
  38 O :   -0.199514
  39 C :   -0.060797
  40 C :    0.004542
  41 C :    0.140311
  42 O :   -0.163301
  43 N :   -0.269000
  44 C :    0.093249
  45 C :   -0.004966
  46 C :    0.151937
  47 C :   -0.040192
  48 C :   -0.026822
  49 C :    0.150967
  50 O :   -0.193507
  51 C :    0.101787
  52 C :   -0.052711
  53 C :   -0.046423
  54 C :   -0.249363
  55 N :    0.189428
  56 C :    0.524390
  57 F :   -0.152589
  58 F :   -0.131324
  59 F :   -0.159498
  60 C :    0.023361
  61 C :   -0.098988
  62 C :    0.141072
  63 O :   -0.125133
  64 C :    0.013792
  65 C :   -0.076659
  66 C :    0.101098
  67 C :    0.118308
  68 C :   -0.102196
  69 C :    0.244480
  70 C :    0.238144
  71 C :   -0.098690
  72 F :   -0.169444
  73 F :   -0.171573
  74 C :   -0.055284
  75 C :    0.022180
  76 C :    0.264451
  77 C :   -0.316852
  78 C :   -0.203815
  79 N :    0.168117
  80 C :   -0.171445
  81 N :    0.172886
  82 H :    0.010829
  83 H :    0.003964
  84 H :   -0.003297
  85 H :   -0.001649
  86 H :    0.045137
  87 H :    0.043560
  88 H :    0.034876
  89 H :    0.029224
  90 H :    0.030035
  91 H :    0.027417
  92 H :    0.028820
  93 H :    0.052270
  94 H :    0.027286
  95 H :    0.034137
  96 H :    0.034684
  97 H :    0.029775
  98 H :    0.023244
  99 H :    0.039509
 100 H :   -0.006379
 101 H :   -0.006535
 102 H :    0.001433
 103 H :   -0.001192
Sum of atomic charges:   -0.0000000

LOEWDIN ATOMIC CHARGES
----------------------
   0 C :   -0.028563
   1 C :    0.069670
   2 F :   -0.044030
   3 C :    0.070384
   4 F :   -0.044181
   5 C :   -0.030248
   6 C :   -0.006280
   7 C :   -0.003704
   8 C :    0.020492
   9 C :   -0.023047
  10 C :   -0.052507
  11 C :    0.040372
  12 C :    0.086637
  13 O :   -0.120428
  14 C :   -0.058629
  15 C :    0.070821
  16 C :   -0.120931
  17 C :   -0.017110
  18 N :   -0.037745
  19 C :   -0.021846
  20 N :   -0.035510
  21 C :    0.039880
  22 C :    0.058039
  23 O :    0.050581
  24 C :    0.052296
  25 C :   -0.077133
  26 C :   -0.052197
  27 C :   -0.033164
  28 N :   -0.021611
  29 C :    0.168748
  30 F :   -0.044711
  31 F :   -0.032676
  32 F :   -0.054864
  33 C :    0.050525
  34 N :    0.008683
  35 C :    0.034754
  36 C :   -0.061321
  37 C :    0.091249
  38 O :   -0.194085
  39 C :   -0.106385
  40 C :   -0.101990
  41 C :    0.083176
  42 O :   -0.163584
  43 N :   -0.002162
  44 C :    0.036201
  45 C :   -0.061455
  46 C :    0.081308
  47 C :   -0.003176
  48 C :   -0.015528
  49 C :    0.082023
  50 O :    0.053938
  51 C :    0.049731
  52 C :   -0.072240
  53 C :   -0.080242
  54 C :   -0.040493
  55 N :   -0.026161
  56 C :    0.168477
  57 F :   -0.051552
  58 F :   -0.031641
  59 F :   -0.062646
  60 C :    0.033678
  61 C :   -0.052721
  62 C :    0.085531
  63 O :   -0.124692
  64 C :   -0.056507
  65 C :    0.031843
  66 C :   -0.008394
  67 C :   -0.003680
  68 C :   -0.029357
  69 C :    0.067616
  70 C :    0.067470
  71 C :   -0.031789
  72 F :   -0.047321
  73 F :   -0.049264
  74 C :    0.026899
  75 C :   -0.020679
  76 C :    0.066257
  77 C :   -0.122536
  78 C :   -0.024535
  79 N :   -0.049586
  80 C :   -0.018702
  81 N :   -0.042505
  82 H :    0.048881
  83 H :    0.046897
  84 H :    0.040874
  85 H :    0.044288
  86 H :    0.055482
  87 H :    0.034603
  88 H :    0.025901
  89 H :    0.031606
  90 H :    0.033936
  91 H :    0.024175
  92 H :    0.023564
  93 H :    0.041713
  94 H :    0.023847
  95 H :    0.035844
  96 H :    0.035254
  97 H :    0.048461
  98 H :    0.046298
  99 H :    0.056542
 100 H :    0.041631
 101 H :    0.045396
 102 H :    0.045616
 103 H :    0.039958

  Mayer bond orders larger than 0.100000
B(  0-C ,  1-C ) :   1.4435 B(  0-C ,  5-C ) :   0.1076 B(  0-C ,  7-C ) :   1.1861
B(  0-C , 82-H ) :   1.0057 B(  1-C ,  2-F ) :   1.1400 B(  1-C ,  3-C ) :   1.1873
B(  3-C ,  4-F ) :   1.1390 B(  3-C ,  5-C ) :   1.4434 B(  5-C ,  6-C ) :   1.1934
B(  5-C , 83-H ) :   1.0066 B(  6-C ,  7-C ) :   1.2506 B(  6-C , 11-C ) :   1.1919
B(  7-C ,  8-C ) :   1.2265 B(  8-C ,  9-C ) :   1.4377 B(  8-C , 84-H ) :   0.9887
B(  9-C , 10-C ) :   1.2175 B(  9-C , 15-C ) :   0.9993 B( 10-C , 11-C ) :   1.4693
B( 10-C , 12-C ) :   0.9422 B( 11-C , 85-H ) :   1.0160 B( 12-C , 13-O ) :   2.2267
B( 12-C , 14-C ) :   0.9188 B( 14-C , 15-C ) :   1.0528 B( 14-C , 21-C ) :   1.6558
B( 15-C , 16-C ) :   1.6593 B( 16-C , 17-C ) :   1.1435 B( 16-C , 19-C ) :   1.1407
B( 17-C , 18-N ) :   2.9642 B( 19-C , 20-N ) :   2.9749 B( 21-C , 22-C ) :   1.1385
B( 21-C , 86-H ) :   0.9272 B( 22-C , 23-O ) :   1.1304 B( 22-C , 24-C ) :   0.1046
B( 22-C , 26-C ) :   1.4503 B( 23-O , 24-C ) :   1.1670 B( 24-C , 25-C ) :   1.5190
B( 24-C , 33-C ) :   0.9717 B( 25-C , 26-C ) :   1.2975 B( 25-C , 29-C ) :   0.9256
B( 26-C , 27-C ) :   1.1298 B( 27-C , 28-N ) :   3.0222 B( 29-C , 30-F ) :   1.1523
B( 29-C , 31-F ) :   1.2062 B( 29-C , 32-F ) :   1.1725 B( 33-C , 34-N ) :   1.2106
B( 33-C , 40-C ) :   1.4702 B( 34-N , 35-C ) :   0.9393 B( 34-N , 37-C ) :   1.0380
B( 35-C , 36-C ) :   1.1159 B( 35-C , 87-H ) :   0.9324 B( 35-C , 88-H ) :   0.9449
B( 36-C , 89-H ) :   0.9644 B( 36-C , 90-H ) :   0.9674 B( 36-C , 91-H ) :   0.9691
B( 37-C , 38-O ) :   2.0301 B( 37-C , 39-C ) :   0.9994 B( 39-C , 40-C ) :   1.2213
B( 39-C , 46-C ) :   1.3454 B( 40-C , 41-C ) :   0.9396 B( 41-C , 42-O ) :   2.1640
B( 41-C , 43-N ) :   1.0219 B( 43-N , 44-C ) :   0.9338 B( 43-N , 46-C ) :   1.1880
B( 44-C , 45-C ) :   1.1162 B( 44-C , 92-H ) :   0.9511 B( 44-C , 93-H ) :   0.9253
B( 45-C , 94-H ) :   0.9687 B( 45-C , 95-H ) :   0.9682 B( 45-C , 96-H ) :   0.9616
B( 46-C , 47-C ) :   1.1470 B( 47-C , 48-C ) :   1.5645 B( 47-C , 97-H ) :   0.9524
B( 48-C , 49-C ) :   1.2023 B( 48-C , 98-H ) :   0.9570 B( 49-C , 50-O ) :   1.1591
B( 49-C , 53-C ) :   1.3828 B( 50-O , 51-C ) :   1.1244 B( 51-C , 52-C ) :   1.4558
B( 51-C , 60-C ) :   1.1077 B( 52-C , 53-C ) :   1.3112 B( 52-C , 56-C ) :   0.9196
B( 53-C , 54-C ) :   1.1281 B( 54-C , 55-N ) :   3.0240 B( 56-C , 57-F ) :   1.1769
B( 56-C , 58-F ) :   1.1923 B( 56-C , 59-F ) :   1.1845 B( 60-C , 61-C ) :   1.6887
B( 60-C , 99-H ) :   0.9383 B( 61-C , 62-C ) :   0.9162 B( 61-C , 76-C ) :   1.0063
B( 62-C , 63-O ) :   2.2879 B( 62-C , 64-C ) :   0.9189 B( 64-C , 65-C ) :   1.4714
B( 64-C , 75-C ) :   1.2116 B( 65-C , 66-C ) :   1.2016 B( 65-C ,100-H ) :   1.0163
B( 66-C , 67-C ) :   1.2469 B( 66-C , 71-C ) :   1.1945 B( 67-C , 68-C ) :   1.1927
B( 67-C , 74-C ) :   1.2156 B( 68-C , 69-C ) :   1.4411 B( 68-C , 71-C ) :   0.1096
B( 68-C ,101-H ) :   1.0080 B( 69-C , 70-C ) :   1.1882 B( 69-C , 73-F ) :   1.1348
B( 70-C , 71-C ) :   1.4443 B( 70-C , 72-F ) :   1.1357 B( 71-C ,102-H ) :   1.0063
B( 74-C , 75-C ) :   1.4634 B( 74-C ,103-H ) :   0.9837 B( 75-C , 76-C ) :   1.0005
B( 76-C , 77-C ) :   1.6960 B( 77-C , 78-C ) :   1.1584 B( 77-C , 80-C ) :   1.1381
B( 78-C , 79-N ) :   2.9967 B( 80-C , 81-N ) :   2.9812

-----------------------------------------------------------------------------
         ABSORPTION SPECTRUM VIA TRANSITION ELECTRIC DIPOLE MOMENTS
-----------------------------------------------------------------------------
State   Energy  Wavelength   fosc         T2         TX        TY        TZ
        (cm-1)    (nm)                  (au**2)     (au)      (au)      (au)
-----------------------------------------------------------------------------
   0   14057.7    711.4   0.533589532  12.49589  -2.49373  -2.33272  -0.91413
   1   18055.9    553.8   0.246611953   4.49645   2.10095   0.21898  -0.18575
   2   21719.5    460.4   0.143310775   2.17223   1.08656   0.86972  -0.48498
   3   22391.7    446.6   0.119519866   1.75723  -1.13424   0.49535   0.47471
   4   24178.4    413.6   0.104211531   1.41894  -1.10851   0.20312  -0.38585
   5   24557.8    407.2   0.163757659   2.19527  -0.87968   0.38432   1.12859
   6   24806.6    403.1   0.068103859   0.90382  -0.63194  -0.67643  -0.21658
   7   25363.6    394.3   0.006699501   0.08696   0.16318  -0.03509  -0.24310
   8   26595.8    376.0   0.061959500   0.76696  -0.32131   0.15049   0.80067
   9   27246.6    367.0   0.068230170   0.82440  -0.25185  -0.86508   0.11233
  10   27577.9    362.6   0.033805302   0.40355   0.56756   0.19841   0.20508
  11   27764.4    360.2   0.047934466   0.56837   0.64875   0.36385  -0.12291
  12   28097.6    355.9   0.173908429   2.03764  -1.18913  -0.21710  -0.75927
  13   28378.0    352.4   0.083074522   0.96375   0.96893   0.15783  -0.00181
  14   28833.0    346.8   0.135032514   1.54179   0.18897  -0.37774  -1.16764
  15   29343.1    340.8   0.478210164   5.36523   1.56585   1.67289   0.33881
  16   30335.7    329.6   0.157068831   1.70456  -1.04490  -0.76194   0.17941
  17   31016.0    322.4   0.078633865   0.83464  -0.79027   0.43337   0.14935
  18   31102.7    321.5   0.005873105   0.06216  -0.12809   0.16369   0.13770
  19   31619.4    316.3   0.029634595   0.30855   0.11894   0.01732  -0.54231
  20   32045.9    312.1   0.152186264   1.56343  -0.62327  -0.36381   1.02108
  21   32176.1    310.8   0.047619898   0.48723  -0.07572   0.37022   0.58688
  22   32604.4    306.7   0.625760770   6.31842  -0.72962  -2.36701   0.42819
  23   33301.3    300.3   0.049777109   0.49209  -0.42176  -0.43798   0.34982
  24   33514.1    298.4   0.047560960   0.46719  -0.60287  -0.30601   0.10048
  25   33981.4    294.3   0.032370670   0.31361  -0.35448   0.17327   0.39740
  26   34209.6    292.3   0.136865243   1.31711   0.57060   0.54771  -0.83159
  27   34468.7    290.1   0.374924098   3.58092   0.72470   0.11176  -1.74449
  28   34939.6    286.2   0.234687764   2.21130  -1.12797  -0.52821   0.81239
  29   35495.5    281.7   0.233065303   2.16162   1.25220   0.76957   0.03720
  30   35705.3    280.1   0.078184944   0.72088   0.71729   0.40781  -0.20018
  31   36110.3    276.9   0.073715917   0.67206   0.15465   0.59186  -0.54574
  32   36143.6    276.7   0.130513257   1.18877  -0.75016   0.76775   0.19130
  33   36402.2    274.7   0.087708368   0.79321  -0.28300  -0.64483   0.54526
  34   36609.9    273.2   0.013291718   0.11952   0.03959   0.21658   0.26656
  35   36840.7    271.4   0.028534086   0.25498   0.17375  -0.34604   0.32412
  36   37015.4    270.2   0.018372612   0.16340  -0.16742   0.07325  -0.36057
  37   37286.9    268.2   0.053488711   0.47226  -0.62643  -0.06198   0.27569
  38   37456.6    267.0   0.174359186   1.53247  -0.63667  -0.20350  -1.04198
  39   37631.4    265.7   0.071512177   0.62561  -0.72770  -0.02561  -0.30889
  40   38133.2    262.2   0.012997343   0.11221  -0.09778  -0.20302  -0.24785
  41   38233.9    261.5   0.000511402   0.00440  -0.01281   0.06181   0.02047
  42   39344.2    254.2   0.248797595   2.08181  -0.97124  -1.05841  -0.13518
  43   39709.3    251.8   0.053178100   0.44088   0.66041   0.05313  -0.04374
  44   39906.0    250.6   0.042154720   0.34776  -0.45684   0.37245  -0.01861
  45   40294.6    248.2   0.218361994   1.78404   1.10141   0.12777   0.74472

FINAL SINGLE POINT ENERGY     -4106.229364606312

DIPOLE MOMENT
-------------
                                X             Y             Z
Electronic contribution:     -2.16964       5.79661      -8.13798
Nuclear contribution   :      3.08464      -4.36443       5.62102
                        -----------------------------------------
Total Dipole Moment    :      0.91499       1.43218      -2.51696
                        -----------------------------------------
Magnitude (a.u.)       :      3.03701
Magnitude (Debye)      :      7.71947

Rotational constants in cm-1:     0.001261     0.000305     0.000265
Rotational constants in MHz :    37.793248     9.133769     7.942653

                             ****ORCA TERMINATED NORMALLY****
TOTAL RUN TIME: 0 days 0 hours 12 minutes 36 seconds 211 msec
