                         Program Version 4.2.0 -  RELEASE  -
|  1> # ORCA input file
|  2> # SCF done       -206.709575777188          0.000683542264
|  3> ! CAM-B3LYP def2-SVP def2/J RIJCOSX Grid4 TightSCF
|  4> %maxcore 5000
|  5> %tddft
|  6>     Mode sTDDFT
|  7>     Ethresh 5.0
|  8>     maxcore 5000
|  9> end
| 10>
| 11> %pal
| 12>   nprocs 6
| 13>   end
| 14> * xyz 0 1
| 15>    C       -0.92626         2.92896         5.43583
| 16>    C       -1.43481         4.19581         5.37097
| 17>    F       -0.85389         5.19026         6.05390
| 18>    C       -2.57332         4.47259         4.58732
| 19>    F       -3.04940         5.72366         4.54164
| 20>    C       -3.18898         3.47767         3.88071
| 21>    C       -2.68946         2.16174         3.92816
| 22>    C       -1.53654         1.88099         4.71748
| 23>    C       -1.01335         0.56926         4.77608
| 24>    C       -1.62609        -0.43229         4.06918
| 25>    C       -2.78288        -0.14486         3.29533
| 26>    C       -3.30856         1.11249         3.21393
| 27>    C       -3.27103        -1.38073         2.65528
| 28>    O       -4.22153        -1.45427         1.90407
| 29>    C       -2.37542        -2.46148         3.13189
| 30>    C       -1.32001        -1.85255         3.93018
| 31>    C       -0.19706        -2.46146         4.42624
| 32>    C        0.78988        -1.79474         5.18460
| 33>    N        1.62596        -1.31717         5.80934
| 34>    C        0.17563        -3.81064         4.24218
| 35>    N        0.56588        -4.88553         4.13288
| 36>    C       -2.50649        -3.81418         2.97268
| 37>    C       -3.44406        -4.59043         2.26027
| 38>    S       -3.28764        -6.32755         2.40981
| 39>    C       -4.64919        -6.59485         1.38322
| 40>    C       -5.19606        -5.38556         0.94206
| 41>    C       -4.50847        -4.27518         1.43298
| 42>    C       -6.48555        -5.29961         0.19782
| 43>    O       -7.35872        -6.11600         0.37109
| 44>    C       -6.62249        -4.11164        -0.70554
| 45>    C       -5.05843        -7.89459         0.96331
| 46>    N       -5.04389        -9.03570         1.72445
| 47>    C       -4.66673        -9.17362         3.11087
| 48>    C       -3.22392        -9.65019         3.25466
| 49>    C       -5.51935       -10.14648         1.00156
| 50>    O       -5.61612       -11.26005         1.48022
| 51>    C       -5.81253        -9.62442        -0.31232
| 52>    C       -5.51680        -8.23868        -0.30036
| 53>    C       -5.75616        -7.71355        -1.62595
| 54>    O       -5.59349        -6.61213        -2.10683
| 55>    N       -6.23537        -8.82003        -2.35010
| 56>    C       -6.58597        -8.70231        -3.74417
| 57>    C       -5.47905        -9.22609        -4.65640
| 58>    C       -6.26874        -9.96362        -1.58613
| 59>    C       -6.71005       -11.22332        -2.06308
| 60>    C       -6.70644       -12.32619        -1.27016
| 61>    C       -7.12922       -13.62242        -1.65999
| 62>    S       -7.06182       -14.90265        -0.48171
| 63>    C       -7.67952       -16.05456        -1.61722
| 64>    C       -7.91129       -15.46210        -2.86036
| 65>    C       -7.60988       -14.09275        -2.86534
| 66>    C       -8.46819       -16.23632        -3.98748
| 67>    O       -8.81747       -17.38772        -3.86036
| 68>    C       -8.56804       -15.50301        -5.29962
| 69>    C       -7.81955       -17.42865        -1.27683
| 70>    C       -8.16109       -17.94549        -0.07039
| 71>    C       -7.82429       -19.36070         0.26346
| 72>    O       -7.46297       -20.22045        -0.50189
| 73>    C       -7.95297       -19.44566         1.73340
| 74>    C       -7.63384       -20.48309         2.56172
| 75>    C       -7.80799       -20.32813         3.95523
| 76>    C       -8.30338       -19.09274         4.46599
| 77>    C       -8.46422       -18.94186         5.85815
| 78>    C       -8.15252       -19.96968         6.70298
| 79>    C       -7.66533       -21.19184         6.19675
| 80>    C       -7.49615       -21.36857         4.85215
| 81>    F       -7.36709       -22.18175         7.04830
| 82>    F       -8.30707       -19.82479         8.02516
| 83>    C       -8.63152       -18.03825         3.58416
| 84>    C       -8.46656       -18.21587         2.23630
| 85>    C       -8.74418       -17.33232         1.10840
| 86>    C       -9.60625       -16.26965         1.12698
| 87>    C      -10.03489       -15.58359        -0.02907
| 88>    N      -10.43812       -15.01648        -0.94177
| 89>    C      -10.23180       -15.79242         2.29804
| 90>    N      -10.75714       -15.36793         3.22545
| 91>    H       -0.05327         2.73469         6.03911
| 92>    H       -4.05986         3.70585         3.28644
| 93>    H       -0.14229         0.39141         5.38506
| 94>    H       -4.18577         1.30209         2.61409
| 95>    H       -1.77894        -4.42186         3.49773
| 96>    H       -4.77515        -3.25524         1.22738
| 97>    H       -7.58694        -4.14558        -1.20431
| 98>    H       -5.82734        -4.14086        -1.44687
| 99>    H       -6.53580        -3.18841        -0.13759
|100>    H       -5.33640        -9.92247         3.54403
|101>    H       -4.81908        -8.22107         3.62230
|102>    H       -3.11067       -10.62060         2.77827
|103>    H       -2.97262        -9.74627         4.30672
|104>    H       -2.53247        -8.94883         2.79363
|105>    H       -6.73657        -7.63502        -3.92813
|106>    H       -7.52755        -9.22646        -3.92971
|107>    H       -4.56592        -8.65932        -4.49298
|108>    H       -5.77484        -9.11472        -5.69588
|109>    H       -5.27312       -10.27604        -4.45947
|110>    H       -7.06240       -11.28408        -3.08179
|111>    H       -6.35594       -12.23281        -0.25036
|112>    H       -7.74584       -13.45584        -3.71924
|113>    H       -7.60218       -15.09095        -5.58260
|114>    H       -9.28311       -14.68855        -5.20233
|115>    H       -8.91274       -16.18928        -6.06847
|116>    H       -7.57332       -18.14655        -2.05391
|117>    H       -7.25259       -21.40928         2.15955
|118>    H       -8.83921       -18.01436         6.26181
|119>    H       -7.12175       -22.30973         4.48103
|120>    H       -8.99463       -17.11010         3.99592
|121> *
|122>
|123>                          ****END OF INPUT****

CARTESIAN COORDINATES (ANGSTROEM)
---------------------------------
  C     -0.926260    2.928960    5.435830
  C     -1.434810    4.195810    5.370970
  F     -0.853890    5.190260    6.053900
  C     -2.573320    4.472590    4.587320
  F     -3.049400    5.723660    4.541640
  C     -3.188980    3.477670    3.880710
  C     -2.689460    2.161740    3.928160
  C     -1.536540    1.880990    4.717480
  C     -1.013350    0.569260    4.776080
  C     -1.626090   -0.432290    4.069180
  C     -2.782880   -0.144860    3.295330
  C     -3.308560    1.112490    3.213930
  C     -3.271030   -1.380730    2.655280
  O     -4.221530   -1.454270    1.904070
  C     -2.375420   -2.461480    3.131890
  C     -1.320010   -1.852550    3.930180
  C     -0.197060   -2.461460    4.426240
  C      0.789880   -1.794740    5.184600
  N      1.625960   -1.317170    5.809340
  C      0.175630   -3.810640    4.242180
  N      0.565880   -4.885530    4.132880
  C     -2.506490   -3.814180    2.972680
  C     -3.444060   -4.590430    2.260270
  S     -3.287640   -6.327550    2.409810
  C     -4.649190   -6.594850    1.383220
  C     -5.196060   -5.385560    0.942060
  C     -4.508470   -4.275180    1.432980
  C     -6.485550   -5.299610    0.197820
  O     -7.358720   -6.116000    0.371090
  C     -6.622490   -4.111640   -0.705540
  C     -5.058430   -7.894590    0.963310
  N     -5.043890   -9.035700    1.724450
  C     -4.666730   -9.173620    3.110870
  C     -3.223920   -9.650190    3.254660
  C     -5.519350  -10.146480    1.001560
  O     -5.616120  -11.260050    1.480220
  C     -5.812530   -9.624420   -0.312320
  C     -5.516800   -8.238680   -0.300360
  C     -5.756160   -7.713550   -1.625950
  O     -5.593490   -6.612130   -2.106830
  N     -6.235370   -8.820030   -2.350100
  C     -6.585970   -8.702310   -3.744170
  C     -5.479050   -9.226090   -4.656400
  C     -6.268740   -9.963620   -1.586130
  C     -6.710050  -11.223320   -2.063080
  C     -6.706440  -12.326190   -1.270160
  C     -7.129220  -13.622420   -1.659990
  S     -7.061820  -14.902650   -0.481710
  C     -7.679520  -16.054560   -1.617220
  C     -7.911290  -15.462100   -2.860360
  C     -7.609880  -14.092750   -2.865340
  C     -8.468190  -16.236320   -3.987480
  O     -8.817470  -17.387720   -3.860360
  C     -8.568040  -15.503010   -5.299620
  C     -7.819550  -17.428650   -1.276830
  C     -8.161090  -17.945490   -0.070390
  C     -7.824290  -19.360700    0.263460
  O     -7.462970  -20.220450   -0.501890
  C     -7.952970  -19.445660    1.733400
  C     -7.633840  -20.483090    2.561720
  C     -7.807990  -20.328130    3.955230
  C     -8.303380  -19.092740    4.465990
  C     -8.464220  -18.941860    5.858150
  C     -8.152520  -19.969680    6.702980
  C     -7.665330  -21.191840    6.196750
  C     -7.496150  -21.368570    4.852150
  F     -7.367090  -22.181750    7.048300
  F     -8.307070  -19.824790    8.025160
  C     -8.631520  -18.038250    3.584160
  C     -8.466560  -18.215870    2.236300
  C     -8.744180  -17.332320    1.108400
  C     -9.606250  -16.269650    1.126980
  C    -10.034890  -15.583590   -0.029070
  N    -10.438120  -15.016480   -0.941770
  C    -10.231800  -15.792420    2.298040
  N    -10.757140  -15.367930    3.225450
  H     -0.053270    2.734690    6.039110
  H     -4.059860    3.705850    3.286440
  H     -0.142290    0.391410    5.385060
  H     -4.185770    1.302090    2.614090
  H     -1.778940   -4.421860    3.497730
  H     -4.775150   -3.255240    1.227380
  H     -7.586940   -4.145580   -1.204310
  H     -5.827340   -4.140860   -1.446870
  H     -6.535800   -3.188410   -0.137590
  H     -5.336400   -9.922470    3.544030
  H     -4.819080   -8.221070    3.622300
  H     -3.110670  -10.620600    2.778270
  H     -2.972620   -9.746270    4.306720
  H     -2.532470   -8.948830    2.793630
  H     -6.736570   -7.635020   -3.928130
  H     -7.527550   -9.226460   -3.929710
  H     -4.565920   -8.659320   -4.492980
  H     -5.774840   -9.114720   -5.695880
  H     -5.273120  -10.276040   -4.459470
  H     -7.062400  -11.284080   -3.081790
  H     -6.355940  -12.232810   -0.250360
  H     -7.745840  -13.455840   -3.719240
  H     -7.602180  -15.090950   -5.582600
  H     -9.283110  -14.688550   -5.202330
  H     -8.912740  -16.189280   -6.068470
  H     -7.573320  -18.146550   -2.053910
  H     -7.252590  -21.409280    2.159550
  H     -8.839210  -18.014360    6.261810
  H     -7.121750  -22.309730    4.481030
  H     -8.994630  -17.110100    3.995920

 Total Charge           Charge          ....    0
 Multiplicity           Mult            ....    1
 Number of Electrons    NEL             ....  536
 Basis Dimension        Dim             .... 1222

ORBITAL ENERGIES
----------------

  NO   OCC          E(Eh)            E(eV)
   0   2.0000     -88.987987     -2421.4862
   1   2.0000     -88.983708     -2421.3698
   2   2.0000     -24.802185      -674.9018
   3   2.0000     -24.801132      -674.8731
   4   2.0000     -24.799489      -674.8284
   5   2.0000     -24.798775      -674.8090
   6   2.0000     -19.228791      -523.2420
   7   2.0000     -19.218806      -522.9703
   8   2.0000     -19.218074      -522.9504
   9   2.0000     -19.203186      -522.5453
  10   2.0000     -19.201617      -522.5026
  11   2.0000     -19.197331      -522.3859
  12   2.0000     -14.462325      -393.5399
  13   2.0000     -14.462013      -393.5314
  14   2.0000     -14.423978      -392.4964
  15   2.0000     -14.420649      -392.4058
  16   2.0000     -14.419431      -392.3727
  17   2.0000     -14.418379      -392.3440
  18   2.0000     -10.385694      -282.6091
  19   2.0000     -10.384967      -282.5893
  20   2.0000     -10.383011      -282.5361
  21   2.0000     -10.382777      -282.5297
  22   2.0000     -10.382360      -282.5184
  23   2.0000     -10.379677      -282.4454
  24   2.0000     -10.379629      -282.4441
  25   2.0000     -10.372081      -282.2387
  26   2.0000     -10.370301      -282.1902
  27   2.0000     -10.360827      -281.9324
  28   2.0000     -10.350930      -281.6631
  29   2.0000     -10.349668      -281.6288
  30   2.0000     -10.349526      -281.6249
  31   2.0000     -10.348888      -281.6076
  32   2.0000     -10.348639      -281.6008
  33   2.0000     -10.345975      -281.5283
  34   2.0000     -10.341747      -281.4132
  35   2.0000     -10.334466      -281.2151
  36   2.0000     -10.333053      -281.1767
  37   2.0000     -10.329015      -281.0668
  38   2.0000     -10.327709      -281.0312
  39   2.0000     -10.326598      -281.0010
  40   2.0000     -10.323601      -280.9195
  41   2.0000     -10.323144      -280.9070
  42   2.0000     -10.321479      -280.8617
  43   2.0000     -10.320231      -280.8278
  44   2.0000     -10.317028      -280.7406
  45   2.0000     -10.315219      -280.6914
  46   2.0000     -10.314912      -280.6830
  47   2.0000     -10.312541      -280.6185
  48   2.0000     -10.312526      -280.6181
  49   2.0000     -10.312342      -280.6131
  50   2.0000     -10.312196      -280.6091
  51   2.0000     -10.310539      -280.5640
  52   2.0000     -10.310504      -280.5631
  53   2.0000     -10.308377      -280.5052
  54   2.0000     -10.307742      -280.4879
  55   2.0000     -10.307258      -280.4748
  56   2.0000     -10.305300      -280.4215
  57   2.0000     -10.304847      -280.4092
  58   2.0000     -10.304676      -280.4045
  59   2.0000     -10.304503      -280.3998
  60   2.0000     -10.304463      -280.3987
  61   2.0000     -10.303766      -280.3797
  62   2.0000     -10.303178      -280.3637
  63   2.0000     -10.302787      -280.3531
  64   2.0000     -10.302497      -280.3452
  65   2.0000     -10.301789      -280.3259
  66   2.0000     -10.299884      -280.2741
  67   2.0000     -10.299268      -280.2573
  68   2.0000     -10.298575      -280.2385
  69   2.0000     -10.296217      -280.1743
  70   2.0000     -10.278578      -279.6943
  71   2.0000     -10.272474      -279.5282
  72   2.0000     -10.270426      -279.4725
  73   2.0000     -10.267155      -279.3835
  74   2.0000     -10.263481      -279.2835
  75   2.0000     -10.258961      -279.1605
  76   2.0000      -8.082998      -219.9496
  77   2.0000      -8.078744      -219.8338
  78   2.0000      -6.052077      -164.6854
  79   2.0000      -6.047905      -164.5718
  80   2.0000      -6.047863      -164.5707
  81   2.0000      -6.045548      -164.5077
  82   2.0000      -6.043688      -164.4571
  83   2.0000      -6.041217      -164.3899
  84   2.0000      -1.324770       -36.0488
  85   2.0000      -1.322208       -35.9791
  86   2.0000      -1.309888       -35.6439
  87   2.0000      -1.307325       -35.5741
  88   2.0000      -1.143498       -31.1162
  89   2.0000      -1.142909       -31.1001
  90   2.0000      -1.136412       -30.9234
  91   2.0000      -1.135262       -30.8921
  92   2.0000      -1.134828       -30.8802
  93   2.0000      -1.122402       -30.5421
  94   2.0000      -1.073073       -29.1998
  95   2.0000      -1.064932       -28.9783
  96   2.0000      -1.026909       -27.9436
  97   2.0000      -1.025198       -27.8970
  98   2.0000      -1.011232       -27.5170
  99   2.0000      -1.011039       -27.5118
 100   2.0000      -1.010103       -27.4863
 101   2.0000      -1.006239       -27.3812
 102   2.0000      -1.000635       -27.2287
 103   2.0000      -0.996328       -27.1115
 104   2.0000      -0.986881       -26.8544
 105   2.0000      -0.983811       -26.7709
 106   2.0000      -0.939403       -25.5625
 107   2.0000      -0.938470       -25.5371
 108   2.0000      -0.935468       -25.4554
 109   2.0000      -0.925181       -25.1755
 110   2.0000      -0.916452       -24.9379
 111   2.0000      -0.906860       -24.6769
 112   2.0000      -0.899339       -24.4723
 113   2.0000      -0.895065       -24.3560
 114   2.0000      -0.894031       -24.3278
 115   2.0000      -0.886252       -24.1161
 116   2.0000      -0.883387       -24.0382
 117   2.0000      -0.876334       -23.8463
 118   2.0000      -0.875862       -23.8334
 119   2.0000      -0.857263       -23.3273
 120   2.0000      -0.845446       -23.0058
 121   2.0000      -0.843812       -22.9613
 122   2.0000      -0.842323       -22.9208
 123   2.0000      -0.829442       -22.5703
 124   2.0000      -0.827136       -22.5075
 125   2.0000      -0.818978       -22.2855
 126   2.0000      -0.817039       -22.2328
 127   2.0000      -0.807205       -21.9652
 128   2.0000      -0.782851       -21.3024
 129   2.0000      -0.774411       -21.0728
 130   2.0000      -0.773151       -21.0385
 131   2.0000      -0.768229       -20.9046
 132   2.0000      -0.766861       -20.8673
 133   2.0000      -0.745344       -20.2818
 134   2.0000      -0.740895       -20.1608
 135   2.0000      -0.728306       -19.8182
 136   2.0000      -0.724644       -19.7186
 137   2.0000      -0.720036       -19.5932
 138   2.0000      -0.717365       -19.5205
 139   2.0000      -0.716770       -19.5043
 140   2.0000      -0.713716       -19.4212
 141   2.0000      -0.699080       -19.0229
 142   2.0000      -0.693250       -18.8643
 143   2.0000      -0.688349       -18.7309
 144   2.0000      -0.686963       -18.6932
 145   2.0000      -0.679291       -18.4845
 146   2.0000      -0.671766       -18.2797
 147   2.0000      -0.661635       -18.0040
 148   2.0000      -0.659819       -17.9546
 149   2.0000      -0.658246       -17.9118
 150   2.0000      -0.651425       -17.7262
 151   2.0000      -0.647834       -17.6285
 152   2.0000      -0.644223       -17.5302
 153   2.0000      -0.642664       -17.4878
 154   2.0000      -0.637090       -17.3361
 155   2.0000      -0.632163       -17.2020
 156   2.0000      -0.625300       -17.0153
 157   2.0000      -0.617381       -16.7998
 158   2.0000      -0.616234       -16.7686
 159   2.0000      -0.605195       -16.4682
 160   2.0000      -0.598419       -16.2838
 161   2.0000      -0.597560       -16.2604
 162   2.0000      -0.593548       -16.1513
 163   2.0000      -0.589234       -16.0339
 164   2.0000      -0.587294       -15.9811
 165   2.0000      -0.586673       -15.9642
 166   2.0000      -0.585965       -15.9449
 167   2.0000      -0.584195       -15.8967
 168   2.0000      -0.581166       -15.8143
 169   2.0000      -0.577101       -15.7037
 170   2.0000      -0.566066       -15.4035
 171   2.0000      -0.564646       -15.3648
 172   2.0000      -0.560427       -15.2500
 173   2.0000      -0.557687       -15.1754
 174   2.0000      -0.556032       -15.1304
 175   2.0000      -0.554836       -15.0979
 176   2.0000      -0.553450       -15.0601
 177   2.0000      -0.550721       -14.9859
 178   2.0000      -0.548583       -14.9277
 179   2.0000      -0.548255       -14.9188
 180   2.0000      -0.546767       -14.8783
 181   2.0000      -0.544305       -14.8113
 182   2.0000      -0.542715       -14.7680
 183   2.0000      -0.540610       -14.7108
 184   2.0000      -0.539582       -14.6828
 185   2.0000      -0.536763       -14.6061
 186   2.0000      -0.535142       -14.5620
 187   2.0000      -0.532329       -14.4854
 188   2.0000      -0.531295       -14.4573
 189   2.0000      -0.529947       -14.4206
 190   2.0000      -0.527992       -14.3674
 191   2.0000      -0.525220       -14.2920
 192   2.0000      -0.524769       -14.2797
 193   2.0000      -0.521763       -14.1979
 194   2.0000      -0.519490       -14.1360
 195   2.0000      -0.518230       -14.1018
 196   2.0000      -0.516125       -14.0445
 197   2.0000      -0.513620       -13.9763
 198   2.0000      -0.510789       -13.8993
 199   2.0000      -0.509980       -13.8772
 200   2.0000      -0.504884       -13.7386
 201   2.0000      -0.504696       -13.7335
 202   2.0000      -0.500842       -13.6286
 203   2.0000      -0.499649       -13.5961
 204   2.0000      -0.496328       -13.5058
 205   2.0000      -0.495180       -13.4745
 206   2.0000      -0.493326       -13.4241
 207   2.0000      -0.489161       -13.3108
 208   2.0000      -0.485974       -13.2240
 209   2.0000      -0.484916       -13.1952
 210   2.0000      -0.484429       -13.1820
 211   2.0000      -0.480659       -13.0794
 212   2.0000      -0.478195       -13.0123
 213   2.0000      -0.474552       -12.9132
 214   2.0000      -0.472501       -12.8574
 215   2.0000      -0.469002       -12.7622
 216   2.0000      -0.467580       -12.7235
 217   2.0000      -0.466806       -12.7024
 218   2.0000      -0.466238       -12.6870
 219   2.0000      -0.463907       -12.6236
 220   2.0000      -0.462637       -12.5890
 221   2.0000      -0.459140       -12.4938
 222   2.0000      -0.455333       -12.3902
 223   2.0000      -0.454919       -12.3790
 224   2.0000      -0.453946       -12.3525
 225   2.0000      -0.453241       -12.3333
 226   2.0000      -0.451620       -12.2892
 227   2.0000      -0.449568       -12.2334
 228   2.0000      -0.448333       -12.1998
 229   2.0000      -0.445766       -12.1299
 230   2.0000      -0.445134       -12.1127
 231   2.0000      -0.440195       -11.9783
 232   2.0000      -0.439168       -11.9504
 233   2.0000      -0.438559       -11.9338
 234   2.0000      -0.435684       -11.8556
 235   2.0000      -0.434919       -11.8348
 236   2.0000      -0.433122       -11.7858
 237   2.0000      -0.430588       -11.7169
 238   2.0000      -0.430323       -11.7097
 239   2.0000      -0.428600       -11.6628
 240   2.0000      -0.427599       -11.6356
 241   2.0000      -0.425790       -11.5863
 242   2.0000      -0.421591       -11.4721
 243   2.0000      -0.417701       -11.3662
 244   2.0000      -0.413603       -11.2547
 245   2.0000      -0.404936       -11.0189
 246   2.0000      -0.402315       -10.9475
 247   2.0000      -0.391343       -10.6490
 248   2.0000      -0.389143       -10.5891
 249   2.0000      -0.378305       -10.2942
 250   2.0000      -0.366211        -9.9651
 251   2.0000      -0.357391        -9.7251
 252   2.0000      -0.355023        -9.6607
 253   2.0000      -0.349632        -9.5140
 254   2.0000      -0.346914        -9.4400
 255   2.0000      -0.345923        -9.4130
 256   2.0000      -0.340908        -9.2766
 257   2.0000      -0.339905        -9.2493
 258   2.0000      -0.331838        -9.0298
 259   2.0000      -0.328882        -8.9493
 260   2.0000      -0.323235        -8.7957
 261   2.0000      -0.319782        -8.7017
 262   2.0000      -0.318727        -8.6730
 263   2.0000      -0.311732        -8.4827
 264   2.0000      -0.305013        -8.2998
 265   2.0000      -0.299307        -8.1446
 266   2.0000      -0.294228        -8.0064
 267   2.0000      -0.244347        -6.6490
 268   0.0000      -0.114460        -3.1146
 269   0.0000      -0.100385        -2.7316
 270   0.0000      -0.077654        -2.1131
 271   0.0000      -0.065666        -1.7869
 272   0.0000      -0.059098        -1.6081

MULLIKEN ATOMIC CHARGES
-----------------------
   0 C :   -0.109421
   1 C :    0.244339
   2 F :   -0.169525
   3 C :    0.240358
   4 F :   -0.170732
   5 C :   -0.105374
   6 C :    0.117389
   7 C :    0.114151
   8 C :   -0.081728
   9 C :    0.051122
  10 C :   -0.001340
  11 C :   -0.082325
  12 C :    0.163522
  13 O :   -0.155552
  14 C :   -0.085047
  15 C :    0.313514
  16 C :   -0.356217
  17 C :   -0.181495
  18 N :    0.148513
  19 C :   -0.190021
  20 N :    0.154798
  21 C :    0.060475
  22 C :   -0.088775
  23 S :    0.168705
  24 C :   -0.180832
  25 C :    0.097893
  26 C :   -0.032263
  27 C :    0.016261
  28 O :   -0.181094
  29 C :    0.045959
  30 C :    0.128990
  31 N :   -0.253470
  32 C :    0.099232
  33 C :    0.000381
  34 C :    0.176500
  35 O :   -0.217594
  36 C :   -0.082535
  37 C :   -0.004962
  38 C :    0.156492
  39 O :   -0.203717
  40 N :   -0.261964
  41 C :    0.102013
  42 C :    0.004275
  43 C :    0.139934
  44 C :   -0.021608
  45 C :    0.088991
  46 C :   -0.065216
  47 S :    0.207809
  48 C :   -0.216328
  49 C :    0.138323
  50 C :   -0.017531
  51 C :   -0.009427
  52 O :   -0.171326
  53 C :    0.046452
  54 C :    0.089999
  55 C :   -0.141920
  56 C :    0.143772
  57 O :   -0.129904
  58 C :    0.009419
  59 C :   -0.083490
  60 C :    0.114580
  61 C :    0.114221
  62 C :   -0.106598
  63 C :    0.240446
  64 C :    0.240291
  65 C :   -0.103365
  66 F :   -0.170801
  67 F :   -0.170728
  68 C :   -0.079531
  69 C :    0.037904
  70 C :    0.259874
  71 C :   -0.320596
  72 C :   -0.187406
  73 N :    0.171616
  74 C :   -0.181177
  75 N :    0.158950
  76 H :    0.008043
  77 H :    0.000812
  78 H :   -0.005246
  79 H :   -0.009951
  80 H :    0.006944
  81 H :    0.016150
  82 H :    0.025168
  83 H :    0.056357
  84 H :    0.041788
  85 H :    0.040343
  86 H :    0.029282
  87 H :    0.033799
  88 H :    0.025852
  89 H :    0.019581
  90 H :    0.044125
  91 H :    0.024472
  92 H :    0.031774
  93 H :    0.024765
  94 H :    0.012646
  95 H :   -0.029356
  96 H :    0.007934
  97 H :   -0.014027
  98 H :    0.037193
  99 H :    0.050316
 100 H :    0.038459
 101 H :    0.050659
 102 H :   -0.007472
 103 H :    0.006565
 104 H :    0.000069
 105 H :   -0.001573
Sum of atomic charges:   -0.0000000

LOEWDIN ATOMIC CHARGES
----------------------
   0 C :   -0.028759
   1 C :    0.067520
   2 F :   -0.047539
   3 C :    0.068543
   4 F :   -0.048208
   5 C :   -0.032950
   6 C :   -0.008394
   7 C :   -0.006049
   8 C :    0.018720
   9 C :   -0.023679
  10 C :   -0.052700
  11 C :    0.030796
  12 C :    0.089890
  13 O :   -0.142635
  14 C :   -0.093820
  15 C :    0.076472
  16 C :   -0.139504
  17 C :   -0.017055
  18 N :   -0.051606
  19 C :   -0.024846
  20 N :   -0.049067
  21 C :    0.049451
  22 C :   -0.179379
  23 S :    0.499442
  24 C :   -0.139263
  25 C :   -0.076064
  26 C :    0.004163
  27 C :    0.090699
  28 O :   -0.139574
  29 C :   -0.072857
  30 C :    0.048646
  31 N :    0.007024
  32 C :    0.031229
  33 C :   -0.063767
  34 C :    0.081950
  35 O :   -0.204189
  36 C :   -0.123652
  37 C :   -0.098273
  38 C :    0.089504
  39 O :   -0.188902
  40 N :    0.000327
  41 C :    0.037251
  42 C :   -0.061140
  43 C :    0.087998
  44 C :   -0.043890
  45 C :    0.017757
  46 C :   -0.157966
  47 S :    0.508113
  48 C :   -0.148191
  49 C :   -0.075209
  50 C :   -0.025982
  51 C :    0.088481
  52 O :   -0.128908
  53 C :   -0.074518
  54 C :    0.060085
  55 C :   -0.085918
  56 C :    0.084160
  57 O :   -0.130798
  58 C :   -0.054175
  59 C :    0.031618
  60 C :   -0.008590
  61 C :   -0.005219
  62 C :   -0.029700
  63 C :    0.067506
  64 C :    0.067570
  65 C :   -0.032410
  66 F :   -0.048645
  67 F :   -0.048090
  68 C :    0.016236
  69 C :   -0.020696
  70 C :    0.061401
  71 C :   -0.133146
  72 C :   -0.027189
  73 N :   -0.046052
  74 C :   -0.018421
  75 N :   -0.046505
  76 H :    0.048118
  77 H :    0.045212
  78 H :    0.040275
  79 H :    0.040245
  80 H :    0.043248
  81 H :    0.034027
  82 H :    0.038671
  83 H :    0.049076
  84 H :    0.041480
  85 H :    0.037726
  86 H :    0.018766
  87 H :    0.032362
  88 H :    0.032115
  89 H :    0.012944
  90 H :    0.038784
  91 H :    0.023726
  92 H :    0.033331
  93 H :    0.031098
  94 H :    0.020843
  95 H :    0.027970
  96 H :    0.037735
  97 H :    0.030976
  98 H :    0.040578
  99 H :    0.048432
 100 H :    0.043088
 101 H :    0.056483
 102 H :    0.041223
 103 H :    0.047598
 104 H :    0.045123
 105 H :    0.040286

  Mayer bond orders larger than 0.100000
B(  0-C ,  1-C ) :   1.4414 B(  0-C ,  5-C ) :   0.1085 B(  0-C ,  7-C ) :   1.1868
B(  0-C , 76-H ) :   1.0076 B(  1-C ,  2-F ) :   1.1363 B(  1-C ,  3-C ) :   1.1898
B(  3-C ,  4-F ) :   1.1343 B(  3-C ,  5-C ) :   1.4420 B(  5-C ,  6-C ) :   1.1923
B(  5-C , 77-H ) :   1.0078 B(  6-C ,  7-C ) :   1.2543 B(  6-C , 11-C ) :   1.1876
B(  7-C ,  8-C ) :   1.2191 B(  8-C ,  9-C ) :   1.4466 B(  8-C , 78-H ) :   0.9900
B(  9-C , 10-C ) :   1.2213 B(  9-C , 15-C ) :   0.9810 B( 10-C , 11-C ) :   1.4684
B( 10-C , 12-C ) :   0.9539 B( 11-C , 79-H ) :   1.0171 B( 12-C , 13-O ) :   2.1602
B( 12-C , 14-C ) :   0.9383 B( 13-O , 81-H ) :   0.1024 B( 14-C , 15-C ) :   1.0786
B( 14-C , 21-C ) :   1.5951 B( 15-C , 16-C ) :   1.6254 B( 16-C , 17-C ) :   1.1485
B( 16-C , 19-C ) :   1.1385 B( 17-C , 18-N ) :   2.9622 B( 19-C , 20-N ) :   2.9726
B( 21-C , 22-C ) :   1.2070 B( 21-C , 80-H ) :   0.9097 B( 22-C , 23-S ) :   1.0920
B( 22-C , 24-C ) :   0.1062 B( 22-C , 26-C ) :   1.4343 B( 23-S , 24-C ) :   1.1823
B( 24-C , 25-C ) :   1.4520 B( 24-C , 30-C ) :   1.0711 B( 25-C , 26-C ) :   1.2795
B( 25-C , 27-C ) :   0.8899 B( 26-C , 81-H ) :   0.9693 B( 27-C , 28-O ) :   2.1890
B( 27-C , 29-C ) :   1.0505 B( 29-C , 82-H ) :   0.9453 B( 29-C , 83-H ) :   0.9485
B( 29-C , 84-H ) :   0.9367 B( 30-C , 31-N ) :   1.2002 B( 30-C , 37-C ) :   1.4089
B( 31-N , 32-C ) :   0.9397 B( 31-N , 34-C ) :   1.0554 B( 32-C , 33-C ) :   1.1161
B( 32-C , 85-H ) :   0.9307 B( 32-C , 86-H ) :   0.9477 B( 33-C , 87-H ) :   0.9644
B( 33-C , 88-H ) :   0.9668 B( 33-C , 89-H ) :   0.9634 B( 34-C , 35-O ) :   1.9989
B( 34-C , 36-C ) :   0.9977 B( 35-O , 96-H ) :   0.1240 B( 36-C , 37-C ) :   1.2501
B( 36-C , 43-C ) :   1.3265 B( 37-C , 38-C ) :   0.9701 B( 38-C , 39-O ) :   2.0855
B( 38-C , 40-N ) :   1.0431 B( 40-N , 41-C ) :   0.9451 B( 40-N , 43-C ) :   1.1613
B( 41-C , 42-C ) :   1.1207 B( 41-C , 90-H ) :   0.9282 B( 41-C , 91-H ) :   0.9497
B( 42-C , 92-H ) :   0.9631 B( 42-C , 93-H ) :   0.9681 B( 42-C , 94-H ) :   0.9685
B( 43-C , 44-C ) :   1.1715 B( 44-C , 45-C ) :   1.6173 B( 44-C , 95-H ) :   0.9625
B( 45-C , 46-C ) :   1.1247 B( 45-C , 96-H ) :   0.9306 B( 46-C , 47-S ) :   1.1361
B( 46-C , 50-C ) :   1.4679 B( 47-S , 48-C ) :   1.1738 B( 48-C , 49-C ) :   1.4377
B( 48-C , 54-C ) :   1.0853 B( 49-C , 50-C ) :   1.2746 B( 49-C , 51-C ) :   0.9131
B( 50-C , 97-H ) :   0.9800 B( 51-C , 52-O ) :   2.1499 B( 51-C , 53-C ) :   1.0811
B( 53-C , 98-H ) :   0.9484 B( 53-C , 99-H ) :   0.9366 B( 53-C ,100-H ) :   0.9451
B( 54-C , 55-C ) :   1.6999 B( 54-C ,101-H ) :   0.9262 B( 55-C , 56-C ) :   0.9285
B( 55-C , 70-C ) :   1.0205 B( 56-C , 57-O ) :   2.2875 B( 56-C , 58-C ) :   0.9160
B( 58-C , 59-C ) :   1.4737 B( 58-C , 69-C ) :   1.2203 B( 59-C , 60-C ) :   1.1963
B( 59-C ,102-H ) :   1.0158 B( 60-C , 61-C ) :   1.2541 B( 60-C , 65-C ) :   1.1938
B( 61-C , 62-C ) :   1.1873 B( 61-C , 68-C ) :   1.2195 B( 62-C , 63-C ) :   1.4441
B( 62-C , 65-C ) :   0.1089 B( 62-C ,103-H ) :   1.0066 B( 63-C , 64-C ) :   1.1904
B( 63-C , 67-F ) :   1.1349 B( 64-C , 65-C ) :   1.4442 B( 64-C , 66-F ) :   1.1343
B( 65-C ,104-H ) :   1.0065 B( 68-C , 69-C ) :   1.4536 B( 68-C ,105-H ) :   0.9932
B( 69-C , 70-C ) :   1.0000 B( 70-C , 71-C ) :   1.6728 B( 71-C , 72-C ) :   1.1573
B( 71-C , 74-C ) :   1.1329 B( 72-C , 73-N ) :   3.0102 B( 74-C , 75-N ) :   2.9895

-----------------------------------------------------------------------------
         ABSORPTION SPECTRUM VIA TRANSITION ELECTRIC DIPOLE MOMENTS
-----------------------------------------------------------------------------
State   Energy  Wavelength   fosc         T2         TX        TY        TZ
        (cm-1)    (nm)                  (au**2)     (au)      (au)      (au)
-----------------------------------------------------------------------------
   0   13154.9    760.2   0.969202585  24.25499   1.98498   4.16423   1.72453
   1   17706.2    564.8   0.101018796   1.87825   0.14996  -0.15905   1.35295
   2   21967.7    455.2   0.105774293   1.58515   0.38708   0.25835  -1.16986
   3   23896.1    418.5   0.251798177   3.46898   0.77122   1.46219  -0.85802
   4   24735.5    404.3   0.251805710   3.35136   0.97407   1.27596   0.88004
   5   25509.9    392.0   0.116243823   1.50016  -0.94011  -0.72172  -0.30897
   6   25954.0    385.3   0.017946714   0.22764   0.05609   0.35398  -0.31496
   7   26362.9    379.3   0.139678309   1.74426   0.11843   1.18905  -0.56248
   8   26946.2    371.1   0.041000048   0.50091   0.38018  -0.57181   0.17151
   9   27648.0    361.7   0.051159218   0.60917   0.26260  -0.45426   0.57780
  10   27743.4    360.4   0.053625435   0.63634   0.01856  -0.53756  -0.58908
  11   27893.7    358.5   0.256297464   3.02492   0.39861   1.68197   0.19236
  12   28404.6    352.1   0.158958023   1.84234  -0.09048  -1.23350   0.55913
  13   28587.9    349.8   0.042111436   0.48495  -0.12123  -0.68529   0.02504
  14   28740.7    347.9   0.122768591   1.40626  -0.43317  -0.99053  -0.48731
  15   29064.0    344.1   0.169232391   1.91692   0.06651  -1.28182  -0.51907
  16   29075.5    343.9   0.026797946   0.30342   0.10091   0.53466   0.08593
  17   29115.6    343.5   0.034698718   0.39234  -0.09402   0.41486   0.45977
  18   29322.0    341.0   0.132619414   1.48898   0.25032  -0.69644   0.97020
  19   31264.7    319.8   0.059515915   0.62669  -0.46588   0.63155  -0.10389
  20   31960.2    312.9   0.006817434   0.07022   0.19183   0.06523   0.17079
  21   32674.7    306.0   0.015848406   0.15968   0.02966  -0.21119   0.33793
  22   33072.9    302.4   0.157409584   1.56688   0.28147  -1.02411  -0.66246
  23   33370.2    299.7   1.122351932  11.07251  -0.92395   3.10238  -0.77075
  24   33576.7    297.8   0.203296944   1.99328  -0.40834   0.32238  -1.31248
  25   33603.3    297.6   0.055965656   0.54830  -0.02849  -0.62013  -0.40364
  26   34023.4    293.9   0.038119846   0.36885  -0.43088  -0.30724  -0.29799
  27   34175.9    292.6   0.079820783   0.76890   0.15208  -0.86325  -0.02397
  28   34235.4    292.1   0.055422685   0.53295  -0.08427   0.55532  -0.46634
  29   34334.9    291.2   0.107784430   1.03347  -0.14378   0.44743  -0.90144
  30   34530.6    289.6   0.015178998   0.14472   0.24200  -0.22455   0.18901
  31   34569.0    289.3   0.003734146   0.03556   0.03973   0.09006   0.16085
  32   34769.4    287.6   0.007048979   0.06674   0.22707  -0.09214   0.08182
  33   35423.4    282.3   0.048371942   0.44955   0.62018   0.06393   0.24665
  34   35856.9    278.9   0.086104952   0.79055  -0.28825   0.42883  -0.72358
  35   36127.8    276.8   0.178041893   1.62239  -0.13094   0.79073  -0.98995
  36   36609.9    273.2   0.046638650   0.41939   0.48184  -0.07877   0.42547
  37   36760.4    272.0   0.025669077   0.22988  -0.16965   0.44585   0.04815
  38   37131.5    269.3   0.017415616   0.15441   0.02925  -0.39176  -0.00859
  39   37235.0    268.6   0.113573461   1.00416  -0.11908  -0.70911   0.69795
  40   37445.3    267.1   0.017107801   0.15041   0.37335  -0.09007   0.05391
  41   37708.8    265.2   0.012378489   0.10807  -0.28566  -0.07257  -0.14560
  42   37859.5    264.1   0.209199789   1.81912   0.42319  -1.27992   0.04277
  43   38132.5    262.2   0.162121496   1.39965   1.04188   0.19588   0.52514
  44   38713.8    258.3   0.046742649   0.39749   0.37015  -0.26545   0.43590
  45   38808.9    257.7   0.046755071   0.39662  -0.24324   0.56989   0.11261
  46   39037.1    256.2   0.216810955   1.82843  -0.23187   1.28565  -0.34894
  47   39867.1    250.8   0.188972045   1.56048   0.26219  -0.83582  -0.89059
  48   39979.0    250.1   0.028014303   0.23069  -0.07146  -0.35941  -0.31049
  49   40148.4    249.1   0.053833603   0.44143   0.52631   0.12293   0.38641

FINAL SINGLE POINT ENERGY     -4199.371393580323

DIPOLE MOMENT
-------------
                                X             Y             Z
Electronic contribution:      7.76378       6.09905      60.33972
Nuclear contribution   :     -7.58426      -5.33594     -61.93582
                        -----------------------------------------
Total Dipole Moment    :      0.17952       0.76311      -1.59610
                        -----------------------------------------
Magnitude (a.u.)       :      1.77823
Magnitude (Debye)      :      4.51989

Rotational constants in cm-1:     0.001424     0.000227     0.000206
Rotational constants in MHz :    42.689504     6.819290     6.163730

                             ****ORCA TERMINATED NORMALLY****
TOTAL RUN TIME: 0 days 0 hours 10 minutes 47 seconds 835 msec
