                         Program Version 4.2.0 -  RELEASE  -
|  1> # ORCA input file
|  2> # SCF done       -221.236477760353          0.000687334773
|  3> ! CAM-B3LYP def2-SVP def2/J RIJCOSX Grid4 TightSCF
|  4> %maxcore 5000
|  5> %tddft
|  6>     Mode sTDDFT
|  7>     Ethresh 5.0
|  8>     maxcore 5000
|  9> end
| 10>
| 11> %pal
| 12>   nprocs 6
| 13>   end
| 14> * xyz 0 1
| 15>    C      -11.54874        -0.58750         0.55451
| 16>    C      -12.47847        -0.25831        -0.39077
| 17>    F      -13.61252         0.35938        -0.03461
| 18>    C      -12.25867        -0.56177        -1.75008
| 19>    F      -13.18820        -0.22588        -2.65479
| 20>    C      -11.11142        -1.19047        -2.14460
| 21>    C      -10.13305        -1.54296        -1.19433
| 22>    C      -10.35379        -1.23665         0.18067
| 23>    C       -9.38750        -1.57982         1.15150
| 24>    C       -8.23356        -2.21084         0.76015
| 25>    C       -8.02522        -2.51651        -0.61322
| 26>    C       -8.94009        -2.19521        -1.57396
| 27>    C       -6.73712        -3.20815        -0.77850
| 28>    O       -6.22112        -3.55216        -1.81345
| 29>    C       -6.20114        -3.38286         0.61126
| 30>    C       -7.08837        -2.67762         1.52887
| 31>    C       -6.88756        -2.47923         2.86674
| 32>    C       -5.73403        -2.88029         3.56841
| 33>    N       -4.79986        -3.14770         4.18149
| 34>    C       -7.79140        -1.80502         3.71735
| 35>    N       -8.48119        -1.26604         4.45887
| 36>    C       -5.14231        -4.15982         0.91115
| 37>    C       -4.44955        -4.96802        -0.08460
| 38>    C       -5.19714        -5.86701        -0.84898
| 39>    C       -6.64403        -6.19031        -0.80625
| 40>    O       -7.50782        -5.74911        -0.09570
| 41>    O       -6.88607        -7.13858        -1.73281
| 42>    C       -5.70848        -7.49301        -2.43873
| 43>    C       -4.62461        -6.67269        -1.82262
| 44>    C       -3.26367        -6.62502        -2.07070
| 45>    C       -2.50516        -5.77704        -1.29373
| 46>    C       -3.05613        -4.94591        -0.29697
| 47>    C       -2.10547        -4.14797         0.43754
| 48>    C       -2.28960        -3.15869         1.33977
| 49>    C       -1.16503        -2.57273         1.99545
| 50>    N       -1.26454        -1.60550         2.96319
| 51>    C       -2.47390        -1.02282         3.47652
| 52>    C       -0.00126        -1.21097         3.44869
| 53>    O        0.16594        -0.31752         4.25403
| 54>    C        0.92857        -2.03543         2.72107
| 55>    C        0.19096        -2.84478         1.81785
| 56>    C        1.14759        -3.60748         1.05512
| 57>    O        1.01348        -4.41952         0.15647
| 58>    N        2.40505        -3.21401         1.55280
| 59>    C        3.60226        -3.82545         1.04412
| 60>    C        2.28614        -2.28057         2.55433
| 61>    C        3.30863        -1.61898         3.29615
| 62>    C        4.61134        -1.50669         2.97869
| 63>    C        5.55644        -0.70478         3.73895
| 64>    C        5.60508        -0.72028         5.13342
| 65>    C        4.86946        -1.54761         6.12299
| 66>    O        4.06403        -2.41697         5.94478
| 67>    O        5.30517        -1.20104         7.35596
| 68>    C        6.30523        -0.19967         7.29832
| 69>    C        6.52195         0.05056         5.84169
| 70>    C        7.45362         0.83798         5.19317
| 71>    C        7.45040         0.82964         3.80932
| 72>    C        6.51333         0.09765         3.07812
| 73>    C        6.51708         0.18384         1.62070
| 74>    C        5.39987         0.35306         0.89250
| 75>    C        4.13902         0.69453         1.48912
| 76>    C        2.91996         0.37845         0.98503
| 77>    C        2.72221        -0.55394        -0.14984
| 78>    O        3.58522        -1.16036        -0.75155
| 79>    C        1.26547        -0.63367        -0.35327
| 80>    C        0.56800        -1.40255        -1.24097
| 81>    C       -0.84192        -1.33403        -1.24612
| 82>    C       -1.49745        -0.44164        -0.35007
| 83>    C       -2.90332        -0.35573        -0.38214
| 84>    C       -3.62571        -1.12394        -1.25073
| 85>    C       -2.97947        -2.02028        -2.12458
| 86>    C       -1.61512        -2.12111        -2.11969
| 87>    F       -3.69576        -2.76384        -2.97307
| 88>    F       -4.96411        -1.01381        -1.26324
| 89>    C       -0.75065         0.33196         0.56495
| 90>    C        0.61451         0.21877         0.58400
| 91>    C        1.61579         0.80223         1.47138
| 92>    C        1.35570         1.56370         2.57839
| 93>    C        2.32682         1.97806         3.51367
| 94>    N        3.07782         2.33060         4.30751
| 95>    C        0.06614         2.02410         2.92777
| 96>    N       -0.95473         2.46883         3.20376
| 97>    H      -11.73299        -0.34782         1.59015
| 98>    H      -10.95823        -1.41638        -3.18822
| 99>    H       -9.58721        -1.34016         2.18354
|100>    H       -8.75446        -2.43973        -2.60855
|101>    H       -4.81080        -4.28229         1.93460
|102>    H       -5.85070        -7.26118        -3.50016
|103>    H       -5.54592        -8.57124        -2.33249
|104>    H       -2.81152        -7.23739        -2.83468
|105>    H       -1.43627        -5.73752        -1.44333
|106>    H       -1.07779        -4.41521         0.22531
|107>    H       -3.26663        -2.78155         1.59975
|108>    H       -3.08028        -1.76894         3.99517
|109>    H       -3.06118        -0.57265         2.67430
|110>    H       -2.17669        -0.24552         4.18084
|111>    H        3.29098        -4.70651         0.48092
|112>    H        4.25802        -4.12431         1.86124
|113>    H        4.12393        -3.14900         0.36117
|114>    H        2.92268        -1.07898         4.15029
|115>    H        5.00608        -1.96249         2.08277
|116>    H        7.20186        -0.56900         7.80790
|117>    H        5.94661         0.69303         7.82372
|118>    H        8.16717         1.43006         5.74392
|119>    H        8.17081         1.42769         3.27082
|120>    H        7.47411         0.07185         1.12965
|121>    H        5.43125         0.26281        -0.18437
|122>    H        4.19624         1.28741         2.39224
|123>    H        1.08476        -2.06101        -1.92201
|124>    H       -3.41707         0.33239         0.27197
|125>    H       -1.13153        -2.80730        -2.79670
|126>    H       -1.27520         0.99006         1.23822
|127> *
|128>
|129>                          ****END OF INPUT****

CARTESIAN COORDINATES (ANGSTROEM)
---------------------------------
  C    -11.548740   -0.587500    0.554510
  C    -12.478470   -0.258310   -0.390770
  F    -13.612520    0.359380   -0.034610
  C    -12.258670   -0.561770   -1.750080
  F    -13.188200   -0.225880   -2.654790
  C    -11.111420   -1.190470   -2.144600
  C    -10.133050   -1.542960   -1.194330
  C    -10.353790   -1.236650    0.180670
  C     -9.387500   -1.579820    1.151500
  C     -8.233560   -2.210840    0.760150
  C     -8.025220   -2.516510   -0.613220
  C     -8.940090   -2.195210   -1.573960
  C     -6.737120   -3.208150   -0.778500
  O     -6.221120   -3.552160   -1.813450
  C     -6.201140   -3.382860    0.611260
  C     -7.088370   -2.677620    1.528870
  C     -6.887560   -2.479230    2.866740
  C     -5.734030   -2.880290    3.568410
  N     -4.799860   -3.147700    4.181490
  C     -7.791400   -1.805020    3.717350
  N     -8.481190   -1.266040    4.458870
  C     -5.142310   -4.159820    0.911150
  C     -4.449550   -4.968020   -0.084600
  C     -5.197140   -5.867010   -0.848980
  C     -6.644030   -6.190310   -0.806250
  O     -7.507820   -5.749110   -0.095700
  O     -6.886070   -7.138580   -1.732810
  C     -5.708480   -7.493010   -2.438730
  C     -4.624610   -6.672690   -1.822620
  C     -3.263670   -6.625020   -2.070700
  C     -2.505160   -5.777040   -1.293730
  C     -3.056130   -4.945910   -0.296970
  C     -2.105470   -4.147970    0.437540
  C     -2.289600   -3.158690    1.339770
  C     -1.165030   -2.572730    1.995450
  N     -1.264540   -1.605500    2.963190
  C     -2.473900   -1.022820    3.476520
  C     -0.001260   -1.210970    3.448690
  O      0.165940   -0.317520    4.254030
  C      0.928570   -2.035430    2.721070
  C      0.190960   -2.844780    1.817850
  C      1.147590   -3.607480    1.055120
  O      1.013480   -4.419520    0.156470
  N      2.405050   -3.214010    1.552800
  C      3.602260   -3.825450    1.044120
  C      2.286140   -2.280570    2.554330
  C      3.308630   -1.618980    3.296150
  C      4.611340   -1.506690    2.978690
  C      5.556440   -0.704780    3.738950
  C      5.605080   -0.720280    5.133420
  C      4.869460   -1.547610    6.122990
  O      4.064030   -2.416970    5.944780
  O      5.305170   -1.201040    7.355960
  C      6.305230   -0.199670    7.298320
  C      6.521950    0.050560    5.841690
  C      7.453620    0.837980    5.193170
  C      7.450400    0.829640    3.809320
  C      6.513330    0.097650    3.078120
  C      6.517080    0.183840    1.620700
  C      5.399870    0.353060    0.892500
  C      4.139020    0.694530    1.489120
  C      2.919960    0.378450    0.985030
  C      2.722210   -0.553940   -0.149840
  O      3.585220   -1.160360   -0.751550
  C      1.265470   -0.633670   -0.353270
  C      0.568000   -1.402550   -1.240970
  C     -0.841920   -1.334030   -1.246120
  C     -1.497450   -0.441640   -0.350070
  C     -2.903320   -0.355730   -0.382140
  C     -3.625710   -1.123940   -1.250730
  C     -2.979470   -2.020280   -2.124580
  C     -1.615120   -2.121110   -2.119690
  F     -3.695760   -2.763840   -2.973070
  F     -4.964110   -1.013810   -1.263240
  C     -0.750650    0.331960    0.564950
  C      0.614510    0.218770    0.584000
  C      1.615790    0.802230    1.471380
  C      1.355700    1.563700    2.578390
  C      2.326820    1.978060    3.513670
  N      3.077820    2.330600    4.307510
  C      0.066140    2.024100    2.927770
  N     -0.954730    2.468830    3.203760
  H    -11.732990   -0.347820    1.590150
  H    -10.958230   -1.416380   -3.188220
  H     -9.587210   -1.340160    2.183540
  H     -8.754460   -2.439730   -2.608550
  H     -4.810800   -4.282290    1.934600
  H     -5.850700   -7.261180   -3.500160
  H     -5.545920   -8.571240   -2.332490
  H     -2.811520   -7.237390   -2.834680
  H     -1.436270   -5.737520   -1.443330
  H     -1.077790   -4.415210    0.225310
  H     -3.266630   -2.781550    1.599750
  H     -3.080280   -1.768940    3.995170
  H     -3.061180   -0.572650    2.674300
  H     -2.176690   -0.245520    4.180840
  H      3.290980   -4.706510    0.480920
  H      4.258020   -4.124310    1.861240
  H      4.123930   -3.149000    0.361170
  H      2.922680   -1.078980    4.150290
  H      5.006080   -1.962490    2.082770
  H      7.201860   -0.569000    7.807900
  H      5.946610    0.693030    7.823720
  H      8.167170    1.430060    5.743920
  H      8.170810    1.427690    3.270820
  H      7.474110    0.071850    1.129650
  H      5.431250    0.262810   -0.184370
  H      4.196240    1.287410    2.392240
  H      1.084760   -2.061010   -1.922010
  H     -3.417070    0.332390    0.271970
  H     -1.131530   -2.807300   -2.796700
  H     -1.275200    0.990060    1.238220

 Total Charge           Charge          ....    0
 Multiplicity           Mult            ....    1
 Number of Electrons    NEL             ....  556
 Basis Dimension        Dim             .... 1298

ORBITAL ENERGIES
----------------

  NO   OCC          E(Eh)            E(eV)
   0   2.0000     -24.803332      -674.9330
   1   2.0000     -24.799731      -674.8350
   2   2.0000     -24.798247      -674.7946
   3   2.0000     -24.795071      -674.7082
   4   2.0000     -19.267066      -524.2835
   5   2.0000     -19.256053      -523.9838
   6   2.0000     -19.219534      -522.9901
   7   2.0000     -19.219034      -522.9765
   8   2.0000     -19.204160      -522.5718
   9   2.0000     -19.193711      -522.2874
  10   2.0000     -19.193266      -522.2753
  11   2.0000     -19.191817      -522.2359
  12   2.0000     -14.458005      -393.4223
  13   2.0000     -14.455224      -393.3466
  14   2.0000     -14.430519      -392.6744
  15   2.0000     -14.422685      -392.4612
  16   2.0000     -14.411889      -392.1674
  17   2.0000     -14.404401      -391.9637
  18   2.0000     -10.406362      -283.1715
  19   2.0000     -10.396107      -282.8925
  20   2.0000     -10.383188      -282.5409
  21   2.0000     -10.382094      -282.5111
  22   2.0000     -10.381369      -282.4914
  23   2.0000     -10.379292      -282.4349
  24   2.0000     -10.374951      -282.3168
  25   2.0000     -10.372601      -282.2528
  26   2.0000     -10.371746      -282.2296
  27   2.0000     -10.368326      -282.1365
  28   2.0000     -10.352164      -281.6967
  29   2.0000     -10.349803      -281.6325
  30   2.0000     -10.349794      -281.6322
  31   2.0000     -10.343421      -281.4588
  32   2.0000     -10.341898      -281.4173
  33   2.0000     -10.337562      -281.2994
  34   2.0000     -10.335513      -281.2436
  35   2.0000     -10.333651      -281.1929
  36   2.0000     -10.333031      -281.1761
  37   2.0000     -10.324887      -280.9545
  38   2.0000     -10.321852      -280.8719
  39   2.0000     -10.316354      -280.7223
  40   2.0000     -10.314611      -280.6748
  41   2.0000     -10.312399      -280.6146
  42   2.0000     -10.312141      -280.6076
  43   2.0000     -10.312075      -280.6058
  44   2.0000     -10.310176      -280.5542
  45   2.0000     -10.309183      -280.5271
  46   2.0000     -10.309079      -280.5243
  47   2.0000     -10.309067      -280.5240
  48   2.0000     -10.308156      -280.4992
  49   2.0000     -10.306745      -280.4608
  50   2.0000     -10.306554      -280.4556
  51   2.0000     -10.306049      -280.4418
  52   2.0000     -10.305408      -280.4244
  53   2.0000     -10.303803      -280.3807
  54   2.0000     -10.303199      -280.3643
  55   2.0000     -10.302210      -280.3374
  56   2.0000     -10.301806      -280.3264
  57   2.0000     -10.301624      -280.3214
  58   2.0000     -10.300937      -280.3027
  59   2.0000     -10.300590      -280.2933
  60   2.0000     -10.299564      -280.2654
  61   2.0000     -10.299151      -280.2541
  62   2.0000     -10.298629      -280.2400
  63   2.0000     -10.298510      -280.2367
  64   2.0000     -10.298454      -280.2352
  65   2.0000     -10.297975      -280.2221
  66   2.0000     -10.297888      -280.2198
  67   2.0000     -10.296866      -280.1920
  68   2.0000     -10.296262      -280.1755
  69   2.0000     -10.295511      -280.1551
  70   2.0000     -10.294568      -280.1294
  71   2.0000     -10.294522      -280.1282
  72   2.0000     -10.294102      -280.1168
  73   2.0000     -10.293901      -280.1113
  74   2.0000     -10.292500      -280.0732
  75   2.0000     -10.291586      -280.0483
  76   2.0000     -10.291050      -280.0337
  77   2.0000     -10.290359      -280.0149
  78   2.0000     -10.289881      -280.0019
  79   2.0000     -10.286201      -279.9018
  80   2.0000     -10.261755      -279.2366
  81   2.0000     -10.259353      -279.1712
  82   2.0000      -1.321846       -35.9693
  83   2.0000      -1.321533       -35.9607
  84   2.0000      -1.306911       -35.5629
  85   2.0000      -1.306449       -35.5503
  86   2.0000      -1.202545       -32.7229
  87   2.0000      -1.191282       -32.4164
  88   2.0000      -1.138271       -30.9739
  89   2.0000      -1.135108       -30.8879
  90   2.0000      -1.132795       -30.8249
  91   2.0000      -1.127502       -30.6809
  92   2.0000      -1.110882       -30.2286
  93   2.0000      -1.101340       -29.9690
  94   2.0000      -1.063937       -28.9512
  95   2.0000      -1.054889       -28.7050
  96   2.0000      -1.028588       -27.9893
  97   2.0000      -1.013854       -27.5884
  98   2.0000      -1.010079       -27.4857
  99   2.0000      -1.003809       -27.3150
 100   2.0000      -1.000196       -27.2167
 101   2.0000      -0.991933       -26.9919
 102   2.0000      -0.987668       -26.8758
 103   2.0000      -0.986575       -26.8461
 104   2.0000      -0.983066       -26.7506
 105   2.0000      -0.977568       -26.6010
 106   2.0000      -0.936656       -25.4877
 107   2.0000      -0.936511       -25.4838
 108   2.0000      -0.925279       -25.1781
 109   2.0000      -0.922248       -25.0956
 110   2.0000      -0.918883       -25.0041
 111   2.0000      -0.913150       -24.8481
 112   2.0000      -0.906257       -24.6605
 113   2.0000      -0.896678       -24.3999
 114   2.0000      -0.895901       -24.3787
 115   2.0000      -0.890237       -24.2246
 116   2.0000      -0.889099       -24.1936
 117   2.0000      -0.879208       -23.9245
 118   2.0000      -0.877028       -23.8651
 119   2.0000      -0.863160       -23.4878
 120   2.0000      -0.853183       -23.2163
 121   2.0000      -0.843687       -22.9579
 122   2.0000      -0.842750       -22.9324
 123   2.0000      -0.839800       -22.8521
 124   2.0000      -0.837492       -22.7893
 125   2.0000      -0.824820       -22.4445
 126   2.0000      -0.813349       -22.1324
 127   2.0000      -0.807815       -21.9818
 128   2.0000      -0.801745       -21.8166
 129   2.0000      -0.783726       -21.3263
 130   2.0000      -0.775171       -21.0935
 131   2.0000      -0.771853       -21.0032
 132   2.0000      -0.764016       -20.7899
 133   2.0000      -0.759549       -20.6684
 134   2.0000      -0.753694       -20.5091
 135   2.0000      -0.743551       -20.2330
 136   2.0000      -0.734791       -19.9947
 137   2.0000      -0.732879       -19.9426
 138   2.0000      -0.721108       -19.6223
 139   2.0000      -0.718267       -19.5450
 140   2.0000      -0.712670       -19.3927
 141   2.0000      -0.709430       -19.3046
 142   2.0000      -0.703424       -19.1411
 143   2.0000      -0.698036       -18.9945
 144   2.0000      -0.694990       -18.9116
 145   2.0000      -0.690842       -18.7988
 146   2.0000      -0.688811       -18.7435
 147   2.0000      -0.679004       -18.4766
 148   2.0000      -0.667651       -18.1677
 149   2.0000      -0.665586       -18.1115
 150   2.0000      -0.660335       -17.9686
 151   2.0000      -0.657725       -17.8976
 152   2.0000      -0.655080       -17.8256
 153   2.0000      -0.652949       -17.7677
 154   2.0000      -0.646660       -17.5965
 155   2.0000      -0.645406       -17.5624
 156   2.0000      -0.640725       -17.4350
 157   2.0000      -0.638513       -17.3748
 158   2.0000      -0.633483       -17.2380
 159   2.0000      -0.621661       -16.9163
 160   2.0000      -0.617820       -16.8117
 161   2.0000      -0.614730       -16.7277
 162   2.0000      -0.609779       -16.5929
 163   2.0000      -0.599589       -16.3157
 164   2.0000      -0.595966       -16.2171
 165   2.0000      -0.595198       -16.1962
 166   2.0000      -0.593004       -16.1365
 167   2.0000      -0.591538       -16.0966
 168   2.0000      -0.591061       -16.0836
 169   2.0000      -0.588403       -16.0113
 170   2.0000      -0.587655       -15.9909
 171   2.0000      -0.586386       -15.9564
 172   2.0000      -0.583959       -15.8903
 173   2.0000      -0.581707       -15.8291
 174   2.0000      -0.579435       -15.7672
 175   2.0000      -0.578026       -15.7289
 176   2.0000      -0.575421       -15.6580
 177   2.0000      -0.573140       -15.5959
 178   2.0000      -0.568433       -15.4679
 179   2.0000      -0.564889       -15.3714
 180   2.0000      -0.561974       -15.2921
 181   2.0000      -0.556890       -15.1538
 182   2.0000      -0.555706       -15.1215
 183   2.0000      -0.553886       -15.0720
 184   2.0000      -0.551926       -15.0187
 185   2.0000      -0.550031       -14.9671
 186   2.0000      -0.547996       -14.9117
 187   2.0000      -0.544663       -14.8210
 188   2.0000      -0.543385       -14.7863
 189   2.0000      -0.541522       -14.7356
 190   2.0000      -0.540461       -14.7067
 191   2.0000      -0.533373       -14.5138
 192   2.0000      -0.533078       -14.5058
 193   2.0000      -0.529630       -14.4120
 194   2.0000      -0.529079       -14.3970
 195   2.0000      -0.526767       -14.3341
 196   2.0000      -0.525778       -14.3071
 197   2.0000      -0.521634       -14.1944
 198   2.0000      -0.518347       -14.1049
 199   2.0000      -0.516883       -14.0651
 200   2.0000      -0.516221       -14.0471
 201   2.0000      -0.515093       -14.0164
 202   2.0000      -0.513345       -13.9688
 203   2.0000      -0.512639       -13.9496
 204   2.0000      -0.510183       -13.8828
 205   2.0000      -0.508854       -13.8466
 206   2.0000      -0.506168       -13.7735
 207   2.0000      -0.503587       -13.7033
 208   2.0000      -0.502366       -13.6701
 209   2.0000      -0.498612       -13.5679
 210   2.0000      -0.497845       -13.5471
 211   2.0000      -0.496158       -13.5012
 212   2.0000      -0.494177       -13.4472
 213   2.0000      -0.490830       -13.3562
 214   2.0000      -0.486898       -13.2492
 215   2.0000      -0.483963       -13.1693
 216   2.0000      -0.482924       -13.1410
 217   2.0000      -0.482105       -13.1187
 218   2.0000      -0.477914       -13.0047
 219   2.0000      -0.475835       -12.9481
 220   2.0000      -0.473934       -12.8964
 221   2.0000      -0.471726       -12.8363
 222   2.0000      -0.469213       -12.7679
 223   2.0000      -0.467627       -12.7248
 224   2.0000      -0.466240       -12.6870
 225   2.0000      -0.465297       -12.6614
 226   2.0000      -0.464550       -12.6411
 227   2.0000      -0.461114       -12.5476
 228   2.0000      -0.458616       -12.4796
 229   2.0000      -0.455079       -12.3833
 230   2.0000      -0.454286       -12.3617
 231   2.0000      -0.453687       -12.3454
 232   2.0000      -0.450155       -12.2493
 233   2.0000      -0.448903       -12.2153
 234   2.0000      -0.447653       -12.1813
 235   2.0000      -0.443750       -12.0750
 236   2.0000      -0.442966       -12.0537
 237   2.0000      -0.442623       -12.0444
 238   2.0000      -0.440648       -11.9906
 239   2.0000      -0.439133       -11.9494
 240   2.0000      -0.437240       -11.8979
 241   2.0000      -0.435555       -11.8520
 242   2.0000      -0.433383       -11.7929
 243   2.0000      -0.432937       -11.7808
 244   2.0000      -0.431999       -11.7553
 245   2.0000      -0.430160       -11.7053
 246   2.0000      -0.422668       -11.5014
 247   2.0000      -0.418360       -11.3842
 248   2.0000      -0.417110       -11.3501
 249   2.0000      -0.416172       -11.3246
 250   2.0000      -0.407456       -11.0874
 251   2.0000      -0.402474       -10.9519
 252   2.0000      -0.400945       -10.9103
 253   2.0000      -0.390805       -10.6343
 254   2.0000      -0.387518       -10.5449
 255   2.0000      -0.386729       -10.5234
 256   2.0000      -0.378586       -10.3018
 257   2.0000      -0.375875       -10.2281
 258   2.0000      -0.368139       -10.0176
 259   2.0000      -0.366937        -9.9849
 260   2.0000      -0.362884        -9.8746
 261   2.0000      -0.354867        -9.6564
 262   2.0000      -0.350401        -9.5349
 263   2.0000      -0.345379        -9.3983
 264   2.0000      -0.341106        -9.2820
 265   2.0000      -0.338812        -9.2196
 266   2.0000      -0.336482        -9.1561
 267   2.0000      -0.332778        -9.0553
 268   2.0000      -0.323890        -8.8135
 269   2.0000      -0.319232        -8.6867
 270   2.0000      -0.318131        -8.6568
 271   2.0000      -0.315871        -8.5953
 272   2.0000      -0.313192        -8.5224
 273   2.0000      -0.307955        -8.3799
 274   2.0000      -0.303816        -8.2673
 275   2.0000      -0.300768        -8.1843
 276   2.0000      -0.288080        -7.8390
 277   2.0000      -0.241055        -6.5595
 278   0.0000      -0.100032        -2.7220
 279   0.0000      -0.089539        -2.4365
 280   0.0000      -0.078851        -2.1456
 281   0.0000      -0.062315        -1.6957
 282   0.0000      -0.056287        -1.5317

MULLIKEN ATOMIC CHARGES
-----------------------
   0 C :   -0.111010
   1 C :    0.245587
   2 F :   -0.170416
   3 C :    0.242327
   4 F :   -0.170522
   5 C :   -0.107897
   6 C :    0.120426
   7 C :    0.120512
   8 C :   -0.091190
   9 C :    0.059835
  10 C :    0.014192
  11 C :   -0.079200
  12 C :    0.148114
  13 O :   -0.136651
  14 C :   -0.022879
  15 C :    0.323379
  16 C :   -0.354801
  17 C :   -0.155370
  18 N :    0.140425
  19 C :   -0.180573
  20 N :    0.159815
  21 C :   -0.098728
  22 C :    0.025847
  23 C :   -0.032919
  24 C :    0.215600
  25 O :   -0.181544
  26 O :   -0.275050
  27 C :    0.327579
  28 C :   -0.108675
  29 C :   -0.006285
  30 C :   -0.022915
  31 C :    0.104662
  32 C :   -0.015155
  33 C :   -0.006119
  34 C :    0.131091
  35 N :   -0.270673
  36 C :    0.114284
  37 C :    0.142892
  38 O :   -0.190175
  39 C :   -0.009118
  40 C :   -0.070400
  41 C :    0.170286
  42 O :   -0.228029
  43 N :   -0.265704
  44 C :    0.114804
  45 C :    0.050440
  46 C :    0.054589
  47 C :   -0.024406
  48 C :    0.016913
  49 C :   -0.071172
  50 C :    0.203365
  51 O :   -0.154469
  52 O :   -0.282945
  53 C :    0.327298
  54 C :   -0.089248
  55 C :   -0.019967
  56 C :    0.006428
  57 C :    0.034572
  58 C :   -0.007418
  59 C :    0.003341
  60 C :   -0.047321
  61 C :   -0.051086
  62 C :    0.137935
  63 O :   -0.157404
  64 C :   -0.023964
  65 C :   -0.059320
  66 C :    0.110582
  67 C :    0.143539
  68 C :   -0.135219
  69 C :    0.240321
  70 C :    0.247672
  71 C :   -0.104013
  72 F :   -0.162075
  73 F :   -0.174883
  74 C :   -0.108704
  75 C :    0.077769
  76 C :    0.305822
  77 C :   -0.329099
  78 C :   -0.191832
  79 N :    0.147322
  80 C :   -0.162395
  81 N :    0.135784
  82 H :    0.008492
  83 H :    0.000174
  84 H :   -0.004779
  85 H :   -0.011032
  86 H :    0.052351
  87 H :    0.051058
  88 H :    0.046708
  89 H :   -0.017725
  90 H :    0.010591
  91 H :    0.006456
  92 H :   -0.028586
  93 H :    0.050747
  94 H :    0.009693
  95 H :    0.068653
  96 H :    0.048732
  97 H :    0.038993
  98 H :    0.057801
  99 H :    0.025016
 100 H :    0.011679
 101 H :    0.040448
 102 H :    0.053756
 103 H :   -0.016500
 104 H :   -0.012561
 105 H :    0.016328
 106 H :    0.024648
 107 H :    0.045048
 108 H :   -0.012159
 109 H :    0.006153
 110 H :   -0.004846
 111 H :   -0.011749
Sum of atomic charges:   -0.0000000

LOEWDIN ATOMIC CHARGES
----------------------
   0 C :   -0.028074
   1 C :    0.067682
   2 F :   -0.048329
   3 C :    0.069697
   4 F :   -0.048499
   5 C :   -0.032553
   6 C :   -0.004879
   7 C :   -0.004962
   8 C :    0.021810
   9 C :   -0.019125
  10 C :   -0.042934
  11 C :    0.035880
  12 C :    0.084911
  13 O :   -0.130034
  14 C :   -0.058643
  15 C :    0.087234
  16 C :   -0.133180
  17 C :   -0.003153
  18 N :   -0.048159
  19 C :   -0.018023
  20 N :   -0.043373
  21 C :    0.064181
  22 C :    0.010269
  23 C :   -0.056909
  24 C :    0.089230
  25 O :   -0.166838
  26 O :   -0.073914
  27 C :    0.104408
  28 C :   -0.011909
  29 C :   -0.016783
  30 C :    0.020893
  31 C :   -0.021450
  32 C :    0.032004
  33 C :   -0.045994
  34 C :    0.089825
  35 N :    0.006011
  36 C :    0.020241
  37 C :    0.080680
  38 O :   -0.175933
  39 C :   -0.107766
  40 C :   -0.134594
  41 C :    0.079730
  42 O :   -0.213885
  43 N :    0.007371
  44 C :    0.023799
  45 C :    0.066606
  46 C :   -0.003767
  47 C :   -0.002967
  48 C :    0.009248
  49 C :   -0.066631
  50 C :    0.085610
  51 O :   -0.148762
  52 O :   -0.082434
  53 C :    0.102376
  54 C :   -0.011092
  55 C :   -0.020368
  56 C :    0.012935
  57 C :   -0.029374
  58 C :    0.007616
  59 C :   -0.020558
  60 C :    0.069984
  61 C :   -0.083477
  62 C :    0.083189
  63 O :   -0.148439
  64 C :   -0.055833
  65 C :    0.038001
  66 C :   -0.009809
  67 C :   -0.006013
  68 C :   -0.034958
  69 C :    0.064103
  70 C :    0.063175
  71 C :   -0.027536
  72 F :   -0.039190
  73 F :   -0.047949
  74 C :    0.007776
  75 C :   -0.014758
  76 C :    0.061062
  77 C :   -0.121280
  78 C :   -0.009636
  79 N :   -0.057853
  80 C :   -0.012153
  81 N :   -0.061164
  82 H :    0.048152
  83 H :    0.045250
  84 H :    0.040244
  85 H :    0.040873
  86 H :    0.047696
  87 H :    0.040997
  88 H :    0.038363
  89 H :    0.034189
  90 H :    0.041072
  91 H :    0.038151
  92 H :    0.026418
  93 H :    0.027633
  94 H :    0.017243
  95 H :    0.045995
  96 H :    0.038042
  97 H :    0.029449
  98 H :    0.024454
  99 H :    0.047027
 100 H :    0.034266
 101 H :    0.035878
 102 H :    0.041428
 103 H :    0.033172
 104 H :    0.034188
 105 H :    0.036690
 106 H :    0.041312
 107 H :    0.045431
 108 H :    0.040225
 109 H :    0.043610
 110 H :    0.043525
 111 H :    0.037382

  Mayer bond orders larger than 0.100000
B(  0-C ,  1-C ) :   1.4457 B(  0-C ,  5-C ) :   0.1086 B(  0-C ,  7-C ) :   1.1817
B(  0-C , 82-H ) :   1.0074 B(  1-C ,  2-F ) :   1.1349 B(  1-C ,  3-C ) :   1.1868
B(  3-C ,  4-F ) :   1.1351 B(  3-C ,  5-C ) :   1.4453 B(  5-C ,  6-C ) :   1.1878
B(  5-C , 83-H ) :   1.0078 B(  6-C ,  7-C ) :   1.2520 B(  6-C , 11-C ) :   1.1913
B(  7-C ,  8-C ) :   1.2275 B(  8-C ,  9-C ) :   1.4280 B(  8-C , 84-H ) :   0.9898
B(  9-C , 10-C ) :   1.2218 B(  9-C , 15-C ) :   1.0077 B( 10-C , 11-C ) :   1.4692
B( 10-C , 12-C ) :   0.9449 B( 11-C , 85-H ) :   1.0174 B( 12-C , 13-O ) :   2.2238
B( 12-C , 14-C ) :   0.8964 B( 14-C , 15-C ) :   1.0241 B( 14-C , 21-C ) :   1.7736
B( 15-C , 16-C ) :   1.6561 B( 16-C , 17-C ) :   1.1701 B( 16-C , 19-C ) :   1.1313
B( 17-C , 18-N ) :   2.8623 B( 19-C , 20-N ) :   2.9702 B( 21-C , 22-C ) :   0.9981
B( 21-C , 86-H ) :   0.9166 B( 22-C , 23-C ) :   1.3701 B( 22-C , 31-C ) :   1.3659
B( 23-C , 24-C ) :   0.9041 B( 23-C , 28-C ) :   1.4428 B( 24-C , 25-O ) :   2.1495
B( 24-C , 26-O ) :   1.1531 B( 26-O , 27-C ) :   0.9693 B( 27-C , 28-C ) :   1.0107
B( 27-C , 87-H ) :   0.9233 B( 27-C , 88-H ) :   0.9273 B( 28-C , 29-C ) :   1.3190
B( 29-C , 30-C ) :   1.3912 B( 29-C , 89-H ) :   1.0093 B( 30-C , 31-C ) :   1.2884
B( 30-C , 90-H ) :   0.9949 B( 31-C , 32-C ) :   1.0930 B( 32-C , 33-C ) :   1.6100
B( 32-C , 91-H ) :   0.9438 B( 33-C , 34-C ) :   1.1277 B( 33-C , 92-H ) :   0.9512
B( 34-C , 35-N ) :   1.1819 B( 34-C , 40-C ) :   1.3353 B( 35-N , 36-C ) :   0.9472
B( 35-N , 37-C ) :   1.0383 B( 36-C , 93-H ) :   0.9559 B( 36-C , 94-H ) :   0.9638
B( 36-C , 95-H ) :   0.9421 B( 37-C , 38-O ) :   2.0626 B( 37-C , 39-C ) :   0.9839
B( 39-C , 40-C ) :   1.2344 B( 39-C , 45-C ) :   1.3631 B( 40-C , 41-C ) :   1.0020
B( 41-C , 42-O ) :   1.9833 B( 41-C , 43-N ) :   1.0712 B( 42-O , 91-H ) :   0.1225
B( 43-N , 44-C ) :   0.9605 B( 43-N , 45-C ) :   1.1667 B( 44-C , 96-H ) :   0.9461
B( 44-C , 97-H ) :   0.9663 B( 44-C , 98-H ) :   0.9537 B( 45-C , 46-C ) :   1.1851
B( 46-C , 47-C ) :   1.6577 B( 46-C , 99-H ) :   0.9442 B( 47-C , 48-C ) :   1.0489
B( 47-C ,100-H ) :   0.9378 B( 48-C , 49-C ) :   1.3637 B( 48-C , 57-C ) :   1.3647
B( 49-C , 50-C ) :   0.8990 B( 49-C , 54-C ) :   1.4234 B( 50-C , 51-O ) :   2.2019
B( 50-C , 52-O ) :   1.1294 B( 52-O , 53-C ) :   0.9745 B( 53-C , 54-C ) :   1.0081
B( 53-C ,101-H ) :   0.9292 B( 53-C ,102-H ) :   0.9231 B( 54-C , 55-C ) :   1.3514
B( 55-C , 56-C ) :   1.3777 B( 55-C ,103-H ) :   1.0084 B( 56-C , 57-C ) :   1.3477
B( 56-C ,104-H ) :   0.9960 B( 57-C , 58-C ) :   1.0158 B( 58-C , 59-C ) :   1.7743
B( 58-C ,105-H ) :   0.9699 B( 59-C , 60-C ) :   1.0795 B( 59-C ,106-H ) :   0.9657
B( 60-C , 61-C ) :   1.6780 B( 60-C ,107-H ) :   0.9204 B( 61-C , 62-C ) :   0.9482
B( 61-C , 76-C ) :   1.0403 B( 62-C , 63-O ) :   2.1660 B( 62-C , 64-C ) :   0.9417
B( 64-C , 65-C ) :   1.4528 B( 64-C , 75-C ) :   1.2279 B( 65-C , 66-C ) :   1.1893
B( 65-C ,108-H ) :   1.0153 B( 66-C , 67-C ) :   1.2702 B( 66-C , 71-C ) :   1.1941
B( 67-C , 68-C ) :   1.1819 B( 67-C , 74-C ) :   1.1923 B( 68-C , 69-C ) :   1.4315
B( 68-C , 71-C ) :   0.1088 B( 68-C ,109-H ) :   1.0058 B( 69-C , 70-C ) :   1.2012
B( 69-C , 73-F ) :   1.1011 B( 70-C , 71-C ) :   1.4232 B( 70-C , 72-F ) :   1.1331
B( 71-C ,110-H ) :   1.0094 B( 74-C , 75-C ) :   1.4499 B( 74-C ,111-H ) :   0.9941
B( 75-C , 76-C ) :   0.9768 B( 76-C , 77-C ) :   1.6692 B( 77-C , 78-C ) :   1.1639
B( 77-C , 80-C ) :   1.1279 B( 78-C , 79-N ) :   2.9492 B( 80-C , 81-N ) :   2.9304

-----------------------------------------------------------------------------
         ABSORPTION SPECTRUM VIA TRANSITION ELECTRIC DIPOLE MOMENTS
-----------------------------------------------------------------------------
State   Energy  Wavelength   fosc         T2         TX        TY        TZ
        (cm-1)    (nm)                  (au**2)     (au)      (au)      (au)
-----------------------------------------------------------------------------
   0   14125.5    707.9   0.113158457   2.63729   1.28923   0.98688  -0.03546
   1   16685.9    599.3   0.257730724   5.08501  -2.22203   0.11171  -0.36760
   2   18582.9    538.1   0.119666636   2.12000   1.39825  -0.02979   0.40498
   3   20693.8    483.2   0.092505153   1.47164   1.08531   0.51269   0.17573
   4   24620.9    406.2   0.033801039   0.45196   0.50713   0.42883  -0.10434
   5   25543.9    391.5   0.083205347   1.07236   0.81101  -0.56888  -0.30165
   6   26082.3    383.4   0.002557668   0.03228  -0.06986  -0.15553   0.05667
   7   26185.3    381.9   0.032949282   0.41425  -0.57560  -0.21286  -0.19397
   8   26516.4    377.1   0.018961970   0.23542   0.41631   0.24265  -0.05682
   9   26787.8    373.3   0.044527958   0.54723  -0.73000   0.00403   0.11965
  10   27300.3    366.3   0.229096984   2.76267   1.51234  -0.40615   0.55724
  11   27838.5    359.2   0.007042484   0.08328  -0.02363  -0.26936  -0.10084
  12   28097.2    355.9   0.101697882   1.19158  -0.92144  -0.28372  -0.51189
  13   28693.2    348.5   0.035605519   0.40852  -0.44027   0.08244   0.45594
  14   28934.8    345.6   0.041872958   0.47642  -0.45816   0.20825  -0.47238
  15   29126.7    343.3   0.149366785   1.68826   1.21446   0.18978   0.42110
  16   29414.1    340.0   0.127813464   1.43053  -1.05955   0.17986  -0.52491
  17   29719.2    336.5   0.062700535   0.69456  -0.72266  -0.28375  -0.30299
  18   29735.5    336.3   0.054804067   0.60676   0.76933   0.04355   0.11396
  19   29918.1    334.2   0.017027270   0.18736   0.25220  -0.35107  -0.02255
  20   30478.5    328.1   0.040228850   0.43453  -0.39581   0.17307  -0.49790
  21   30702.0    325.7   0.096747535   1.03741  -0.86158   0.54085  -0.05054
  22   30974.8    322.8   0.011048393   0.11743  -0.08445   0.26364   0.20196
  23   31168.5    320.8   0.006259556   0.06612  -0.05376  -0.08278  -0.23743
  24   31703.3    315.4   0.066954110   0.69526  -0.65057  -0.21210  -0.47648
  25   32050.9    312.0   0.019083752   0.19602   0.27881  -0.23635  -0.24985
  26   32233.5    310.2   0.092612391   0.94588  -0.33286  -0.77384  -0.48607
  27   32885.5    304.1   0.055770803   0.55831  -0.50625   0.17520  -0.52089
  28   32940.2    303.6   0.490234422   4.89952  -1.73557  -0.71059  -1.17575
  29   33234.9    300.9   0.251864232   2.49487   0.94084   0.63035   1.10106
  30   33364.2    299.7   0.231900328   2.28821   1.27156   0.42359   0.70137
  31   33541.2    298.1   0.038512944   0.37801   0.52527   0.11759   0.29711
  32   33817.5    295.7   0.074324943   0.72355   0.60312   0.29845   0.52031
  33   34032.2    293.8   0.198389665   1.91913  -1.01826   0.41283  -0.84371
  34   34066.8    293.5   0.291697081   2.81888  -1.01302   0.55483  -1.21854
  35   34190.4    292.5   0.037784674   0.36382   0.07159  -0.53939   0.26031
  36   34564.7    289.3   0.130390359   1.24191  -0.92954  -0.27393  -0.55030
  37   34636.4    288.7   0.397959668   3.78253  -1.61835   0.84265  -0.67336
  38   34842.5    287.0   0.049526423   0.46795   0.35097   0.39074   0.43828
  39   35162.6    284.4   0.022687590   0.21241   0.10511  -0.35127  -0.27924
  40   35384.9    282.6   0.082422683   0.76684  -0.00512   0.73021   0.48333
  41   35782.1    279.5   0.141512310   1.30198   0.77700   0.46945   0.69128
  42   36034.0    277.5   0.005967931   0.05452  -0.01797  -0.07729   0.21961
  43   36106.9    277.0   0.032977862   0.30068   0.30803   0.41240   0.18901
  44   36367.5    275.0   0.047444947   0.42949   0.64777  -0.09774   0.01806
  45   36576.7    273.4   0.155050814   1.39555   0.05232   0.37051   1.12051
  46   36705.4    272.4   0.032240625   0.28917  -0.24211   0.16290  -0.45168
  47   36863.9    271.3   0.037441198   0.33437  -0.57353  -0.04127   0.06108
  48   37153.9    269.2   0.010459624   0.09268  -0.14303   0.20724  -0.17109
  49   37427.1    267.2   0.195604991   1.72056   1.01812   0.57788   0.59164
  50   37610.6    265.9   0.313208010   2.74156   0.67832   1.21925   0.89156
  51   37743.3    264.9   0.005402360   0.04712  -0.17562   0.11326   0.05874
  52   37980.6    263.3   0.002722289   0.02360   0.14504  -0.05059   0.00117
  53   38062.8    262.7   0.054835126   0.47428   0.68172   0.09491   0.02296
  54   38315.3    261.0   0.155469785   1.33582  -0.64616  -0.39932  -0.87111
  55   38454.3    260.0   0.054710296   0.46838  -0.14943   0.32606   0.58287
  56   38674.1    258.6   0.014136491   0.12034  -0.30941  -0.08496  -0.13184
  57   38751.3    258.1   0.055330184   0.47006  -0.03587  -0.39342  -0.56035
  58   38908.5    257.0   0.079138006   0.66960  -0.51302   0.43954   0.46176
  59   39001.2    256.4   0.095076618   0.80255   0.33862  -0.50295  -0.65949
  60   39245.7    254.8   0.168361963   1.41230   0.18830  -1.01216  -0.59361
  61   39423.9    253.7   0.133342174   1.11348   0.73272  -0.56388  -0.50857
  62   39557.8    252.8   0.017559883   0.14614   0.34039   0.17167  -0.02836
  63   39723.7    251.7   0.107910776   0.89432   0.89179  -0.08610  -0.30267
  64   40232.4    248.6   0.103638096   0.84805  -0.73667   0.40672   0.37409
  65   40243.5    248.5   0.114567082   0.93722  -0.79814  -0.02863  -0.54714

FINAL SINGLE POINT ENERGY     -3781.861633975759

DIPOLE MOMENT
-------------
                                X             Y             Z
Electronic contribution:    -69.06031       9.54808     -15.22837
Nuclear contribution   :     71.69947     -10.34050      12.02277
                        -----------------------------------------
Total Dipole Moment    :      2.63916      -0.79242      -3.20560
                        -----------------------------------------
Magnitude (a.u.)       :      4.22717
Magnitude (Debye)      :     10.74461

Rotational constants in cm-1:     0.001839     0.000418     0.000393
Rotational constants in MHz :    55.126730    12.533668    11.792704

                             ****ORCA TERMINATED NORMALLY****
TOTAL RUN TIME: 0 days 0 hours 14 minutes 20 seconds 935 msec
