                         Program Version 4.2.0 -  RELEASE  -
|  1> # ORCA input file
|  2> # SCF done       -197.168014576768          0.000563736798
|  3> ! CAM-B3LYP def2-SVP def2/J RIJCOSX Grid4 TightSCF
|  4> %maxcore 5000
|  5> %tddft
|  6>     Mode sTDDFT
|  7>     Ethresh 5.0
|  8>     maxcore 5000
|  9> end
| 10>
| 11> %pal
| 12>   nprocs 6
| 13>   end
| 14> * xyz 0 1
| 15>    C       -4.32597         1.70570         8.55115
| 16>    C       -4.84708         1.82173         9.80914
| 17>    F       -5.10293         3.03170        10.32304
| 18>    C       -5.12152         0.67458        10.58106
| 19>    F       -5.63207         0.81899        11.81116
| 20>    C       -4.87131        -0.57348        10.08353
| 21>    C       -4.33481        -0.72595         8.79023
| 22>    C       -4.05503         0.43297         8.00916
| 23>    C       -3.51177         0.30477         6.71045
| 24>    C       -3.25287        -0.94425         6.20927
| 25>    C       -3.54244        -2.09476         6.99367
| 26>    C       -4.07014        -2.00346         8.24931
| 27>    C       -3.20183        -3.31183         6.23140
| 28>    O       -3.40130        -4.45499         6.57750
| 29>    C       -2.66879        -2.83106         4.92917
| 30>    C       -2.68934        -1.38038         4.93483
| 31>    C       -2.19457        -0.55389         3.95983
| 32>    C       -2.22508         0.85496         4.03019
| 33>    N       -2.22760         2.00266         4.02836
| 34>    C       -1.56058        -0.98227         2.77378
| 35>    N       -1.01291        -1.25007         1.80105
| 36>    C       -2.37850        -3.63272         3.86157
| 37>    C       -2.20346        -5.03857         3.86828
| 38>    C       -2.38806        -5.85489         2.76760
| 39>    C       -2.16145        -7.20804         3.14908
| 40>    C       -1.73147        -7.17014         4.55374
| 41>    C       -1.75354        -5.87672         4.97207
| 42>    C       -1.24998        -8.24565         5.31221
| 43>    N       -0.80192        -9.09115         5.94725
| 44>    C       -2.31932        -8.34165         2.37837
| 45>    C       -2.23726        -9.68518         2.81423
| 46>    C       -2.38861       -10.53304         1.72924
| 47>    C       -2.58790        -9.70221         0.54848
| 48>    C       -2.57882        -8.39758         0.92775
| 49>    C       -2.76497        -7.31270         0.06383
| 50>    N       -2.92939        -6.44898        -0.67517
| 51>    C       -2.36517       -11.94357         1.84848
| 52>    N       -2.14136       -12.87979         0.86291
| 53>    C       -1.80122       -12.65144        -0.52212
| 54>    C       -0.43740       -11.98762        -0.68225
| 55>    C       -2.13571       -14.18536         1.37612
| 56>    O       -1.92297       -15.17292         0.68935
| 57>    C       -2.42468       -14.03000         2.78088
| 58>    C       -2.55172       -12.65058         3.04227
| 59>    C       -2.91834       -12.48961         4.43788
| 60>    O       -3.18563       -11.52073         5.10945
| 61>    N       -2.95487       -13.80986         4.93697
| 62>    C       -3.21037       -14.06475         6.33428
| 63>    C       -1.91532       -14.28979         7.11013
| 64>    C       -2.65847       -14.73557         3.97479
| 65>    C       -2.61729       -16.12857         4.19164
| 66>    C       -2.29839       -16.98247         3.17875
| 67>    C       -2.21873       -18.38155         3.25924
| 68>    S       -2.54013       -19.32492         4.70461
| 69>    C       -2.21337       -20.80959         3.88414
| 70>    C       -1.88162       -20.59896         2.59222
| 71>    C       -1.87521       -19.23390         2.21150
| 72>    C       -1.52035       -18.95966         0.85761
| 73>    C       -1.24383       -20.05775         0.11481
| 74>    S       -1.40960       -21.55159         1.14505
| 75>    O       -2.49653       -22.36794         0.68964
| 76>    O       -0.13311       -22.17463         1.34333
| 77>    C       -0.85542       -20.24068        -1.22562
| 78>    S       -0.46362       -21.86120        -1.73796
| 79>    C       -0.09804       -21.29635        -3.30902
| 80>    C       -0.26921       -19.94330        -3.44907
| 81>    C       -0.71222       -19.32641        -2.26263
| 82>    C       -0.99228       -17.86220        -2.17651
| 83>    C       -1.06688       -17.23791        -3.56957
| 84>    C        0.11312       -17.68750        -4.42380
| 85>    C       -0.00043       -19.18822        -4.72117
| 86>    C        1.28691       -19.69705        -5.32309
| 87>    O        1.39444       -20.21301        -6.39706
| 88>    H       -4.12069         2.59408         7.97448
| 89>    H       -5.08713        -1.44178        10.68622
| 90>    H       -3.31730         1.20077         6.14368
| 91>    H       -4.27975        -2.89434         8.82169
| 92>    H       -2.29662        -3.17229         2.88382
| 93>    H       -2.72303        -5.53593         1.79903
| 94>    H       -1.44050        -5.52181         5.93391
| 95>    H       -2.08974        -9.98837         3.83086
| 96>    H       -2.76297       -10.04970        -0.45141
| 97>    H       -2.58610       -12.06504        -1.00621
| 98>    H       -1.78487       -13.64416        -0.98267
| 99>    H       -0.41766       -11.00877        -0.20876
|100>    H       -0.21105       -11.86660        -1.73804
|101>    H        0.33398       -12.60576        -0.22909
|102>    H       -3.88112       -14.92246         6.43180
|103>    H       -3.71504       -13.17323         6.71662
|104>    H       -1.36842       -15.14440         6.71754
|105>    H       -2.14161       -14.46907         8.15722
|106>    H       -1.28384       -13.40780         7.03807
|107>    H       -2.83842       -16.51711         5.17531
|108>    H       -2.07963       -16.56717         2.20343
|109>    H       -2.28923       -21.73662         4.41634
|110>    H       -1.47685       -17.94591         0.49678
|111>    H        0.22578       -21.98370        -4.06640
|112>    H       -0.19806       -17.37935        -1.59828
|113>    H       -1.92997       -17.69088        -1.64447
|114>    H       -1.06839       -16.15120        -3.47786
|115>    H       -1.99737       -17.53655        -4.05581
|116>    H        1.04519       -17.49115        -3.88883
|117>    H        0.13659       -17.13409        -5.36341
|118>    H       -0.81297       -19.36614        -5.43470
|119>    H        2.16314       -19.55043        -4.66127
|120> *
|121>
|122>                          ****END OF INPUT****

CARTESIAN COORDINATES (ANGSTROEM)
---------------------------------
  C     -4.325970    1.705700    8.551150
  C     -4.847080    1.821730    9.809140
  F     -5.102930    3.031700   10.323040
  C     -5.121520    0.674580   10.581060
  F     -5.632070    0.818990   11.811160
  C     -4.871310   -0.573480   10.083530
  C     -4.334810   -0.725950    8.790230
  C     -4.055030    0.432970    8.009160
  C     -3.511770    0.304770    6.710450
  C     -3.252870   -0.944250    6.209270
  C     -3.542440   -2.094760    6.993670
  C     -4.070140   -2.003460    8.249310
  C     -3.201830   -3.311830    6.231400
  O     -3.401300   -4.454990    6.577500
  C     -2.668790   -2.831060    4.929170
  C     -2.689340   -1.380380    4.934830
  C     -2.194570   -0.553890    3.959830
  C     -2.225080    0.854960    4.030190
  N     -2.227600    2.002660    4.028360
  C     -1.560580   -0.982270    2.773780
  N     -1.012910   -1.250070    1.801050
  C     -2.378500   -3.632720    3.861570
  C     -2.203460   -5.038570    3.868280
  C     -2.388060   -5.854890    2.767600
  C     -2.161450   -7.208040    3.149080
  C     -1.731470   -7.170140    4.553740
  C     -1.753540   -5.876720    4.972070
  C     -1.249980   -8.245650    5.312210
  N     -0.801920   -9.091150    5.947250
  C     -2.319320   -8.341650    2.378370
  C     -2.237260   -9.685180    2.814230
  C     -2.388610  -10.533040    1.729240
  C     -2.587900   -9.702210    0.548480
  C     -2.578820   -8.397580    0.927750
  C     -2.764970   -7.312700    0.063830
  N     -2.929390   -6.448980   -0.675170
  C     -2.365170  -11.943570    1.848480
  N     -2.141360  -12.879790    0.862910
  C     -1.801220  -12.651440   -0.522120
  C     -0.437400  -11.987620   -0.682250
  C     -2.135710  -14.185360    1.376120
  O     -1.922970  -15.172920    0.689350
  C     -2.424680  -14.030000    2.780880
  C     -2.551720  -12.650580    3.042270
  C     -2.918340  -12.489610    4.437880
  O     -3.185630  -11.520730    5.109450
  N     -2.954870  -13.809860    4.936970
  C     -3.210370  -14.064750    6.334280
  C     -1.915320  -14.289790    7.110130
  C     -2.658470  -14.735570    3.974790
  C     -2.617290  -16.128570    4.191640
  C     -2.298390  -16.982470    3.178750
  C     -2.218730  -18.381550    3.259240
  S     -2.540130  -19.324920    4.704610
  C     -2.213370  -20.809590    3.884140
  C     -1.881620  -20.598960    2.592220
  C     -1.875210  -19.233900    2.211500
  C     -1.520350  -18.959660    0.857610
  C     -1.243830  -20.057750    0.114810
  S     -1.409600  -21.551590    1.145050
  O     -2.496530  -22.367940    0.689640
  O     -0.133110  -22.174630    1.343330
  C     -0.855420  -20.240680   -1.225620
  S     -0.463620  -21.861200   -1.737960
  C     -0.098040  -21.296350   -3.309020
  C     -0.269210  -19.943300   -3.449070
  C     -0.712220  -19.326410   -2.262630
  C     -0.992280  -17.862200   -2.176510
  C     -1.066880  -17.237910   -3.569570
  C      0.113120  -17.687500   -4.423800
  C     -0.000430  -19.188220   -4.721170
  C      1.286910  -19.697050   -5.323090
  O      1.394440  -20.213010   -6.397060
  H     -4.120690    2.594080    7.974480
  H     -5.087130   -1.441780   10.686220
  H     -3.317300    1.200770    6.143680
  H     -4.279750   -2.894340    8.821690
  H     -2.296620   -3.172290    2.883820
  H     -2.723030   -5.535930    1.799030
  H     -1.440500   -5.521810    5.933910
  H     -2.089740   -9.988370    3.830860
  H     -2.762970  -10.049700   -0.451410
  H     -2.586100  -12.065040   -1.006210
  H     -1.784870  -13.644160   -0.982670
  H     -0.417660  -11.008770   -0.208760
  H     -0.211050  -11.866600   -1.738040
  H      0.333980  -12.605760   -0.229090
  H     -3.881120  -14.922460    6.431800
  H     -3.715040  -13.173230    6.716620
  H     -1.368420  -15.144400    6.717540
  H     -2.141610  -14.469070    8.157220
  H     -1.283840  -13.407800    7.038070
  H     -2.838420  -16.517110    5.175310
  H     -2.079630  -16.567170    2.203430
  H     -2.289230  -21.736620    4.416340
  H     -1.476850  -17.945910    0.496780
  H      0.225780  -21.983700   -4.066400
  H     -0.198060  -17.379350   -1.598280
  H     -1.929970  -17.690880   -1.644470
  H     -1.068390  -16.151200   -3.477860
  H     -1.997370  -17.536550   -4.055810
  H      1.045190  -17.491150   -3.888830
  H      0.136590  -17.134090   -5.363410
  H     -0.812970  -19.366140   -5.434700
  H      2.163140  -19.550430   -4.661270

 Total Charge           Charge          ....    0
 Multiplicity           Mult            ....    1
 Number of Electrons    NEL             ....  524
 Basis Dimension        Dim             .... 1194

ORBITAL ENERGIES
----------------

  NO   OCC          E(Eh)            E(eV)
   0   2.0000     -89.155292     -2426.0388
   1   2.0000     -88.987036     -2421.4604
   2   2.0000     -88.966160     -2420.8923
   3   2.0000     -24.802797      -674.9184
   4   2.0000     -24.801814      -674.8917
   5   2.0000     -19.228690      -523.2393
   6   2.0000     -19.218868      -522.9720
   7   2.0000     -19.210383      -522.7411
   8   2.0000     -19.205843      -522.6176
   9   2.0000     -19.205398      -522.6055
  10   2.0000     -19.205060      -522.5962
  11   2.0000     -14.469744      -393.7417
  12   2.0000     -14.469603      -393.7379
  13   2.0000     -14.423063      -392.4715
  14   2.0000     -14.422801      -392.4644
  15   2.0000     -14.416501      -392.2929
  16   2.0000     -14.402120      -391.9016
  17   2.0000     -10.391630      -282.7706
  18   2.0000     -10.387987      -282.6715
  19   2.0000     -10.386555      -282.6325
  20   2.0000     -10.385898      -282.6146
  21   2.0000     -10.379323      -282.4357
  22   2.0000     -10.361761      -281.9578
  23   2.0000     -10.358831      -281.8781
  24   2.0000     -10.352417      -281.7036
  25   2.0000     -10.350361      -281.6477
  26   2.0000     -10.349470      -281.6234
  27   2.0000     -10.340731      -281.3856
  28   2.0000     -10.330397      -281.1044
  29   2.0000     -10.329509      -281.0802
  30   2.0000     -10.328958      -281.0652
  31   2.0000     -10.328075      -281.0412
  32   2.0000     -10.327875      -281.0358
  33   2.0000     -10.325876      -280.9814
  34   2.0000     -10.325317      -280.9662
  35   2.0000     -10.324637      -280.9477
  36   2.0000     -10.322087      -280.8783
  37   2.0000     -10.321562      -280.8640
  38   2.0000     -10.319386      -280.8048
  39   2.0000     -10.319135      -280.7979
  40   2.0000     -10.317978      -280.7665
  41   2.0000     -10.317139      -280.7436
  42   2.0000     -10.316733      -280.7326
  43   2.0000     -10.316297      -280.7207
  44   2.0000     -10.316036      -280.7136
  45   2.0000     -10.314769      -280.6791
  46   2.0000     -10.314151      -280.6623
  47   2.0000     -10.313666      -280.6491
  48   2.0000     -10.312320      -280.6125
  49   2.0000     -10.311153      -280.5807
  50   2.0000     -10.310578      -280.5651
  51   2.0000     -10.309755      -280.5427
  52   2.0000     -10.308915      -280.5198
  53   2.0000     -10.308416      -280.5063
  54   2.0000     -10.308214      -280.5008
  55   2.0000     -10.306207      -280.4462
  56   2.0000     -10.306035      -280.4415
  57   2.0000     -10.305263      -280.4205
  58   2.0000     -10.304933      -280.4115
  59   2.0000     -10.304304      -280.3944
  60   2.0000     -10.304106      -280.3890
  61   2.0000     -10.300007      -280.2774
  62   2.0000     -10.295543      -280.1560
  63   2.0000     -10.289306      -279.9863
  64   2.0000     -10.288589      -279.9667
  65   2.0000     -10.287015      -279.9239
  66   2.0000     -10.283945      -279.8404
  67   2.0000     -10.283100      -279.8174
  68   2.0000     -10.282658      -279.8053
  69   2.0000     -10.278670      -279.6968
  70   2.0000     -10.277252      -279.6582
  71   2.0000     -10.275898      -279.6214
  72   2.0000     -10.271536      -279.5027
  73   2.0000      -8.220287      -223.6854
  74   2.0000      -8.082454      -219.9347
  75   2.0000      -8.061835      -219.3737
  76   2.0000      -6.189397      -168.4221
  77   2.0000      -6.188825      -168.4065
  78   2.0000      -6.188534      -168.3986
  79   2.0000      -6.051871      -164.6798
  80   2.0000      -6.047583      -164.5631
  81   2.0000      -6.044440      -164.4776
  82   2.0000      -6.031064      -164.1136
  83   2.0000      -6.026603      -163.9922
  84   2.0000      -6.024253      -163.9282
  85   2.0000      -1.325260       -36.0622
  86   2.0000      -1.310362       -35.6568
  87   2.0000      -1.212943       -33.0059
  88   2.0000      -1.151082       -31.3225
  89   2.0000      -1.144460       -31.1423
  90   2.0000      -1.142475       -31.0883
  91   2.0000      -1.133964       -30.8567
  92   2.0000      -1.090569       -29.6759
  93   2.0000      -1.080574       -29.4039
  94   2.0000      -1.070835       -29.1389
  95   2.0000      -1.027260       -27.9532
  96   2.0000      -1.024867       -27.8880
  97   2.0000      -1.021636       -27.8001
  98   2.0000      -1.010736       -27.5035
  99   2.0000      -1.004250       -27.3270
 100   2.0000      -1.003355       -27.3027
 101   2.0000      -1.001134       -27.2423
 102   2.0000      -0.990443       -26.9513
 103   2.0000      -0.987924       -26.8828
 104   2.0000      -0.980247       -26.6739
 105   2.0000      -0.955470       -25.9997
 106   2.0000      -0.944173       -25.6923
 107   2.0000      -0.939074       -25.5535
 108   2.0000      -0.932058       -25.3626
 109   2.0000      -0.927971       -25.2514
 110   2.0000      -0.915128       -24.9019
 111   2.0000      -0.899667       -24.4812
 112   2.0000      -0.895177       -24.3590
 113   2.0000      -0.890106       -24.2210
 114   2.0000      -0.884993       -24.0819
 115   2.0000      -0.878593       -23.9077
 116   2.0000      -0.867661       -23.6103
 117   2.0000      -0.861521       -23.4432
 118   2.0000      -0.855459       -23.2782
 119   2.0000      -0.847918       -23.0730
 120   2.0000      -0.846349       -23.0303
 121   2.0000      -0.837848       -22.7990
 122   2.0000      -0.833978       -22.6937
 123   2.0000      -0.822549       -22.3827
 124   2.0000      -0.809510       -22.0279
 125   2.0000      -0.800076       -21.7712
 126   2.0000      -0.792764       -21.5722
 127   2.0000      -0.774575       -21.0772
 128   2.0000      -0.774033       -21.0625
 129   2.0000      -0.773732       -21.0543
 130   2.0000      -0.767779       -20.8923
 131   2.0000      -0.749253       -20.3882
 132   2.0000      -0.746505       -20.3134
 133   2.0000      -0.732107       -19.9216
 134   2.0000      -0.726588       -19.7715
 135   2.0000      -0.725936       -19.7537
 136   2.0000      -0.722373       -19.6568
 137   2.0000      -0.717352       -19.5202
 138   2.0000      -0.714453       -19.4412
 139   2.0000      -0.699426       -19.0324
 140   2.0000      -0.695362       -18.9218
 141   2.0000      -0.689749       -18.7690
 142   2.0000      -0.688207       -18.7271
 143   2.0000      -0.674709       -18.3598
 144   2.0000      -0.674418       -18.3518
 145   2.0000      -0.669146       -18.2084
 146   2.0000      -0.663945       -18.0669
 147   2.0000      -0.662621       -18.0308
 148   2.0000      -0.661134       -17.9904
 149   2.0000      -0.649549       -17.6751
 150   2.0000      -0.645665       -17.5694
 151   2.0000      -0.644700       -17.5432
 152   2.0000      -0.635414       -17.2905
 153   2.0000      -0.633086       -17.2271
 154   2.0000      -0.621138       -16.9020
 155   2.0000      -0.617226       -16.7956
 156   2.0000      -0.611824       -16.6486
 157   2.0000      -0.604454       -16.4480
 158   2.0000      -0.601101       -16.3568
 159   2.0000      -0.599346       -16.3090
 160   2.0000      -0.594828       -16.1861
 161   2.0000      -0.591801       -16.1037
 162   2.0000      -0.589830       -16.0501
 163   2.0000      -0.586085       -15.9482
 164   2.0000      -0.577629       -15.7181
 165   2.0000      -0.574575       -15.6350
 166   2.0000      -0.571411       -15.5489
 167   2.0000      -0.564773       -15.3683
 168   2.0000      -0.562682       -15.3114
 169   2.0000      -0.560878       -15.2623
 170   2.0000      -0.558985       -15.2107
 171   2.0000      -0.555305       -15.1106
 172   2.0000      -0.551287       -15.0013
 173   2.0000      -0.549289       -14.9469
 174   2.0000      -0.546692       -14.8763
 175   2.0000      -0.544681       -14.8215
 176   2.0000      -0.542745       -14.7689
 177   2.0000      -0.541401       -14.7323
 178   2.0000      -0.538504       -14.6535
 179   2.0000      -0.536887       -14.6094
 180   2.0000      -0.536278       -14.5929
 181   2.0000      -0.534906       -14.5555
 182   2.0000      -0.532744       -14.4967
 183   2.0000      -0.530565       -14.4374
 184   2.0000      -0.528230       -14.3739
 185   2.0000      -0.526892       -14.3375
 186   2.0000      -0.523892       -14.2558
 187   2.0000      -0.522651       -14.2221
 188   2.0000      -0.519662       -14.1407
 189   2.0000      -0.519292       -14.1306
 190   2.0000      -0.517574       -14.0839
 191   2.0000      -0.514212       -13.9924
 192   2.0000      -0.510345       -13.8872
 193   2.0000      -0.510028       -13.8786
 194   2.0000      -0.508771       -13.8444
 195   2.0000      -0.505745       -13.7620
 196   2.0000      -0.503059       -13.6889
 197   2.0000      -0.500462       -13.6183
 198   2.0000      -0.499750       -13.5989
 199   2.0000      -0.498640       -13.5687
 200   2.0000      -0.491442       -13.3728
 201   2.0000      -0.489788       -13.3278
 202   2.0000      -0.489544       -13.3212
 203   2.0000      -0.488688       -13.2979
 204   2.0000      -0.486452       -13.2370
 205   2.0000      -0.484881       -13.1943
 206   2.0000      -0.482934       -13.1413
 207   2.0000      -0.476960       -12.9787
 208   2.0000      -0.475715       -12.9449
 209   2.0000      -0.474552       -12.9132
 210   2.0000      -0.470773       -12.8104
 211   2.0000      -0.467789       -12.7292
 212   2.0000      -0.467171       -12.7124
 213   2.0000      -0.466287       -12.6883
 214   2.0000      -0.462311       -12.5801
 215   2.0000      -0.460292       -12.5252
 216   2.0000      -0.455547       -12.3961
 217   2.0000      -0.454312       -12.3625
 218   2.0000      -0.452033       -12.3004
 219   2.0000      -0.450023       -12.2458
 220   2.0000      -0.448976       -12.2173
 221   2.0000      -0.445531       -12.1235
 222   2.0000      -0.445236       -12.1155
 223   2.0000      -0.438944       -11.9443
 224   2.0000      -0.438010       -11.9189
 225   2.0000      -0.435447       -11.8491
 226   2.0000      -0.435304       -11.8452
 227   2.0000      -0.432590       -11.7714
 228   2.0000      -0.431189       -11.7332
 229   2.0000      -0.429733       -11.6936
 230   2.0000      -0.429534       -11.6882
 231   2.0000      -0.427626       -11.6363
 232   2.0000      -0.424381       -11.5480
 233   2.0000      -0.420733       -11.4487
 234   2.0000      -0.417887       -11.3713
 235   2.0000      -0.417585       -11.3631
 236   2.0000      -0.415872       -11.3165
 237   2.0000      -0.413651       -11.2560
 238   2.0000      -0.411973       -11.2104
 239   2.0000      -0.403173       -10.9709
 240   2.0000      -0.402208       -10.9446
 241   2.0000      -0.398439       -10.8421
 242   2.0000      -0.395122       -10.7518
 243   2.0000      -0.390338       -10.6216
 244   2.0000      -0.374972       -10.2035
 245   2.0000      -0.365417        -9.9435
 246   2.0000      -0.363906        -9.9024
 247   2.0000      -0.362677        -9.8689
 248   2.0000      -0.353878        -9.6295
 249   2.0000      -0.350813        -9.5461
 250   2.0000      -0.349103        -9.4996
 251   2.0000      -0.332405        -9.0452
 252   2.0000      -0.331259        -9.0140
 253   2.0000      -0.327410        -8.9093
 254   2.0000      -0.323431        -8.8010
 255   2.0000      -0.322094        -8.7646
 256   2.0000      -0.320444        -8.7197
 257   2.0000      -0.317196        -8.6313
 258   2.0000      -0.309226        -8.4145
 259   2.0000      -0.296778        -8.0757
 260   2.0000      -0.279900        -7.6165
 261   2.0000      -0.245335        -6.6759
 262   0.0000      -0.142057        -3.8656
 263   0.0000      -0.095730        -2.6049
 264   0.0000      -0.085338        -2.3222
 265   0.0000      -0.065514        -1.7827
 266   0.0000      -0.045114        -1.2276

MULLIKEN ATOMIC CHARGES
-----------------------
   0 C :   -0.110156
   1 C :    0.244463
   2 F :   -0.169711
   3 C :    0.241406
   4 F :   -0.169622
   5 C :   -0.104717
   6 C :    0.116647
   7 C :    0.116189
   8 C :   -0.084275
   9 C :    0.052142
  10 C :   -0.006122
  11 C :   -0.079157
  12 C :    0.141893
  13 O :   -0.139774
  14 C :   -0.089184
  15 C :    0.313240
  16 C :   -0.336887
  17 C :   -0.179643
  18 N :    0.149842
  19 C :   -0.198966
  20 N :    0.169614
  21 C :   -0.022964
  22 C :    0.079623
  23 C :   -0.074296
  24 C :    0.092806
  25 C :   -0.113980
  26 C :    0.068756
  27 C :   -0.178619
  28 N :    0.134154
  29 C :    0.139537
  30 C :   -0.115089
  31 C :    0.037764
  32 C :   -0.024502
  33 C :   -0.093262
  34 C :   -0.188348
  35 N :    0.149967
  36 C :    0.142009
  37 N :   -0.252233
  38 C :    0.097848
  39 C :   -0.007398
  40 C :    0.167662
  41 O :   -0.242150
  42 C :   -0.086161
  43 C :   -0.043854
  44 C :    0.156980
  45 O :   -0.168000
  46 N :   -0.258845
  47 C :    0.096602
  48 C :   -0.001595
  49 C :    0.162388
  50 C :   -0.038347
  51 C :    0.008178
  52 C :   -0.110249
  53 S :    0.141684
  54 C :   -0.140020
  55 C :    0.059698
  56 C :    0.101811
  57 C :   -0.035930
  58 C :   -0.004970
  59 S :    0.745597
  60 O :   -0.436668
  61 O :   -0.439267
  62 C :   -0.116195
  63 S :    0.191323
  64 C :   -0.108129
  65 C :   -0.060975
  66 C :   -0.068188
  67 C :    0.102470
  68 C :    0.053612
  69 C :    0.018437
  70 C :    0.042655
  71 C :    0.128192
  72 O :   -0.169138
  73 H :    0.009205
  74 H :    0.000836
  75 H :   -0.005279
  76 H :   -0.008210
  77 H :    0.036832
  78 H :    0.016098
  79 H :    0.003962
  80 H :    0.025316
  81 H :   -0.011096
  82 H :    0.026005
  83 H :    0.042623
  84 H :    0.032489
  85 H :    0.027993
  86 H :    0.028333
  87 H :    0.025363
  88 H :    0.050596
  89 H :    0.014924
  90 H :    0.027903
  91 H :    0.043724
  92 H :   -0.024136
  93 H :    0.020642
  94 H :    0.049002
  95 H :    0.018254
  96 H :    0.034300
  97 H :    0.029337
  98 H :    0.034663
  99 H :    0.006710
 100 H :    0.009840
 101 H :    0.005643
 102 H :    0.018095
 103 H :    0.021769
 104 H :   -0.009345
Sum of atomic charges:   -0.0000000

LOEWDIN ATOMIC CHARGES
----------------------
   0 C :   -0.028798
   1 C :    0.068418
   2 F :   -0.047454
   3 C :    0.068937
   4 F :   -0.047889
   5 C :   -0.032323
   6 C :   -0.008144
   7 C :   -0.005295
   8 C :    0.018466
   9 C :   -0.023098
  10 C :   -0.054058
  11 C :    0.032537
  12 C :    0.083500
  13 O :   -0.129119
  14 C :   -0.084021
  15 C :    0.071504
  16 C :   -0.129180
  17 C :   -0.016636
  18 N :   -0.047120
  19 C :   -0.025375
  20 N :   -0.039378
  21 C :    0.076602
  22 C :   -0.029614
  23 C :    0.022684
  24 C :    0.033614
  25 C :   -0.091161
  26 C :    0.074634
  27 C :   -0.029876
  28 N :   -0.060359
  29 C :    0.040643
  30 C :    0.000783
  31 C :   -0.027696
  32 C :    0.045837
  33 C :   -0.075355
  34 C :   -0.034369
  35 N :   -0.055309
  36 C :    0.056761
  37 N :    0.002958
  38 C :    0.034959
  39 C :   -0.060844
  40 C :    0.079389
  41 O :   -0.227507
  42 C :   -0.132619
  43 C :   -0.089559
  44 C :    0.088223
  45 O :   -0.159214
  46 N :    0.003360
  47 C :    0.037320
  48 C :   -0.060025
  49 C :    0.097212
  50 C :   -0.066548
  51 C :    0.034020
  52 C :   -0.180731
  53 S :    0.447965
  54 C :   -0.134337
  55 C :   -0.205969
  56 C :   -0.042394
  57 C :   -0.031919
  58 C :   -0.143364
  59 S :    1.156701
  60 O :   -0.486025
  61 O :   -0.487239
  62 C :   -0.204448
  63 S :    0.484975
  64 C :   -0.171685
  65 C :   -0.069471
  66 C :   -0.031619
  67 C :   -0.026822
  68 C :   -0.023470
  69 C :   -0.019197
  70 C :   -0.059144
  71 C :    0.114684
  72 O :   -0.120740
  73 H :    0.048414
  74 H :    0.045542
  75 H :    0.040393
  76 H :    0.041286
  77 H :    0.052630
  78 H :    0.039731
  79 H :    0.037090
  80 H :    0.038346
  81 H :    0.034859
  82 H :    0.020291
  83 H :    0.036302
  84 H :    0.025504
  85 H :    0.033401
  86 H :    0.032765
  87 H :    0.023906
  88 H :    0.040470
  89 H :    0.021607
  90 H :    0.032730
  91 H :    0.037519
  92 H :    0.025613
  93 H :    0.043528
  94 H :    0.039369
  95 H :    0.042580
  96 H :    0.029747
  97 H :    0.037746
  98 H :    0.038322
  99 H :    0.027671
 100 H :    0.025995
 101 H :    0.022611
 102 H :    0.029936
 103 H :    0.040450
 104 H :   -0.006528

  Mayer bond orders larger than 0.100000
B(  0-C ,  1-C ) :   1.4406 B(  0-C ,  5-C ) :   0.1089 B(  0-C ,  7-C ) :   1.1858
B(  0-C , 73-H ) :   1.0075 B(  1-C ,  2-F ) :   1.1358 B(  1-C ,  3-C ) :   1.1906
B(  3-C ,  4-F ) :   1.1362 B(  3-C ,  5-C ) :   1.4425 B(  5-C ,  6-C ) :   1.1904
B(  5-C , 74-H ) :   1.0076 B(  6-C ,  7-C ) :   1.2570 B(  6-C , 11-C ) :   1.1889
B(  7-C ,  8-C ) :   1.2180 B(  8-C ,  9-C ) :   1.4448 B(  8-C , 75-H ) :   0.9905
B(  9-C , 10-C ) :   1.2210 B(  9-C , 15-C ) :   0.9880 B( 10-C , 11-C ) :   1.4677
B( 10-C , 12-C ) :   0.9396 B( 11-C , 76-H ) :   1.0172 B( 12-C , 13-O ) :   2.2222
B( 12-C , 14-C ) :   0.9399 B( 14-C , 15-C ) :   1.0529 B( 14-C , 21-C ) :   1.5875
B( 15-C , 16-C ) :   1.6491 B( 16-C , 17-C ) :   1.1428 B( 16-C , 19-C ) :   1.1398
B( 17-C , 18-N ) :   2.9621 B( 19-C , 20-N ) :   2.9855 B( 21-C , 22-C ) :   1.1255
B( 21-C , 77-H ) :   0.9490 B( 22-C , 23-C ) :   1.4902 B( 22-C , 26-C ) :   1.0586
B( 23-C , 24-C ) :   1.1149 B( 23-C , 78-H ) :   1.0083 B( 24-C , 25-C ) :   1.1203
B( 24-C , 29-C ) :   1.3778 B( 25-C , 26-C ) :   1.6652 B( 25-C , 27-C ) :   1.0909
B( 26-C , 79-H ) :   1.0057 B( 27-C , 28-N ) :   2.9842 B( 29-C , 30-C ) :   1.1427
B( 29-C , 33-C ) :   1.0923 B( 30-C , 31-C ) :   1.5282 B( 30-C , 80-H ) :   0.9906
B( 31-C , 32-C ) :   1.0132 B( 31-C , 36-C ) :   1.0609 B( 32-C , 33-C ) :   1.6798
B( 32-C , 81-H ) :   1.0272 B( 33-C , 34-C ) :   1.0838 B( 34-C , 35-N ) :   2.9765
B( 36-C , 37-N ) :   1.1791 B( 36-C , 43-C ) :   1.3733 B( 37-N , 38-C ) :   0.9423
B( 37-N , 40-C ) :   1.0742 B( 38-C , 39-C ) :   1.1177 B( 38-C , 82-H ) :   0.9509
B( 38-C , 83-H ) :   0.9228 B( 39-C , 84-H ) :   0.9666 B( 39-C , 85-H ) :   0.9663
B( 39-C , 86-H ) :   0.9615 B( 40-C , 41-O ) :   1.9554 B( 40-C , 42-C ) :   1.0209
B( 41-O , 93-H ) :   0.1123 B( 42-C , 43-C ) :   1.2735 B( 42-C , 49-C ) :   1.2607
B( 43-C , 44-C ) :   0.9566 B( 44-C , 45-O ) :   2.1111 B( 44-C , 46-N ) :   1.0307
B( 46-N , 47-C ) :   0.9391 B( 46-N , 49-C ) :   1.1879 B( 47-C , 48-C ) :   1.1208
B( 47-C , 87-H ) :   0.9502 B( 47-C , 88-H ) :   0.9278 B( 48-C , 89-H ) :   0.9684
B( 48-C , 90-H ) :   0.9680 B( 48-C , 91-H ) :   0.9641 B( 49-C , 50-C ) :   1.1922
B( 50-C , 51-C ) :   1.5375 B( 50-C , 92-H ) :   0.9729 B( 51-C , 52-C ) :   1.2086
B( 51-C , 93-H ) :   0.9400 B( 52-C , 53-S ) :   1.0778 B( 52-C , 56-C ) :   1.4104
B( 53-S , 54-C ) :   1.1750 B( 54-C , 55-C ) :   1.6114 B( 54-C , 94-H ) :   0.9761
B( 55-C , 56-C ) :   1.2421 B( 55-C , 59-S ) :   0.7569 B( 56-C , 57-C ) :   1.1132
B( 57-C , 58-C ) :   1.6344 B( 57-C , 95-H ) :   0.9778 B( 58-C , 59-S ) :   0.8167
B( 58-C , 62-C ) :   1.1884 B( 59-S , 60-O ) :   1.7343 B( 59-S , 61-O ) :   1.7222
B( 62-C , 63-S ) :   1.1422 B( 62-C , 66-C ) :   1.5037 B( 63-S , 64-C ) :   1.1972
B( 64-C , 65-C ) :   1.5283 B( 64-C , 96-H ) :   0.9613 B( 65-C , 66-C ) :   1.3490
B( 65-C , 70-C ) :   0.9447 B( 66-C , 67-C ) :   1.0619 B( 67-C , 68-C ) :   1.0841
B( 67-C , 97-H ) :   0.9061 B( 67-C , 98-H ) :   0.9090 B( 68-C , 69-C ) :   1.0765
B( 68-C , 99-H ) :   0.9328 B( 68-C ,100-H ) :   0.9400 B( 69-C , 70-C ) :   1.0532
B( 69-C ,101-H ) :   0.9405 B( 69-C ,102-H ) :   0.9371 B( 70-C , 71-C ) :   0.9317
B( 70-C ,103-H ) :   0.8847 B( 71-C , 72-O ) :   2.1992 B( 71-C ,104-H ) :   0.9432

-----------------------------------------------------------------------------
         ABSORPTION SPECTRUM VIA TRANSITION ELECTRIC DIPOLE MOMENTS
-----------------------------------------------------------------------------
State   Energy  Wavelength   fosc         T2         TX        TY        TZ
        (cm-1)    (nm)                  (au**2)     (au)      (au)      (au)
-----------------------------------------------------------------------------
   0    7764.7   1287.9   0.558948677  23.69875   0.01834  -4.80981  -0.75111
   1   16104.7    620.9   0.035797200   0.73177  -0.00580   0.69109   0.50410
   2   17588.8    568.5   0.347495463   6.50412   0.31425  -2.52933  -0.08870
   3   19202.2    520.8   0.132603981   2.27343  -0.39329   0.91540   1.13172
   4   19958.2    501.0   0.031784477   0.52429   0.21974   0.00587  -0.68990
   5   21910.6    456.4   0.295880594   4.44568  -0.08509  -2.00029  -0.66127
   6   22601.3    442.5   0.156409027   2.27826   0.30655  -1.40322  -0.46397
   7   23762.8    420.8   0.110108145   1.52545  -0.03211   0.81236   0.92978
   8   23934.0    417.8   0.005521325   0.07595   0.05801  -0.03594  -0.26700
   9   25392.9    393.8   0.291445233   3.77851   0.49885  -0.83931  -1.68084
  10   25490.4    392.3   0.043779008   0.56541   0.26221  -0.40005  -0.58019
  11   25785.2    387.8   0.020013591   0.25552   0.20449  -0.02228  -0.46175
  12   27018.4    370.1   0.446757228   5.44362   0.03184   2.31536   0.28589
  13   27458.4    364.2   0.055339406   0.66349   0.06396   0.06630   0.80932
  14   28006.5    357.1   0.173437703   2.03873  -0.21032   1.14345   0.82887
  15   28076.4    356.2   0.053264157   0.62455   0.10492   0.72438  -0.29802
  16   28511.4    350.7   0.745373719   8.60658   0.72232  -0.98244  -2.66827
  17   29401.4    340.1   0.002742789   0.03071   0.01551   0.05642  -0.16519
  18   30200.4    331.1   0.004028615   0.04392  -0.01174  -0.07392   0.19574
  19   31066.0    321.9   0.314078685   3.32835   0.55604  -0.80281  -1.54100
  20   31722.1    315.2   0.022335919   0.23180  -0.18327   0.44064   0.06367
  21   31933.4    313.2   0.060746384   0.62625  -0.42041   0.33859   0.57868
  22   32321.9    309.4   0.036804123   0.37487   0.12510  -0.52777  -0.28404
  23   32720.6    305.6   0.101913431   1.02538   0.17843  -0.76523  -0.63872
  24   32991.4    303.1   0.086158469   0.85975  -0.51993  -0.02956   0.76717
  25   33191.6    301.3   0.001704346   0.01690   0.03933  -0.10958  -0.05788
  26   33255.5    300.7   0.081684275   0.80863   0.29618  -0.61374  -0.58671
  27   33498.6    298.5   0.115746152   1.13751  -0.25236   0.60749   0.83951
  28   33791.8    295.9   0.018250557   0.17780  -0.23178  -0.26216  -0.23528
  29   33973.0    294.4   0.026217453   0.25406  -0.13396   0.48585  -0.00781
  30   34080.6    293.4   0.142952860   1.38090   0.00715   1.10485  -0.40019
  31   34521.6    289.7   0.036750955   0.35047   0.03753  -0.34237  -0.48151
  32   34690.8    288.3   0.012027630   0.11414  -0.02165  -0.33049   0.06670
  33   34778.7    287.5   0.019338617   0.18306   0.00681   0.40393  -0.14089
  34   35173.2    284.3   0.022012124   0.20603  -0.16547   0.27373   0.32206
  35   35611.4    280.8   0.047128002   0.43568   0.01374   0.55853  -0.35148
  36   35792.1    279.4   0.648763453   5.96726  -0.97588  -0.10293   2.23703
  37   36208.8    276.2   0.173508094   1.57754  -0.40064  -0.15557   1.18018
  38   36640.1    272.9   0.156493584   1.40610   0.04394  -1.09393  -0.45550
  39   36905.3    271.0   0.001747356   0.01559  -0.03798  -0.08089   0.08718
  40   37410.5    267.3   0.109370673   0.96246   0.21875   0.74140  -0.60410
  41   37697.6    265.3   0.068400398   0.59734  -0.16582   0.65275   0.37916
  42   38263.1    261.3   0.062057198   0.53393  -0.20661   0.27913   0.64291
  43   38433.3    260.2   0.009751101   0.08353  -0.06137   0.26912   0.08563
  44   38816.9    257.6   0.170491522   1.44597  -0.17773   1.05565   0.54770
  45   39115.2    255.7   0.019800850   0.16665   0.15631  -0.22975  -0.29905
  46   39239.4    254.8   0.020268504   0.17005   0.35342  -0.12925  -0.16864
  47   39928.7    250.4   0.011400964   0.09400  -0.05262   0.25286  -0.16521
  48   40119.0    249.3   0.015758071   0.12931  -0.05767   0.35277   0.03916
  49   40200.3    248.8   0.022149366   0.18139  -0.02075   0.37937  -0.19246

FINAL SINGLE POINT ENERGY     -4322.887005697577

DIPOLE MOMENT
-------------
                                X             Y             Z
Electronic contribution:    -20.18894      70.76251      51.63603
Nuclear contribution   :     19.08979     -71.88517     -49.88059
                        -----------------------------------------
Total Dipole Moment    :     -1.09915      -1.12266       1.75544
                        -----------------------------------------
Magnitude (a.u.)       :      2.35586
Magnitude (Debye)      :      5.98811

Rotational constants in cm-1:     0.002023     0.000220     0.000200
Rotational constants in MHz :    60.639634     6.594312     6.007846

                             ****ORCA TERMINATED NORMALLY****
TOTAL RUN TIME: 0 days 0 hours 12 minutes 16 seconds 489 msec
