                         Program Version 4.2.0 -  RELEASE  -
|  1> # ORCA input file
|  2> # SCF done       -198.668996447942          0.000746328980
|  3> ! CAM-B3LYP def2-SVP def2/J RIJCOSX Grid4 TightSCF
|  4> %maxcore 5000
|  5> %tddft
|  6>     Mode sTDDFT
|  7>     Ethresh 5.0
|  8>     maxcore 5000
|  9> end
| 10>
| 11> %pal
| 12>   nprocs 6
| 13>   end
| 14> * xyz 0 1
| 15>    C       -6.18288         4.38046         1.84911
| 16>    C       -6.04516         5.03512         3.04095
| 17>    F       -5.90485         6.36608         3.06530
| 18>    C       -6.05008         4.32118         4.25685
| 19>    F       -5.91619         4.98978         5.40916
| 20>    C       -6.19177         2.96170         4.26364
| 21>    C       -6.33754         2.25848         3.05197
| 22>    C       -6.33254         2.97917         1.82181
| 23>    C       -6.47779         2.29511         0.59337
| 24>    C       -6.62236         0.93231         0.59535
| 25>    C       -6.62992         0.22173         1.82866
| 26>    C       -6.49393         0.85490         3.03068
| 27>    C       -6.81166        -1.21656         1.56988
| 28>    O       -6.96472        -2.09223         2.39140
| 29>    C       -6.91354        -1.34397         0.08941
| 30>    C       -6.78385        -0.02350        -0.49514
| 31>    C       -6.73865         0.26920        -1.83290
| 32>    C       -6.58151         1.57188        -2.35199
| 33>    N       -6.46782         2.60731        -2.83357
| 34>    C       -6.82689        -0.68651        -2.86741
| 35>    N       -6.88359        -1.41501        -3.75293
| 36>    C       -7.28030        -2.48827        -0.55509
| 37>    C       -7.21740        -3.79877        -0.02239
| 38>    O       -8.03414        -4.73785        -0.54542
| 39>    C       -7.74988        -5.92034         0.04173
| 40>    C       -6.70156        -5.76603         0.93968
| 41>    C       -6.35606        -4.40808         0.90352
| 42>    C       -5.26502        -3.81193         1.55940
| 43>    N       -4.33030        -3.35923         2.04310
| 44>    C       -8.46362        -7.11104        -0.25149
| 45>    N       -9.50671        -7.23986        -1.13337
| 46>    C      -10.12193        -6.20930        -1.93857
| 47>    C      -11.12093        -5.38427        -1.13281
| 48>    C       -9.98909        -8.55739        -1.16821
| 49>    O      -10.93798        -8.90435        -1.84716
| 50>    C       -9.13588        -9.28489        -0.25522
| 51>    C       -8.21796        -8.36407         0.30488
| 52>    C       -7.33820        -9.09492         1.19522
| 53>    O       -6.41319        -8.74034         1.89414
| 54>    N       -7.77499       -10.42856         1.09363
| 55>    C       -7.16166       -11.48527         1.86314
| 56>    C       -8.02665       -11.89843         3.05038
| 57>    C       -8.83819       -10.55890         0.23614
| 58>    C       -9.43620       -11.79160        -0.12836
| 59>    C      -10.49654       -11.79678        -0.97636
| 60>    C      -11.11196       -12.91281        -1.58284
| 61>    O      -12.06542       -12.63725        -2.48667
| 62>    C      -12.45990       -13.78766        -3.07205
| 63>    C      -11.77944       -14.85357        -2.50344
| 64>    C      -10.90471       -14.30060        -1.55044
| 65>    C      -10.00127       -14.97860        -0.72088
| 66>    N       -9.26585       -15.52563        -0.03152
| 67>    C      -13.45507       -13.75036        -4.08314
| 68>    C      -13.97413       -12.64218        -4.67326
| 69>    C      -15.29463       -12.74139        -5.36525
| 70>    O      -15.83629       -13.75172        -5.74418
| 71>    C      -15.80765       -11.35780        -5.40514
| 72>    C      -17.03705       -10.90943        -5.79626
| 73>    C      -17.32778        -9.53048        -5.69797
| 74>    C      -16.33759        -8.63989        -5.18872
| 75>    C      -16.64149        -7.26795        -5.07931
| 76>    C      -17.86823        -6.80139        -5.45963
| 77>    C      -18.84561        -7.68224        -5.96596
| 78>    C      -18.58214        -9.01804        -6.08372
| 79>    F      -20.03956        -7.19687        -6.32969
| 80>    F      -18.15485        -5.49779        -5.35295
| 81>    C      -15.06967        -9.13047        -4.80243
| 82>    C      -14.80689       -10.46901        -4.91730
| 83>    C      -13.59828       -11.23775        -4.63239
| 84>    C      -12.33329       -10.71995        -4.60101
| 85>    C      -11.16592       -11.51376        -4.61689
| 86>    N      -10.20063       -12.12946        -4.69145
| 87>    C      -12.04177        -9.33993        -4.66126
| 88>    N      -11.75098        -8.23152        -4.71321
| 89>    H       -6.17544         4.94211         0.92795
| 90>    H       -6.19280         2.42960         5.20206
| 91>    H       -6.47588         2.86901        -0.31926
| 92>    H       -6.50110         0.28985         3.95012
| 93>    H       -7.68454        -2.43444        -1.55850
| 94>    H       -6.25373        -6.54040         1.53154
| 95>    H      -10.64150        -6.72940        -2.74924
| 96>    H       -9.34576        -5.56952        -2.36211
| 97>    H      -11.89842        -6.02916        -0.72997
| 98>    H      -11.58301        -4.64244        -1.77749
| 99>    H      -10.62950        -4.87152        -0.30911
|100>    H       -6.20948       -11.08418         2.22065
|101>    H       -6.96360       -12.34204         1.21333
|102>    H       -8.19036       -11.04805         3.70787
|103>    H       -7.52498       -12.68087         3.61214
|104>    H       -8.99196       -12.27326         2.71754
|105>    H       -9.00969       -12.71395         0.23709
|106>    H      -10.90969       -10.85361        -1.31171
|107>    H      -11.88279       -15.88976        -2.75431
|108>    H      -13.90510       -14.69879        -4.34930
|109>    H      -17.77919       -11.59773        -6.17097
|110>    H      -15.90350        -6.57991        -4.69771
|111>    H      -19.34094        -9.67893        -6.47245
|112>    H      -14.33941        -8.44076        -4.41005
|113> *
|114>
|115>                          ****END OF INPUT****

CARTESIAN COORDINATES (ANGSTROEM)
---------------------------------
  C     -6.182880    4.380460    1.849110
  C     -6.045160    5.035120    3.040950
  F     -5.904850    6.366080    3.065300
  C     -6.050080    4.321180    4.256850
  F     -5.916190    4.989780    5.409160
  C     -6.191770    2.961700    4.263640
  C     -6.337540    2.258480    3.051970
  C     -6.332540    2.979170    1.821810
  C     -6.477790    2.295110    0.593370
  C     -6.622360    0.932310    0.595350
  C     -6.629920    0.221730    1.828660
  C     -6.493930    0.854900    3.030680
  C     -6.811660   -1.216560    1.569880
  O     -6.964720   -2.092230    2.391400
  C     -6.913540   -1.343970    0.089410
  C     -6.783850   -0.023500   -0.495140
  C     -6.738650    0.269200   -1.832900
  C     -6.581510    1.571880   -2.351990
  N     -6.467820    2.607310   -2.833570
  C     -6.826890   -0.686510   -2.867410
  N     -6.883590   -1.415010   -3.752930
  C     -7.280300   -2.488270   -0.555090
  C     -7.217400   -3.798770   -0.022390
  O     -8.034140   -4.737850   -0.545420
  C     -7.749880   -5.920340    0.041730
  C     -6.701560   -5.766030    0.939680
  C     -6.356060   -4.408080    0.903520
  C     -5.265020   -3.811930    1.559400
  N     -4.330300   -3.359230    2.043100
  C     -8.463620   -7.111040   -0.251490
  N     -9.506710   -7.239860   -1.133370
  C    -10.121930   -6.209300   -1.938570
  C    -11.120930   -5.384270   -1.132810
  C     -9.989090   -8.557390   -1.168210
  O    -10.937980   -8.904350   -1.847160
  C     -9.135880   -9.284890   -0.255220
  C     -8.217960   -8.364070    0.304880
  C     -7.338200   -9.094920    1.195220
  O     -6.413190   -8.740340    1.894140
  N     -7.774990  -10.428560    1.093630
  C     -7.161660  -11.485270    1.863140
  C     -8.026650  -11.898430    3.050380
  C     -8.838190  -10.558900    0.236140
  C     -9.436200  -11.791600   -0.128360
  C    -10.496540  -11.796780   -0.976360
  C    -11.111960  -12.912810   -1.582840
  O    -12.065420  -12.637250   -2.486670
  C    -12.459900  -13.787660   -3.072050
  C    -11.779440  -14.853570   -2.503440
  C    -10.904710  -14.300600   -1.550440
  C    -10.001270  -14.978600   -0.720880
  N     -9.265850  -15.525630   -0.031520
  C    -13.455070  -13.750360   -4.083140
  C    -13.974130  -12.642180   -4.673260
  C    -15.294630  -12.741390   -5.365250
  O    -15.836290  -13.751720   -5.744180
  C    -15.807650  -11.357800   -5.405140
  C    -17.037050  -10.909430   -5.796260
  C    -17.327780   -9.530480   -5.697970
  C    -16.337590   -8.639890   -5.188720
  C    -16.641490   -7.267950   -5.079310
  C    -17.868230   -6.801390   -5.459630
  C    -18.845610   -7.682240   -5.965960
  C    -18.582140   -9.018040   -6.083720
  F    -20.039560   -7.196870   -6.329690
  F    -18.154850   -5.497790   -5.352950
  C    -15.069670   -9.130470   -4.802430
  C    -14.806890  -10.469010   -4.917300
  C    -13.598280  -11.237750   -4.632390
  C    -12.333290  -10.719950   -4.601010
  C    -11.165920  -11.513760   -4.616890
  N    -10.200630  -12.129460   -4.691450
  C    -12.041770   -9.339930   -4.661260
  N    -11.750980   -8.231520   -4.713210
  H     -6.175440    4.942110    0.927950
  H     -6.192800    2.429600    5.202060
  H     -6.475880    2.869010   -0.319260
  H     -6.501100    0.289850    3.950120
  H     -7.684540   -2.434440   -1.558500
  H     -6.253730   -6.540400    1.531540
  H    -10.641500   -6.729400   -2.749240
  H     -9.345760   -5.569520   -2.362110
  H    -11.898420   -6.029160   -0.729970
  H    -11.583010   -4.642440   -1.777490
  H    -10.629500   -4.871520   -0.309110
  H     -6.209480  -11.084180    2.220650
  H     -6.963600  -12.342040    1.213330
  H     -8.190360  -11.048050    3.707870
  H     -7.524980  -12.680870    3.612140
  H     -8.991960  -12.273260    2.717540
  H     -9.009690  -12.713950    0.237090
  H    -10.909690  -10.853610   -1.311710
  H    -11.882790  -15.889760   -2.754310
  H    -13.905100  -14.698790   -4.349300
  H    -17.779190  -11.597730   -6.170970
  H    -15.903500   -6.579910   -4.697710
  H    -19.340940   -9.678930   -6.472450
  H    -14.339410   -8.440760   -4.410050

 Total Charge           Charge          ....    0
 Multiplicity           Mult            ....    1
 Number of Electrons    NEL             ....  500
 Basis Dimension        Dim             .... 1156

ORBITAL ENERGIES
----------------

  NO   OCC          E(Eh)            E(eV)
   0   2.0000     -24.802768      -674.9176
   1   2.0000     -24.802538      -674.9114
   2   2.0000     -24.801808      -674.8915
   3   2.0000     -24.801212      -674.8753
   4   2.0000     -19.335192      -526.1373
   5   2.0000     -19.329781      -525.9901
   6   2.0000     -19.227115      -523.1964
   7   2.0000     -19.226154      -523.1703
   8   2.0000     -19.209231      -522.7098
   9   2.0000     -19.208027      -522.6770
  10   2.0000     -14.471600      -393.7923
  11   2.0000     -14.469573      -393.7371
  12   2.0000     -14.428148      -392.6099
  13   2.0000     -14.425698      -392.5432
  14   2.0000     -14.424758      -392.5176
  15   2.0000     -14.421680      -392.4339
  16   2.0000     -14.419789      -392.3824
  17   2.0000     -14.414752      -392.2453
  18   2.0000     -10.392464      -282.7933
  19   2.0000     -10.390251      -282.7331
  20   2.0000     -10.386409      -282.6286
  21   2.0000     -10.386082      -282.6197
  22   2.0000     -10.385589      -282.6062
  23   2.0000     -10.384969      -282.5894
  24   2.0000     -10.382485      -282.5218
  25   2.0000     -10.378213      -282.4055
  26   2.0000     -10.377785      -282.3939
  27   2.0000     -10.377673      -282.3908
  28   2.0000     -10.376496      -282.3588
  29   2.0000     -10.370818      -282.2043
  30   2.0000     -10.363749      -282.0119
  31   2.0000     -10.357974      -281.8548
  32   2.0000     -10.354659      -281.7646
  33   2.0000     -10.352408      -281.7033
  34   2.0000     -10.351448      -281.6772
  35   2.0000     -10.348935      -281.6088
  36   2.0000     -10.338312      -281.3198
  37   2.0000     -10.338022      -281.3119
  38   2.0000     -10.335919      -281.2547
  39   2.0000     -10.333732      -281.1951
  40   2.0000     -10.329572      -281.0819
  41   2.0000     -10.327728      -281.0318
  42   2.0000     -10.326822      -281.0071
  43   2.0000     -10.324407      -280.9414
  44   2.0000     -10.323565      -280.9185
  45   2.0000     -10.322735      -280.8959
  46   2.0000     -10.318494      -280.7805
  47   2.0000     -10.317800      -280.7616
  48   2.0000     -10.316736      -280.7326
  49   2.0000     -10.316519      -280.7268
  50   2.0000     -10.316470      -280.7254
  51   2.0000     -10.316009      -280.7129
  52   2.0000     -10.315445      -280.6975
  53   2.0000     -10.315131      -280.6890
  54   2.0000     -10.314966      -280.6845
  55   2.0000     -10.314540      -280.6729
  56   2.0000     -10.314059      -280.6598
  57   2.0000     -10.312104      -280.6066
  58   2.0000     -10.309639      -280.5395
  59   2.0000     -10.309558      -280.5373
  60   2.0000     -10.308662      -280.5129
  61   2.0000     -10.308304      -280.5032
  62   2.0000     -10.307626      -280.4848
  63   2.0000     -10.307527      -280.4821
  64   2.0000     -10.306240      -280.4470
  65   2.0000     -10.305364      -280.4232
  66   2.0000     -10.304870      -280.4098
  67   2.0000     -10.304427      -280.3977
  68   2.0000     -10.301189      -280.3096
  69   2.0000     -10.299430      -280.2617
  70   2.0000     -10.283990      -279.8416
  71   2.0000     -10.279970      -279.7322
  72   2.0000     -10.271348      -279.4976
  73   2.0000     -10.266067      -279.3539
  74   2.0000      -1.325770       -36.0760
  75   2.0000      -1.324719       -36.0475
  76   2.0000      -1.310915       -35.6718
  77   2.0000      -1.309824       -35.6421
  78   2.0000      -1.254950       -34.1489
  79   2.0000      -1.254538       -34.1377
  80   2.0000      -1.151179       -31.3252
  81   2.0000      -1.144369       -31.1399
  82   2.0000      -1.143679       -31.1211
  83   2.0000      -1.142112       -31.0784
  84   2.0000      -1.081628       -29.4326
  85   2.0000      -1.072827       -29.1931
  86   2.0000      -1.028804       -27.9952
  87   2.0000      -1.025853       -27.9149
  88   2.0000      -1.013841       -27.5880
  89   2.0000      -1.011112       -27.5138
  90   2.0000      -1.009590       -27.4723
  91   2.0000      -1.003524       -27.3073
  92   2.0000      -1.000914       -27.2363
  93   2.0000      -0.998882       -27.1810
  94   2.0000      -0.989004       -26.9122
  95   2.0000      -0.988619       -26.9017
  96   2.0000      -0.955430       -25.9986
  97   2.0000      -0.949318       -25.8323
  98   2.0000      -0.947616       -25.7860
  99   2.0000      -0.946118       -25.7452
 100   2.0000      -0.938427       -25.5359
 101   2.0000      -0.934466       -25.4281
 102   2.0000      -0.930443       -25.3186
 103   2.0000      -0.916878       -24.9495
 104   2.0000      -0.905122       -24.6296
 105   2.0000      -0.900661       -24.5082
 106   2.0000      -0.897149       -24.4127
 107   2.0000      -0.895415       -24.3655
 108   2.0000      -0.884089       -24.0573
 109   2.0000      -0.872505       -23.7421
 110   2.0000      -0.863301       -23.4916
 111   2.0000      -0.846507       -23.0346
 112   2.0000      -0.845888       -23.0178
 113   2.0000      -0.831082       -22.6149
 114   2.0000      -0.829577       -22.5739
 115   2.0000      -0.820446       -22.3255
 116   2.0000      -0.797038       -21.6885
 117   2.0000      -0.788694       -21.4614
 118   2.0000      -0.776830       -21.1386
 119   2.0000      -0.775053       -21.0903
 120   2.0000      -0.773718       -21.0539
 121   2.0000      -0.770375       -20.9630
 122   2.0000      -0.768302       -20.9065
 123   2.0000      -0.748708       -20.3734
 124   2.0000      -0.742600       -20.2072
 125   2.0000      -0.727930       -19.8080
 126   2.0000      -0.724564       -19.7164
 127   2.0000      -0.723098       -19.6765
 128   2.0000      -0.719852       -19.5882
 129   2.0000      -0.715173       -19.4609
 130   2.0000      -0.712319       -19.3832
 131   2.0000      -0.709081       -19.2951
 132   2.0000      -0.700488       -19.0612
 133   2.0000      -0.693267       -18.8648
 134   2.0000      -0.689398       -18.7595
 135   2.0000      -0.686584       -18.6829
 136   2.0000      -0.678073       -18.4513
 137   2.0000      -0.665187       -18.1007
 138   2.0000      -0.663481       -18.0542
 139   2.0000      -0.659526       -17.9466
 140   2.0000      -0.657244       -17.8845
 141   2.0000      -0.649652       -17.6779
 142   2.0000      -0.647672       -17.6241
 143   2.0000      -0.645049       -17.5527
 144   2.0000      -0.628606       -17.1052
 145   2.0000      -0.624150       -16.9840
 146   2.0000      -0.621625       -16.9153
 147   2.0000      -0.615009       -16.7352
 148   2.0000      -0.609602       -16.5881
 149   2.0000      -0.604997       -16.4628
 150   2.0000      -0.603949       -16.4343
 151   2.0000      -0.601530       -16.3685
 152   2.0000      -0.599637       -16.3170
 153   2.0000      -0.595127       -16.1942
 154   2.0000      -0.590249       -16.0615
 155   2.0000      -0.589058       -16.0291
 156   2.0000      -0.588549       -16.0152
 157   2.0000      -0.587455       -15.9855
 158   2.0000      -0.580111       -15.7856
 159   2.0000      -0.576459       -15.6863
 160   2.0000      -0.571952       -15.5636
 161   2.0000      -0.570907       -15.5352
 162   2.0000      -0.566008       -15.4019
 163   2.0000      -0.562214       -15.2986
 164   2.0000      -0.560016       -15.2388
 165   2.0000      -0.558590       -15.2000
 166   2.0000      -0.557765       -15.1775
 167   2.0000      -0.551812       -15.0156
 168   2.0000      -0.550777       -14.9874
 169   2.0000      -0.550565       -14.9816
 170   2.0000      -0.546413       -14.8687
 171   2.0000      -0.545387       -14.8407
 172   2.0000      -0.544882       -14.8270
 173   2.0000      -0.541911       -14.7462
 174   2.0000      -0.539689       -14.6857
 175   2.0000      -0.537088       -14.6149
 176   2.0000      -0.534695       -14.5498
 177   2.0000      -0.533515       -14.5177
 178   2.0000      -0.531053       -14.4507
 179   2.0000      -0.529039       -14.3959
 180   2.0000      -0.527854       -14.3636
 181   2.0000      -0.525819       -14.3083
 182   2.0000      -0.524615       -14.2755
 183   2.0000      -0.520053       -14.1514
 184   2.0000      -0.519177       -14.1275
 185   2.0000      -0.517089       -14.0707
 186   2.0000      -0.515362       -14.0237
 187   2.0000      -0.511316       -13.9136
 188   2.0000      -0.508241       -13.8299
 189   2.0000      -0.503856       -13.7106
 190   2.0000      -0.501304       -13.6412
 191   2.0000      -0.495847       -13.4927
 192   2.0000      -0.492066       -13.3898
 193   2.0000      -0.491259       -13.3678
 194   2.0000      -0.490353       -13.3432
 195   2.0000      -0.486501       -13.2384
 196   2.0000      -0.484446       -13.1824
 197   2.0000      -0.480157       -13.0657
 198   2.0000      -0.478828       -13.0296
 199   2.0000      -0.476756       -12.9732
 200   2.0000      -0.474858       -12.9215
 201   2.0000      -0.474390       -12.9088
 202   2.0000      -0.469526       -12.7765
 203   2.0000      -0.468795       -12.7566
 204   2.0000      -0.463361       -12.6087
 205   2.0000      -0.461605       -12.5609
 206   2.0000      -0.459628       -12.5071
 207   2.0000      -0.457879       -12.4595
 208   2.0000      -0.457352       -12.4452
 209   2.0000      -0.456629       -12.4255
 210   2.0000      -0.452812       -12.3216
 211   2.0000      -0.452782       -12.3208
 212   2.0000      -0.452006       -12.2997
 213   2.0000      -0.451754       -12.2929
 214   2.0000      -0.450093       -12.2477
 215   2.0000      -0.443915       -12.0795
 216   2.0000      -0.440624       -11.9900
 217   2.0000      -0.438921       -11.9437
 218   2.0000      -0.438004       -11.9187
 219   2.0000      -0.435985       -11.8638
 220   2.0000      -0.433957       -11.8086
 221   2.0000      -0.432375       -11.7655
 222   2.0000      -0.431168       -11.7327
 223   2.0000      -0.429423       -11.6852
 224   2.0000      -0.427824       -11.6417
 225   2.0000      -0.426308       -11.6004
 226   2.0000      -0.421271       -11.4634
 227   2.0000      -0.419498       -11.4151
 228   2.0000      -0.414606       -11.2820
 229   2.0000      -0.413325       -11.2471
 230   2.0000      -0.409474       -11.1424
 231   2.0000      -0.396756       -10.7963
 232   2.0000      -0.391147       -10.6437
 233   2.0000      -0.389123       -10.5886
 234   2.0000      -0.384027       -10.4499
 235   2.0000      -0.375002       -10.2043
 236   2.0000      -0.367598       -10.0028
 237   2.0000      -0.365560        -9.9474
 238   2.0000      -0.359428        -9.7805
 239   2.0000      -0.351442        -9.5632
 240   2.0000      -0.349302        -9.5050
 241   2.0000      -0.345094        -9.3905
 242   2.0000      -0.331506        -9.0207
 243   2.0000      -0.323167        -8.7938
 244   2.0000      -0.322841        -8.7849
 245   2.0000      -0.316425        -8.6104
 246   2.0000      -0.309643        -8.4258
 247   2.0000      -0.303584        -8.2609
 248   2.0000      -0.298341        -8.1183
 249   2.0000      -0.252213        -6.8631
 250   0.0000      -0.124936        -3.3997
 251   0.0000      -0.105449        -2.8694
 252   0.0000      -0.082754        -2.2518
 253   0.0000      -0.067835        -1.8459
 254   0.0000      -0.063039        -1.7154

MULLIKEN ATOMIC CHARGES
-----------------------
   0 C :   -0.106636
   1 C :    0.243812
   2 F :   -0.169233
   3 C :    0.239042
   4 F :   -0.169484
   5 C :   -0.102143
   6 C :    0.113750
   7 C :    0.114444
   8 C :   -0.084512
   9 C :    0.055560
  10 C :   -0.008170
  11 C :   -0.069486
  12 C :    0.150083
  13 O :   -0.138624
  14 C :   -0.078882
  15 C :    0.301006
  16 C :   -0.332861
  17 C :   -0.182523
  18 N :    0.155129
  19 C :   -0.199444
  20 N :    0.169786
  21 C :   -0.059852
  22 C :    0.193155
  23 O :   -0.187569
  24 C :    0.086050
  25 C :   -0.038976
  26 C :   -0.036859
  27 C :   -0.193312
  28 N :    0.179607
  29 C :    0.169989
  30 N :   -0.242151
  31 C :    0.101914
  32 C :    0.001329
  33 C :    0.182442
  34 O :   -0.212539
  35 C :   -0.063912
  36 C :   -0.081139
  37 C :    0.163026
  38 O :   -0.192511
  39 N :   -0.257229
  40 C :    0.094039
  41 C :    0.003430
  42 C :    0.128005
  43 C :   -0.026806
  44 C :   -0.008246
  45 C :    0.204862
  46 O :   -0.183105
  47 C :    0.160067
  48 C :    0.009799
  49 C :   -0.105231
  50 C :   -0.176826
  51 N :    0.155160
  52 C :    0.031462
  53 C :   -0.115468
  54 C :    0.136547
  55 O :   -0.136088
  56 C :    0.011411
  57 C :   -0.077965
  58 C :    0.109511
  59 C :    0.111584
  60 C :   -0.105159
  61 C :    0.243035
  62 C :    0.238387
  63 C :   -0.101114
  64 F :   -0.170435
  65 F :   -0.170095
  66 C :   -0.078564
  67 C :    0.036706
  68 C :    0.263148
  69 C :   -0.299790
  70 C :   -0.199997
  71 N :    0.156989
  72 C :   -0.145443
  73 N :    0.158482
  74 H :    0.007725
  75 H :    0.002738
  76 H :   -0.004879
  77 H :   -0.004709
  78 H :    0.040531
  79 H :    0.020983
  80 H :    0.056492
  81 H :    0.031480
  82 H :    0.022021
  83 H :    0.026415
  84 H :    0.012286
  85 H :    0.048494
  86 H :    0.036787
  87 H :    0.028500
  88 H :    0.032318
  89 H :    0.017589
  90 H :    0.003210
  91 H :    0.025182
  92 H :    0.008175
  93 H :    0.025551
  94 H :   -0.007325
  95 H :    0.004288
  96 H :    0.001182
  97 H :    0.000597
Sum of atomic charges:    0.0000000

LOEWDIN ATOMIC CHARGES
----------------------
   0 C :   -0.028824
   1 C :    0.068086
   2 F :   -0.046933
   3 C :    0.068985
   4 F :   -0.047206
   5 C :   -0.031445
   6 C :   -0.007233
   7 C :   -0.005321
   8 C :    0.018879
   9 C :   -0.022914
  10 C :   -0.050309
  11 C :    0.036129
  12 C :    0.085084
  13 O :   -0.121545
  14 C :   -0.070756
  15 C :    0.071852
  16 C :   -0.128279
  17 C :   -0.017455
  18 N :   -0.044465
  19 C :   -0.023371
  20 N :   -0.042864
  21 C :    0.041919
  22 C :    0.053188
  23 O :    0.039823
  24 C :    0.035831
  25 C :    0.010216
  26 C :   -0.060697
  27 C :   -0.025549
  28 N :   -0.034971
  29 C :    0.058150
  30 N :    0.013338
  31 C :    0.035552
  32 C :   -0.060830
  33 C :    0.085983
  34 O :   -0.191816
  35 C :   -0.116110
  36 C :   -0.107948
  37 C :    0.084991
  38 O :   -0.185639
  39 N :    0.003719
  40 C :    0.037963
  41 C :   -0.059112
  42 C :    0.079518
  43 C :   -0.015813
  44 C :    0.005817
  45 C :    0.079394
  46 O :    0.053963
  47 C :    0.024503
  48 C :    0.011015
  49 C :   -0.097486
  50 C :   -0.028770
  51 N :   -0.046018
  52 C :    0.042698
  53 C :   -0.070481
  54 C :    0.083916
  55 O :   -0.136660
  56 C :   -0.056067
  57 C :    0.032473
  58 C :   -0.009752
  59 C :   -0.004251
  60 C :   -0.030636
  61 C :    0.068286
  62 C :    0.067101
  63 C :   -0.032029
  64 F :   -0.048189
  65 F :   -0.047785
  66 C :    0.014195
  67 C :   -0.017422
  68 C :    0.063957
  69 C :   -0.116734
  70 C :   -0.021763
  71 N :   -0.054124
  72 C :   -0.007489
  73 N :   -0.046381
  74 H :    0.047967
  75 H :    0.046091
  76 H :    0.040249
  77 H :    0.042872
  78 H :    0.054642
  79 H :    0.047673
  80 H :    0.039979
  81 H :    0.025286
  82 H :    0.028367
  83 H :    0.032699
  84 H :    0.017998
  85 H :    0.039746
  86 H :    0.028473
  87 H :    0.031562
  88 H :    0.035037
  89 H :    0.023033
  90 H :    0.038626
  91 H :    0.045296
  92 H :    0.047171
  93 H :    0.055569
  94 H :    0.041359
  95 H :    0.046895
  96 H :    0.045441
  97 H :    0.040887

  Mayer bond orders larger than 0.100000
B(  0-C ,  1-C ) :   1.4418 B(  0-C ,  5-C ) :   0.1077 B(  0-C ,  7-C ) :   1.1877
B(  0-C , 74-H ) :   1.0076 B(  1-C ,  2-F ) :   1.1362 B(  1-C ,  3-C ) :   1.1883
B(  3-C ,  4-F ) :   1.1365 B(  3-C ,  5-C ) :   1.4428 B(  5-C ,  6-C ) :   1.1918
B(  5-C , 75-H ) :   1.0080 B(  6-C ,  7-C ) :   1.2539 B(  6-C , 11-C ) :   1.1895
B(  7-C ,  8-C ) :   1.2191 B(  8-C ,  9-C ) :   1.4457 B(  8-C , 76-H ) :   0.9907
B(  9-C , 10-C ) :   1.2175 B(  9-C , 15-C ) :   0.9952 B( 10-C , 11-C ) :   1.4742
B( 10-C , 12-C ) :   0.9409 B( 11-C , 77-H ) :   1.0171 B( 12-C , 13-O ) :   2.2152
B( 12-C , 14-C ) :   0.9361 B( 14-C , 15-C ) :   1.0645 B( 14-C , 21-C ) :   1.5958
B( 15-C , 16-C ) :   1.6526 B( 16-C , 17-C ) :   1.1434 B( 16-C , 19-C ) :   1.1402
B( 17-C , 18-N ) :   2.9638 B( 19-C , 20-N ) :   2.9902 B( 21-C , 22-C ) :   1.1875
B( 21-C , 78-H ) :   0.9293 B( 22-C , 23-O ) :   1.1249 B( 22-C , 24-C ) :   0.1006
B( 22-C , 26-C ) :   1.3918 B( 23-O , 24-C ) :   1.1394 B( 24-C , 25-C ) :   1.4349
B( 24-C , 29-C ) :   1.0621 B( 25-C , 26-C ) :   1.2811 B( 25-C , 79-H ) :   0.9942
B( 26-C , 27-C ) :   1.1093 B( 27-C , 28-N ) :   3.0337 B( 29-C , 30-N ) :   1.2051
B( 29-C , 36-C ) :   1.3916 B( 30-N , 31-C ) :   0.9275 B( 30-N , 33-C ) :   1.0599
B( 31-C , 32-C ) :   1.1217 B( 31-C , 80-H ) :   0.9226 B( 31-C , 81-H ) :   0.9474
B( 32-C , 82-H ) :   0.9654 B( 32-C , 83-H ) :   0.9684 B( 32-C , 84-H ) :   0.9683
B( 33-C , 34-O ) :   1.9787 B( 33-C , 35-C ) :   0.9899 B( 34-O , 91-H ) :   0.1232
B( 35-C , 36-C ) :   1.2585 B( 35-C , 42-C ) :   1.3246 B( 36-C , 37-C ) :   0.9645
B( 37-C , 38-O ) :   2.0716 B( 37-C , 39-N ) :   1.0525 B( 39-N , 40-C ) :   0.9354
B( 39-N , 42-C ) :   1.1707 B( 40-C , 41-C ) :   1.1230 B( 40-C , 85-H ) :   0.9287
B( 40-C , 86-H ) :   0.9494 B( 41-C , 87-H ) :   0.9638 B( 41-C , 88-H ) :   0.9678
B( 41-C , 89-H ) :   0.9681 B( 42-C , 43-C ) :   1.1663 B( 43-C , 44-C ) :   1.5776
B( 43-C , 90-H ) :   0.9649 B( 44-C , 45-C ) :   1.1738 B( 44-C , 91-H ) :   0.9084
B( 45-C , 46-O ) :   1.1690 B( 45-C , 49-C ) :   1.3869 B( 46-O , 47-C ) :   1.1150
B( 47-C , 48-C ) :   1.4039 B( 47-C , 52-C ) :   1.1046 B( 48-C , 49-C ) :   1.2766
B( 48-C , 92-H ) :   1.0226 B( 49-C , 50-C ) :   1.1271 B( 50-C , 51-N ) :   2.9939
B( 52-C , 53-C ) :   1.6577 B( 52-C , 93-H ) :   0.9502 B( 53-C , 54-C ) :   0.9328
B( 53-C , 68-C ) :   1.0109 B( 54-C , 55-O ) :   2.2774 B( 54-C , 56-C ) :   0.9208
B( 56-C , 57-C ) :   1.4706 B( 56-C , 67-C ) :   1.2204 B( 57-C , 58-C ) :   1.2014
B( 57-C , 94-H ) :   1.0152 B( 58-C , 59-C ) :   1.2564 B( 58-C , 63-C ) :   1.1907
B( 59-C , 60-C ) :   1.1920 B( 59-C , 66-C ) :   1.2141 B( 60-C , 61-C ) :   1.4416
B( 60-C , 63-C ) :   0.1087 B( 60-C , 95-H ) :   1.0059 B( 61-C , 62-C ) :   1.1906
B( 61-C , 65-F ) :   1.1356 B( 62-C , 63-C ) :   1.4459 B( 62-C , 64-F ) :   1.1347
B( 63-C , 96-H ) :   1.0057 B( 66-C , 67-C ) :   1.4625 B( 66-C , 97-H ) :   0.9927
B( 67-C , 68-C ) :   1.0001 B( 68-C , 69-C ) :   1.6912 B( 69-C , 70-C ) :   1.1592
B( 69-C , 72-C ) :   1.1401 B( 70-C , 71-N ) :   2.9956 B( 72-C , 73-N ) :   2.9290

-----------------------------------------------------------------------------
         ABSORPTION SPECTRUM VIA TRANSITION ELECTRIC DIPOLE MOMENTS
-----------------------------------------------------------------------------
State   Energy  Wavelength   fosc         T2         TX        TY        TZ
        (cm-1)    (nm)                  (au**2)     (au)      (au)      (au)
-----------------------------------------------------------------------------
   0   12457.3    802.7   0.777237386  20.54017   1.68631   4.11850   0.85703
   1   17553.5    569.7   0.318900964   5.98092  -0.49830   2.14705  -1.05962
   2   22037.6    453.8   0.035222199   0.52617  -0.02686   0.71299   0.13077
   3   22570.6    443.1   0.268069327   3.91003  -0.80229   1.02455  -1.48884
   4   23612.4    423.5   0.087327992   1.21755  -0.36665  -1.02386   0.18662
   5   24900.0    401.6   0.059335834   0.78450  -0.12658  -0.80113  -0.35591
   6   25351.8    394.4   0.054290640   0.70500   0.71201  -0.06096   0.44083
   7   25751.0    388.3   0.119134456   1.52307  -1.05640   0.22615  -0.59661
   8   26353.0    379.5   0.079356323   0.99135   0.45848   0.86238  -0.19350
   9   27410.0    364.8   0.014299938   0.17175   0.36727   0.18828   0.03763
  10   27495.4    363.7   0.064832071   0.77626   0.08127   0.01476   0.87717
  11   27693.3    361.1   0.053093205   0.63116   0.07222  -0.70528   0.35850
  12   28000.7    357.1   0.248239517   2.91862  -0.82058   1.45163  -0.37154
  13   28270.6    353.7   0.555416837   6.46784  -1.14185  -1.97938  -1.11628
  14   28501.0    350.9   0.012411416   0.14336   0.28154  -0.15964  -0.19651
  15   29037.9    344.4   0.043946337   0.49823  -0.70310  -0.05579   0.02780
  16   30664.0    326.1   0.022062446   0.23686   0.30946  -0.18712   0.32570
  17   31196.7    320.5   0.009822462   0.10365  -0.22763  -0.08456  -0.21139
  18   31562.5    316.8   0.100690927   1.05025  -0.42183   0.26715  -0.89496
  19   31811.9    314.3   0.122198300   1.26459  -0.17532  -0.92269  -0.61847
  20   32637.5    306.4   0.102178369   1.03067  -0.93694   0.35016  -0.17378
  21   32716.4    305.7   0.525556051   5.28845  -0.13763   1.56489   1.67948
  22   32923.2    303.7   0.425052726   4.25026  -1.88575   0.41039  -0.72513
  23   33450.8    298.9   0.001355462   0.01334  -0.11046   0.03364   0.00258
  24   34256.4    291.9   0.055783950   0.53610   0.35602  -0.57901   0.27220
  25   34689.0    288.3   0.079743658   0.75680  -0.84303  -0.01085  -0.21442
  26   34765.5    287.6   0.004446069   0.04210   0.08307   0.18259   0.04315
  27   35317.2    283.1   0.173142391   1.61396  -1.19006   0.18142  -0.40598
  28   35532.6    281.4   0.098352749   0.91125   0.36554  -0.87566  -0.10416
  29   35591.9    281.0   0.305601236   2.82670  -1.09157   1.24337  -0.29870
  30   35664.0    280.4   0.117170851   1.08160   0.93246   0.15702   0.43297
  31   36135.4    276.7   0.068910732   0.62781  -0.45121   0.26119   0.59666
  32   36545.8    273.6   0.195426524   1.76044  -0.57051  -1.09616  -0.48309
  33   36703.0    272.5   0.043497044   0.39015   0.43112  -0.39441  -0.22074
  34   36944.9    270.7   0.018981989   0.16915   0.35601   0.03919   0.20216
  35   37072.0    269.7   0.219751587   1.95147   0.05683  -0.16111   1.38646
  36   37279.6    268.2   0.008353684   0.07377   0.22604   0.06666  -0.13503
  37   37366.0    267.6   0.057154901   0.50356   0.16456  -0.17986   0.66643
  38   37661.4    265.5   0.000054711   0.00048  -0.01892   0.00595   0.00921
  39   38397.1    260.4   0.037227116   0.31918   0.04081  -0.55297  -0.10837
  40   38816.6    257.6   0.128753812   1.09199  -0.66168  -0.77947  -0.21586
  41   39470.5    253.4   0.056570688   0.47184  -0.25036  -0.63036  -0.10864
  42   39587.6    252.6   0.011697159   0.09727  -0.22447  -0.21564  -0.01965
  43   39822.3    251.1   0.129396973   1.06973   0.24211   0.95821  -0.30487

FINAL SINGLE POINT ENERGY     -3432.834012508496

DIPOLE MOMENT
-------------
                                X             Y             Z
Electronic contribution:    -10.26247      46.45728     -12.23326
Nuclear contribution   :      7.56227     -47.68839      13.51503
                        -----------------------------------------
Total Dipole Moment    :     -2.70020      -1.23112       1.28176
                        -----------------------------------------
Magnitude (a.u.)       :      3.23259
Magnitude (Debye)      :      8.21660

Rotational constants in cm-1:     0.001238     0.000347     0.000287
Rotational constants in MHz :    37.105362    10.409517     8.603996

                             ****ORCA TERMINATED NORMALLY****
TOTAL RUN TIME: 0 days 0 hours 10 minutes 30 seconds 764 msec
