                         Program Version 4.2.0 -  RELEASE  -
|  1> # ORCA input file
|  2> # SCF done       -212.734559091350          0.000495299688
|  3> ! CAM-B3LYP def2-SVP def2/J RIJCOSX Grid4 TightSCF
|  4> %maxcore 5000
|  5> %tddft
|  6>     Mode sTDDFT
|  7>     Ethresh 5.0
|  8>     maxcore 5000
|  9> end
| 10>
| 11> %pal
| 12>   nprocs 6
| 13>   end
| 14> * xyz 0 1
| 15>    C        0.74717         1.49331         5.25757
| 16>    C        2.09808         1.61790         5.42189
| 17>    F        2.63369         2.81007         5.71546
| 18>    C        2.94401         0.49866         5.28576
| 19>    F        4.26473         0.65084         5.45308
| 20>    C        2.42665        -0.73057         4.98762
| 21>    C        1.03832        -0.89161         4.81336
| 22>    C        0.18178         0.23958         4.94848
| 23>    C       -1.21424         0.10305         4.77322
| 24>    C       -1.73687        -1.12724         4.47076
| 25>    C       -0.87527        -2.25119         4.34701
| 26>    C        0.47616        -2.15134         4.51085
| 27>    C       -1.66838        -3.45689         4.03405
| 28>    O       -1.23274        -4.57759         3.89899
| 29>    C       -3.08634        -3.00362         4.01556
| 30>    C       -3.10712        -1.56796         4.23038
| 31>    C       -4.20171        -0.74735         4.14424
| 32>    C       -5.51163        -1.16618         3.82721
| 33>    N       -6.59830        -1.42393         3.56040
| 34>    C       -4.15619         0.64988         4.33509
| 35>    N       -4.18423         1.78700         4.48893
| 36>    C       -4.18618        -3.81481         4.01610
| 37>    C       -4.25429        -5.19767         3.71928
| 38>    C       -3.42265        -5.98287         2.94708
| 39>    C       -3.89734        -7.32605         2.97693
| 40>    C       -5.12730        -7.31795         3.78355
| 41>    C       -5.34629        -6.04189         4.19407
| 42>    C       -5.98670        -8.40285         4.00294
| 43>    N       -6.73407        -9.25959         4.16217
| 44>    C       -3.28453        -8.42893         2.42298
| 45>    C       -3.56771        -9.79226         2.68561
| 46>    C       -2.69203       -10.58880         1.96712
| 47>    C       -1.83387        -9.70490         1.18536
| 48>    C       -2.15775        -8.41792         1.47162
| 49>    C       -1.55498        -7.29560         0.89007
| 50>    N       -1.04669        -6.40712         0.36940
| 51>    C       -2.64559       -11.99969         2.08357
| 52>    N       -2.03667       -12.90082         1.24091
| 53>    C       -1.44869       -12.65721        -0.05619
| 54>    C       -2.46874       -12.13940        -1.06452
| 55>    C       -2.16814       -14.22166         1.70618
| 56>    O       -1.72309       -15.18794         1.11657
| 57>    C       -2.89499       -14.09987         2.94805
| 58>    C       -3.19038       -12.73580         3.14395
| 59>    C       -3.85461       -12.60284         4.42900
| 60>    O       -4.26101       -11.64423         5.04452
| 61>    N       -3.93099       -13.92491         4.91520
| 62>    C       -4.59900       -14.22073         6.16111
| 63>    C       -6.00621       -14.76478         5.93243
| 64>    C       -3.36374       -14.82452         4.05341
| 65>    C       -3.26212       -16.20739         4.32274
| 66>    C       -2.67763       -17.07891         3.45484
| 67>    C       -2.49638       -18.46173         3.68605
| 68>    S       -1.71073       -19.42280         2.46603
| 69>    C       -1.80647       -20.86987         3.42055
| 70>    C       -2.43627       -20.61126         4.63718
| 71>    C       -2.82574       -19.25548         4.78528
| 72>    C       -3.47329       -18.80504         5.94806
| 73>    N       -4.00147       -18.46179         6.90725
| 74>    C       -2.69059       -21.54625         5.65566
| 75>    N       -2.91820       -22.26495         6.52044
| 76>    C       -1.26919       -22.07241         2.88689
| 77>    C       -1.21562       -23.25230         3.54704
| 78>    C       -0.67776       -24.49739         3.10831
| 79>    S       -0.40335       -25.66664         4.37747
| 80>    C        0.28203       -26.77723         3.28401
| 81>    C        0.28546       -26.30601         2.00356
| 82>    C       -0.26981       -25.01141         1.88529
| 83>    C       -0.44756       -24.36235         0.53869
| 84>    C       -1.93228       -24.37691         0.16858
| 85>    F       -2.42104       -25.62322         0.10184
| 86>    F       -2.71641       -23.71161         1.02660
| 87>    F       -2.14430       -23.81778        -1.03502
| 88>    C        0.31470       -25.07463        -0.60152
| 89>    C        1.46144       -25.94188        -0.10275
| 90>    C        0.90347       -27.02066         0.83833
| 91>    O        1.88671       -27.90119         1.33651
| 92>    C        2.29570       -28.89955         0.43471
| 93>    H        0.11449         2.36071         5.36356
| 94>    H        3.08672        -1.57780         4.88664
| 95>    H       -1.83520         0.97661         4.88836
| 96>    H        1.10561        -3.02214         4.40827
| 97>    H       -5.13133        -3.37635         4.31714
| 98>    H       -2.54774        -5.66129         2.42034
| 99>    H       -6.17229        -5.69156         4.78547
|100>    H       -4.31636       -10.13931         3.36957
|101>    H       -1.04591       -10.00659         0.52311
|102>    H       -1.06472       -13.62810        -0.38446
|103>    H       -0.60124       -11.97325         0.03813
|104>    H       -3.28215       -12.85305        -1.17225
|105>    H       -1.99159       -12.00866        -2.03182
|106>    H       -2.88588       -11.18493        -0.75122
|107>    H       -4.65539       -13.27307         6.70354
|108>    H       -3.99999       -14.92728         6.74160
|109>    H       -6.60381       -14.03654         5.38959
|110>    H       -6.47987       -14.96039         6.88978
|111>    H       -5.97939       -15.69138         5.36332
|112>    H       -3.65329       -16.56196         5.26342
|113>    H       -2.29973       -16.70730         2.51029
|114>    H       -0.88061       -21.97267         1.88513
|115>    H       -1.57936       -23.27747         4.56552
|116>    H        0.66919       -27.71649         3.62217
|117>    H       -0.14234       -23.31376         0.58432
|118>    H        0.68953       -24.32526        -1.29934
|119>    H       -0.37880       -25.71549        -1.15157
|120>    H        2.19561       -25.34680         0.44317
|121>    H        1.95759       -26.40351        -0.95646
|122>    H        0.12846       -27.59913         0.30304
|123>    H        2.95780       -29.55724         0.99416
|124>    H        2.84191       -28.48602        -0.41987
|125>    H        1.43815       -29.47441         0.06458
|126> *
|127>
|128>                          ****END OF INPUT****

CARTESIAN COORDINATES (ANGSTROEM)
---------------------------------
  C      0.747170    1.493310    5.257570
  C      2.098080    1.617900    5.421890
  F      2.633690    2.810070    5.715460
  C      2.944010    0.498660    5.285760
  F      4.264730    0.650840    5.453080
  C      2.426650   -0.730570    4.987620
  C      1.038320   -0.891610    4.813360
  C      0.181780    0.239580    4.948480
  C     -1.214240    0.103050    4.773220
  C     -1.736870   -1.127240    4.470760
  C     -0.875270   -2.251190    4.347010
  C      0.476160   -2.151340    4.510850
  C     -1.668380   -3.456890    4.034050
  O     -1.232740   -4.577590    3.898990
  C     -3.086340   -3.003620    4.015560
  C     -3.107120   -1.567960    4.230380
  C     -4.201710   -0.747350    4.144240
  C     -5.511630   -1.166180    3.827210
  N     -6.598300   -1.423930    3.560400
  C     -4.156190    0.649880    4.335090
  N     -4.184230    1.787000    4.488930
  C     -4.186180   -3.814810    4.016100
  C     -4.254290   -5.197670    3.719280
  C     -3.422650   -5.982870    2.947080
  C     -3.897340   -7.326050    2.976930
  C     -5.127300   -7.317950    3.783550
  C     -5.346290   -6.041890    4.194070
  C     -5.986700   -8.402850    4.002940
  N     -6.734070   -9.259590    4.162170
  C     -3.284530   -8.428930    2.422980
  C     -3.567710   -9.792260    2.685610
  C     -2.692030  -10.588800    1.967120
  C     -1.833870   -9.704900    1.185360
  C     -2.157750   -8.417920    1.471620
  C     -1.554980   -7.295600    0.890070
  N     -1.046690   -6.407120    0.369400
  C     -2.645590  -11.999690    2.083570
  N     -2.036670  -12.900820    1.240910
  C     -1.448690  -12.657210   -0.056190
  C     -2.468740  -12.139400   -1.064520
  C     -2.168140  -14.221660    1.706180
  O     -1.723090  -15.187940    1.116570
  C     -2.894990  -14.099870    2.948050
  C     -3.190380  -12.735800    3.143950
  C     -3.854610  -12.602840    4.429000
  O     -4.261010  -11.644230    5.044520
  N     -3.930990  -13.924910    4.915200
  C     -4.599000  -14.220730    6.161110
  C     -6.006210  -14.764780    5.932430
  C     -3.363740  -14.824520    4.053410
  C     -3.262120  -16.207390    4.322740
  C     -2.677630  -17.078910    3.454840
  C     -2.496380  -18.461730    3.686050
  S     -1.710730  -19.422800    2.466030
  C     -1.806470  -20.869870    3.420550
  C     -2.436270  -20.611260    4.637180
  C     -2.825740  -19.255480    4.785280
  C     -3.473290  -18.805040    5.948060
  N     -4.001470  -18.461790    6.907250
  C     -2.690590  -21.546250    5.655660
  N     -2.918200  -22.264950    6.520440
  C     -1.269190  -22.072410    2.886890
  C     -1.215620  -23.252300    3.547040
  C     -0.677760  -24.497390    3.108310
  S     -0.403350  -25.666640    4.377470
  C      0.282030  -26.777230    3.284010
  C      0.285460  -26.306010    2.003560
  C     -0.269810  -25.011410    1.885290
  C     -0.447560  -24.362350    0.538690
  C     -1.932280  -24.376910    0.168580
  F     -2.421040  -25.623220    0.101840
  F     -2.716410  -23.711610    1.026600
  F     -2.144300  -23.817780   -1.035020
  C      0.314700  -25.074630   -0.601520
  C      1.461440  -25.941880   -0.102750
  C      0.903470  -27.020660    0.838330
  O      1.886710  -27.901190    1.336510
  C      2.295700  -28.899550    0.434710
  H      0.114490    2.360710    5.363560
  H      3.086720   -1.577800    4.886640
  H     -1.835200    0.976610    4.888360
  H      1.105610   -3.022140    4.408270
  H     -5.131330   -3.376350    4.317140
  H     -2.547740   -5.661290    2.420340
  H     -6.172290   -5.691560    4.785470
  H     -4.316360  -10.139310    3.369570
  H     -1.045910  -10.006590    0.523110
  H     -1.064720  -13.628100   -0.384460
  H     -0.601240  -11.973250    0.038130
  H     -3.282150  -12.853050   -1.172250
  H     -1.991590  -12.008660   -2.031820
  H     -2.885880  -11.184930   -0.751220
  H     -4.655390  -13.273070    6.703540
  H     -3.999990  -14.927280    6.741600
  H     -6.603810  -14.036540    5.389590
  H     -6.479870  -14.960390    6.889780
  H     -5.979390  -15.691380    5.363320
  H     -3.653290  -16.561960    5.263420
  H     -2.299730  -16.707300    2.510290
  H     -0.880610  -21.972670    1.885130
  H     -1.579360  -23.277470    4.565520
  H      0.669190  -27.716490    3.622170
  H     -0.142340  -23.313760    0.584320
  H      0.689530  -24.325260   -1.299340
  H     -0.378800  -25.715490   -1.151570
  H      2.195610  -25.346800    0.443170
  H      1.957590  -26.403510   -0.956460
  H      0.128460  -27.599130    0.303040
  H      2.957800  -29.557240    0.994160
  H      2.841910  -28.486020   -0.419870
  H      1.438150  -29.474410    0.064580

 Total Charge           Charge          ....    0
 Multiplicity           Mult            ....    1
 Number of Electrons    NEL             ....  552
 Basis Dimension        Dim             .... 1265

ORBITAL ENERGIES
----------------

  NO   OCC          E(Eh)            E(eV)
   0   2.0000     -88.996097     -2421.7069
   1   2.0000     -88.967521     -2420.9293
   2   2.0000     -24.806303      -675.0138
   3   2.0000     -24.805993      -675.0054
   4   2.0000     -24.804719      -674.9707
   5   2.0000     -24.799302      -674.8233
   6   2.0000     -24.798362      -674.7977
   7   2.0000     -19.226821      -523.1884
   8   2.0000     -19.221897      -523.0544
   9   2.0000     -19.207745      -522.6693
  10   2.0000     -19.203441      -522.5522
  11   2.0000     -14.467738      -393.6872
  12   2.0000     -14.466480      -393.6529
  13   2.0000     -14.429091      -392.6355
  14   2.0000     -14.422136      -392.4463
  15   2.0000     -14.419626      -392.3780
  16   2.0000     -14.419209      -392.3666
  17   2.0000     -14.413726      -392.2174
  18   2.0000     -14.401765      -391.8919
  19   2.0000     -10.519920      -286.2616
  20   2.0000     -10.389004      -282.6992
  21   2.0000     -10.386460      -282.6299
  22   2.0000     -10.382738      -282.5287
  23   2.0000     -10.382018      -282.5091
  24   2.0000     -10.373781      -282.2849
  25   2.0000     -10.357838      -281.8511
  26   2.0000     -10.352411      -281.7034
  27   2.0000     -10.351794      -281.6866
  28   2.0000     -10.347860      -281.5796
  29   2.0000     -10.346694      -281.5479
  30   2.0000     -10.345330      -281.5107
  31   2.0000     -10.344553      -281.4896
  32   2.0000     -10.338264      -281.3185
  33   2.0000     -10.335963      -281.2558
  34   2.0000     -10.330622      -281.1105
  35   2.0000     -10.328302      -281.0474
  36   2.0000     -10.325392      -280.9682
  37   2.0000     -10.324803      -280.9522
  38   2.0000     -10.324582      -280.9462
  39   2.0000     -10.321993      -280.8757
  40   2.0000     -10.321929      -280.8740
  41   2.0000     -10.321715      -280.8682
  42   2.0000     -10.320699      -280.8405
  43   2.0000     -10.319865      -280.8178
  44   2.0000     -10.319450      -280.8065
  45   2.0000     -10.319148      -280.7983
  46   2.0000     -10.317634      -280.7571
  47   2.0000     -10.317429      -280.7515
  48   2.0000     -10.316434      -280.7245
  49   2.0000     -10.315138      -280.6892
  50   2.0000     -10.313002      -280.6310
  51   2.0000     -10.312143      -280.6077
  52   2.0000     -10.311878      -280.6005
  53   2.0000     -10.311669      -280.5948
  54   2.0000     -10.311626      -280.5936
  55   2.0000     -10.309617      -280.5390
  56   2.0000     -10.308702      -280.5140
  57   2.0000     -10.307787      -280.4891
  58   2.0000     -10.307027      -280.4685
  59   2.0000     -10.305314      -280.4218
  60   2.0000     -10.304437      -280.3980
  61   2.0000     -10.303904      -280.3835
  62   2.0000     -10.303869      -280.3825
  63   2.0000     -10.303259      -280.3659
  64   2.0000     -10.302776      -280.3528
  65   2.0000     -10.302246      -280.3384
  66   2.0000     -10.302025      -280.3324
  67   2.0000     -10.301589      -280.3205
  68   2.0000     -10.298177      -280.2277
  69   2.0000     -10.295015      -280.1416
  70   2.0000     -10.293264      -280.0940
  71   2.0000     -10.288195      -279.9560
  72   2.0000     -10.286882      -279.9203
  73   2.0000     -10.282194      -279.7927
  74   2.0000     -10.281048      -279.7615
  75   2.0000     -10.276011      -279.6245
  76   2.0000     -10.274699      -279.5888
  77   2.0000     -10.263164      -279.2749
  78   2.0000      -8.091761      -220.1880
  79   2.0000      -8.063566      -219.4208
  80   2.0000      -6.060889      -164.9252
  81   2.0000      -6.056786      -164.8135
  82   2.0000      -6.054015      -164.7381
  83   2.0000      -6.032656      -164.1569
  84   2.0000      -6.028418      -164.0416
  85   2.0000      -6.026080      -163.9780
  86   2.0000      -1.396660       -38.0051
  87   2.0000      -1.321705       -35.9654
  88   2.0000      -1.306829       -35.5606
  89   2.0000      -1.298716       -35.3399
  90   2.0000      -1.297148       -35.2972
  91   2.0000      -1.148648       -31.2563
  92   2.0000      -1.141420       -31.0596
  93   2.0000      -1.138031       -30.9674
  94   2.0000      -1.129596       -30.7379
  95   2.0000      -1.078441       -29.3459
  96   2.0000      -1.069449       -29.1012
  97   2.0000      -1.039590       -28.2887
  98   2.0000      -1.023502       -27.8509
  99   2.0000      -1.020451       -27.7679
 100   2.0000      -1.008407       -27.4402
 101   2.0000      -1.006783       -27.3959
 102   2.0000      -1.004027       -27.3210
 103   2.0000      -1.002194       -27.2711
 104   2.0000      -1.001896       -27.2630
 105   2.0000      -0.997758       -27.1504
 106   2.0000      -0.988436       -26.8967
 107   2.0000      -0.984372       -26.7861
 108   2.0000      -0.978853       -26.6360
 109   2.0000      -0.945186       -25.7198
 110   2.0000      -0.942135       -25.6368
 111   2.0000      -0.938102       -25.5271
 112   2.0000      -0.935013       -25.4430
 113   2.0000      -0.917363       -24.9627
 114   2.0000      -0.911030       -24.7904
 115   2.0000      -0.898695       -24.4547
 116   2.0000      -0.895932       -24.3796
 117   2.0000      -0.892753       -24.2930
 118   2.0000      -0.888034       -24.1646
 119   2.0000      -0.882895       -24.0248
 120   2.0000      -0.876212       -23.8429
 121   2.0000      -0.863286       -23.4912
 122   2.0000      -0.860669       -23.4200
 123   2.0000      -0.844156       -22.9707
 124   2.0000      -0.843369       -22.9492
 125   2.0000      -0.841207       -22.8904
 126   2.0000      -0.830006       -22.5856
 127   2.0000      -0.824144       -22.4261
 128   2.0000      -0.817878       -22.2556
 129   2.0000      -0.805045       -21.9064
 130   2.0000      -0.796943       -21.6859
 131   2.0000      -0.794350       -21.6154
 132   2.0000      -0.773436       -21.0463
 133   2.0000      -0.770133       -20.9564
 134   2.0000      -0.769422       -20.9370
 135   2.0000      -0.762671       -20.7533
 136   2.0000      -0.755342       -20.5539
 137   2.0000      -0.741721       -20.1833
 138   2.0000      -0.731695       -19.9104
 139   2.0000      -0.724821       -19.7234
 140   2.0000      -0.723756       -19.6944
 141   2.0000      -0.721917       -19.6444
 142   2.0000      -0.721471       -19.6322
 143   2.0000      -0.717622       -19.5275
 144   2.0000      -0.708245       -19.2723
 145   2.0000      -0.704393       -19.1675
 146   2.0000      -0.697838       -18.9891
 147   2.0000      -0.694592       -18.9008
 148   2.0000      -0.687058       -18.6958
 149   2.0000      -0.682760       -18.5788
 150   2.0000      -0.674774       -18.3615
 151   2.0000      -0.673828       -18.3358
 152   2.0000      -0.667726       -18.1697
 153   2.0000      -0.666779       -18.1440
 154   2.0000      -0.659576       -17.9480
 155   2.0000      -0.658339       -17.9143
 156   2.0000      -0.656771       -17.8717
 157   2.0000      -0.650595       -17.7036
 158   2.0000      -0.646899       -17.6030
 159   2.0000      -0.642991       -17.4967
 160   2.0000      -0.642515       -17.4837
 161   2.0000      -0.631990       -17.1973
 162   2.0000      -0.624964       -17.0061
 163   2.0000      -0.613912       -16.7054
 164   2.0000      -0.612441       -16.6654
 165   2.0000      -0.605118       -16.4661
 166   2.0000      -0.600492       -16.3402
 167   2.0000      -0.596970       -16.2444
 168   2.0000      -0.592442       -16.1212
 169   2.0000      -0.586272       -15.9533
 170   2.0000      -0.583712       -15.8836
 171   2.0000      -0.580489       -15.7959
 172   2.0000      -0.577814       -15.7231
 173   2.0000      -0.574712       -15.6387
 174   2.0000      -0.572872       -15.5887
 175   2.0000      -0.566528       -15.4160
 176   2.0000      -0.560035       -15.2393
 177   2.0000      -0.558105       -15.1868
 178   2.0000      -0.557079       -15.1589
 179   2.0000      -0.556134       -15.1332
 180   2.0000      -0.555561       -15.1176
 181   2.0000      -0.555156       -15.1066
 182   2.0000      -0.553673       -15.0662
 183   2.0000      -0.549918       -14.9640
 184   2.0000      -0.547795       -14.9063
 185   2.0000      -0.544646       -14.8206
 186   2.0000      -0.543224       -14.7819
 187   2.0000      -0.541592       -14.7375
 188   2.0000      -0.541050       -14.7227
 189   2.0000      -0.534192       -14.5361
 190   2.0000      -0.533353       -14.5133
 191   2.0000      -0.532098       -14.4791
 192   2.0000      -0.531165       -14.4537
 193   2.0000      -0.528358       -14.3773
 194   2.0000      -0.527159       -14.3447
 195   2.0000      -0.525354       -14.2956
 196   2.0000      -0.523789       -14.2530
 197   2.0000      -0.521417       -14.1885
 198   2.0000      -0.518234       -14.1019
 199   2.0000      -0.515959       -14.0399
 200   2.0000      -0.515501       -14.0275
 201   2.0000      -0.510446       -13.8899
 202   2.0000      -0.509855       -13.8739
 203   2.0000      -0.506427       -13.7806
 204   2.0000      -0.504886       -13.7387
 205   2.0000      -0.500262       -13.6128
 206   2.0000      -0.499282       -13.5861
 207   2.0000      -0.498057       -13.5528
 208   2.0000      -0.495103       -13.4725
 209   2.0000      -0.493589       -13.4312
 210   2.0000      -0.491439       -13.3727
 211   2.0000      -0.490608       -13.3501
 212   2.0000      -0.487374       -13.2621
 213   2.0000      -0.485252       -13.2044
 214   2.0000      -0.484730       -13.1902
 215   2.0000      -0.484716       -13.1898
 216   2.0000      -0.483629       -13.1602
 217   2.0000      -0.482772       -13.1369
 218   2.0000      -0.475761       -12.9461
 219   2.0000      -0.474249       -12.9050
 220   2.0000      -0.473217       -12.8769
 221   2.0000      -0.472022       -12.8444
 222   2.0000      -0.471033       -12.8175
 223   2.0000      -0.468303       -12.7432
 224   2.0000      -0.467818       -12.7300
 225   2.0000      -0.464116       -12.6292
 226   2.0000      -0.463927       -12.6241
 227   2.0000      -0.460188       -12.5224
 228   2.0000      -0.456834       -12.4311
 229   2.0000      -0.454277       -12.3615
 230   2.0000      -0.453735       -12.3468
 231   2.0000      -0.452341       -12.3088
 232   2.0000      -0.448853       -12.2139
 233   2.0000      -0.448317       -12.1993
 234   2.0000      -0.448138       -12.1945
 235   2.0000      -0.447611       -12.1801
 236   2.0000      -0.447044       -12.1647
 237   2.0000      -0.442829       -12.0500
 238   2.0000      -0.442272       -12.0348
 239   2.0000      -0.437235       -11.8978
 240   2.0000      -0.435398       -11.8478
 241   2.0000      -0.435026       -11.8377
 242   2.0000      -0.432595       -11.7715
 243   2.0000      -0.430892       -11.7252
 244   2.0000      -0.429652       -11.6914
 245   2.0000      -0.428702       -11.6656
 246   2.0000      -0.428248       -11.6532
 247   2.0000      -0.426568       -11.6075
 248   2.0000      -0.422866       -11.5068
 249   2.0000      -0.420855       -11.4520
 250   2.0000      -0.418683       -11.3929
 251   2.0000      -0.416227       -11.3261
 252   2.0000      -0.414611       -11.2821
 253   2.0000      -0.412870       -11.2348
 254   2.0000      -0.412314       -11.2196
 255   2.0000      -0.399353       -10.8669
 256   2.0000      -0.397366       -10.8129
 257   2.0000      -0.397065       -10.8047
 258   2.0000      -0.386475       -10.5165
 259   2.0000      -0.378418       -10.2973
 260   2.0000      -0.361786        -9.8447
 261   2.0000      -0.360286        -9.8039
 262   2.0000      -0.349909        -9.5215
 263   2.0000      -0.346625        -9.4321
 264   2.0000      -0.346359        -9.4249
 265   2.0000      -0.344838        -9.3835
 266   2.0000      -0.331463        -9.0196
 267   2.0000      -0.331127        -9.0104
 268   2.0000      -0.330276        -8.9873
 269   2.0000      -0.323809        -8.8113
 270   2.0000      -0.319559        -8.6956
 271   2.0000      -0.319365        -8.6904
 272   2.0000      -0.304745        -8.2925
 273   2.0000      -0.290728        -7.9111
 274   2.0000      -0.278435        -7.5766
 275   2.0000      -0.245394        -6.6775
 276   0.0000      -0.141835        -3.8595
 277   0.0000      -0.096857        -2.6356
 278   0.0000      -0.083515        -2.2726
 279   0.0000      -0.061694        -1.6788
 280   0.0000      -0.059652        -1.6232

MULLIKEN ATOMIC CHARGES
-----------------------
   0 C :   -0.108942
   1 C :    0.242333
   2 F :   -0.170517
   3 C :    0.240993
   4 F :   -0.171726
   5 C :   -0.104904
   6 C :    0.117122
   7 C :    0.114171
   8 C :   -0.083577
   9 C :    0.055834
  10 C :   -0.010579
  11 C :   -0.076576
  12 C :    0.151926
  13 O :   -0.137700
  14 C :   -0.078198
  15 C :    0.302761
  16 C :   -0.338670
  17 C :   -0.199336
  18 N :    0.165653
  19 C :   -0.182168
  20 N :    0.149671
  21 C :   -0.019345
  22 C :    0.081480
  23 C :   -0.038561
  24 C :    0.070034
  25 C :   -0.084167
  26 C :   -0.003246
  27 C :   -0.180088
  28 N :    0.146694
  29 C :    0.142485
  30 C :   -0.115034
  31 C :    0.036002
  32 C :   -0.025621
  33 C :   -0.086388
  34 C :   -0.180400
  35 N :    0.148654
  36 C :    0.149908
  37 N :   -0.256057
  38 C :    0.098208
  39 C :   -0.009892
  40 C :    0.165060
  41 O :   -0.215503
  42 C :   -0.079802
  43 C :   -0.046865
  44 C :    0.156588
  45 O :   -0.168915
  46 N :   -0.255833
  47 C :    0.089279
  48 C :    0.005059
  49 C :    0.156842
  50 C :   -0.043733
  51 C :    0.075168
  52 C :   -0.112059
  53 S :    0.200824
  54 C :   -0.106350
  55 C :   -0.022981
  56 C :   -0.014290
  57 C :   -0.242017
  58 N :    0.198991
  59 C :   -0.249280
  60 N :    0.197205
  61 C :    0.060925
  62 C :    0.070247
  63 C :   -0.178128
  64 S :    0.153422
  65 C :   -0.096102
  66 C :   -0.043300
  67 C :    0.026820
  68 C :   -0.095846
  69 C :    0.484035
  70 F :   -0.164942
  71 F :   -0.151050
  72 F :   -0.167453
  73 C :    0.050188
  74 C :    0.055884
  75 C :    0.206810
  76 O :   -0.375305
  77 C :    0.196341
  78 H :    0.008940
  79 H :    0.000677
  80 H :   -0.005865
  81 H :   -0.007729
  82 H :    0.023967
  83 H :    0.023464
  84 H :    0.005660
  85 H :    0.030115
  86 H :   -0.010303
  87 H :    0.048087
  88 H :    0.026727
  89 H :    0.030725
  90 H :    0.029231
  91 H :    0.029990
  92 H :    0.049433
  93 H :    0.039618
  94 H :    0.034699
  95 H :    0.033279
  96 H :    0.016287
  97 H :   -0.010140
  98 H :    0.004389
  99 H :   -0.046629
 100 H :    0.002825
 101 H :    0.026240
 102 H :    0.039578
 103 H :    0.020981
 104 H :    0.023730
 105 H :    0.011539
 106 H :    0.005980
 107 H :    0.001654
 108 H :    0.032549
 109 H :    0.005038
 110 H :    0.003091
Sum of atomic charges:   -0.0000000

LOEWDIN ATOMIC CHARGES
----------------------
   0 C :   -0.029133
   1 C :    0.067363
   2 F :   -0.048399
   3 C :    0.068492
   4 F :   -0.049018
   5 C :   -0.032407
   6 C :   -0.007898
   7 C :   -0.005885
   8 C :    0.018077
   9 C :   -0.023463
  10 C :   -0.052013
  11 C :    0.032642
  12 C :    0.085285
  13 O :   -0.127763
  14 C :   -0.078751
  15 C :    0.073285
  16 C :   -0.133191
  17 C :   -0.024879
  18 N :   -0.045463
  19 C :   -0.016828
  20 N :   -0.049299
  21 C :    0.070971
  22 C :   -0.042306
  23 C :    0.044464
  24 C :    0.032789
  25 C :   -0.086061
  26 C :    0.058110
  27 C :   -0.033535
  28 N :   -0.053619
  29 C :    0.048962
  30 C :    0.003086
  31 C :   -0.026776
  32 C :    0.047842
  33 C :   -0.072656
  34 C :   -0.032626
  35 N :   -0.053256
  36 C :    0.063319
  37 N :   -0.000229
  38 C :    0.035093
  39 C :   -0.060739
  40 C :    0.079434
  41 O :   -0.204902
  42 C :   -0.123971
  43 C :   -0.089837
  44 C :    0.086989
  45 O :   -0.160089
  46 N :    0.006458
  47 C :    0.037055
  48 C :   -0.058097
  49 C :    0.091019
  50 C :   -0.036632
  51 C :    0.011050
  52 C :   -0.150483
  53 S :    0.500416
  54 C :   -0.118949
  55 C :   -0.094351
  56 C :   -0.071482
  57 C :   -0.025287
  58 N :   -0.036103
  59 C :   -0.031827
  60 N :   -0.036840
  61 C :   -0.068186
  62 C :    0.000197
  63 C :   -0.178630
  64 S :    0.476456
  65 C :   -0.164523
  66 C :   -0.067550
  67 C :   -0.052247
  68 C :   -0.057447
  69 C :    0.161413
  70 F :   -0.059334
  71 F :   -0.049408
  72 F :   -0.065599
  73 C :   -0.019777
  74 C :   -0.034946
  75 C :    0.071407
  76 O :   -0.162818
  77 C :    0.069541
  78 H :    0.048084
  79 H :    0.045326
  80 H :    0.040019
  81 H :    0.041305
  82 H :    0.047688
  83 H :    0.037028
  84 H :    0.039855
  85 H :    0.038921
  86 H :    0.035522
  87 H :    0.039129
  88 H :    0.019866
  89 H :    0.033543
  90 H :    0.034285
  91 H :    0.024610
  92 H :    0.040162
  93 H :    0.028830
  94 H :    0.033701
  95 H :    0.035851
  96 H :    0.022812
  97 H :    0.037071
  98 H :    0.037994
  99 H :    0.020979
 100 H :    0.038197
 101 H :    0.029383
 102 H :    0.041851
 103 H :    0.034039
 104 H :    0.028639
 105 H :    0.027921
 106 H :    0.025915
 107 H :    0.015648
 108 H :    0.025878
 109 H :    0.005825
 110 H :    0.008414

  Mayer bond orders larger than 0.100000
B(  0-C ,  1-C ) :   1.4421 B(  0-C ,  5-C ) :   0.1084 B(  0-C ,  7-C ) :   1.1870
B(  0-C , 78-H ) :   1.0073 B(  1-C ,  2-F ) :   1.1354 B(  1-C ,  3-C ) :   1.1892
B(  3-C ,  4-F ) :   1.1335 B(  3-C ,  5-C ) :   1.4429 B(  5-C ,  6-C ) :   1.1920
B(  5-C , 79-H ) :   1.0078 B(  6-C ,  7-C ) :   1.2546 B(  6-C , 11-C ) :   1.1898
B(  7-C ,  8-C ) :   1.2194 B(  8-C ,  9-C ) :   1.4456 B(  8-C , 80-H ) :   0.9907
B(  9-C , 10-C ) :   1.2190 B(  9-C , 15-C ) :   0.9890 B( 10-C , 11-C ) :   1.4725
B( 10-C , 12-C ) :   0.9421 B( 11-C , 81-H ) :   1.0165 B( 12-C , 13-O ) :   2.2173
B( 12-C , 14-C ) :   0.9366 B( 14-C , 15-C ) :   1.0593 B( 14-C , 21-C ) :   1.5936
B( 15-C , 16-C ) :   1.6442 B( 16-C , 17-C ) :   1.1383 B( 16-C , 19-C ) :   1.1446
B( 17-C , 18-N ) :   2.9907 B( 19-C , 20-N ) :   2.9639 B( 21-C , 22-C ) :   1.1334
B( 21-C , 82-H ) :   0.9437 B( 22-C , 23-C ) :   1.5224 B( 22-C , 26-C ) :   1.0323
B( 23-C , 24-C ) :   1.1256 B( 23-C , 83-H ) :   0.9865 B( 24-C , 25-C ) :   1.1143
B( 24-C , 29-C ) :   1.3868 B( 25-C , 26-C ) :   1.6546 B( 25-C , 27-C ) :   1.0880
B( 26-C , 84-H ) :   1.0245 B( 27-C , 28-N ) :   2.9904 B( 29-C , 30-C ) :   1.1325
B( 29-C , 33-C ) :   1.0919 B( 30-C , 31-C ) :   1.5283 B( 30-C , 85-H ) :   0.9908
B( 31-C , 32-C ) :   1.0097 B( 31-C , 36-C ) :   1.0668 B( 32-C , 33-C ) :   1.6837
B( 32-C , 86-H ) :   1.0269 B( 33-C , 34-C ) :   1.0836 B( 34-C , 35-N ) :   2.9799
B( 36-C , 37-N ) :   1.1878 B( 36-C , 43-C ) :   1.3683 B( 37-N , 38-C ) :   0.9413
B( 37-N , 40-C ) :   1.0584 B( 38-C , 39-C ) :   1.1162 B( 38-C , 87-H ) :   0.9220
B( 38-C , 88-H ) :   0.9508 B( 39-C , 89-H ) :   0.9619 B( 39-C , 90-H ) :   0.9666
B( 39-C , 91-H ) :   0.9668 B( 40-C , 41-O ) :   2.0079 B( 40-C , 42-C ) :   1.0002
B( 41-O , 98-H ) :   0.1199 B( 42-C , 43-C ) :   1.2713 B( 42-C , 49-C ) :   1.2766
B( 43-C , 44-C ) :   0.9576 B( 44-C , 45-O ) :   2.1017 B( 44-C , 46-N ) :   1.0382
B( 46-N , 47-C ) :   0.9313 B( 46-N , 49-C ) :   1.1912 B( 47-C , 48-C ) :   1.1260
B( 47-C , 92-H ) :   0.9264 B( 47-C , 93-H ) :   0.9474 B( 48-C , 94-H ) :   0.9634
B( 48-C , 95-H ) :   0.9672 B( 48-C , 96-H ) :   0.9677 B( 49-C , 50-C ) :   1.1881
B( 50-C , 51-C ) :   1.5956 B( 50-C , 97-H ) :   0.9462 B( 51-C , 52-C ) :   1.1704
B( 51-C , 98-H ) :   0.9162 B( 52-C , 53-S ) :   1.1252 B( 52-C , 56-C ) :   1.4369
B( 53-S , 54-C ) :   1.1475 B( 54-C , 55-C ) :   1.4274 B( 54-C , 61-C ) :   1.1846
B( 55-C , 56-C ) :   1.3656 B( 55-C , 59-C ) :   1.1632 B( 56-C , 57-C ) :   1.1662
B( 57-C , 58-N ) :   2.9441 B( 59-C , 60-N ) :   2.9414 B( 61-C , 62-C ) :   1.6736
B( 61-C , 99-H ) :   0.9311 B( 62-C , 63-C ) :   1.1545 B( 62-C ,100-H ) :   0.9245
B( 63-C , 64-S ) :   1.1609 B( 63-C , 67-C ) :   1.4652 B( 64-S , 65-C ) :   1.1779
B( 65-C , 66-C ) :   1.5595 B( 65-C ,101-H ) :   0.9675 B( 66-C , 67-C ) :   1.3318
B( 66-C , 75-C ) :   0.9558 B( 67-C , 68-C ) :   0.9990 B( 68-C , 69-C ) :   0.9977
B( 68-C , 73-C ) :   1.0158 B( 68-C ,102-H ) :   0.8729 B( 69-C , 70-F ) :   1.1414
B( 69-C , 71-F ) :   1.1552 B( 69-C , 72-F ) :   1.1451 B( 73-C , 74-C ) :   1.0979
B( 73-C ,103-H ) :   0.9255 B( 73-C ,104-H ) :   0.9256 B( 74-C , 75-C ) :   1.0640
B( 74-C ,105-H ) :   0.9246 B( 74-C ,106-H ) :   0.9290 B( 75-C , 76-O ) :   1.0696
B( 75-C ,107-H ) :   0.9080 B( 76-O , 77-C ) :   0.9849 B( 77-C ,108-H ) :   0.9825
B( 77-C ,109-H ) :   0.9669 B( 77-C ,110-H ) :   0.9649

-----------------------------------------------------------------------------
         ABSORPTION SPECTRUM VIA TRANSITION ELECTRIC DIPOLE MOMENTS
-----------------------------------------------------------------------------
State   Energy  Wavelength   fosc         T2         TX        TY        TZ
        (cm-1)    (nm)                  (au**2)     (au)      (au)      (au)
-----------------------------------------------------------------------------
   0    7767.8   1287.4   0.580462996  24.60081   0.35836  -4.94359   0.18243
   1   14690.5    680.7   0.028772583   0.64479   0.10790  -0.63768  -0.47594
   2   17295.0    578.2   0.532622450  10.13853  -0.07891   3.01121  -1.03193
   3   19188.6    521.1   0.071683206   1.22984  -0.14047   1.08750   0.16572
   4   19770.8    505.8   0.200023996   3.33068   0.55776  -1.71310  -0.29132
   5   21778.2    459.2   0.042516426   0.64270  -0.47045   0.62416   0.17833
   6   22887.2    436.9   0.172776465   2.48524   0.11088   1.54856   0.27369
   7   23128.2    432.4   0.001392595   0.01982   0.05890  -0.00605  -0.12774
   8   23850.9    419.3   0.193785320   2.67481  -0.41489  -1.54412  -0.34405
   9   24468.7    408.7   0.108464189   1.45932  -0.50033   1.01951   0.41180
  10   24638.5    405.9   0.008590165   0.11478   0.03788  -0.29363  -0.16470
  11   25752.4    388.3   0.601539726   7.68991   0.86932  -2.53061  -0.72815
  12   26036.1    384.1   0.214236722   2.70890   0.53515   1.43575   0.60095
  13   26848.4    372.5   0.278974173   3.42075   0.71703  -1.20114  -1.20991
  14   27391.0    365.1   0.138069110   1.65945   0.09779  -1.25908  -0.25417
  15   28699.7    348.4   0.083856281   0.96191  -0.78845  -0.53321  -0.23653
  16   29208.4    342.4   0.012024890   0.13553   0.18062  -0.30781   0.09035
  17   29589.9    338.0   0.040893032   0.45497   0.03090  -0.60816   0.29009
  18   30729.5    325.4   0.139011690   1.48926   0.92628   0.65398   0.45119
  19   30917.9    323.4   0.015901693   0.16932  -0.31499  -0.07217   0.25475
  20   31009.2    322.5   0.051448423   0.54621   0.54686   0.48191   0.12212
  21   31152.6    321.0   0.016830305   0.17786  -0.34540   0.13856   0.19839
  22   31588.0    316.6   0.043865511   0.45717  -0.40298   0.52378   0.14291
  23   31962.1    312.9   0.197953385   2.03893  -0.75129   1.13207   0.43922
  24   32073.7    311.8   0.192080700   1.97156   1.35533   0.35148   0.10543
  25   32568.2    307.0   0.009542319   0.09646  -0.10753   0.06713   0.28353
  26   33050.4    302.6   0.080966709   0.80650   0.53129  -0.54541  -0.47619
  27   33279.3    300.5   0.028934385   0.28623   0.27450   0.44502  -0.11333
  28   33976.3    294.3   0.121377675   1.17608   0.17707  -1.05711  -0.16508
  29   34321.5    291.4   0.031318206   0.30040   0.37577   0.39797  -0.02867
  30   34386.5    290.8   0.031550043   0.30206  -0.10612   0.09112   0.53150
  31   35041.7    285.4   0.348779335   3.27673  -1.72255  -0.47357  -0.29203
  32   35168.2    284.3   0.027765700   0.25992  -0.14042  -0.49000   0.00998
  33   35734.2    279.8   0.101920824   0.93898   0.95496  -0.01483   0.16370
  34   35835.1    279.1   0.335874867   3.08564   1.72480  -0.23001   0.24039
  35   36489.4    274.1   0.035738677   0.32244   0.39637  -0.39664  -0.08950
  36   36792.1    271.8   0.083477178   0.74694  -0.06066  -0.81251  -0.28824
  37   37125.5    269.4   0.119399047   1.05878   0.75440  -0.69964  -0.01239
  38   37684.5    265.4   0.039466414   0.34478   0.06767  -0.46679   0.34972
  39   37752.5    264.9   0.023503046   0.20495  -0.15543   0.12501   0.40640
  40   37906.7    263.8   0.075859362   0.65882   0.23610  -0.77652   0.01001
  41   38021.4    263.0   0.004388029   0.03799  -0.13289   0.03142  -0.13909
  42   38165.4    262.0   0.051289429   0.44242  -0.65824  -0.05500   0.07815
  43   38709.3    258.3   0.101183526   0.86054  -0.40566  -0.75619  -0.35236
  44   38885.9    257.2   0.045466798   0.38493   0.09640  -0.60261  -0.11176
  45   39125.7    255.6   0.021602392   0.18177  -0.15449  -0.37200  -0.13970
  46   39791.7    251.3   0.017187569   0.14220  -0.35863   0.11654   0.00203
  47   40045.7    249.7   0.032278635   0.26536   0.39213  -0.17991  -0.28148
  48   40152.4    249.1   0.060266976   0.49413  -0.47116  -0.28941   0.43403

FINAL SINGLE POINT ENERGY     -4297.977906791548

DIPOLE MOMENT
-------------
                                X             Y             Z
Electronic contribution:      0.03030      77.77154      19.68028
Nuclear contribution   :      3.45581     -82.08341     -21.72920
                        -----------------------------------------
Total Dipole Moment    :      3.48611      -4.31187      -2.04892
                        -----------------------------------------
Magnitude (a.u.)       :      5.91128
Magnitude (Debye)      :     15.02528

Rotational constants in cm-1:     0.001839     0.000165     0.000161
Rotational constants in MHz :    55.141467     4.954022     4.822778

                             ****ORCA TERMINATED NORMALLY****
TOTAL RUN TIME: 0 days 0 hours 12 minutes 52 seconds 243 msec
