                         Program Version 4.2.0 -  RELEASE  -
|  1> # ORCA input file
|  2> # SCF done       -228.611436509120          0.000517482624
|  3> ! CAM-B3LYP def2-SVP def2/J RIJCOSX Grid4 TightSCF
|  4> %maxcore 5000
|  5> %tddft
|  6>     Mode sTDDFT
|  7>     Ethresh 5.0
|  8>     maxcore 5000
|  9> end
| 10>
| 11> %pal
| 12>   nprocs 6
| 13>   end
| 14> * xyz 0 1
| 15>    C        3.57654        -3.00550         6.41712
| 16>    C        4.71050        -3.64116         6.83868
| 17>    F        5.66968        -2.95651         7.47557
| 18>    C        4.88616        -5.02068         6.61014
| 19>    F        6.00873        -5.61845         7.03307
| 20>    C        3.92462        -5.74573         5.96392
| 21>    C        2.74496        -5.11952         5.51673
| 22>    C        2.56614        -3.72465         5.74742
| 23>    C        1.39049        -3.07496         5.30722
| 24>    C        0.42453        -3.79889         4.65929
| 25>    C        0.61232        -5.19015         4.42842
| 26>    C        1.73833        -5.84329         4.83929
| 27>    C       -0.54553        -5.73275         3.68692
| 28>    O       -0.65151        -6.85842         3.25115
| 29>    C       -1.45493        -4.57613         3.47811
| 30>    C       -0.86957        -3.41032         4.10970
| 31>    C       -1.47341        -2.19009         4.26081
| 32>    C       -2.78364        -1.88482         3.83254
| 33>    N       -3.85022        -1.57055         3.54726
| 34>    C       -0.87612        -1.09091         4.91229
| 35>    N       -0.43400        -0.16404         5.42514
| 36>    C       -2.53699        -4.57535         2.64934
| 37>    C       -3.22924        -5.72842         2.18543
| 38>    C       -3.87039        -5.71926         0.92804
| 39>    C       -4.54773        -6.87029         0.41654
| 40>    N       -5.10362        -6.82178        -0.80796
| 41>    C       -5.03222        -5.73088        -1.50087
| 42>    C       -4.36602        -4.58583        -0.98762
| 43>    N       -3.80220        -4.59795         0.17485
| 44>    F       -4.29757        -3.46872        -1.70182
| 45>    F       -5.59418        -5.72424        -2.70573
| 46>    C       -4.64152        -8.08940         1.14098
| 47>    C       -4.12718        -8.04903         2.45900
| 48>    C       -3.42495        -6.88858         2.96460
| 49>    N       -3.09725        -7.02950         4.24736
| 50>    S       -3.59523        -8.46432         4.75541
| 51>    N       -4.27206        -8.98010         3.39960
| 52>    C       -5.24412        -9.22804         0.56057
| 53>    S       -6.25101        -9.07742        -0.84433
| 54>    C       -6.64306       -10.75980        -0.87928
| 55>    C       -5.95294       -11.43928         0.12855
| 56>    C       -5.14915       -10.57986         0.93738
| 57>    N       -4.35658       -11.08179         1.89711
| 58>    C       -4.40532       -12.37641         2.09948
| 59>    O       -3.64329       -12.93501         3.01945
| 60>    C       -2.74745       -12.07746         3.72261
| 61>    C       -1.97257       -12.92243         4.71647
| 62>    C       -5.27792       -13.24077         1.33849
| 63>    C       -5.29746       -14.71895         1.59469
| 64>    N       -4.07364       -15.29625         1.04999
| 65>    N       -6.00079       -12.76929         0.36904
| 66>    C       -7.56862       -11.29164        -1.83882
| 67>    C       -8.02926       -12.60608        -1.73839
| 68>    C       -8.94640       -13.10054        -2.64941
| 69>    N       -9.33694       -14.47874        -2.50256
| 70>    O       -9.11012       -15.01626        -1.44015
| 71>    O       -9.86311       -15.03068        -3.44902
| 72>    C       -9.44678       -12.31015        -3.70084
| 73>    C       -8.95180       -11.00278        -3.80255
| 74>    C       -8.04480       -10.50320        -2.89954
| 75>    C      -10.47975       -12.75670        -4.61012
| 76>    C      -10.50019       -12.45659        -5.92288
| 77>    C      -11.50371       -12.90334        -6.83699
| 78>    C      -12.81755       -13.15969        -6.62051
| 79>    C      -13.57006       -13.97404        -7.62212
| 80>    O      -13.21129       -14.24802        -8.74187
| 81>    C      -14.80279       -14.39787        -6.93011
| 82>    C      -15.77645       -15.25392        -7.35856
| 83>    C      -16.87111       -15.52938        -6.50910
| 84>    C      -16.92916       -14.91854        -5.22230
| 85>    C      -18.02187       -15.20063        -4.37760
| 86>    C      -19.01263       -16.04517        -4.79263
| 87>    C      -18.95508       -16.64783        -6.06602
| 88>    C      -17.90729       -16.39685        -6.90686
| 89>    F      -19.94016       -17.47163        -6.44553
| 90>    F      -20.05196       -16.30909        -3.99118
| 91>    C      -15.90759       -14.03531        -4.80653
| 92>    C      -14.86409       -13.76972        -5.65334
| 93>    C      -13.71429       -12.88046        -5.51395
| 94>    C      -13.64140       -11.82697        -4.64311
| 95>    C      -12.63621       -10.84012        -4.67545
| 96>    N      -11.86777        -9.98783        -4.67205
| 97>    C      -14.61037       -11.55702        -3.65339
| 98>    N      -15.36034       -11.30216        -2.82313
| 99>    H        3.45718        -1.94915         6.60080
|100>    H        4.07517        -6.80066         5.79600
|101>    H        1.28716        -2.01708         5.48739
|102>    H        1.85957        -6.89912         4.65023
|103>    H       -2.90341        -3.63729         2.25179
|104>    H       -3.32886       -11.29372         4.22148
|105>    H       -2.07920       -11.59316         3.00212
|106>    H       -2.65200       -13.38512         5.42683
|107>    H       -1.26555       -12.29859         5.25506
|108>    H       -1.43133       -13.70656         4.19449
|109>    H       -6.21932       -15.13154         1.15673
|110>    H       -5.29584       -14.89383         2.67349
|111>    H       -4.07294       -15.21582         0.03840
|112>    H       -4.01920       -16.28068         1.28452
|113>    H       -7.66186       -13.24438        -0.94887
|114>    H       -9.34255       -10.36570        -4.57990
|115>    H       -7.69246        -9.48757        -2.99897
|116>    H      -11.25109       -13.39817        -4.20469
|117>    H       -9.65571       -11.94394        -6.36413
|118>    H      -11.16160       -13.12668        -7.84365
|119>    H      -15.71298       -15.71370        -8.33294
|120>    H      -18.08284       -14.74480        -3.40172
|121>    H      -17.87832       -16.86615        -7.87773
|122>    H      -15.97150       -13.59580        -3.82395
|123> *
|124>
|125>                          ****END OF INPUT****

CARTESIAN COORDINATES (ANGSTROEM)
---------------------------------
  C      3.576540   -3.005500    6.417120
  C      4.710500   -3.641160    6.838680
  F      5.669680   -2.956510    7.475570
  C      4.886160   -5.020680    6.610140
  F      6.008730   -5.618450    7.033070
  C      3.924620   -5.745730    5.963920
  C      2.744960   -5.119520    5.516730
  C      2.566140   -3.724650    5.747420
  C      1.390490   -3.074960    5.307220
  C      0.424530   -3.798890    4.659290
  C      0.612320   -5.190150    4.428420
  C      1.738330   -5.843290    4.839290
  C     -0.545530   -5.732750    3.686920
  O     -0.651510   -6.858420    3.251150
  C     -1.454930   -4.576130    3.478110
  C     -0.869570   -3.410320    4.109700
  C     -1.473410   -2.190090    4.260810
  C     -2.783640   -1.884820    3.832540
  N     -3.850220   -1.570550    3.547260
  C     -0.876120   -1.090910    4.912290
  N     -0.434000   -0.164040    5.425140
  C     -2.536990   -4.575350    2.649340
  C     -3.229240   -5.728420    2.185430
  C     -3.870390   -5.719260    0.928040
  C     -4.547730   -6.870290    0.416540
  N     -5.103620   -6.821780   -0.807960
  C     -5.032220   -5.730880   -1.500870
  C     -4.366020   -4.585830   -0.987620
  N     -3.802200   -4.597950    0.174850
  F     -4.297570   -3.468720   -1.701820
  F     -5.594180   -5.724240   -2.705730
  C     -4.641520   -8.089400    1.140980
  C     -4.127180   -8.049030    2.459000
  C     -3.424950   -6.888580    2.964600
  N     -3.097250   -7.029500    4.247360
  S     -3.595230   -8.464320    4.755410
  N     -4.272060   -8.980100    3.399600
  C     -5.244120   -9.228040    0.560570
  S     -6.251010   -9.077420   -0.844330
  C     -6.643060  -10.759800   -0.879280
  C     -5.952940  -11.439280    0.128550
  C     -5.149150  -10.579860    0.937380
  N     -4.356580  -11.081790    1.897110
  C     -4.405320  -12.376410    2.099480
  O     -3.643290  -12.935010    3.019450
  C     -2.747450  -12.077460    3.722610
  C     -1.972570  -12.922430    4.716470
  C     -5.277920  -13.240770    1.338490
  C     -5.297460  -14.718950    1.594690
  N     -4.073640  -15.296250    1.049990
  N     -6.000790  -12.769290    0.369040
  C     -7.568620  -11.291640   -1.838820
  C     -8.029260  -12.606080   -1.738390
  C     -8.946400  -13.100540   -2.649410
  N     -9.336940  -14.478740   -2.502560
  O     -9.110120  -15.016260   -1.440150
  O     -9.863110  -15.030680   -3.449020
  C     -9.446780  -12.310150   -3.700840
  C     -8.951800  -11.002780   -3.802550
  C     -8.044800  -10.503200   -2.899540
  C    -10.479750  -12.756700   -4.610120
  C    -10.500190  -12.456590   -5.922880
  C    -11.503710  -12.903340   -6.836990
  C    -12.817550  -13.159690   -6.620510
  C    -13.570060  -13.974040   -7.622120
  O    -13.211290  -14.248020   -8.741870
  C    -14.802790  -14.397870   -6.930110
  C    -15.776450  -15.253920   -7.358560
  C    -16.871110  -15.529380   -6.509100
  C    -16.929160  -14.918540   -5.222300
  C    -18.021870  -15.200630   -4.377600
  C    -19.012630  -16.045170   -4.792630
  C    -18.955080  -16.647830   -6.066020
  C    -17.907290  -16.396850   -6.906860
  F    -19.940160  -17.471630   -6.445530
  F    -20.051960  -16.309090   -3.991180
  C    -15.907590  -14.035310   -4.806530
  C    -14.864090  -13.769720   -5.653340
  C    -13.714290  -12.880460   -5.513950
  C    -13.641400  -11.826970   -4.643110
  C    -12.636210  -10.840120   -4.675450
  N    -11.867770   -9.987830   -4.672050
  C    -14.610370  -11.557020   -3.653390
  N    -15.360340  -11.302160   -2.823130
  H      3.457180   -1.949150    6.600800
  H      4.075170   -6.800660    5.796000
  H      1.287160   -2.017080    5.487390
  H      1.859570   -6.899120    4.650230
  H     -2.903410   -3.637290    2.251790
  H     -3.328860  -11.293720    4.221480
  H     -2.079200  -11.593160    3.002120
  H     -2.652000  -13.385120    5.426830
  H     -1.265550  -12.298590    5.255060
  H     -1.431330  -13.706560    4.194490
  H     -6.219320  -15.131540    1.156730
  H     -5.295840  -14.893830    2.673490
  H     -4.072940  -15.215820    0.038400
  H     -4.019200  -16.280680    1.284520
  H     -7.661860  -13.244380   -0.948870
  H     -9.342550  -10.365700   -4.579900
  H     -7.692460   -9.487570   -2.998970
  H    -11.251090  -13.398170   -4.204690
  H     -9.655710  -11.943940   -6.364130
  H    -11.161600  -13.126680   -7.843650
  H    -15.712980  -15.713700   -8.332940
  H    -18.082840  -14.744800   -3.401720
  H    -17.878320  -16.866150   -7.877730
  H    -15.971500  -13.595800   -3.823950

 Total Charge           Charge          ....    0
 Multiplicity           Mult            ....    1
 Number of Electrons    NEL             ....  588
 Basis Dimension        Dim             .... 1304

ORBITAL ENERGIES
----------------

  NO   OCC          E(Eh)            E(eV)
   0   2.0000     -89.037402     -2422.8309
   1   2.0000     -88.983686     -2421.3692
   2   2.0000     -24.822062      -675.4426
   3   2.0000     -24.819122      -675.3626
   4   2.0000     -24.801477      -674.8825
   5   2.0000     -24.800702      -674.8614
   6   2.0000     -24.796697      -674.7524
   7   2.0000     -24.795391      -674.7169
   8   2.0000     -19.269874      -524.3599
   9   2.0000     -19.252304      -523.8818
  10   2.0000     -19.250607      -523.8356
  11   2.0000     -19.221291      -523.0379
  12   2.0000     -19.211072      -522.7598
  13   2.0000     -14.656923      -398.8351
  14   2.0000     -14.464981      -393.6121
  15   2.0000     -14.458208      -393.4279
  16   2.0000     -14.446675      -393.1140
  17   2.0000     -14.439475      -392.9181
  18   2.0000     -14.437879      -392.8747
  19   2.0000     -14.425220      -392.5302
  20   2.0000     -14.422803      -392.4644
  21   2.0000     -14.420684      -392.4068
  22   2.0000     -14.412328      -392.1794
  23   2.0000     -14.409974      -392.1153
  24   2.0000     -14.393468      -391.6662
  25   2.0000     -10.437340      -284.0145
  26   2.0000     -10.436383      -283.9884
  27   2.0000     -10.387734      -282.6646
  28   2.0000     -10.384990      -282.5899
  29   2.0000     -10.384446      -282.5751
  30   2.0000     -10.379364      -282.4369
  31   2.0000     -10.378352      -282.4093
  32   2.0000     -10.372182      -282.2414
  33   2.0000     -10.362581      -281.9802
  34   2.0000     -10.353259      -281.7265
  35   2.0000     -10.351151      -281.6691
  36   2.0000     -10.350296      -281.6459
  37   2.0000     -10.349152      -281.6147
  38   2.0000     -10.339831      -281.3611
  39   2.0000     -10.338807      -281.3333
  40   2.0000     -10.338617      -281.3281
  41   2.0000     -10.336004      -281.2570
  42   2.0000     -10.335976      -281.2562
  43   2.0000     -10.335918      -281.2546
  44   2.0000     -10.334930      -281.2277
  45   2.0000     -10.333900      -281.1997
  46   2.0000     -10.329571      -281.0819
  47   2.0000     -10.327562      -281.0272
  48   2.0000     -10.327151      -281.0161
  49   2.0000     -10.325315      -280.9661
  50   2.0000     -10.322838      -280.8987
  51   2.0000     -10.322295      -280.8839
  52   2.0000     -10.321685      -280.8673
  53   2.0000     -10.319482      -280.8074
  54   2.0000     -10.315532      -280.6999
  55   2.0000     -10.315098      -280.6881
  56   2.0000     -10.314778      -280.6794
  57   2.0000     -10.314457      -280.6706
  58   2.0000     -10.313034      -280.6319
  59   2.0000     -10.312770      -280.6247
  60   2.0000     -10.312129      -280.6073
  61   2.0000     -10.309719      -280.5417
  62   2.0000     -10.307872      -280.4915
  63   2.0000     -10.307419      -280.4791
  64   2.0000     -10.307326      -280.4766
  65   2.0000     -10.307068      -280.4696
  66   2.0000     -10.304538      -280.4007
  67   2.0000     -10.304429      -280.3978
  68   2.0000     -10.303823      -280.3813
  69   2.0000     -10.303819      -280.3812
  70   2.0000     -10.303514      -280.3729
  71   2.0000     -10.303257      -280.3659
  72   2.0000     -10.300914      -280.3021
  73   2.0000     -10.299436      -280.2619
  74   2.0000     -10.299095      -280.2526
  75   2.0000     -10.298989      -280.2497
  76   2.0000     -10.298832      -280.2455
  77   2.0000     -10.298505      -280.2366
  78   2.0000     -10.298055      -280.2243
  79   2.0000     -10.298033      -280.2237
  80   2.0000     -10.298008      -280.2230
  81   2.0000     -10.294077      -280.1161
  82   2.0000     -10.289554      -279.9930
  83   2.0000     -10.268379      -279.4168
  84   2.0000      -8.128370      -221.1842
  85   2.0000      -8.076891      -219.7834
  86   2.0000      -6.099375      -165.9724
  87   2.0000      -6.091634      -165.7618
  88   2.0000      -6.091393      -165.7552
  89   2.0000      -6.046161      -164.5244
  90   2.0000      -6.041603      -164.4004
  91   2.0000      -6.039589      -164.3456
  92   2.0000      -1.349499       -36.7217
  93   2.0000      -1.335287       -36.3350
  94   2.0000      -1.332375       -36.2558
  95   2.0000      -1.324297       -36.0359
  96   2.0000      -1.318906       -35.8893
  97   2.0000      -1.309386       -35.6302
  98   2.0000      -1.304070       -35.4856
  99   2.0000      -1.190388       -32.3921
 100   2.0000      -1.150436       -31.3049
 101   2.0000      -1.137212       -30.9451
 102   2.0000      -1.136146       -30.9161
 103   2.0000      -1.125255       -30.6197
 104   2.0000      -1.120636       -30.4941
 105   2.0000      -1.087378       -29.5891
 106   2.0000      -1.046715       -28.4826
 107   2.0000      -1.027226       -27.9522
 108   2.0000      -1.017345       -27.6834
 109   2.0000      -1.015367       -27.6296
 110   2.0000      -1.010100       -27.4862
 111   2.0000      -1.006103       -27.3775
 112   2.0000      -1.002433       -27.2776
 113   2.0000      -1.000524       -27.2256
 114   2.0000      -0.991581       -26.9823
 115   2.0000      -0.990002       -26.9393
 116   2.0000      -0.987600       -26.8740
 117   2.0000      -0.986506       -26.8442
 118   2.0000      -0.978354       -26.6224
 119   2.0000      -0.973661       -26.4947
 120   2.0000      -0.966867       -26.3098
 121   2.0000      -0.941715       -25.6254
 122   2.0000      -0.929975       -25.3059
 123   2.0000      -0.927569       -25.2404
 124   2.0000      -0.918207       -24.9857
 125   2.0000      -0.906470       -24.6663
 126   2.0000      -0.903628       -24.5890
 127   2.0000      -0.896681       -24.3999
 128   2.0000      -0.893077       -24.3019
 129   2.0000      -0.887533       -24.1510
 130   2.0000      -0.886147       -24.1133
 131   2.0000      -0.883450       -24.0399
 132   2.0000      -0.881000       -23.9732
 133   2.0000      -0.862583       -23.4721
 134   2.0000      -0.846651       -23.0385
 135   2.0000      -0.845042       -22.9948
 136   2.0000      -0.844591       -22.9825
 137   2.0000      -0.837388       -22.7865
 138   2.0000      -0.825498       -22.4630
 139   2.0000      -0.814673       -22.1684
 140   2.0000      -0.808634       -22.0040
 141   2.0000      -0.800410       -21.7803
 142   2.0000      -0.788626       -21.4596
 143   2.0000      -0.785784       -21.3823
 144   2.0000      -0.773074       -21.0364
 145   2.0000      -0.769172       -20.9302
 146   2.0000      -0.762678       -20.7535
 147   2.0000      -0.759354       -20.6631
 148   2.0000      -0.756122       -20.5751
 149   2.0000      -0.745944       -20.2982
 150   2.0000      -0.738491       -20.0953
 151   2.0000      -0.733450       -19.9582
 152   2.0000      -0.724736       -19.7211
 153   2.0000      -0.722740       -19.6668
 154   2.0000      -0.712226       -19.3807
 155   2.0000      -0.708646       -19.2832
 156   2.0000      -0.702270       -19.1097
 157   2.0000      -0.699891       -19.0450
 158   2.0000      -0.697594       -18.9825
 159   2.0000      -0.689545       -18.7635
 160   2.0000      -0.683630       -18.6025
 161   2.0000      -0.683315       -18.5939
 162   2.0000      -0.678739       -18.4694
 163   2.0000      -0.676756       -18.4155
 164   2.0000      -0.669819       -18.2267
 165   2.0000      -0.664354       -18.0780
 166   2.0000      -0.659695       -17.9512
 167   2.0000      -0.657152       -17.8820
 168   2.0000      -0.654366       -17.8062
 169   2.0000      -0.648810       -17.6550
 170   2.0000      -0.646969       -17.6049
 171   2.0000      -0.642516       -17.4837
 172   2.0000      -0.640635       -17.4326
 173   2.0000      -0.636949       -17.3323
 174   2.0000      -0.633366       -17.2348
 175   2.0000      -0.630282       -17.1509
 176   2.0000      -0.627292       -17.0695
 177   2.0000      -0.624424       -16.9914
 178   2.0000      -0.622818       -16.9477
 179   2.0000      -0.618003       -16.8167
 180   2.0000      -0.611357       -16.6359
 181   2.0000      -0.606760       -16.5108
 182   2.0000      -0.606216       -16.4960
 183   2.0000      -0.604836       -16.4584
 184   2.0000      -0.594860       -16.1870
 185   2.0000      -0.593263       -16.1435
 186   2.0000      -0.589620       -16.0444
 187   2.0000      -0.588629       -16.0174
 188   2.0000      -0.585369       -15.9287
 189   2.0000      -0.583452       -15.8765
 190   2.0000      -0.581330       -15.8188
 191   2.0000      -0.580481       -15.7957
 192   2.0000      -0.576191       -15.6790
 193   2.0000      -0.575730       -15.6664
 194   2.0000      -0.572216       -15.5708
 195   2.0000      -0.567671       -15.4471
 196   2.0000      -0.564030       -15.3480
 197   2.0000      -0.559196       -15.2165
 198   2.0000      -0.557221       -15.1627
 199   2.0000      -0.554428       -15.0867
 200   2.0000      -0.551403       -15.0044
 201   2.0000      -0.550184       -14.9713
 202   2.0000      -0.550049       -14.9676
 203   2.0000      -0.546558       -14.8726
 204   2.0000      -0.545202       -14.8357
 205   2.0000      -0.541679       -14.7398
 206   2.0000      -0.540977       -14.7207
 207   2.0000      -0.536025       -14.5860
 208   2.0000      -0.535137       -14.5618
 209   2.0000      -0.534594       -14.5470
 210   2.0000      -0.533049       -14.5050
 211   2.0000      -0.530336       -14.4312
 212   2.0000      -0.528370       -14.3777
 213   2.0000      -0.527795       -14.3620
 214   2.0000      -0.524308       -14.2672
 215   2.0000      -0.522771       -14.2253
 216   2.0000      -0.521564       -14.1925
 217   2.0000      -0.517772       -14.0893
 218   2.0000      -0.515992       -14.0408
 219   2.0000      -0.515018       -14.0143
 220   2.0000      -0.512685       -13.9509
 221   2.0000      -0.509720       -13.8702
 222   2.0000      -0.506585       -13.7849
 223   2.0000      -0.504694       -13.7334
 224   2.0000      -0.503017       -13.6878
 225   2.0000      -0.500181       -13.6106
 226   2.0000      -0.497576       -13.5397
 227   2.0000      -0.494484       -13.4556
 228   2.0000      -0.491969       -13.3872
 229   2.0000      -0.491475       -13.3737
 230   2.0000      -0.489578       -13.3221
 231   2.0000      -0.488191       -13.2844
 232   2.0000      -0.483239       -13.1496
 233   2.0000      -0.481435       -13.1005
 234   2.0000      -0.477541       -12.9945
 235   2.0000      -0.475853       -12.9486
 236   2.0000      -0.472542       -12.8585
 237   2.0000      -0.470038       -12.7904
 238   2.0000      -0.469368       -12.7722
 239   2.0000      -0.468009       -12.7352
 240   2.0000      -0.466688       -12.6992
 241   2.0000      -0.464382       -12.6365
 242   2.0000      -0.461410       -12.5556
 243   2.0000      -0.460953       -12.5432
 244   2.0000      -0.458544       -12.4776
 245   2.0000      -0.456264       -12.4156
 246   2.0000      -0.450571       -12.2607
 247   2.0000      -0.447983       -12.1902
 248   2.0000      -0.446315       -12.1448
 249   2.0000      -0.446060       -12.1379
 250   2.0000      -0.443449       -12.0669
 251   2.0000      -0.442360       -12.0372
 252   2.0000      -0.439275       -11.9533
 253   2.0000      -0.435857       -11.8603
 254   2.0000      -0.434094       -11.8123
 255   2.0000      -0.433481       -11.7956
 256   2.0000      -0.432256       -11.7623
 257   2.0000      -0.428457       -11.6589
 258   2.0000      -0.425097       -11.5675
 259   2.0000      -0.423814       -11.5326
 260   2.0000      -0.423375       -11.5206
 261   2.0000      -0.419617       -11.4184
 262   2.0000      -0.418839       -11.3972
 263   2.0000      -0.413156       -11.2425
 264   2.0000      -0.410182       -11.1616
 265   2.0000      -0.407653       -11.0928
 266   2.0000      -0.404520       -11.0075
 267   2.0000      -0.399605       -10.8738
 268   2.0000      -0.398447       -10.8423
 269   2.0000      -0.397045       -10.8041
 270   2.0000      -0.390617       -10.6292
 271   2.0000      -0.389861       -10.6087
 272   2.0000      -0.389327       -10.5941
 273   2.0000      -0.384237       -10.4556
 274   2.0000      -0.379134       -10.3168
 275   2.0000      -0.371839       -10.1183
 276   2.0000      -0.369837       -10.0638
 277   2.0000      -0.368070       -10.0157
 278   2.0000      -0.361180        -9.8282
 279   2.0000      -0.354396        -9.6436
 280   2.0000      -0.347562        -9.4576
 281   2.0000      -0.344183        -9.3657
 282   2.0000      -0.340905        -9.2765
 283   2.0000      -0.332028        -9.0349
 284   2.0000      -0.327143        -8.9020
 285   2.0000      -0.322711        -8.7814
 286   2.0000      -0.320397        -8.7184
 287   2.0000      -0.316549        -8.6137
 288   2.0000      -0.312836        -8.5127
 289   2.0000      -0.311385        -8.4732
 290   2.0000      -0.307328        -8.3628
 291   2.0000      -0.300143        -8.1673
 292   2.0000      -0.294114        -8.0032
 293   2.0000      -0.252673        -6.8756
 294   0.0000      -0.124944        -3.3999
 295   0.0000      -0.099949        -2.7197
 296   0.0000      -0.076914        -2.0929
 297   0.0000      -0.067967        -1.8495
 298   0.0000      -0.058759        -1.5989

MULLIKEN ATOMIC CHARGES
-----------------------
   0 C :   -0.111053
   1 C :    0.242242
   2 F :   -0.172268
   3 C :    0.238674
   4 F :   -0.173873
   5 C :   -0.108903
   6 C :    0.120642
   7 C :    0.115791
   8 C :   -0.088630
   9 C :    0.052740
  10 C :   -0.003607
  11 C :   -0.088473
  12 C :    0.158578
  13 O :   -0.152218
  14 C :   -0.062264
  15 C :    0.299495
  16 C :   -0.344985
  17 C :   -0.203854
  18 N :    0.168166
  19 C :   -0.184001
  20 N :    0.146619
  21 C :   -0.075987
  22 C :    0.051931
  23 C :   -0.039365
  24 C :   -0.052407
  25 N :   -0.038390
  26 C :    0.141296
  27 C :    0.141961
  28 N :    0.017665
  29 F :   -0.132759
  30 F :   -0.137985
  31 C :    0.177009
  32 C :   -0.024830
  33 C :    0.031192
  34 N :   -0.273883
  35 S :    0.519120
  36 N :   -0.247832
  37 C :   -0.289196
  38 S :    0.192250
  39 C :   -0.087767
  40 C :   -0.004518
  41 C :    0.103712
  42 N :   -0.015124
  43 C :    0.125956
  44 O :   -0.260211
  45 C :    0.169987
  46 C :    0.015168
  47 C :   -0.191273
  48 C :    0.249485
  49 N :   -0.241258
  50 N :    0.004974
  51 C :    0.106886
  52 C :   -0.088000
  53 C :    0.174323
  54 N :    0.244840
  55 O :   -0.226562
  56 O :   -0.236364
  57 C :    0.004091
  58 C :   -0.008923
  59 C :   -0.007002
  60 C :    0.043691
  61 C :   -0.006285
  62 C :    0.046600
  63 C :   -0.119132
  64 C :    0.136720
  65 O :   -0.134298
  66 C :    0.015751
  67 C :   -0.079640
  68 C :    0.112671
  69 C :    0.110475
  70 C :   -0.104000
  71 C :    0.241986
  72 C :    0.238427
  73 C :   -0.101595
  74 F :   -0.170363
  75 F :   -0.169612
  76 C :   -0.076637
  77 C :    0.032218
  78 C :    0.273015
  79 C :   -0.339038
  80 C :   -0.180781
  81 N :    0.168862
  82 C :   -0.178993
  83 N :    0.157197
  84 H :    0.007231
  85 H :   -0.003020
  86 H :   -0.006352
  87 H :   -0.016449
  88 H :    0.044052
  89 H :    0.008230
  90 H :    0.023770
  91 H :    0.023692
  92 H :    0.019652
  93 H :    0.032564
  94 H :    0.011765
  95 H :    0.006402
  96 H :    0.094470
  97 H :    0.100513
  98 H :    0.007223
  99 H :    0.010590
 100 H :    0.005857
 101 H :    0.030632
 102 H :    0.013169
 103 H :    0.031491
 104 H :   -0.007920
 105 H :    0.006192
 106 H :    0.000698
 107 H :   -0.002719
Sum of atomic charges:   -0.0000000

LOEWDIN ATOMIC CHARGES
----------------------
   0 C :   -0.029591
   1 C :    0.065111
   2 F :   -0.049925
   3 C :    0.066476
   4 F :   -0.051043
   5 C :   -0.035275
   6 C :   -0.009014
   7 C :   -0.007382
   8 C :    0.015844
   9 C :   -0.021919
  10 C :   -0.048243
  11 C :    0.024680
  12 C :    0.082636
  13 O :   -0.146981
  14 C :   -0.083461
  15 C :    0.074087
  16 C :   -0.135877
  17 C :   -0.024181
  18 N :   -0.048880
  19 C :   -0.017030
  20 N :   -0.055275
  21 C :    0.082652
  22 C :   -0.061213
  23 C :    0.016373
  24 C :   -0.029167
  25 N :   -0.056265
  26 C :    0.054850
  27 C :    0.065302
  28 N :   -0.037239
  29 F :   -0.021766
  30 F :   -0.028214
  31 C :   -0.000285
  32 C :   -0.048540
  33 C :   -0.024450
  34 N :   -0.281002
  35 S :    0.667760
  36 N :   -0.252208
  37 C :   -0.194934
  38 S :    0.535969
  39 C :   -0.155429
  40 C :   -0.062234
  41 C :   -0.011618
  42 N :   -0.076699
  43 C :    0.065441
  44 O :   -0.056220
  45 C :    0.088598
  46 C :   -0.061804
  47 C :   -0.005837
  48 C :    0.021058
  49 N :   -0.114644
  50 N :   -0.032987
  51 C :   -0.035654
  52 C :    0.019545
  53 C :   -0.026778
  54 N :    0.285958
  55 O :   -0.195011
  56 O :   -0.195960
  57 C :   -0.008622
  58 C :    0.006880
  59 C :    0.007909
  60 C :    0.037028
  61 C :   -0.032744
  62 C :    0.074827
  63 C :   -0.086625
  64 C :    0.084494
  65 O :   -0.135609
  66 C :   -0.053890
  67 C :    0.032440
  68 C :   -0.008176
  69 C :   -0.005270
  70 C :   -0.029186
  71 C :    0.067746
  72 C :    0.068126
  73 C :   -0.032242
  74 F :   -0.047899
  75 F :   -0.047358
  76 C :    0.017038
  77 C :   -0.021119
  78 C :    0.070344
  79 C :   -0.137512
  80 C :   -0.007372
  81 N :   -0.046687
  82 C :   -0.019789
  83 N :   -0.048455
  84 H :    0.047541
  85 H :    0.043575
  86 H :    0.039635
  87 H :    0.037654
  88 H :    0.047402
  89 H :    0.007776
  90 H :    0.022079
  91 H :    0.028684
  92 H :    0.032747
  93 H :    0.032360
  94 H :    0.016247
  95 H :    0.029721
  96 H :    0.055215
  97 H :    0.058788
  98 H :    0.036441
  99 H :    0.038770
 100 H :    0.030183
 101 H :    0.033987
 102 H :    0.036981
 103 H :    0.049256
 104 H :    0.041384
 105 H :    0.047686
 106 H :    0.045404
 107 H :    0.040102

  Mayer bond orders larger than 0.100000
B(  0-C ,  1-C ) :   1.4403 B(  0-C ,  5-C ) :   0.1093 B(  0-C ,  7-C ) :   1.1882
B(  0-C , 84-H ) :   1.0072 B(  1-C ,  2-F ) :   1.1329 B(  1-C ,  3-C ) :   1.1926
B(  3-C ,  4-F ) :   1.1311 B(  3-C ,  5-C ) :   1.4426 B(  5-C ,  6-C ) :   1.1903
B(  5-C , 85-H ) :   1.0071 B(  6-C ,  7-C ) :   1.2586 B(  6-C , 11-C ) :   1.1870
B(  7-C ,  8-C ) :   1.2140 B(  8-C ,  9-C ) :   1.4494 B(  8-C , 86-H ) :   0.9907
B(  9-C , 10-C ) :   1.2234 B(  9-C , 15-C ) :   0.9866 B( 10-C , 11-C ) :   1.4737
B( 10-C , 12-C ) :   0.9417 B( 11-C , 87-H ) :   1.0163 B( 12-C , 13-O ) :   2.2232
B( 12-C , 14-C ) :   0.9483 B( 14-C , 15-C ) :   1.0667 B( 14-C , 21-C ) :   1.5734
B( 15-C , 16-C ) :   1.6451 B( 16-C , 17-C ) :   1.1452 B( 16-C , 19-C ) :   1.1438
B( 17-C , 18-N ) :   2.9954 B( 19-C , 20-N ) :   2.9658 B( 21-C , 22-C ) :   1.1875
B( 21-C , 88-H ) :   0.9326 B( 22-C , 23-C ) :   1.2773 B( 22-C , 31-C ) :   0.1167
B( 22-C , 33-C ) :   1.1893 B( 23-C , 24-C ) :   1.1456 B( 23-C , 28-N ) :   1.4389
B( 24-C , 25-N ) :   1.3878 B( 24-C , 31-C ) :   1.2523 B( 25-N , 26-C ) :   1.6494
B( 26-C , 27-C ) :   1.1091 B( 26-C , 30-F ) :   1.1835 B( 27-C , 28-N ) :   1.6810
B( 27-C , 29-F ) :   1.1850 B( 31-C , 32-C ) :   1.1935 B( 31-C , 37-C ) :   1.2221
B( 32-C , 33-C ) :   1.0948 B( 32-C , 36-N ) :   1.5273 B( 33-C , 34-N ) :   1.5180
B( 34-N , 35-S ) :   1.2744 B( 34-N , 36-N ) :   0.1520 B( 35-S , 36-N ) :   1.2914
B( 37-C , 38-S ) :   1.1360 B( 37-C , 39-C ) :   0.1330 B( 37-C , 41-C ) :   1.3006
B( 38-S , 39-C ) :   1.1510 B( 39-C , 40-C ) :   1.3605 B( 39-C , 51-C ) :   1.1112
B( 40-C , 41-C ) :   1.2385 B( 40-C , 50-N ) :   1.3436 B( 41-C , 42-N ) :   1.4331
B( 42-N , 43-C ) :   1.5780 B( 43-C , 44-O ) :   1.2935 B( 43-C , 47-C ) :   1.0879
B( 44-O , 45-C ) :   0.8932 B( 45-C , 46-C ) :   1.0947 B( 45-C , 89-H ) :   0.9542
B( 45-C , 90-H ) :   0.9567 B( 46-C , 91-H ) :   0.9688 B( 46-C , 92-H ) :   0.9605
B( 46-C , 93-H ) :   0.9682 B( 47-C , 48-C ) :   1.0449 B( 47-C , 50-N ) :   1.7695
B( 48-C , 49-N ) :   1.0918 B( 48-C , 94-H ) :   0.9213 B( 48-C , 95-H ) :   0.9097
B( 49-N , 96-H ) :   0.9672 B( 49-N , 97-H ) :   0.9723 B( 51-C , 52-C ) :   1.3015
B( 51-C , 59-C ) :   1.2798 B( 52-C , 53-C ) :   1.3513 B( 52-C , 98-H ) :   0.9782
B( 53-C , 54-N ) :   0.8837 B( 53-C , 57-C ) :   1.3334 B( 54-N , 55-O ) :   1.5621
B( 54-N , 56-O ) :   1.5169 B( 55-O , 56-O ) :   0.2641 B( 57-C , 58-C ) :   1.3542
B( 57-C , 60-C ) :   1.0766 B( 58-C , 59-C ) :   1.4143 B( 58-C , 99-H ) :   0.9793
B( 59-C ,100-H ) :   0.9893 B( 60-C , 61-C ) :   1.7261 B( 60-C ,101-H ) :   0.9394
B( 61-C , 62-C ) :   1.1161 B( 61-C ,102-H ) :   0.9577 B( 62-C , 63-C ) :   1.7112
B( 62-C ,103-H ) :   0.9275 B( 63-C , 64-C ) :   0.9361 B( 63-C , 78-C ) :   1.0224
B( 64-C , 65-O ) :   2.2788 B( 64-C , 66-C ) :   0.9146 B( 66-C , 67-C ) :   1.4727
B( 66-C , 77-C ) :   1.2220 B( 67-C , 68-C ) :   1.1962 B( 67-C ,104-H ) :   1.0156
B( 68-C , 69-C ) :   1.2556 B( 68-C , 73-C ) :   1.1922 B( 69-C , 70-C ) :   1.1875
B( 69-C , 76-C ) :   1.2214 B( 70-C , 71-C ) :   1.4439 B( 70-C , 73-C ) :   0.1087
B( 70-C ,105-H ) :   1.0063 B( 71-C , 72-C ) :   1.1913 B( 71-C , 75-F ) :   1.1358
B( 72-C , 73-C ) :   1.4443 B( 72-C , 74-F ) :   1.1349 B( 73-C ,106-H ) :   1.0064
B( 76-C , 77-C ) :   1.4518 B( 76-C ,107-H ) :   0.9926 B( 77-C , 78-C ) :   1.0003
B( 78-C , 79-C ) :   1.6602 B( 79-C , 80-C ) :   1.1667 B( 79-C , 82-C ) :   1.1285
B( 80-C , 81-N ) :   2.9877 B( 82-C , 83-N ) :   2.9879

-----------------------------------------------------------------------------
         ABSORPTION SPECTRUM VIA TRANSITION ELECTRIC DIPOLE MOMENTS
-----------------------------------------------------------------------------
State   Energy  Wavelength   fosc         T2         TX        TY        TZ
        (cm-1)    (nm)                  (au**2)     (au)      (au)      (au)
-----------------------------------------------------------------------------
   0   12143.6    823.5   1.054848216  28.59679   3.07117   3.68031   2.37066
   1   20891.9    478.7   0.338793779   5.33867  -1.99739  -0.06144  -1.15989
   2   21900.9    456.6   0.000239170   0.00360  -0.05496  -0.01597   0.01789
   3   22233.2    449.8   0.261938867   3.87858  -1.21254  -1.15657  -1.03472
   4   22989.4    435.0   0.020845894   0.29852  -0.41809   0.12927  -0.32712
   5   23904.4    418.3   0.073149257   1.00741  -0.72706   0.55764  -0.40968
   6   24472.2    408.6   0.032922058   0.44288  -0.29448   0.07021  -0.59265
   7   25157.3    397.5   0.037651076   0.49271  -0.16987  -0.18951  -0.65417
   8   25615.7    390.4   0.048078495   0.61790   0.43773   0.39980   0.51619
   9   26635.4    375.4   0.023558280   0.29118  -0.32508   0.40576  -0.14443
  10   27060.6    369.5   0.026620302   0.32386  -0.10651   0.49716   0.25562
  11   27213.8    367.5   0.065997365   0.79839   0.57772   0.66837  -0.13383
  12   27486.4    363.8   0.042900322   0.51383   0.66480  -0.23364   0.13147
  13   27568.4    362.7   0.104005495   1.24199  -1.00000  -0.32616  -0.36826
  14   27968.4    357.5   0.162615006   1.91412   1.28667  -0.48541   0.15160
  15   28562.3    350.1   0.012779153   0.14729   0.09672   0.32908   0.17218
  16   29111.8    343.5   0.196962905   2.22737   0.63277  -0.21450   1.33453
  17   29664.9    337.1   0.034846436   0.38672   0.41194   0.12757   0.44805
  18   29721.7    336.5   0.057013731   0.63151  -0.34027  -0.61198   0.37578
  19   30116.9    332.0   0.094078632   1.02839   0.61307  -0.25180   0.76755
  20   30419.0    328.7   0.092681399   1.00305  -0.10568  -0.32002   0.94312
  21   31305.9    319.4   0.008442245   0.08878  -0.19389  -0.19276  -0.11844
  22   31448.3    318.0   0.021846024   0.22869  -0.13871  -0.38363  -0.24956
  23   31581.0    316.6   0.388024118   4.04491  -1.75061  -0.41882  -0.89714
  24   32064.1    311.9   0.204014021   2.09468  -1.26178   0.65272  -0.27665
  25   32702.0    305.8   0.052305783   0.52656  -0.70377  -0.15816  -0.07913
  26   32785.4    305.0   0.035801945   0.35950   0.47398   0.36071  -0.06882
  27   33257.3    300.7   0.284847231   2.81968  -1.18637  -0.59284  -1.02992
  28   33314.0    300.2   0.041663325   0.41172   0.50390   0.24011   0.31647
  29   33559.6    298.0   0.005897740   0.05786  -0.13811   0.19578  -0.02131
  30   33703.2    296.7   0.071034362   0.69386   0.42500   0.37379   0.61116
  31   33868.1    295.3   0.103864421   1.00961   0.60262   0.74682   0.29785
  32   34041.3    293.8   0.031395003   0.30362   0.19136   0.51410  -0.05193
  33   34360.9    291.0   0.052272310   0.50082  -0.27098   0.50838  -0.41103
  34   34628.9    288.8   0.150056055   1.42656  -1.00450  -0.61144  -0.20899
  35   34899.4    286.5   0.051934658   0.48991  -0.06259   0.55517  -0.42163
  36   35522.1    281.5   0.014092086   0.13060   0.08286  -0.20060   0.28896
  37   35699.1    280.1   0.134430810   1.23970   0.98216   0.07150   0.51957
  38   35900.5    278.5   0.055976439   0.51331   0.56074   0.15350   0.41871
  39   35963.0    278.1   0.364314393   3.33501   1.19855   1.32462   0.37930
  40   36146.7    276.7   0.067258956   0.61257  -0.31265   0.71264   0.08346
  41   36469.7    274.2   0.180032709   1.62516   1.07408  -0.61763   0.30007
  42   36662.1    272.8   0.016573285   0.14882   0.27346  -0.20748  -0.17605
  43   36792.8    271.8   0.121489349   1.08705   0.53633  -0.88340   0.13789
  44   36823.5    271.6   0.352970372   3.15565   0.55075  -1.67962  -0.17665
  45   37051.2    269.9   0.065640423   0.58324  -0.66905  -0.28785   0.22969
  46   37353.7    267.7   0.103077229   0.90846   0.59500  -0.13496   0.73227
  47   37492.7    266.7   0.028710540   0.25210  -0.28443  -0.08404   0.40513
  48   37675.6    265.4   0.129107796   1.12815  -0.73033  -0.04420  -0.76995
  49   38192.0    261.8   0.026577524   0.22910   0.35277  -0.03678   0.32139
  50   38638.1    258.8   0.164586140   1.40234  -0.38755   0.84028  -0.73896
  51   38689.1    258.5   0.002501952   0.02129   0.05485  -0.13501  -0.00723
  52   38952.2    256.7   0.072655234   0.61406  -0.00951  -0.61542   0.48500
  53   39079.4    255.9   0.190741393   1.60684  -0.40408   1.07303  -0.54052
  54   39177.4    255.2   0.012546853   0.10543   0.19702  -0.06750   0.24912
  55   39364.1    254.0   0.036168372   0.30249   0.35301   0.41635   0.06724
  56   39479.3    253.3   0.029559807   0.24649   0.16314   0.29825   0.36184
  57   39641.4    252.3   0.039722947   0.32989   0.35222   0.41427  -0.18495
  58   39709.6    251.8   0.014953522   0.12397   0.03659   0.29537  -0.18812
  59   39998.2    250.0   0.062480180   0.51425  -0.43880  -0.07178  -0.56263
  60   40086.5    249.5   0.021273609   0.17471   0.27878  -0.09616   0.29622
  61   40210.2    248.7   0.030236561   0.24756  -0.45589   0.05296   0.19212

FINAL SINGLE POINT ENERGY     -4686.141393280693

DIPOLE MOMENT
-------------
                                X             Y             Z
Electronic contribution:     -6.23223      47.61190      -3.94642
Nuclear contribution   :      7.10924     -51.15943       3.31990
                        -----------------------------------------
Total Dipole Moment    :      0.87701      -3.54754      -0.62652
                        -----------------------------------------
Magnitude (a.u.)       :      3.70765
Magnitude (Debye)      :      9.42410

Rotational constants in cm-1:     0.001727     0.000189     0.000180
Rotational constants in MHz :    51.761554     5.677439     5.381963

                             ****ORCA TERMINATED NORMALLY****
TOTAL RUN TIME: 0 days 0 hours 13 minutes 36 seconds 922 msec
