                         Program Version 4.2.0 -  RELEASE  -
|  1> # ORCA input file
|  2> # SCF done       -217.923898072766          0.000709043767
|  3> ! CAM-B3LYP def2-SVP def2/J RIJCOSX Grid4 TightSCF
|  4> %maxcore 5000
|  5> %tddft
|  6>     Mode sTDDFT
|  7>     Ethresh 5.0
|  8>     maxcore 5000
|  9> end
| 10>
| 11> %pal
| 12>   nprocs 6
| 13>   end
| 14> * xyz 0 1
| 15>    C       -5.88324        -1.26899         8.61373
| 16>    C       -7.00801        -0.56012         8.93084
| 17>    F       -7.01184         0.25743         9.99070
| 18>    C       -8.17562        -0.67952         8.14985
| 19>    F       -9.26303         0.02642         8.48486
| 20>    C       -8.20184        -1.50652         7.06199
| 21>    C       -7.05877        -2.25034         6.70958
| 22>    C       -5.87724        -2.13011         7.49802
| 23>    C       -4.71659        -2.86418         7.16178
| 24>    C       -4.73855        -3.69476         6.07273
| 25>    C       -5.92641        -3.81581         5.29665
| 26>    C       -7.06047        -3.11533         5.59311
| 27>    C       -5.69759        -4.77856         4.20591
| 28>    O       -6.48327        -5.08287         3.32844
| 29>    C       -4.33736        -5.30497         4.41143
| 30>    C       -3.71109        -4.54757         5.48200
| 31>    C       -2.38421        -4.55218         5.81270
| 32>    C       -1.37735        -5.24562         5.10321
| 33>    N       -0.49738        -5.72967         4.54898
| 34>    C       -1.83747        -3.78849         6.86628
| 35>    N       -1.34667        -3.19621         7.71778
| 36>    C       -3.82280        -6.41635         3.80804
| 37>    C       -4.38251        -7.20887         2.78611
| 38>    C       -3.80202        -8.38704         2.34515
| 39>    C       -2.61467        -9.17859         2.71412
| 40>    O       -1.81837        -9.01778         3.60410
| 41>    N       -2.59252       -10.21459         1.79228
| 42>    C       -1.55214       -11.21216         1.75467
| 43>    C       -3.63403       -10.17028         0.86334
| 44>    O       -3.72841       -10.92681        -0.07015
| 45>    C       -4.45376        -9.01883         1.27641
| 46>    C       -5.58793        -8.33895         0.86318
| 47>    S       -5.82192        -6.89640         1.82954
| 48>    C       -6.52975        -8.69006        -0.12976
| 49>    S       -7.46294        -7.47695        -0.94437
| 50>    C       -8.32489        -8.63036        -1.90186
| 51>    C       -7.91318        -9.92377        -1.57797
| 52>    C       -6.90254        -9.96108        -0.56890
| 53>    N       -6.45211       -11.12916        -0.06855
| 54>    C       -6.92034       -12.21674        -0.62094
| 55>    O       -6.53173       -13.40792        -0.19498
| 56>    C       -5.52996       -13.42798         0.82292
| 57>    C       -5.16002       -14.87433         1.09273
| 58>    C       -7.88739       -12.19053        -1.70144
| 59>    C       -8.36021       -13.47862        -2.29475
| 60>    N       -9.03666       -13.28615        -3.55567
| 61>    N       -8.37750       -11.06875        -2.13200
| 62>    C       -9.31102        -8.22679        -2.86405
| 63>    C      -10.05205        -9.18873        -3.55226
| 64>    C      -11.02652        -8.81482        -4.45946
| 65>    N      -11.72893        -9.87911        -5.12657
| 66>    O      -11.69014       -10.97868        -4.61486
| 67>    O      -12.32411        -9.62505        -6.15451
| 68>    C      -11.29536        -7.46176        -4.73963
| 69>    C      -10.52672        -6.51009        -4.05472
| 70>    C       -9.56938        -6.87490        -3.13844
| 71>    C      -12.35041        -7.02520        -5.62657
| 72>    C      -12.24286        -5.95772        -6.44218
| 73>    C      -13.26182        -5.52015        -7.34143
| 74>    C      -14.61098        -5.62030        -7.23806
| 75>    C      -15.44346        -5.43862        -8.46467
| 76>    O      -15.08010        -4.97601        -9.51922
| 77>    C      -16.77024        -5.98434        -8.11773
| 78>    C      -17.85899        -6.16887        -8.92062
| 79>    C      -19.03119        -6.73228        -8.36904
| 80>    C      -19.04763        -7.10530        -6.99327
| 81>    C      -20.21866        -7.67176        -6.45031
| 82>    C      -21.32257        -7.85460        -7.23456
| 83>    C      -21.30589        -7.48381        -8.59469
| 84>    C      -20.18491        -6.93494        -9.15143
| 85>    F      -22.40259        -7.67513        -9.33907
| 86>    F      -22.43545        -8.38916        -6.71651
| 87>    C      -17.90604        -6.90024        -6.18606
| 88>    C      -16.78597        -6.33728        -6.73814
| 89>    C      -15.50064        -5.97320        -6.14780
| 90>    C      -15.28366        -5.77183        -4.81111
| 91>    C      -14.11312        -5.19928        -4.27524
| 92>    N      -13.20202        -4.70969        -3.77780
| 93>    C      -16.24073        -6.04205        -3.81022
| 94>    N      -16.97649        -6.25348        -2.95529
| 95>    H       -4.99787        -1.16452         9.22121
| 96>    H       -9.10303        -1.58705         6.47457
| 97>    H       -3.83991        -2.75522         7.77958
| 98>    H       -7.94618        -3.22189         4.98552
| 99>    H       -2.86959        -6.79847         4.15938
|100>    H       -0.66285       -10.79863         2.22739
|101>    H       -1.34831       -11.46960         0.71609
|102>    H       -1.86162       -12.11068         2.29278
|103>    H       -5.92846       -12.94084         1.72046
|104>    H       -4.67110       -12.84644         0.47140
|105>    H       -6.03609       -15.43515         1.40813
|106>    H       -4.40984       -14.91921         1.87678
|107>    H       -4.75945       -15.33237         0.19266
|108>    H       -8.97500       -13.97520        -1.51762
|109>    H       -7.48748       -14.12101        -2.45745
|110>    H       -9.78021       -12.60193        -3.47542
|111>    H       -9.43824       -14.15609        -3.88330
|112>    H       -9.84913       -10.23497        -3.38237
|113>    H      -10.74093        -5.46597        -4.21841
|114>    H       -9.00993        -6.11373        -2.61506
|115>    H      -13.24997        -7.62535        -5.66076
|116>    H      -11.29205        -5.44815        -6.52584
|117>    H      -12.91451        -5.09103        -8.27707
|118>    H      -17.82679        -5.88754        -9.96213
|119>    H      -20.24932        -7.95756        -5.41051
|120>    H      -20.18825        -6.65699       -10.19372
|121>    H      -17.94262        -7.20185        -5.15138
|122> *
|123>
|124>                          ****END OF INPUT****

CARTESIAN COORDINATES (ANGSTROEM)
---------------------------------
  C     -5.883240   -1.268990    8.613730
  C     -7.008010   -0.560120    8.930840
  F     -7.011840    0.257430    9.990700
  C     -8.175620   -0.679520    8.149850
  F     -9.263030    0.026420    8.484860
  C     -8.201840   -1.506520    7.061990
  C     -7.058770   -2.250340    6.709580
  C     -5.877240   -2.130110    7.498020
  C     -4.716590   -2.864180    7.161780
  C     -4.738550   -3.694760    6.072730
  C     -5.926410   -3.815810    5.296650
  C     -7.060470   -3.115330    5.593110
  C     -5.697590   -4.778560    4.205910
  O     -6.483270   -5.082870    3.328440
  C     -4.337360   -5.304970    4.411430
  C     -3.711090   -4.547570    5.482000
  C     -2.384210   -4.552180    5.812700
  C     -1.377350   -5.245620    5.103210
  N     -0.497380   -5.729670    4.548980
  C     -1.837470   -3.788490    6.866280
  N     -1.346670   -3.196210    7.717780
  C     -3.822800   -6.416350    3.808040
  C     -4.382510   -7.208870    2.786110
  C     -3.802020   -8.387040    2.345150
  C     -2.614670   -9.178590    2.714120
  O     -1.818370   -9.017780    3.604100
  N     -2.592520  -10.214590    1.792280
  C     -1.552140  -11.212160    1.754670
  C     -3.634030  -10.170280    0.863340
  O     -3.728410  -10.926810   -0.070150
  C     -4.453760   -9.018830    1.276410
  C     -5.587930   -8.338950    0.863180
  S     -5.821920   -6.896400    1.829540
  C     -6.529750   -8.690060   -0.129760
  S     -7.462940   -7.476950   -0.944370
  C     -8.324890   -8.630360   -1.901860
  C     -7.913180   -9.923770   -1.577970
  C     -6.902540   -9.961080   -0.568900
  N     -6.452110  -11.129160   -0.068550
  C     -6.920340  -12.216740   -0.620940
  O     -6.531730  -13.407920   -0.194980
  C     -5.529960  -13.427980    0.822920
  C     -5.160020  -14.874330    1.092730
  C     -7.887390  -12.190530   -1.701440
  C     -8.360210  -13.478620   -2.294750
  N     -9.036660  -13.286150   -3.555670
  N     -8.377500  -11.068750   -2.132000
  C     -9.311020   -8.226790   -2.864050
  C    -10.052050   -9.188730   -3.552260
  C    -11.026520   -8.814820   -4.459460
  N    -11.728930   -9.879110   -5.126570
  O    -11.690140  -10.978680   -4.614860
  O    -12.324110   -9.625050   -6.154510
  C    -11.295360   -7.461760   -4.739630
  C    -10.526720   -6.510090   -4.054720
  C     -9.569380   -6.874900   -3.138440
  C    -12.350410   -7.025200   -5.626570
  C    -12.242860   -5.957720   -6.442180
  C    -13.261820   -5.520150   -7.341430
  C    -14.610980   -5.620300   -7.238060
  C    -15.443460   -5.438620   -8.464670
  O    -15.080100   -4.976010   -9.519220
  C    -16.770240   -5.984340   -8.117730
  C    -17.858990   -6.168870   -8.920620
  C    -19.031190   -6.732280   -8.369040
  C    -19.047630   -7.105300   -6.993270
  C    -20.218660   -7.671760   -6.450310
  C    -21.322570   -7.854600   -7.234560
  C    -21.305890   -7.483810   -8.594690
  C    -20.184910   -6.934940   -9.151430
  F    -22.402590   -7.675130   -9.339070
  F    -22.435450   -8.389160   -6.716510
  C    -17.906040   -6.900240   -6.186060
  C    -16.785970   -6.337280   -6.738140
  C    -15.500640   -5.973200   -6.147800
  C    -15.283660   -5.771830   -4.811110
  C    -14.113120   -5.199280   -4.275240
  N    -13.202020   -4.709690   -3.777800
  C    -16.240730   -6.042050   -3.810220
  N    -16.976490   -6.253480   -2.955290
  H     -4.997870   -1.164520    9.221210
  H     -9.103030   -1.587050    6.474570
  H     -3.839910   -2.755220    7.779580
  H     -7.946180   -3.221890    4.985520
  H     -2.869590   -6.798470    4.159380
  H     -0.662850  -10.798630    2.227390
  H     -1.348310  -11.469600    0.716090
  H     -1.861620  -12.110680    2.292780
  H     -5.928460  -12.940840    1.720460
  H     -4.671100  -12.846440    0.471400
  H     -6.036090  -15.435150    1.408130
  H     -4.409840  -14.919210    1.876780
  H     -4.759450  -15.332370    0.192660
  H     -8.975000  -13.975200   -1.517620
  H     -7.487480  -14.121010   -2.457450
  H     -9.780210  -12.601930   -3.475420
  H     -9.438240  -14.156090   -3.883300
  H     -9.849130  -10.234970   -3.382370
  H    -10.740930   -5.465970   -4.218410
  H     -9.009930   -6.113730   -2.615060
  H    -13.249970   -7.625350   -5.660760
  H    -11.292050   -5.448150   -6.525840
  H    -12.914510   -5.091030   -8.277070
  H    -17.826790   -5.887540   -9.962130
  H    -20.249320   -7.957560   -5.410510
  H    -20.188250   -6.656990  -10.193720
  H    -17.942620   -7.201850   -5.151380

 Total Charge           Charge          ....    0
 Multiplicity           Mult            ....    1
 Number of Electrons    NEL             ....  562
 Basis Dimension        Dim             .... 1263

ORBITAL ENERGIES
----------------

  NO   OCC          E(Eh)            E(eV)
   0   2.0000     -88.986967     -2421.4585
   1   2.0000     -88.981440     -2421.3081
   2   2.0000     -24.801806      -674.8915
   3   2.0000     -24.801010      -674.8698
   4   2.0000     -24.800898      -674.8667
   5   2.0000     -24.800124      -674.8457
   6   2.0000     -19.270258      -524.3704
   7   2.0000     -19.252651      -523.8913
   8   2.0000     -19.250722      -523.8388
   9   2.0000     -19.232547      -523.3442
  10   2.0000     -19.220351      -523.0123
  11   2.0000     -19.218020      -522.9489
  12   2.0000     -19.214811      -522.8616
  13   2.0000     -14.656901      -398.8346
  14   2.0000     -14.460590      -393.4927
  15   2.0000     -14.433719      -392.7615
  16   2.0000     -14.424665      -392.5151
  17   2.0000     -14.422257      -392.4496
  18   2.0000     -14.421516      -392.4294
  19   2.0000     -14.420087      -392.3905
  20   2.0000     -14.416506      -392.2931
  21   2.0000     -14.378594      -391.2614
  22   2.0000     -10.399843      -282.9941
  23   2.0000     -10.398051      -282.9454
  24   2.0000     -10.386881      -282.6414
  25   2.0000     -10.385411      -282.6014
  26   2.0000     -10.384928      -282.5882
  27   2.0000     -10.384408      -282.5741
  28   2.0000     -10.383784      -282.5571
  29   2.0000     -10.380368      -282.4642
  30   2.0000     -10.371226      -282.2154
  31   2.0000     -10.350343      -281.6472
  32   2.0000     -10.349528      -281.6250
  33   2.0000     -10.349060      -281.6123
  34   2.0000     -10.346303      -281.5372
  35   2.0000     -10.340346      -281.3751
  36   2.0000     -10.338162      -281.3157
  37   2.0000     -10.337950      -281.3099
  38   2.0000     -10.335183      -281.2346
  39   2.0000     -10.330906      -281.1182
  40   2.0000     -10.329227      -281.0726
  41   2.0000     -10.328828      -281.0617
  42   2.0000     -10.326851      -281.0079
  43   2.0000     -10.324859      -280.9537
  44   2.0000     -10.323087      -280.9055
  45   2.0000     -10.322937      -280.9014
  46   2.0000     -10.322353      -280.8855
  47   2.0000     -10.322337      -280.8851
  48   2.0000     -10.320762      -280.8422
  49   2.0000     -10.317709      -280.7591
  50   2.0000     -10.317014      -280.7402
  51   2.0000     -10.315305      -280.6937
  52   2.0000     -10.315046      -280.6867
  53   2.0000     -10.314350      -280.6677
  54   2.0000     -10.314141      -280.6621
  55   2.0000     -10.313817      -280.6532
  56   2.0000     -10.312922      -280.6289
  57   2.0000     -10.312319      -280.6125
  58   2.0000     -10.308818      -280.5172
  59   2.0000     -10.308619      -280.5118
  60   2.0000     -10.308513      -280.5089
  61   2.0000     -10.308326      -280.5038
  62   2.0000     -10.307852      -280.4909
  63   2.0000     -10.306995      -280.4676
  64   2.0000     -10.306723      -280.4602
  65   2.0000     -10.306357      -280.4502
  66   2.0000     -10.305259      -280.4204
  67   2.0000     -10.304218      -280.3920
  68   2.0000     -10.303931      -280.3842
  69   2.0000     -10.303499      -280.3725
  70   2.0000     -10.303271      -280.3663
  71   2.0000     -10.302659      -280.3496
  72   2.0000     -10.300066      -280.2791
  73   2.0000     -10.299968      -280.2764
  74   2.0000     -10.299251      -280.2569
  75   2.0000     -10.297683      -280.2142
  76   2.0000     -10.297083      -280.1979
  77   2.0000     -10.296672      -280.1867
  78   2.0000     -10.295420      -280.1526
  79   2.0000     -10.266459      -279.3645
  80   2.0000      -8.081701      -219.9143
  81   2.0000      -8.074516      -219.7188
  82   2.0000      -6.050790      -164.6504
  83   2.0000      -6.046654      -164.5378
  84   2.0000      -6.044357      -164.4753
  85   2.0000      -6.044137      -164.4693
  86   2.0000      -6.039362      -164.3394
  87   2.0000      -6.036559      -164.2631
  88   2.0000      -1.332007       -36.2458
  89   2.0000      -1.324674       -36.0462
  90   2.0000      -1.323676       -36.0191
  91   2.0000      -1.309776       -35.6408
  92   2.0000      -1.308790       -35.6140
  93   2.0000      -1.188351       -32.3367
  94   2.0000      -1.163176       -31.6516
  95   2.0000      -1.150227       -31.2993
  96   2.0000      -1.148307       -31.2470
  97   2.0000      -1.139433       -31.0055
  98   2.0000      -1.136232       -30.9184
  99   2.0000      -1.085688       -29.5431
 100   2.0000      -1.054494       -28.6942
 101   2.0000      -1.026511       -27.9328
 102   2.0000      -1.024513       -27.8784
 103   2.0000      -1.019052       -27.7298
 104   2.0000      -1.009582       -27.4721
 105   2.0000      -1.009222       -27.4623
 106   2.0000      -1.008317       -27.4377
 107   2.0000      -1.002580       -27.2816
 108   2.0000      -1.001089       -27.2410
 109   2.0000      -0.996466       -27.1152
 110   2.0000      -0.987793       -26.8792
 111   2.0000      -0.986025       -26.8311
 112   2.0000      -0.985011       -26.8035
 113   2.0000      -0.959381       -26.1061
 114   2.0000      -0.941100       -25.6086
 115   2.0000      -0.938296       -25.5323
 116   2.0000      -0.928238       -25.2586
 117   2.0000      -0.919244       -25.0139
 118   2.0000      -0.913408       -24.8551
 119   2.0000      -0.903116       -24.5750
 120   2.0000      -0.899613       -24.4797
 121   2.0000      -0.898199       -24.4412
 122   2.0000      -0.895862       -24.3776
 123   2.0000      -0.893086       -24.3021
 124   2.0000      -0.883310       -24.0361
 125   2.0000      -0.881149       -23.9773
 126   2.0000      -0.860785       -23.4232
 127   2.0000      -0.846114       -23.0239
 128   2.0000      -0.844888       -22.9906
 129   2.0000      -0.844354       -22.9760
 130   2.0000      -0.842765       -22.9328
 131   2.0000      -0.824054       -22.4237
 132   2.0000      -0.808917       -22.0117
 133   2.0000      -0.804058       -21.8795
 134   2.0000      -0.799068       -21.7437
 135   2.0000      -0.791833       -21.5469
 136   2.0000      -0.785338       -21.3701
 137   2.0000      -0.773418       -21.0458
 138   2.0000      -0.771028       -20.9807
 139   2.0000      -0.758087       -20.6286
 140   2.0000      -0.755245       -20.5513
 141   2.0000      -0.749687       -20.4000
 142   2.0000      -0.740458       -20.1489
 143   2.0000      -0.732471       -19.9316
 144   2.0000      -0.726364       -19.7654
 145   2.0000      -0.722058       -19.6482
 146   2.0000      -0.719886       -19.5891
 147   2.0000      -0.708665       -19.2838
 148   2.0000      -0.701981       -19.1019
 149   2.0000      -0.698477       -19.0065
 150   2.0000      -0.695303       -18.9202
 151   2.0000      -0.692144       -18.8342
 152   2.0000      -0.688699       -18.7404
 153   2.0000      -0.685882       -18.6638
 154   2.0000      -0.677022       -18.4227
 155   2.0000      -0.668651       -18.1949
 156   2.0000      -0.663413       -18.0524
 157   2.0000      -0.662535       -18.0285
 158   2.0000      -0.658798       -17.9268
 159   2.0000      -0.658214       -17.9109
 160   2.0000      -0.648312       -17.6415
 161   2.0000      -0.646698       -17.5976
 162   2.0000      -0.644763       -17.5449
 163   2.0000      -0.641674       -17.4608
 164   2.0000      -0.633229       -17.2310
 165   2.0000      -0.628890       -17.1130
 166   2.0000      -0.626302       -17.0425
 167   2.0000      -0.620737       -16.8911
 168   2.0000      -0.618646       -16.8342
 169   2.0000      -0.611697       -16.6451
 170   2.0000      -0.605135       -16.4665
 171   2.0000      -0.600851       -16.3500
 172   2.0000      -0.597701       -16.2643
 173   2.0000      -0.592798       -16.1308
 174   2.0000      -0.591157       -16.0862
 175   2.0000      -0.589505       -16.0412
 176   2.0000      -0.589118       -16.0307
 177   2.0000      -0.588040       -16.0014
 178   2.0000      -0.584775       -15.9125
 179   2.0000      -0.583180       -15.8691
 180   2.0000      -0.580150       -15.7867
 181   2.0000      -0.579379       -15.7657
 182   2.0000      -0.571851       -15.5609
 183   2.0000      -0.568767       -15.4769
 184   2.0000      -0.563272       -15.3274
 185   2.0000      -0.560352       -15.2479
 186   2.0000      -0.558108       -15.1869
 187   2.0000      -0.556859       -15.1529
 188   2.0000      -0.555512       -15.1163
 189   2.0000      -0.552680       -15.0392
 190   2.0000      -0.550784       -14.9876
 191   2.0000      -0.550635       -14.9835
 192   2.0000      -0.549581       -14.9549
 193   2.0000      -0.547744       -14.9049
 194   2.0000      -0.541114       -14.7245
 195   2.0000      -0.540346       -14.7036
 196   2.0000      -0.538075       -14.6418
 197   2.0000      -0.535447       -14.5702
 198   2.0000      -0.534115       -14.5340
 199   2.0000      -0.533342       -14.5130
 200   2.0000      -0.531837       -14.4720
 201   2.0000      -0.528580       -14.3834
 202   2.0000      -0.527344       -14.3498
 203   2.0000      -0.523222       -14.2376
 204   2.0000      -0.522074       -14.2064
 205   2.0000      -0.520774       -14.1710
 206   2.0000      -0.517889       -14.0925
 207   2.0000      -0.514528       -14.0010
 208   2.0000      -0.513323       -13.9682
 209   2.0000      -0.507974       -13.8227
 210   2.0000      -0.504548       -13.7295
 211   2.0000      -0.503685       -13.7060
 212   2.0000      -0.502944       -13.6858
 213   2.0000      -0.501604       -13.6493
 214   2.0000      -0.499422       -13.5900
 215   2.0000      -0.495047       -13.4709
 216   2.0000      -0.493505       -13.4290
 217   2.0000      -0.491746       -13.3811
 218   2.0000      -0.489851       -13.3295
 219   2.0000      -0.488529       -13.2936
 220   2.0000      -0.487731       -13.2718
 221   2.0000      -0.486987       -13.2516
 222   2.0000      -0.480221       -13.0675
 223   2.0000      -0.477796       -13.0015
 224   2.0000      -0.475258       -12.9324
 225   2.0000      -0.474840       -12.9210
 226   2.0000      -0.471135       -12.8202
 227   2.0000      -0.470857       -12.8127
 228   2.0000      -0.468742       -12.7551
 229   2.0000      -0.467391       -12.7184
 230   2.0000      -0.466044       -12.6817
 231   2.0000      -0.463888       -12.6230
 232   2.0000      -0.460048       -12.5185
 233   2.0000      -0.457299       -12.4437
 234   2.0000      -0.453420       -12.3382
 235   2.0000      -0.452894       -12.3239
 236   2.0000      -0.450216       -12.2510
 237   2.0000      -0.449190       -12.2231
 238   2.0000      -0.446182       -12.1412
 239   2.0000      -0.444726       -12.1016
 240   2.0000      -0.443951       -12.0805
 241   2.0000      -0.442044       -12.0286
 242   2.0000      -0.436189       -11.8693
 243   2.0000      -0.435098       -11.8396
 244   2.0000      -0.432456       -11.7677
 245   2.0000      -0.431617       -11.7449
 246   2.0000      -0.430745       -11.7212
 247   2.0000      -0.429381       -11.6841
 248   2.0000      -0.427432       -11.6310
 249   2.0000      -0.423324       -11.5192
 250   2.0000      -0.422399       -11.4941
 251   2.0000      -0.413875       -11.2621
 252   2.0000      -0.411054       -11.1853
 253   2.0000      -0.407774       -11.0961
 254   2.0000      -0.401531       -10.9262
 255   2.0000      -0.397393       -10.8136
 256   2.0000      -0.395651       -10.7662
 257   2.0000      -0.392521       -10.6811
 258   2.0000      -0.390219       -10.6184
 259   2.0000      -0.389377       -10.5955
 260   2.0000      -0.384241       -10.4557
 261   2.0000      -0.374702       -10.1962
 262   2.0000      -0.369247       -10.0477
 263   2.0000      -0.367789       -10.0080
 264   2.0000      -0.361565        -9.8387
 265   2.0000      -0.356254        -9.6942
 266   2.0000      -0.353144        -9.6095
 267   2.0000      -0.352238        -9.5849
 268   2.0000      -0.343496        -9.3470
 269   2.0000      -0.340859        -9.2753
 270   2.0000      -0.336536        -9.1576
 271   2.0000      -0.331330        -9.0160
 272   2.0000      -0.324874        -8.8403
 273   2.0000      -0.322370        -8.7721
 274   2.0000      -0.320981        -8.7343
 275   2.0000      -0.316894        -8.6231
 276   2.0000      -0.309316        -8.4169
 277   2.0000      -0.303731        -8.2649
 278   2.0000      -0.301029        -8.1914
 279   2.0000      -0.297162        -8.0862
 280   2.0000      -0.261507        -7.1160
 281   0.0000      -0.109825        -2.9885
 282   0.0000      -0.099822        -2.7163
 283   0.0000      -0.076496        -2.0816
 284   0.0000      -0.067472        -1.8360
 285   0.0000      -0.061551        -1.6749

MULLIKEN ATOMIC CHARGES
-----------------------
   0 C :   -0.108652
   1 C :    0.242258
   2 F :   -0.169199
   3 C :    0.239817
   4 F :   -0.169757
   5 C :   -0.104062
   6 C :    0.114931
   7 C :    0.116016
   8 C :   -0.084292
   9 C :    0.051972
  10 C :   -0.001602
  11 C :   -0.080691
  12 C :    0.173816
  13 O :   -0.174885
  14 C :   -0.084687
  15 C :    0.301092
  16 C :   -0.323958
  17 C :   -0.213953
  18 N :    0.183267
  19 C :   -0.185227
  20 N :    0.150080
  21 C :   -0.050122
  22 C :   -0.114463
  23 C :   -0.003329
  24 C :    0.194294
  25 O :   -0.150737
  26 N :   -0.308671
  27 C :    0.133029
  28 C :    0.186248
  29 O :   -0.158530
  30 C :    0.057201
  31 C :   -0.150662
  32 S :    0.213311
  33 C :   -0.187668
  34 S :    0.177638
  35 C :   -0.134166
  36 C :    0.017780
  37 C :    0.093102
  38 N :   -0.018635
  39 C :    0.119296
  40 O :   -0.278496
  41 C :    0.147082
  42 C :    0.014006
  43 C :   -0.155358
  44 C :    0.186914
  45 N :   -0.211982
  46 N :   -0.009953
  47 C :    0.125534
  48 C :   -0.071977
  49 C :    0.174678
  50 N :    0.253093
  51 O :   -0.234285
  52 O :   -0.234708
  53 C :    0.007033
  54 C :   -0.008820
  55 C :   -0.020254
  56 C :    0.040615
  57 C :   -0.007814
  58 C :    0.043040
  59 C :   -0.117438
  60 C :    0.135352
  61 O :   -0.134528
  62 C :    0.016779
  63 C :   -0.081266
  64 C :    0.113311
  65 C :    0.110358
  66 C :   -0.104659
  67 C :    0.242246
  68 C :    0.239484
  69 C :   -0.103164
  70 F :   -0.170525
  71 F :   -0.170287
  72 C :   -0.077750
  73 C :    0.032508
  74 C :    0.276547
  75 C :   -0.339440
  76 C :   -0.183427
  77 N :    0.167599
  78 C :   -0.177659
  79 N :    0.155638
  80 H :    0.008562
  81 H :    0.001201
  82 H :   -0.003557
  83 H :   -0.008045
  84 H :    0.045531
  85 H :    0.054388
  86 H :    0.046002
  87 H :    0.035113
  88 H :    0.014824
  89 H :    0.043235
  90 H :    0.023542
  91 H :    0.019633
  92 H :    0.026902
  93 H :    0.015135
  94 H :    0.021347
  95 H :    0.110633
  96 H :    0.094983
  97 H :   -0.006187
  98 H :    0.008427
  99 H :   -0.000006
 100 H :    0.031559
 101 H :    0.012601
 102 H :    0.031457
 103 H :   -0.007535
 104 H :    0.006975
 105 H :    0.000865
 106 H :   -0.002810
Sum of atomic charges:   -0.0000000

LOEWDIN ATOMIC CHARGES
----------------------
   0 C :   -0.029214
   1 C :    0.068114
   2 F :   -0.046994
   3 C :    0.068006
   4 F :   -0.047803
   5 C :   -0.032467
   6 C :   -0.009122
   7 C :   -0.005002
   8 C :    0.017685
   9 C :   -0.020897
  10 C :   -0.053632
  11 C :    0.032169
  12 C :    0.086888
  13 O :   -0.160781
  14 C :   -0.094202
  15 C :    0.071382
  16 C :   -0.127989
  17 C :   -0.030073
  18 N :   -0.031406
  19 C :   -0.016580
  20 N :   -0.048706
  21 C :    0.061865
  22 C :   -0.165148
  23 C :   -0.054367
  24 C :    0.085227
  25 O :   -0.150585
  26 N :   -0.039804
  27 C :    0.035891
  28 C :    0.096727
  29 O :   -0.150452
  30 C :   -0.097778
  31 C :   -0.139113
  32 S :    0.509129
  33 C :   -0.221995
  34 S :    0.491904
  35 C :   -0.162219
  36 C :   -0.051018
  37 C :   -0.020155
  38 N :   -0.081713
  39 C :    0.063348
  40 O :   -0.067255
  41 C :    0.085069
  42 C :   -0.062552
  43 C :    0.006515
  44 C :    0.014025
  45 N :   -0.111878
  46 N :   -0.038981
  47 C :   -0.031850
  48 C :    0.018718
  49 C :   -0.025101
  50 N :    0.289125
  51 O :   -0.199151
  52 O :   -0.193294
  53 C :   -0.011742
  54 C :    0.008218
  55 C :    0.002778
  56 C :    0.038232
  57 C :   -0.033778
  58 C :    0.074596
  59 C :   -0.087097
  60 C :    0.084235
  61 O :   -0.135977
  62 C :   -0.053742
  63 C :    0.032222
  64 C :   -0.008271
  65 C :   -0.005403
  66 C :   -0.029436
  67 C :    0.067606
  68 C :    0.068063
  69 C :   -0.032347
  70 F :   -0.048075
  71 F :   -0.047792
  72 C :    0.016704
  73 C :   -0.020985
  74 C :    0.070590
  75 C :   -0.138082
  76 C :   -0.007981
  77 N :   -0.047375
  78 C :   -0.019737
  79 N :   -0.049597
  80 H :    0.048231
  81 H :    0.045386
  82 H :    0.040599
  83 H :    0.041012
  84 H :    0.057237
  85 H :    0.039292
  86 H :    0.035443
  87 H :    0.028117
  88 H :    0.017368
  89 H :    0.020882
  90 H :    0.028129
  91 H :    0.032914
  92 H :    0.029974
  93 H :    0.022649
  94 H :    0.034905
  95 H :    0.052199
  96 H :    0.060242
  97 H :    0.035638
  98 H :    0.038489
  99 H :    0.028730
 100 H :    0.033641
 101 H :    0.036785
 102 H :    0.049239
 103 H :    0.041434
 104 H :    0.047678
 105 H :    0.045402
 106 H :    0.040045

  Mayer bond orders larger than 0.100000
B(  0-C ,  1-C ) :   1.4407 B(  0-C ,  5-C ) :   0.1084 B(  0-C ,  7-C ) :   1.1892
B(  0-C , 80-H ) :   1.0066 B(  1-C ,  2-F ) :   1.1365 B(  1-C ,  3-C ) :   1.1912
B(  3-C ,  4-F ) :   1.1356 B(  3-C ,  5-C ) :   1.4434 B(  5-C ,  6-C ) :   1.1924
B(  5-C , 81-H ) :   1.0066 B(  6-C ,  7-C ) :   1.2543 B(  6-C , 11-C ) :   1.1920
B(  7-C ,  8-C ) :   1.2147 B(  8-C ,  9-C ) :   1.4549 B(  8-C , 82-H ) :   0.9906
B(  9-C , 10-C ) :   1.2204 B(  9-C , 15-C ) :   0.9888 B( 10-C , 11-C ) :   1.4674
B( 10-C , 12-C ) :   0.9552 B( 11-C , 83-H ) :   1.0164 B( 12-C , 13-O ) :   2.1348
B( 12-C , 14-C ) :   0.9693 B( 14-C , 15-C ) :   1.0504 B( 14-C , 21-C ) :   1.5423
B( 15-C , 16-C ) :   1.6611 B( 16-C , 17-C ) :   1.1345 B( 16-C , 19-C ) :   1.1428
B( 17-C , 18-N ) :   3.0095 B( 19-C , 20-N ) :   2.9681 B( 21-C , 22-C ) :   1.2315
B( 21-C , 84-H ) :   0.9434 B( 22-C , 23-C ) :   1.4467 B( 22-C , 32-S ) :   1.0844
B( 23-C , 24-C ) :   0.8928 B( 23-C , 30-C ) :   1.3114 B( 24-C , 25-O ) :   2.1723
B( 24-C , 26-N ) :   1.0882 B( 26-N , 27-C ) :   0.9412 B( 26-N , 28-C ) :   1.0601
B( 27-C , 85-H ) :   0.9649 B( 27-C , 86-H ) :   0.9657 B( 27-C , 87-H ) :   0.9816
B( 28-C , 29-O ) :   2.1401 B( 28-C , 30-C ) :   0.8952 B( 30-C , 31-C ) :   1.4597
B( 31-C , 32-S ) :   1.1429 B( 31-C , 33-C ) :   1.1577 B( 33-C , 34-S ) :   1.1323
B( 33-C , 35-C ) :   0.1511 B( 33-C , 37-C ) :   1.3780 B( 34-S , 35-C ) :   1.1678
B( 35-C , 36-C ) :   1.3930 B( 35-C , 47-C ) :   1.1011 B( 36-C , 37-C ) :   1.2275
B( 36-C , 46-N ) :   1.3317 B( 37-C , 38-N ) :   1.4042 B( 38-N , 39-C ) :   1.6080
B( 39-C , 40-O ) :   1.2947 B( 39-C , 43-C ) :   1.0851 B( 40-O , 41-C ) :   0.8812
B( 41-C , 42-C ) :   1.0964 B( 41-C , 88-H ) :   0.9557 B( 41-C , 89-H ) :   0.9469
B( 42-C , 90-H ) :   0.9682 B( 42-C , 91-H ) :   0.9608 B( 42-C , 92-H ) :   0.9688
B( 43-C , 44-C ) :   1.0121 B( 43-C , 46-N ) :   1.7679 B( 44-C , 45-N ) :   1.1210
B( 44-C , 93-H ) :   0.9087 B( 44-C , 94-H ) :   0.9157 B( 45-N , 95-H ) :   0.9499
B( 45-N , 96-H ) :   0.9606 B( 47-C , 48-C ) :   1.3177 B( 47-C , 55-C ) :   1.2789
B( 48-C , 49-C ) :   1.3556 B( 48-C , 97-H ) :   0.9775 B( 49-C , 50-N ) :   0.8871
B( 49-C , 53-C ) :   1.3331 B( 50-N , 51-O ) :   1.5512 B( 50-N , 52-O ) :   1.5192
B( 51-O , 52-O ) :   0.2628 B( 53-C , 54-C ) :   1.3546 B( 53-C , 56-C ) :   1.0810
B( 54-C , 55-C ) :   1.4184 B( 54-C , 98-H ) :   0.9793 B( 55-C , 99-H ) :   0.9897
B( 56-C , 57-C ) :   1.7167 B( 56-C ,100-H ) :   0.9392 B( 57-C , 58-C ) :   1.1219
B( 57-C ,101-H ) :   0.9586 B( 58-C , 59-C ) :   1.7042 B( 58-C ,102-H ) :   0.9282
B( 59-C , 60-C ) :   0.9372 B( 59-C , 74-C ) :   1.0232 B( 60-C , 61-O ) :   2.2780
B( 60-C , 62-C ) :   0.9162 B( 62-C , 63-C ) :   1.4715 B( 62-C , 73-C ) :   1.2220
B( 63-C , 64-C ) :   1.1968 B( 63-C ,103-H ) :   1.0157 B( 64-C , 65-C ) :   1.2559
B( 64-C , 69-C ) :   1.1924 B( 65-C , 66-C ) :   1.1889 B( 65-C , 72-C ) :   1.2197
B( 66-C , 67-C ) :   1.4431 B( 66-C , 69-C ) :   0.1084 B( 66-C ,104-H ) :   1.0064
B( 67-C , 68-C ) :   1.1899 B( 67-C , 71-F ) :   1.1347 B( 68-C , 69-C ) :   1.4453
B( 68-C , 70-F ) :   1.1345 B( 69-C ,105-H ) :   1.0063 B( 72-C , 73-C ) :   1.4524
B( 72-C ,106-H ) :   0.9931 B( 73-C , 74-C ) :   0.9995 B( 74-C , 75-C ) :   1.6575
B( 75-C , 76-C ) :   1.1675 B( 75-C , 78-C ) :   1.1285 B( 76-C , 77-N ) :   2.9902
B( 78-C , 79-N ) :   2.9875

-----------------------------------------------------------------------------
         ABSORPTION SPECTRUM VIA TRANSITION ELECTRIC DIPOLE MOMENTS
-----------------------------------------------------------------------------
State   Energy  Wavelength   fosc         T2         TX        TY        TZ
        (cm-1)    (nm)                  (au**2)     (au)      (au)      (au)
-----------------------------------------------------------------------------
   0   17713.9    564.5   1.280102675  23.79063  -2.78407  -1.58312  -3.67877
   1   21354.8    468.3   0.516285095   7.95921  -2.03486   1.94809  -0.15330
   2   24949.3    400.8   0.202712965   2.67485   0.84014   0.07791   1.40105
   3   26347.8    379.5   0.033495263   0.41852   0.06360  -0.58341   0.27223
   4   26751.6    373.8   0.136723428   1.68255   0.16478  -1.25019  -0.30402
   5   27141.2    368.4   0.032364068   0.39256   0.28750   0.17048   0.52995
   6   27495.9    363.7   0.018202069   0.21794   0.46539  -0.03117  -0.01932
   7   27724.6    360.7   0.050085680   0.59473   0.62555   0.44971   0.03442
   8   28043.7    356.6   0.055218448   0.64822   0.78281  -0.17537   0.06841
   9   28160.7    355.1   0.201174584   2.35183   1.47617  -0.41085  -0.06289
  10   28623.9    349.4   0.030041590   0.34552  -0.42264   0.23477  -0.33433
  11   28831.7    346.8   0.017612328   0.20110  -0.10016   0.32568   0.29156
  12   29075.5    343.9   0.029914046   0.33871   0.55550  -0.09525  -0.14510
  13   29700.8    336.7   0.072043320   0.79855  -0.21082  -0.82799  -0.26180
  14   30035.6    332.9   0.183393517   2.01012   0.80007  -1.16181   0.14220
  15   30082.3    332.4   0.195150001   2.13567   0.43326  -1.00397  -0.96953
  16   31366.5    318.8   0.061092673   0.64121   0.35558  -0.44536   0.56252
  17   31888.7    313.6   0.135974186   1.40377  -0.87004   0.26756  -0.75842
  18   31930.7    313.2   0.054865081   0.56567   0.50240  -0.14409   0.54083
  19   32154.9    311.0   0.106594184   1.09135  -0.94677  -0.19903  -0.39415
  20   32637.5    306.4   0.110173416   1.11131  -0.18483  -0.81393  -0.64395
  21   33083.0    302.3   0.137676687   1.37003  -0.64383   0.13321  -0.96838
  22   33379.5    299.6   0.186331036   1.83773   0.46318   1.07849   0.67827
  23   33520.1    298.3   0.166093006   1.63126  -1.02979  -0.07028  -0.75223
  24   33701.7    296.7   0.764857631   7.47144  -2.03411   1.50443   1.03466
  25   34253.1    291.9   0.075056787   0.72138   0.84722  -0.05792  -0.01561
  26   34575.8    289.2   0.061756848   0.58802  -0.59879  -0.17770  -0.44485
  27   34715.5    288.1   0.079045392   0.74960  -0.69660  -0.29968  -0.41778
  28   34979.7    285.9   0.375645864   3.53540  -1.61084  -0.38693  -0.88932
  29   35102.2    284.9   0.021476572   0.20142   0.42337  -0.14856   0.01051
  30   35156.9    284.4   0.015483222   0.14499   0.30162  -0.21907   0.07760
  31   35378.9    282.7   0.002772784   0.02580   0.14201   0.06235  -0.04179
  32   35622.9    280.7   0.076553363   0.70747   0.70828   0.34131   0.29887
  33   35881.4    278.7   0.097873854   0.89799  -0.00802  -0.91914  -0.23044
  34   36156.0    276.6   0.003949331   0.03596  -0.05494  -0.08089   0.16247
  35   36459.1    274.3   0.005448177   0.04919  -0.17383   0.11099  -0.08160
  36   36599.1    273.2   0.015307686   0.13769  -0.19863   0.30713   0.06254
  37   36784.0    271.9   0.010109946   0.09048   0.09583   0.28510   0.00395
  38   36961.4    270.6   0.068311683   0.60845  -0.49863   0.44679  -0.40023
  39   37189.0    268.9   0.006273524   0.05554  -0.12834   0.19755   0.00612
  40   37416.5    267.3   0.014584597   0.12832  -0.20867   0.28943  -0.03179
  41   37682.1    265.4   0.163910841   1.43202  -0.43992   0.83849   0.73172
  42   37770.9    264.8   0.091145558   0.79443  -0.34338   0.81666   0.09790
  43   37966.2    263.4   0.230568223   1.99930   1.14427   0.68973   0.46284
  44   38215.8    261.7   0.101456099   0.87400  -0.84866   0.20558  -0.33395
  45   38309.5    261.0   0.105354874   0.90537   0.78056  -0.42941   0.33421
  46   38403.6    260.4   0.019602205   0.16804   0.16067   0.32537   0.19069
  47   39051.4    256.1   0.086068147   0.72557  -0.22157  -0.01547  -0.82234
  48   39130.8    255.6   0.036767684   0.30933   0.12896  -0.08844   0.53374
  49   39607.6    252.5   0.067434704   0.56051   0.44055  -0.58139   0.16855
  50   40043.8    249.7   0.034534391   0.28392  -0.12379   0.20407   0.47639
  51   40207.1    248.7   0.017279036   0.14148   0.00982  -0.26895  -0.26277
  52   40274.9    248.3   0.073440102   0.60031   0.51360  -0.30490  -0.49352

FINAL SINGLE POINT ENERGY     -4436.693285917436

DIPOLE MOMENT
-------------
                                X             Y             Z
Electronic contribution:    -39.99824      60.23545      15.18503
Nuclear contribution   :     38.86342     -61.45670     -15.73856
                        -----------------------------------------
Total Dipole Moment    :     -1.13482      -1.22125      -0.55353
                        -----------------------------------------
Magnitude (a.u.)       :      1.75660
Magnitude (Debye)      :      4.46493

Rotational constants in cm-1:     0.000897     0.000258     0.000213
Rotational constants in MHz :    26.889842     7.744671     6.373576

                             ****ORCA TERMINATED NORMALLY****
TOTAL RUN TIME: 0 days 0 hours 11 minutes 9 seconds 339 msec
