                         Program Version 4.2.0 -  RELEASE  -
|  1> # ORCA input file
|  2> # SCF done       -211.630653632050          0.000533364869
|  3> ! CAM-B3LYP def2-SVP def2/J RIJCOSX Grid4 TightSCF
|  4> %maxcore 5000
|  5> %tddft
|  6>     Mode sTDDFT
|  7>     Ethresh 5.0
|  8>     maxcore 5000
|  9> end
| 10>
| 11> %pal
| 12>   nprocs 6
| 13>   end
| 14> * xyz 0 1
| 15>    C        4.32416        -3.86039         0.92483
| 16>    C        5.36911        -4.65528         0.54472
| 17>    F        6.62907        -4.24186         0.72422
| 18>    C        5.13586        -5.91697        -0.03989
| 19>    F        6.17877        -6.67376        -0.40271
| 20>    C        3.86000        -6.36591        -0.23651
| 21>    C        2.76225        -5.56949         0.14388
| 22>    C        2.99648        -4.29409         0.73636
| 23>    C        1.91041        -3.47895         1.13010
| 24>    C        0.62988        -3.92427         0.93366
| 25>    C        0.40576        -5.19515         0.33137
| 26>    C        1.43422        -6.00723        -0.05311
| 27>    C       -1.04270        -5.42856         0.21336
| 28>    O       -1.58519        -6.43024        -0.21318
| 29>    C       -1.69093        -4.19514         0.69413
| 30>    C       -0.66455        -3.32681         1.24794
| 31>    C       -0.87103        -2.21124         2.01115
| 32>    C       -2.13495        -1.76263         2.45781
| 33>    N       -3.11756        -1.37642         2.90624
| 34>    C        0.17205        -1.40888         2.52196
| 35>    N        0.98374        -0.72133         2.95199
| 36>    C       -2.99981        -3.86052         0.49796
| 37>    C       -4.04048        -4.63610        -0.05251
| 38>    S       -4.02552        -6.33972        -0.44501
| 39>    C       -5.69254        -6.32378        -0.96133
| 40>    C       -6.22769        -5.04059        -0.84432
| 41>    C       -5.30029        -4.11649        -0.33451
| 42>    C       -5.87631        -2.76850        -0.25904
| 43>    O       -5.31957        -1.74380         0.04259
| 44>    C       -7.32746        -2.92354        -0.68371
| 45>    C       -7.50848        -4.37446        -1.10534
| 46>    O       -8.52137        -4.84514        -1.56445
| 47>    C       -6.23718        -7.53638        -1.44705
| 48>    C       -7.47893        -7.68251        -1.97706
| 49>    C       -7.96482        -8.90209        -2.50086
| 50>    S       -9.52709        -8.97593        -3.28155
| 51>    C       -9.37287       -10.66598        -3.68486
| 52>    C       -8.15740       -11.12770        -3.20161
| 53>    C       -7.37682       -10.15610        -2.55251
| 54>    S       -5.88102       -10.86876        -2.02003
| 55>    C       -6.39595       -12.43443        -2.70430
| 56>    S       -5.52967       -13.79905        -2.65996
| 57>    O       -7.60372       -12.35905        -3.27244
| 58>    C      -10.36829       -11.33851        -4.43417
| 59>    C      -10.28039       -12.64816        -4.77881
| 60>    C      -11.20874       -13.34142        -5.59545
| 61>    S      -10.90781       -15.03022        -5.91009
| 62>    C      -12.28817       -15.19468        -6.96495
| 63>    C      -12.94987       -13.97666        -7.04808
| 64>    C      -12.34742       -12.94302        -6.28483
| 65>    C      -13.08516       -11.68874        -6.45048
| 66>    O      -12.89938       -10.62548        -5.90792
| 67>    C      -14.18001       -11.97582        -7.46113
| 68>    C      -14.12478       -13.46138        -7.75766
| 69>    O      -14.92236       -14.06174        -8.43917
| 70>    C      -12.48288       -16.43949        -7.61598
| 71>    C      -13.43932       -16.67344        -8.54754
| 72>    C      -13.52793       -17.88178        -9.28111
| 73>    C      -14.20520       -18.03856       -10.45035
| 74>    C      -14.53918       -19.39552       -10.96272
| 75>    O      -14.07364       -20.44588       -10.58793
| 76>    C      -15.59296       -19.17438       -11.97377
| 77>    C      -16.31808       -20.09891       -12.66903
| 78>    C      -17.30143       -19.65620       -13.58149
| 79>    C      -17.52187       -18.25774       -13.74742
| 80>    C      -18.50827       -17.82271       -14.65543
| 81>    C      -19.23748       -18.73252       -15.36813
| 82>    C      -19.01727       -20.11531       -15.20450
| 83>    C      -18.07031       -20.56891       -14.32974
| 84>    F      -19.74734       -20.98393       -15.91620
| 85>    F      -20.17197       -18.31756       -16.23272
| 86>    C      -16.75399       -17.32341       -13.01573
| 87>    C      -15.79540       -17.77445       -12.14780
| 88>    C      -14.83486       -17.05737       -11.31195
| 89>    C      -14.45825       -15.75191       -11.48021
| 90>    C      -13.33018       -15.14842       -10.88284
| 91>    N      -12.39345       -14.61091       -10.49393
| 92>    C      -15.09312       -14.86599       -12.37741
| 93>    N      -15.57741       -14.10576       -13.08740
| 94>    H        4.52076        -2.89864         1.37227
| 95>    H        3.69798        -7.33349        -0.68511
| 96>    H        2.11956        -2.51823         1.57215
| 97>    H        1.23632        -6.96845        -0.50251
| 98>    H       -3.31433        -2.85277         0.74971
| 99>    H       -7.58353        -2.23944        -1.49515
|100>    H       -7.99529        -2.68278         0.14684
|101>    H       -5.57006        -8.38789        -1.39856
|102>    H       -8.14707        -6.83426        -2.03532
|103>    H      -11.21449       -10.74491        -4.75089
|104>    H       -9.43872       -13.23558        -4.43722
|105>    H      -13.99946       -11.40928        -8.37859
|106>    H      -15.16232       -11.67005        -7.09573
|107>    H      -11.75086       -17.20624        -7.39440
|108>    H      -14.16566       -15.90222        -8.75972
|109>    H      -13.06033       -18.77194        -8.87386
|110>    H      -16.14229       -21.15421       -12.52590
|111>    H      -18.68724       -16.76807       -14.79516
|112>    H      -17.91388       -21.63013       -14.21558
|113>    H      -16.94821       -16.27188       -13.15392
|114> *
|115>
|116>                          ****END OF INPUT****

CARTESIAN COORDINATES (ANGSTROEM)
---------------------------------
  C      4.324160   -3.860390    0.924830
  C      5.369110   -4.655280    0.544720
  F      6.629070   -4.241860    0.724220
  C      5.135860   -5.916970   -0.039890
  F      6.178770   -6.673760   -0.402710
  C      3.860000   -6.365910   -0.236510
  C      2.762250   -5.569490    0.143880
  C      2.996480   -4.294090    0.736360
  C      1.910410   -3.478950    1.130100
  C      0.629880   -3.924270    0.933660
  C      0.405760   -5.195150    0.331370
  C      1.434220   -6.007230   -0.053110
  C     -1.042700   -5.428560    0.213360
  O     -1.585190   -6.430240   -0.213180
  C     -1.690930   -4.195140    0.694130
  C     -0.664550   -3.326810    1.247940
  C     -0.871030   -2.211240    2.011150
  C     -2.134950   -1.762630    2.457810
  N     -3.117560   -1.376420    2.906240
  C      0.172050   -1.408880    2.521960
  N      0.983740   -0.721330    2.951990
  C     -2.999810   -3.860520    0.497960
  C     -4.040480   -4.636100   -0.052510
  S     -4.025520   -6.339720   -0.445010
  C     -5.692540   -6.323780   -0.961330
  C     -6.227690   -5.040590   -0.844320
  C     -5.300290   -4.116490   -0.334510
  C     -5.876310   -2.768500   -0.259040
  O     -5.319570   -1.743800    0.042590
  C     -7.327460   -2.923540   -0.683710
  C     -7.508480   -4.374460   -1.105340
  O     -8.521370   -4.845140   -1.564450
  C     -6.237180   -7.536380   -1.447050
  C     -7.478930   -7.682510   -1.977060
  C     -7.964820   -8.902090   -2.500860
  S     -9.527090   -8.975930   -3.281550
  C     -9.372870  -10.665980   -3.684860
  C     -8.157400  -11.127700   -3.201610
  C     -7.376820  -10.156100   -2.552510
  S     -5.881020  -10.868760   -2.020030
  C     -6.395950  -12.434430   -2.704300
  S     -5.529670  -13.799050   -2.659960
  O     -7.603720  -12.359050   -3.272440
  C    -10.368290  -11.338510   -4.434170
  C    -10.280390  -12.648160   -4.778810
  C    -11.208740  -13.341420   -5.595450
  S    -10.907810  -15.030220   -5.910090
  C    -12.288170  -15.194680   -6.964950
  C    -12.949870  -13.976660   -7.048080
  C    -12.347420  -12.943020   -6.284830
  C    -13.085160  -11.688740   -6.450480
  O    -12.899380  -10.625480   -5.907920
  C    -14.180010  -11.975820   -7.461130
  C    -14.124780  -13.461380   -7.757660
  O    -14.922360  -14.061740   -8.439170
  C    -12.482880  -16.439490   -7.615980
  C    -13.439320  -16.673440   -8.547540
  C    -13.527930  -17.881780   -9.281110
  C    -14.205200  -18.038560  -10.450350
  C    -14.539180  -19.395520  -10.962720
  O    -14.073640  -20.445880  -10.587930
  C    -15.592960  -19.174380  -11.973770
  C    -16.318080  -20.098910  -12.669030
  C    -17.301430  -19.656200  -13.581490
  C    -17.521870  -18.257740  -13.747420
  C    -18.508270  -17.822710  -14.655430
  C    -19.237480  -18.732520  -15.368130
  C    -19.017270  -20.115310  -15.204500
  C    -18.070310  -20.568910  -14.329740
  F    -19.747340  -20.983930  -15.916200
  F    -20.171970  -18.317560  -16.232720
  C    -16.753990  -17.323410  -13.015730
  C    -15.795400  -17.774450  -12.147800
  C    -14.834860  -17.057370  -11.311950
  C    -14.458250  -15.751910  -11.480210
  C    -13.330180  -15.148420  -10.882840
  N    -12.393450  -14.610910  -10.493930
  C    -15.093120  -14.865990  -12.377410
  N    -15.577410  -14.105760  -13.087400
  H      4.520760   -2.898640    1.372270
  H      3.697980   -7.333490   -0.685110
  H      2.119560   -2.518230    1.572150
  H      1.236320   -6.968450   -0.502510
  H     -3.314330   -2.852770    0.749710
  H     -7.583530   -2.239440   -1.495150
  H     -7.995290   -2.682780    0.146840
  H     -5.570060   -8.387890   -1.398560
  H     -8.147070   -6.834260   -2.035320
  H    -11.214490  -10.744910   -4.750890
  H     -9.438720  -13.235580   -4.437220
  H    -13.999460  -11.409280   -8.378590
  H    -15.162320  -11.670050   -7.095730
  H    -11.750860  -17.206240   -7.394400
  H    -14.165660  -15.902220   -8.759720
  H    -13.060330  -18.771940   -8.873860
  H    -16.142290  -21.154210  -12.525900
  H    -18.687240  -16.768070  -14.795160
  H    -17.913880  -21.630130  -14.215580
  H    -16.948210  -16.271880  -13.153920

 Total Charge           Charge          ....    0
 Multiplicity           Mult            ....    1
 Number of Electrons    NEL             ....  574
 Basis Dimension        Dim             .... 1226

ORBITAL ENERGIES
----------------

  NO   OCC          E(Eh)            E(eV)
   0   2.0000     -88.992982     -2421.6222
   1   2.0000     -88.989429     -2421.5255
   2   2.0000     -88.988866     -2421.5101
   3   2.0000     -88.986009     -2421.4324
   4   2.0000     -88.906402     -2419.2662
   5   2.0000     -24.803636      -674.9412
   6   2.0000     -24.802724      -674.9164
   7   2.0000     -24.799439      -674.8270
   8   2.0000     -24.798852      -674.8111
   9   2.0000     -19.330738      -526.0161
  10   2.0000     -19.235381      -523.4213
  11   2.0000     -19.229756      -523.2683
  12   2.0000     -19.229597      -523.2639
  13   2.0000     -19.228400      -523.2314
  14   2.0000     -19.227115      -523.1964
  15   2.0000     -19.218937      -522.9739
  16   2.0000     -14.422046      -392.4438
  17   2.0000     -14.419101      -392.3637
  18   2.0000     -14.418675      -392.3521
  19   2.0000     -14.417106      -392.3094
  20   2.0000     -10.424372      -283.6616
  21   2.0000     -10.387220      -282.6506
  22   2.0000     -10.386728      -282.6372
  23   2.0000     -10.383390      -282.5464
  24   2.0000     -10.383070      -282.5377
  25   2.0000     -10.382721      -282.5282
  26   2.0000     -10.382187      -282.5137
  27   2.0000     -10.381788      -282.5028
  28   2.0000     -10.381351      -282.4909
  29   2.0000     -10.380290      -282.4621
  30   2.0000     -10.373286      -282.2715
  31   2.0000     -10.369810      -282.1769
  32   2.0000     -10.351334      -281.6741
  33   2.0000     -10.348503      -281.5971
  34   2.0000     -10.348321      -281.5921
  35   2.0000     -10.344724      -281.4943
  36   2.0000     -10.342336      -281.4293
  37   2.0000     -10.341153      -281.3971
  38   2.0000     -10.338978      -281.3379
  39   2.0000     -10.337960      -281.3102
  40   2.0000     -10.337867      -281.3077
  41   2.0000     -10.337264      -281.2912
  42   2.0000     -10.336473      -281.2697
  43   2.0000     -10.332356      -281.1577
  44   2.0000     -10.324183      -280.9353
  45   2.0000     -10.321280      -280.8563
  46   2.0000     -10.320664      -280.8395
  47   2.0000     -10.319917      -280.8192
  48   2.0000     -10.318059      -280.7687
  49   2.0000     -10.317221      -280.7459
  50   2.0000     -10.316964      -280.7389
  51   2.0000     -10.314972      -280.6847
  52   2.0000     -10.314118      -280.6614
  53   2.0000     -10.312170      -280.6084
  54   2.0000     -10.312055      -280.6053
  55   2.0000     -10.311837      -280.5993
  56   2.0000     -10.311388      -280.5871
  57   2.0000     -10.310960      -280.5755
  58   2.0000     -10.310124      -280.5527
  59   2.0000     -10.309721      -280.5418
  60   2.0000     -10.309133      -280.5258
  61   2.0000     -10.308984      -280.5217
  62   2.0000     -10.307065      -280.4695
  63   2.0000     -10.305963      -280.4395
  64   2.0000     -10.305950      -280.4392
  65   2.0000     -10.304738      -280.4062
  66   2.0000     -10.304537      -280.4007
  67   2.0000     -10.304419      -280.3975
  68   2.0000     -10.303824      -280.3813
  69   2.0000     -10.303016      -280.3593
  70   2.0000     -10.302438      -280.3436
  71   2.0000     -10.302055      -280.3332
  72   2.0000     -10.301880      -280.3284
  73   2.0000     -10.301827      -280.3270
  74   2.0000     -10.301576      -280.3201
  75   2.0000     -10.295760      -280.1619
  76   2.0000     -10.294287      -280.1218
  77   2.0000     -10.292706      -280.0788
  78   2.0000     -10.289868      -280.0015
  79   2.0000      -8.088260      -220.0928
  80   2.0000      -8.084539      -219.9915
  81   2.0000      -8.082613      -219.9391
  82   2.0000      -8.081138      -219.8989
  83   2.0000      -8.004125      -217.8033
  84   2.0000      -6.058251      -164.8534
  85   2.0000      -6.053965      -164.7368
  86   2.0000      -6.053570      -164.7260
  87   2.0000      -6.051883      -164.6801
  88   2.0000      -6.050497      -164.6424
  89   2.0000      -6.049423      -164.6132
  90   2.0000      -6.048870      -164.5981
  91   2.0000      -6.047242      -164.5538
  92   2.0000      -6.047061      -164.5489
  93   2.0000      -6.046497      -164.5336
  94   2.0000      -6.045215      -164.4987
  95   2.0000      -6.042893      -164.4355
  96   2.0000      -5.973685      -162.5522
  97   2.0000      -5.970815      -162.4741
  98   2.0000      -5.964084      -162.2910
  99   2.0000      -1.326576       -36.0980
 100   2.0000      -1.322227       -35.9796
 101   2.0000      -1.311661       -35.6921
 102   2.0000      -1.307356       -35.5750
 103   2.0000      -1.253066       -34.0977
 104   2.0000      -1.151129       -31.3238
 105   2.0000      -1.148424       -31.2502
 106   2.0000      -1.146370       -31.1943
 107   2.0000      -1.143656       -31.1205
 108   2.0000      -1.141542       -31.0629
 109   2.0000      -1.134190       -30.8629
 110   2.0000      -1.026804       -27.9408
 111   2.0000      -1.023411       -27.8484
 112   2.0000      -1.022528       -27.8244
 113   2.0000      -1.020423       -27.7671
 114   2.0000      -1.019204       -27.7339
 115   2.0000      -1.010279       -27.4911
 116   2.0000      -1.006128       -27.3781
 117   2.0000      -0.998620       -27.1738
 118   2.0000      -0.996772       -27.1235
 119   2.0000      -0.988566       -26.9003
 120   2.0000      -0.983666       -26.7669
 121   2.0000      -0.959852       -26.1189
 122   2.0000      -0.942823       -25.6555
 123   2.0000      -0.942738       -25.6532
 124   2.0000      -0.939636       -25.5688
 125   2.0000      -0.936078       -25.4720
 126   2.0000      -0.929988       -25.3063
 127   2.0000      -0.927530       -25.2394
 128   2.0000      -0.913864       -24.8675
 129   2.0000      -0.909222       -24.7412
 130   2.0000      -0.903095       -24.5745
 131   2.0000      -0.899830       -24.4856
 132   2.0000      -0.897001       -24.4086
 133   2.0000      -0.893334       -24.3089
 134   2.0000      -0.887556       -24.1516
 135   2.0000      -0.872000       -23.7283
 136   2.0000      -0.853845       -23.2343
 137   2.0000      -0.847439       -23.0600
 138   2.0000      -0.842282       -22.9197
 139   2.0000      -0.837780       -22.7972
 140   2.0000      -0.833910       -22.6918
 141   2.0000      -0.833554       -22.6822
 142   2.0000      -0.819448       -22.2983
 143   2.0000      -0.811249       -22.0752
 144   2.0000      -0.799458       -21.7544
 145   2.0000      -0.789111       -21.4728
 146   2.0000      -0.775549       -21.1038
 147   2.0000      -0.769561       -20.9408
 148   2.0000      -0.763648       -20.7799
 149   2.0000      -0.754194       -20.5227
 150   2.0000      -0.748814       -20.3763
 151   2.0000      -0.748054       -20.3556
 152   2.0000      -0.730314       -19.8729
 153   2.0000      -0.728813       -19.8320
 154   2.0000      -0.719986       -19.5918
 155   2.0000      -0.719611       -19.5816
 156   2.0000      -0.716311       -19.4918
 157   2.0000      -0.708108       -19.2686
 158   2.0000      -0.707557       -19.2536
 159   2.0000      -0.696535       -18.9537
 160   2.0000      -0.694338       -18.8939
 161   2.0000      -0.687536       -18.7088
 162   2.0000      -0.684615       -18.6293
 163   2.0000      -0.682403       -18.5691
 164   2.0000      -0.677262       -18.4292
 165   2.0000      -0.667367       -18.1600
 166   2.0000      -0.658953       -17.9310
 167   2.0000      -0.657314       -17.8864
 168   2.0000      -0.649193       -17.6654
 169   2.0000      -0.647556       -17.6209
 170   2.0000      -0.644832       -17.5468
 171   2.0000      -0.641376       -17.4527
 172   2.0000      -0.635574       -17.2949
 173   2.0000      -0.628871       -17.1125
 174   2.0000      -0.623969       -16.9791
 175   2.0000      -0.616674       -16.7805
 176   2.0000      -0.615966       -16.7613
 177   2.0000      -0.613380       -16.6909
 178   2.0000      -0.599480       -16.3127
 179   2.0000      -0.596855       -16.2413
 180   2.0000      -0.593686       -16.1550
 181   2.0000      -0.593366       -16.1463
 182   2.0000      -0.590927       -16.0800
 183   2.0000      -0.588143       -16.0042
 184   2.0000      -0.586617       -15.9627
 185   2.0000      -0.583557       -15.8794
 186   2.0000      -0.582422       -15.8485
 187   2.0000      -0.580205       -15.7882
 188   2.0000      -0.577403       -15.7119
 189   2.0000      -0.575967       -15.6729
 190   2.0000      -0.573551       -15.6071
 191   2.0000      -0.571881       -15.5617
 192   2.0000      -0.570132       -15.5141
 193   2.0000      -0.563558       -15.3352
 194   2.0000      -0.561918       -15.2906
 195   2.0000      -0.557841       -15.1796
 196   2.0000      -0.555892       -15.1266
 197   2.0000      -0.552424       -15.0322
 198   2.0000      -0.549945       -14.9648
 199   2.0000      -0.548838       -14.9346
 200   2.0000      -0.548219       -14.9178
 201   2.0000      -0.547523       -14.8988
 202   2.0000      -0.538390       -14.6503
 203   2.0000      -0.537894       -14.6368
 204   2.0000      -0.535363       -14.5680
 205   2.0000      -0.532714       -14.4959
 206   2.0000      -0.530478       -14.4350
 207   2.0000      -0.528297       -14.3757
 208   2.0000      -0.525645       -14.3035
 209   2.0000      -0.524524       -14.2730
 210   2.0000      -0.523188       -14.2367
 211   2.0000      -0.522747       -14.2247
 212   2.0000      -0.521198       -14.1825
 213   2.0000      -0.518227       -14.1017
 214   2.0000      -0.514997       -14.0138
 215   2.0000      -0.514361       -13.9965
 216   2.0000      -0.511998       -13.9322
 217   2.0000      -0.511085       -13.9073
 218   2.0000      -0.508058       -13.8250
 219   2.0000      -0.505034       -13.7427
 220   2.0000      -0.503653       -13.7051
 221   2.0000      -0.502528       -13.6745
 222   2.0000      -0.500899       -13.6302
 223   2.0000      -0.499583       -13.5944
 224   2.0000      -0.494652       -13.4602
 225   2.0000      -0.492970       -13.4144
 226   2.0000      -0.490966       -13.3599
 227   2.0000      -0.489826       -13.3288
 228   2.0000      -0.489637       -13.3237
 229   2.0000      -0.486222       -13.2308
 230   2.0000      -0.485464       -13.2101
 231   2.0000      -0.481454       -13.1010
 232   2.0000      -0.476200       -12.9581
 233   2.0000      -0.475787       -12.9468
 234   2.0000      -0.472851       -12.8669
 235   2.0000      -0.469503       -12.7758
 236   2.0000      -0.466778       -12.7017
 237   2.0000      -0.463599       -12.6152
 238   2.0000      -0.457540       -12.4503
 239   2.0000      -0.455632       -12.3984
 240   2.0000      -0.454781       -12.3752
 241   2.0000      -0.453241       -12.3333
 242   2.0000      -0.452195       -12.3049
 243   2.0000      -0.451486       -12.2856
 244   2.0000      -0.449123       -12.2212
 245   2.0000      -0.447602       -12.1799
 246   2.0000      -0.446838       -12.1591
 247   2.0000      -0.446453       -12.1486
 248   2.0000      -0.444138       -12.0856
 249   2.0000      -0.442973       -12.0539
 250   2.0000      -0.442147       -12.0314
 251   2.0000      -0.441576       -12.0159
 252   2.0000      -0.440221       -11.9790
 253   2.0000      -0.438336       -11.9277
 254   2.0000      -0.432430       -11.7670
 255   2.0000      -0.429373       -11.6838
 256   2.0000      -0.426852       -11.6152
 257   2.0000      -0.426680       -11.6106
 258   2.0000      -0.426172       -11.5967
 259   2.0000      -0.421552       -11.4710
 260   2.0000      -0.414472       -11.2784
 261   2.0000      -0.413087       -11.2407
 262   2.0000      -0.404729       -11.0132
 263   2.0000      -0.400773       -10.9056
 264   2.0000      -0.393348       -10.7035
 265   2.0000      -0.389035       -10.5862
 266   2.0000      -0.380614       -10.3570
 267   2.0000      -0.375946       -10.2300
 268   2.0000      -0.365053        -9.9336
 269   2.0000      -0.362345        -9.8599
 270   2.0000      -0.358141        -9.7455
 271   2.0000      -0.355980        -9.6867
 272   2.0000      -0.353762        -9.6264
 273   2.0000      -0.350056        -9.5255
 274   2.0000      -0.343978        -9.3601
 275   2.0000      -0.338629        -9.2146
 276   2.0000      -0.334830        -9.1112
 277   2.0000      -0.334509        -9.1025
 278   2.0000      -0.324808        -8.8385
 279   2.0000      -0.320460        -8.7202
 280   2.0000      -0.317937        -8.6515
 281   2.0000      -0.312288        -8.4978
 282   2.0000      -0.306587        -8.3427
 283   2.0000      -0.302687        -8.2365
 284   2.0000      -0.300829        -8.1860
 285   2.0000      -0.285486        -7.7685
 286   2.0000      -0.257117        -6.9965
 287   0.0000      -0.116595        -3.1727
 288   0.0000      -0.105985        -2.8840
 289   0.0000      -0.085259        -2.3200
 290   0.0000      -0.069981        -1.9043
 291   0.0000      -0.063263        -1.7215

MULLIKEN ATOMIC CHARGES
-----------------------
   0 C :   -0.105826
   1 C :    0.241425
   2 F :   -0.168829
   3 C :    0.238846
   4 F :   -0.168731
   5 C :   -0.101243
   6 C :    0.112930
   7 C :    0.114725
   8 C :   -0.081148
   9 C :    0.050721
  10 C :   -0.003156
  11 C :   -0.077836
  12 C :    0.171651
  13 O :   -0.175060
  14 C :   -0.082263
  15 C :    0.301612
  16 C :   -0.323181
  17 C :   -0.209708
  18 N :    0.179112
  19 C :   -0.184334
  20 N :    0.151126
  21 C :   -0.051408
  22 C :   -0.117753
  23 S :    0.231530
  24 C :   -0.118494
  25 C :    0.027418
  26 C :    0.026937
  27 C :    0.029860
  28 O :   -0.129792
  29 C :    0.070893
  30 C :    0.033688
  31 O :   -0.154931
  32 C :    0.027744
  33 C :    0.079219
  34 C :   -0.207488
  35 S :    0.204962
  36 C :   -0.181209
  37 C :    0.209883
  38 C :   -0.009266
  39 S :    0.155931
  40 C :    0.062056
  41 S :   -0.118645
  42 O :   -0.157863
  43 C :    0.066941
  44 C :    0.037899
  45 C :   -0.126600
  46 S :    0.184086
  47 C :   -0.136616
  48 C :    0.040873
  49 C :    0.004983
  50 C :    0.038326
  51 O :   -0.156154
  52 C :    0.070450
  53 C :    0.051407
  54 O :   -0.161054
  55 C :    0.063829
  56 C :   -0.001344
  57 C :    0.028893
  58 C :   -0.109506
  59 C :    0.141162
  60 O :   -0.135141
  61 C :    0.002662
  62 C :   -0.080471
  63 C :    0.112822
  64 C :    0.111067
  65 C :   -0.105748
  66 C :    0.242679
  67 C :    0.235780
  68 C :   -0.102589
  69 F :   -0.171128
  70 F :   -0.170753
  71 C :   -0.081021
  72 C :    0.042358
  73 C :    0.281855
  74 C :   -0.313796
  75 C :   -0.205237
  76 N :    0.159999
  77 C :   -0.181577
  78 N :    0.151666
  79 H :    0.009288
  80 H :   -0.000746
  81 H :   -0.004970
  82 H :   -0.009155
  83 H :    0.045289
  84 H :    0.068443
  85 H :    0.078103
  86 H :   -0.023457
  87 H :    0.002253
  88 H :   -0.001574
  89 H :    0.002087
  90 H :    0.082538
  91 H :    0.064720
  92 H :   -0.006286
  93 H :    0.052858
  94 H :    0.017134
  95 H :   -0.007645
  96 H :    0.007817
  97 H :    0.000468
  98 H :   -0.002267
Sum of atomic charges:   -0.0000000

LOEWDIN ATOMIC CHARGES
----------------------
   0 C :   -0.028852
   1 C :    0.068295
   2 F :   -0.046357
   3 C :    0.068052
   4 F :   -0.047152
   5 C :   -0.032198
   6 C :   -0.009191
   7 C :   -0.004858
   8 C :    0.018503
   9 C :   -0.020996
  10 C :   -0.054291
  11 C :    0.032740
  12 C :    0.086414
  13 O :   -0.162384
  14 C :   -0.092217
  15 C :    0.071212
  16 C :   -0.126817
  17 C :   -0.028920
  18 N :   -0.032243
  19 C :   -0.016713
  20 N :   -0.047325
  21 C :    0.059707
  22 C :   -0.169443
  23 S :    0.543539
  24 C :   -0.124568
  25 C :   -0.103757
  26 C :   -0.058629
  27 C :    0.079430
  28 O :   -0.115569
  29 C :   -0.065590
  30 C :    0.084048
  31 O :   -0.134662
  32 C :   -0.060399
  33 C :    0.001347
  34 C :   -0.190263
  35 S :    0.486668
  36 C :   -0.186967
  37 C :   -0.003189
  38 C :   -0.204950
  39 S :    0.399587
  40 C :   -0.237002
  41 S :    0.012935
  42 O :   -0.005887
  43 C :   -0.008631
  44 C :   -0.047554
  45 C :   -0.125517
  46 S :    0.491039
  47 C :   -0.138623
  48 C :   -0.076956
  49 C :   -0.094656
  50 C :    0.085284
  51 O :   -0.134321
  52 C :   -0.062391
  53 C :    0.092695
  54 O :   -0.131419
  55 C :   -0.007356
  56 C :   -0.007749
  57 C :    0.066658
  58 C :   -0.081536
  59 C :    0.081196
  60 O :   -0.138718
  61 C :   -0.054464
  62 C :    0.030708
  63 C :   -0.009145
  64 C :   -0.005401
  65 C :   -0.029850
  66 C :    0.067137
  67 C :    0.067056
  68 C :   -0.032926
  69 F :   -0.048844
  70 F :   -0.048277
  71 C :    0.015284
  72 C :   -0.019367
  73 C :    0.070297
  74 C :   -0.124127
  75 C :   -0.015352
  76 N :   -0.056113
  77 C :   -0.015046
  78 N :   -0.049162
  79 H :    0.048460
  80 H :    0.045063
  81 H :    0.040553
  82 H :    0.040792
  83 H :    0.055749
  84 H :    0.063130
  85 H :    0.068039
  86 H :    0.016230
  87 H :    0.034975
  88 H :    0.033565
  89 H :    0.030737
  90 H :    0.071428
  91 H :    0.061342
  92 H :    0.033475
  93 H :    0.032744
  94 H :    0.045104
  95 H :    0.040858
  96 H :    0.047674
  97 H :    0.045004
  98 H :    0.040132

  Mayer bond orders larger than 0.100000
B(  0-C ,  1-C ) :   1.4414 B(  0-C ,  5-C ) :   0.1083 B(  0-C ,  7-C ) :   1.1885
B(  0-C , 79-H ) :   1.0061 B(  1-C ,  2-F ) :   1.1359 B(  1-C ,  3-C ) :   1.1914
B(  3-C ,  4-F ) :   1.1366 B(  3-C ,  5-C ) :   1.4433 B(  5-C ,  6-C ) :   1.1933
B(  5-C , 80-H ) :   1.0063 B(  6-C ,  7-C ) :   1.2535 B(  6-C , 11-C ) :   1.1917
B(  7-C ,  8-C ) :   1.2160 B(  8-C ,  9-C ) :   1.4537 B(  8-C , 81-H ) :   0.9907
B(  9-C , 10-C ) :   1.2199 B(  9-C , 15-C ) :   0.9897 B( 10-C , 11-C ) :   1.4679
B( 10-C , 12-C ) :   0.9553 B( 11-C , 82-H ) :   1.0160 B( 12-C , 13-O ) :   2.1378
B( 12-C , 14-C ) :   0.9690 B( 14-C , 15-C ) :   1.0488 B( 14-C , 21-C ) :   1.5423
B( 15-C , 16-C ) :   1.6626 B( 16-C , 17-C ) :   1.1332 B( 16-C , 19-C ) :   1.1423
B( 17-C , 18-N ) :   3.0081 B( 19-C , 20-N ) :   2.9684 B( 21-C , 22-C ) :   1.2334
B( 21-C , 83-H ) :   0.9401 B( 22-C , 23-S ) :   1.1062 B( 22-C , 26-C ) :   1.4100
B( 23-S , 24-C ) :   1.1623 B( 24-C , 25-C ) :   1.3541 B( 24-C , 32-C ) :   1.1975
B( 25-C , 26-C ) :   1.2743 B( 25-C , 30-C ) :   0.9486 B( 26-C , 27-C ) :   0.9328
B( 27-C , 28-O ) :   2.2045 B( 27-C , 29-C ) :   0.9999 B( 29-C , 30-C ) :   1.0049
B( 29-C , 84-H ) :   0.8963 B( 29-C , 85-H ) :   0.8932 B( 30-C , 31-O ) :   2.1425
B( 31-O , 87-H ) :   0.1136 B( 32-C , 33-C ) :   1.6290 B( 32-C , 86-H ) :   0.9417
B( 33-C , 34-C ) :   1.1707 B( 33-C , 87-H ) :   0.9315 B( 34-C , 35-S ) :   1.1250
B( 34-C , 36-C ) :   0.1002 B( 34-C , 38-C ) :   1.4901 B( 35-S , 36-C ) :   1.1197
B( 36-C , 37-C ) :   1.4607 B( 36-C , 43-C ) :   1.1486 B( 37-C , 38-C ) :   1.2914
B( 37-C , 42-O ) :   1.0760 B( 38-C , 39-S ) :   1.0076 B( 39-S , 40-C ) :   1.0462
B( 39-S , 41-S ) :   0.1182 B( 40-C , 41-S ) :   1.7849 B( 40-C , 42-O ) :   1.0777
B( 43-C , 44-C ) :   1.6550 B( 43-C , 88-H ) :   0.9285 B( 44-C , 45-C ) :   1.1597
B( 44-C , 89-H ) :   0.9475 B( 45-C , 46-S ) :   1.1600 B( 45-C , 49-C ) :   1.4288
B( 46-S , 47-C ) :   1.1342 B( 47-C , 48-C ) :   1.4509 B( 47-C , 55-C ) :   1.1415
B( 48-C , 49-C ) :   1.2341 B( 48-C , 53-C ) :   0.9455 B( 49-C , 50-C ) :   0.9544
B( 50-C , 51-O ) :   2.1377 B( 50-C , 52-C ) :   1.0056 B( 51-O , 88-H ) :   0.1144
B( 52-C , 53-C ) :   1.0100 B( 52-C , 90-H ) :   0.8915 B( 52-C , 91-H ) :   0.8992
B( 53-C , 54-O ) :   2.1213 B( 54-O , 93-H ) :   0.1152 B( 55-C , 56-C ) :   1.6760
B( 55-C , 92-H ) :   0.9621 B( 56-C , 57-C ) :   1.1153 B( 56-C , 93-H ) :   0.9143
B( 57-C , 58-C ) :   1.6343 B( 57-C , 94-H ) :   0.9619 B( 58-C , 59-C ) :   0.9351
B( 58-C , 73-C ) :   1.0328 B( 59-C , 60-O ) :   2.2833 B( 59-C , 61-C ) :   0.9191
B( 61-C , 62-C ) :   1.4740 B( 61-C , 72-C ) :   1.2202 B( 62-C , 63-C ) :   1.1972
B( 62-C , 95-H ) :   1.0157 B( 63-C , 64-C ) :   1.2566 B( 63-C , 68-C ) :   1.1923
B( 64-C , 65-C ) :   1.1916 B( 64-C , 71-C ) :   1.2157 B( 65-C , 66-C ) :   1.4418
B( 65-C , 68-C ) :   0.1081 B( 65-C , 96-H ) :   1.0065 B( 66-C , 67-C ) :   1.1893
B( 66-C , 70-F ) :   1.1355 B( 67-C , 68-C ) :   1.4458 B( 67-C , 69-F ) :   1.1347
B( 68-C , 97-H ) :   1.0064 B( 71-C , 72-C ) :   1.4574 B( 71-C , 98-H ) :   0.9923
B( 72-C , 73-C ) :   1.0010 B( 73-C , 74-C ) :   1.6555 B( 74-C , 75-C ) :   1.1606
B( 74-C , 77-C ) :   1.1378 B( 75-C , 76-N ) :   2.9876 B( 77-C , 78-N ) :   2.9815

-----------------------------------------------------------------------------
         ABSORPTION SPECTRUM VIA TRANSITION ELECTRIC DIPOLE MOMENTS
-----------------------------------------------------------------------------
State   Energy  Wavelength   fosc         T2         TX        TY        TZ
        (cm-1)    (nm)                  (au**2)     (au)      (au)      (au)
-----------------------------------------------------------------------------
   0   16451.5    607.8   2.609039775  52.20955   4.52601   4.18782   3.76656
   1   19308.5    517.9   0.104429103   1.78052  -0.86071  -0.01497   1.01955
   2   23284.4    429.5   0.148057682   2.09335  -0.48775  -1.26460  -0.50621
   3   24376.2    410.2   0.085476208   1.15439  -0.13951  -1.06220   0.08160
   4   25765.4    388.1   0.023563614   0.30108  -0.43356  -0.20265   0.26841
   5   25919.1    385.8   0.042705556   0.54243  -0.57903   0.13247  -0.43543
   6   26581.8    376.2   0.002577238   0.03192  -0.16789   0.05110   0.03345
   7   26966.9    370.8   0.058204226   0.71056   0.62187  -0.36824  -0.43387
   8   27560.3    362.8   0.133086056   1.58973  -0.85948  -0.35295  -0.85232
   9   27740.3    360.5   0.000596892   0.00708  -0.00293   0.06601   0.05214
  10   27798.8    359.7   0.019874806   0.23537  -0.22689   0.30539   0.30105
  11   27864.4    358.9   0.011622481   0.13732   0.21808  -0.29959   0.00117
  12   28109.1    355.8   0.000196840   0.00231  -0.03963  -0.00123   0.02708
  13   28252.6    353.9   0.112122188   1.30650  -1.06255   0.41898  -0.04413
  14   28601.4    349.6   0.269077963   3.09718  -1.55119   0.29598  -0.77679
  15   28929.6    345.7   0.086353163   0.98268  -0.83779   0.49181   0.19724
  16   29073.8    344.0   0.029405993   0.33297  -0.38570   0.13294  -0.40809
  17   29763.4    336.0   0.253729674   2.80650  -0.34806  -1.53296  -0.57913
  18   30564.7    327.2   0.124947578   1.34581   0.67746   0.70227   0.62744
  19   30920.3    323.4   0.020669093   0.22007  -0.42563   0.13631   0.14256
  20   31147.4    321.1   0.008155899   0.08620  -0.28573   0.03345   0.05868
  21   31183.2    320.7   0.012285704   0.12970  -0.34531   0.10229   0.00077
  22   32144.4    311.1   0.003073523   0.03148   0.15121  -0.09279   0.00132
  23   32512.1    307.6   0.001143315   0.01158   0.03698   0.09825   0.02361
  24   32910.0    303.9   0.028826750   0.28837   0.01200  -0.25404  -0.47295
  25   32981.2    303.2   0.000978582   0.00977  -0.03094   0.01355   0.09288
  26   33124.6    301.9   0.550514116   5.47133   2.04212  -1.00581  -0.53799
  27   33510.4    298.4   0.108166527   1.06265   0.00968  -1.02996   0.04159
  28   33864.4    295.3   0.178127550   1.73166   1.31531  -0.03950  -0.00812
  29   33964.6    294.4   0.350667208   3.39894  -1.01653  -1.14056  -1.03186
  30   34401.7    290.7   0.002353089   0.02252   0.02677  -0.11934  -0.08694
  31   34493.9    289.9   0.001326857   0.01266  -0.01643   0.10379   0.04027
  32   34632.8    288.7   0.068276980   0.64903   0.12803   0.55175   0.57289
  33   34712.6    288.1   0.106938829   1.01420   0.85493   0.21869   0.48526
  34   35051.3    285.3   0.004968707   0.04667   0.17593  -0.12355  -0.02126
  35   35153.1    284.5   0.077911562   0.72965   0.22635  -0.62280  -0.53902
  36   35275.7    283.5   0.151196052   1.41104   0.11408   0.92599   0.73524
  37   35674.1    280.3   0.001418897   0.01309  -0.06206   0.07177   0.06396
  38   36112.4    276.9   0.042210724   0.38481  -0.41388   0.16401  -0.43198
  39   36318.6    275.3   0.030515872   0.27661  -0.46653   0.22928  -0.07996
  40   36579.4    273.4   0.049176140   0.44258   0.02393  -0.66480   0.00739
  41   37052.9    269.9   0.368396289   3.27317   1.64559  -0.71419   0.23477
  42   37247.3    268.5   0.169607322   1.49908   0.48209   0.99161   0.53233
  43   37673.6    265.4   0.052250342   0.45659   0.66149   0.12653   0.05488
  44   37978.0    263.3   0.022589369   0.19582   0.37609  -0.17962   0.14870
  45   38052.7    262.8   0.000655610   0.00567  -0.01405  -0.07265  -0.01404
  46   38078.2    262.6   0.153372802   1.32601  -0.05269  -1.04627  -0.47807
  47   38472.4    259.9   0.002360282   0.02020   0.12155   0.02711  -0.06847
  48   38706.8    258.4   0.050116320   0.42625  -0.18455  -0.56379  -0.27264
  49   38921.9    256.9   0.021247212   0.17971   0.24456  -0.28375   0.19848
  50   39118.4    255.6   0.031031584   0.26115   0.33010   0.27485   0.27685
  51   39414.5    253.7   0.006483346   0.05415  -0.10284  -0.19345  -0.07845
  52   39505.1    253.1   0.023277890   0.19398   0.11248   0.40351   0.13607
  53   39616.4    252.4   0.105618161   0.87769   0.58411   0.70738   0.19005
  54   39746.8    251.6   0.169982058   1.40792  -1.05185   0.54523   0.06513
  55   39791.4    251.3   0.009411801   0.07787   0.10493   0.02704  -0.25715
  56   40071.7    249.6   0.261703352   2.15004   1.45753   0.01231   0.15972
  57   40300.2    248.1   0.110443582   0.90221   0.62470  -0.21263   0.68319

FINAL SINGLE POINT ENERGY     -5391.354906474043

DIPOLE MOMENT
-------------
                                X             Y             Z
Electronic contribution:     21.89275      -4.55032      -1.56542
Nuclear contribution   :    -22.00128       2.57601       1.46054
                        -----------------------------------------
Total Dipole Moment    :     -0.10853      -1.97432      -0.10488
                        -----------------------------------------
Magnitude (a.u.)       :      1.98008
Magnitude (Debye)      :      5.03295

Rotational constants in cm-1:     0.001778     0.000137     0.000131
Rotational constants in MHz :    53.307913     4.106819     3.936162

                             ****ORCA TERMINATED NORMALLY****
TOTAL RUN TIME: 0 days 0 hours 10 minutes 5 seconds 418 msec
