                         Program Version 4.2.0 -  RELEASE  -
|  1> # ORCA input file
|  2> # SCF done       -198.522405917491          0.000815911537
|  3> ! CAM-B3LYP def2-SVP def2/J RIJCOSX Grid4 TightSCF
|  4> %maxcore 5000
|  5> %tddft
|  6>     Mode sTDDFT
|  7>     Ethresh 5.0
|  8>     maxcore 5000
|  9> end
| 10>
| 11> %pal
| 12>   nprocs 6
| 13>   end
| 14> * xyz 0 1
| 15>    C       -3.83676        -3.88194        -8.70714
| 16>    C       -3.76597        -2.79499        -9.53295
| 17>    F       -3.87673        -2.94786       -10.85731
| 18>    C       -3.57582        -1.50194        -9.00345
| 19>    F       -3.50979        -0.45642        -9.83622
| 20>    C       -3.45937        -1.31420        -7.65460
| 21>    C       -3.52817        -2.41439        -6.77789
| 22>    C       -3.72077        -3.72238        -7.31158
| 23>    C       -3.79386        -4.84155        -6.45083
| 24>    C       -3.67593        -4.65859        -5.09799
| 25>    C       -3.47647        -3.34912        -4.57523
| 26>    C       -3.40611        -2.24878        -5.38087
| 27>    C       -3.36009        -3.42220        -3.11005
| 28>    O       -3.22964        -2.48808        -2.34365
| 29>    C       -3.41525        -4.85724        -2.77152
| 30>    C       -3.71357        -5.60216        -3.98483
| 31>    C       -4.05055        -6.92581        -4.06842
| 32>    C       -4.19580        -7.79333        -2.96342
| 33>    N       -4.36198        -8.53825        -2.10622
| 34>    C       -4.35743        -7.58272        -5.28003
| 35>    N       -4.61584        -8.16509        -6.23404
| 36>    C       -3.10630        -5.39994        -1.55789
| 37>    C       -2.79556        -4.76693        -0.33838
| 38>    S       -2.85032        -3.04222         0.02848
| 39>    C       -2.33009        -3.30571         1.64822
| 40>    C       -2.11065        -4.62294         1.90701
| 41>    C       -2.37992        -5.46210         0.79002
| 42>    C       -2.09323        -6.81859         1.14115
| 43>    C       -1.63245        -6.86647         2.42910
| 44>    C       -1.64019        -5.46136         3.01788
| 45>    O       -1.29355        -5.12602         4.12353
| 46>    C       -1.06909        -7.94170         3.16914
| 47>    C       -0.16189        -8.92086         2.78485
| 48>    N        0.29609        -9.24576         1.49507
| 49>    O       -0.29276        -8.78728         0.52909
| 50>    O        1.27181        -9.97001         1.41930
| 51>    C        0.39824        -9.53526         3.96173
| 52>    C       -0.11784        -8.93559         5.06368
| 53>    C       -1.08141        -7.95912         4.63978
| 54>    C       -1.98904        -7.28289         5.42234
| 55>    C       -3.34335        -6.97719         5.05907
| 56>    C       -4.03714        -6.67668         6.18719
| 57>    C       -3.13405        -6.67773         7.30807
| 58>    N       -3.52778        -6.30816         8.60623
| 59>    O       -2.68564        -6.30427         9.49058
| 60>    O       -4.69818        -6.01609         8.77359
| 61>    C       -1.85858        -7.00346         6.86720
| 62>    C       -0.64010        -6.88516         7.56649
| 63>    C        0.55152        -6.66106         6.94388
| 64>    C        1.78289        -6.48634         7.60197
| 65>    S        2.02459        -6.61554         9.32522
| 66>    C        3.72029        -6.23987         9.21636
| 67>    C        4.05881        -6.03083         7.88447
| 68>    C        2.99290        -6.17037         6.99454
| 69>    O        3.14236        -6.00217         5.65100
| 70>    C        4.36167        -5.67248         5.16237
| 71>    O        4.51072        -5.50880         3.98949
| 72>    C        5.53991        -5.51564         6.14380
| 73>    O        6.63205        -5.22892         5.75758
| 74>    O        5.31784        -5.71010         7.46558
| 75>    C        4.60331        -6.13542        10.31952
| 76>    S        6.25097        -5.62605        10.04247
| 77>    C        6.58158        -5.70495        11.71601
| 78>    C        5.50622        -6.10631        12.45850
| 79>    C        4.36688        -6.36279        11.66661
| 80>    C        3.06484        -6.81095        12.24518
| 81>    C        3.23541        -7.28377        13.69744
| 82>    C        1.93453        -7.44282        14.31176
| 83>    N        0.90256        -7.54637        14.78854
| 84>    C        4.08309        -6.26835        14.49327
| 85>    C        4.10566        -6.61501        15.89765
| 86>    N        4.15425        -6.91358        16.99861
| 87>    C        5.51732        -6.26843        13.94617
| 88>    H       -3.98348        -4.86378        -9.12941
| 89>    H       -3.31366        -0.31890        -7.26495
| 90>    H       -3.93427        -5.81782        -6.88589
| 91>    H       -3.25637        -1.26729        -4.95745
| 92>    H       -3.05203        -6.48042        -1.49482
| 93>    H       -2.20426        -2.47243         2.31268
| 94>    H       -2.23736        -7.66696         0.49883
| 95>    H        1.10683       -10.34059         3.92028
| 96>    H        0.05686        -9.20855         6.08602
| 97>    H       -3.74857        -7.10044         4.07275
| 98>    H       -5.08577        -6.46229         6.27509
| 99>    H       -0.69068        -6.86807         8.64839
|100>    H        0.59062        -6.53813         5.86993
|101>    H        7.55873        -5.45074        12.07676
|102>    H        2.64289        -7.62382        11.64781
|103>    H        2.34457        -5.98549        12.20903
|104>    H        3.74200        -8.25694        13.71587
|105>    H        3.63941        -5.27041        14.39096
|106>    H        6.00470        -7.21393        14.20804
|107>    H        6.09656        -5.46632        14.40825
|108> *
|109>
|110>                          ****END OF INPUT****

CARTESIAN COORDINATES (ANGSTROEM)
---------------------------------
  C     -3.836760   -3.881940   -8.707140
  C     -3.765970   -2.794990   -9.532950
  F     -3.876730   -2.947860  -10.857310
  C     -3.575820   -1.501940   -9.003450
  F     -3.509790   -0.456420   -9.836220
  C     -3.459370   -1.314200   -7.654600
  C     -3.528170   -2.414390   -6.777890
  C     -3.720770   -3.722380   -7.311580
  C     -3.793860   -4.841550   -6.450830
  C     -3.675930   -4.658590   -5.097990
  C     -3.476470   -3.349120   -4.575230
  C     -3.406110   -2.248780   -5.380870
  C     -3.360090   -3.422200   -3.110050
  O     -3.229640   -2.488080   -2.343650
  C     -3.415250   -4.857240   -2.771520
  C     -3.713570   -5.602160   -3.984830
  C     -4.050550   -6.925810   -4.068420
  C     -4.195800   -7.793330   -2.963420
  N     -4.361980   -8.538250   -2.106220
  C     -4.357430   -7.582720   -5.280030
  N     -4.615840   -8.165090   -6.234040
  C     -3.106300   -5.399940   -1.557890
  C     -2.795560   -4.766930   -0.338380
  S     -2.850320   -3.042220    0.028480
  C     -2.330090   -3.305710    1.648220
  C     -2.110650   -4.622940    1.907010
  C     -2.379920   -5.462100    0.790020
  C     -2.093230   -6.818590    1.141150
  C     -1.632450   -6.866470    2.429100
  C     -1.640190   -5.461360    3.017880
  O     -1.293550   -5.126020    4.123530
  C     -1.069090   -7.941700    3.169140
  C     -0.161890   -8.920860    2.784850
  N      0.296090   -9.245760    1.495070
  O     -0.292760   -8.787280    0.529090
  O      1.271810   -9.970010    1.419300
  C      0.398240   -9.535260    3.961730
  C     -0.117840   -8.935590    5.063680
  C     -1.081410   -7.959120    4.639780
  C     -1.989040   -7.282890    5.422340
  C     -3.343350   -6.977190    5.059070
  C     -4.037140   -6.676680    6.187190
  C     -3.134050   -6.677730    7.308070
  N     -3.527780   -6.308160    8.606230
  O     -2.685640   -6.304270    9.490580
  O     -4.698180   -6.016090    8.773590
  C     -1.858580   -7.003460    6.867200
  C     -0.640100   -6.885160    7.566490
  C      0.551520   -6.661060    6.943880
  C      1.782890   -6.486340    7.601970
  S      2.024590   -6.615540    9.325220
  C      3.720290   -6.239870    9.216360
  C      4.058810   -6.030830    7.884470
  C      2.992900   -6.170370    6.994540
  O      3.142360   -6.002170    5.651000
  C      4.361670   -5.672480    5.162370
  O      4.510720   -5.508800    3.989490
  C      5.539910   -5.515640    6.143800
  O      6.632050   -5.228920    5.757580
  O      5.317840   -5.710100    7.465580
  C      4.603310   -6.135420   10.319520
  S      6.250970   -5.626050   10.042470
  C      6.581580   -5.704950   11.716010
  C      5.506220   -6.106310   12.458500
  C      4.366880   -6.362790   11.666610
  C      3.064840   -6.810950   12.245180
  C      3.235410   -7.283770   13.697440
  C      1.934530   -7.442820   14.311760
  N      0.902560   -7.546370   14.788540
  C      4.083090   -6.268350   14.493270
  C      4.105660   -6.615010   15.897650
  N      4.154250   -6.913580   16.998610
  C      5.517320   -6.268430   13.946170
  H     -3.983480   -4.863780   -9.129410
  H     -3.313660   -0.318900   -7.264950
  H     -3.934270   -5.817820   -6.885890
  H     -3.256370   -1.267290   -4.957450
  H     -3.052030   -6.480420   -1.494820
  H     -2.204260   -2.472430    2.312680
  H     -2.237360   -7.666960    0.498830
  H      1.106830  -10.340590    3.920280
  H      0.056860   -9.208550    6.086020
  H     -3.748570   -7.100440    4.072750
  H     -5.085770   -6.462290    6.275090
  H     -0.690680   -6.868070    8.648390
  H      0.590620   -6.538130    5.869930
  H      7.558730   -5.450740   12.076760
  H      2.642890   -7.623820   11.647810
  H      2.344570   -5.985490   12.209030
  H      3.742000   -8.256940   13.715870
  H      3.639410   -5.270410   14.390960
  H      6.004700   -7.213930   14.208040
  H      6.096560   -5.466320   14.408250

 Total Charge           Charge          ....    0
 Multiplicity           Mult            ....    1
 Number of Electrons    NEL             ....  520
 Basis Dimension        Dim             .... 1134

ORBITAL ENERGIES
----------------

  NO   OCC          E(Eh)            E(eV)
   0   2.0000     -89.002733     -2421.8875
   1   2.0000     -88.982086     -2421.3257
   2   2.0000     -88.981742     -2421.3163
   3   2.0000     -24.805254      -674.9853
   4   2.0000     -24.804446      -674.9633
   5   2.0000     -19.332952      -526.0764
   6   2.0000     -19.332288      -526.0583
   7   2.0000     -19.257971      -524.0360
   8   2.0000     -19.257527      -524.0239
   9   2.0000     -19.243060      -523.6303
  10   2.0000     -19.241995      -523.6013
  11   2.0000     -19.241445      -523.5863
  12   2.0000     -19.236528      -523.4525
  13   2.0000     -19.235832      -523.4336
  14   2.0000     -19.235651      -523.4287
  15   2.0000     -14.650397      -398.6576
  16   2.0000     -14.645634      -398.5279
  17   2.0000     -14.428115      -392.6090
  18   2.0000     -14.425262      -392.5313
  19   2.0000     -14.416310      -392.2877
  20   2.0000     -14.416229      -392.2855
  21   2.0000     -10.460230      -284.6373
  22   2.0000     -10.459403      -284.6148
  23   2.0000     -10.390456      -282.7387
  24   2.0000     -10.389904      -282.7237
  25   2.0000     -10.389147      -282.7031
  26   2.0000     -10.388463      -282.6845
  27   2.0000     -10.384599      -282.5793
  28   2.0000     -10.384492      -282.5764
  29   2.0000     -10.358242      -281.8621
  30   2.0000     -10.355323      -281.7827
  31   2.0000     -10.353489      -281.7327
  32   2.0000     -10.350309      -281.6462
  33   2.0000     -10.348376      -281.5936
  34   2.0000     -10.342175      -281.4249
  35   2.0000     -10.339402      -281.3494
  36   2.0000     -10.337274      -281.2915
  37   2.0000     -10.336726      -281.2766
  38   2.0000     -10.336301      -281.2650
  39   2.0000     -10.336284      -281.2646
  40   2.0000     -10.331319      -281.1295
  41   2.0000     -10.330356      -281.1033
  42   2.0000     -10.328605      -281.0556
  43   2.0000     -10.327587      -281.0279
  44   2.0000     -10.325970      -280.9839
  45   2.0000     -10.324614      -280.9470
  46   2.0000     -10.323664      -280.9212
  47   2.0000     -10.320674      -280.8398
  48   2.0000     -10.319831      -280.8169
  49   2.0000     -10.319253      -280.8012
  50   2.0000     -10.319209      -280.8000
  51   2.0000     -10.319004      -280.7944
  52   2.0000     -10.317543      -280.7546
  53   2.0000     -10.316616      -280.7294
  54   2.0000     -10.315765      -280.7062
  55   2.0000     -10.314969      -280.6846
  56   2.0000     -10.314581      -280.6740
  57   2.0000     -10.314280      -280.6658
  58   2.0000     -10.314240      -280.6647
  59   2.0000     -10.313997      -280.6581
  60   2.0000     -10.313657      -280.6489
  61   2.0000     -10.312727      -280.6236
  62   2.0000     -10.311773      -280.5976
  63   2.0000     -10.308770      -280.5159
  64   2.0000     -10.307801      -280.4895
  65   2.0000     -10.305814      -280.4354
  66   2.0000     -10.305668      -280.4315
  67   2.0000     -10.304864      -280.4096
  68   2.0000     -10.303871      -280.3826
  69   2.0000     -10.296452      -280.1807
  70   2.0000     -10.295915      -280.1661
  71   2.0000     -10.291544      -280.0471
  72   2.0000     -10.290031      -280.0060
  73   2.0000      -8.096806      -220.3253
  74   2.0000      -8.077320      -219.7951
  75   2.0000      -8.075420      -219.7434
  76   2.0000      -6.066272      -165.0717
  77   2.0000      -6.062315      -164.9640
  78   2.0000      -6.058482      -164.8597
  79   2.0000      -6.046678      -164.5385
  80   2.0000      -6.044982      -164.4923
  81   2.0000      -6.042165      -164.4157
  82   2.0000      -6.040125      -164.3602
  83   2.0000      -6.039565      -164.3449
  84   2.0000      -6.037563      -164.2904
  85   2.0000      -1.328365       -36.1467
  86   2.0000      -1.321173       -35.9510
  87   2.0000      -1.315528       -35.7973
  88   2.0000      -1.313442       -35.7406
  89   2.0000      -1.275477       -34.7075
  90   2.0000      -1.241171       -33.7740
  91   2.0000      -1.178497       -32.0685
  92   2.0000      -1.157650       -31.5013
  93   2.0000      -1.151972       -31.3468
  94   2.0000      -1.151147       -31.3243
  95   2.0000      -1.138453       -30.9789
  96   2.0000      -1.133057       -30.8320
  97   2.0000      -1.037268       -28.2255
  98   2.0000      -1.031373       -28.0651
  99   2.0000      -1.025440       -27.9036
 100   2.0000      -1.022466       -27.8227
 101   2.0000      -1.019904       -27.7530
 102   2.0000      -1.014377       -27.6026
 103   2.0000      -1.006817       -27.3969
 104   2.0000      -1.005103       -27.3502
 105   2.0000      -1.000372       -27.2215
 106   2.0000      -0.999302       -27.1924
 107   2.0000      -0.991627       -26.9835
 108   2.0000      -0.965243       -26.2656
 109   2.0000      -0.955879       -26.0108
 110   2.0000      -0.941628       -25.6230
 111   2.0000      -0.935771       -25.4636
 112   2.0000      -0.919498       -25.0208
 113   2.0000      -0.913693       -24.8629
 114   2.0000      -0.908887       -24.7321
 115   2.0000      -0.902403       -24.5556
 116   2.0000      -0.895515       -24.3682
 117   2.0000      -0.889083       -24.1932
 118   2.0000      -0.886072       -24.1112
 119   2.0000      -0.882928       -24.0257
 120   2.0000      -0.871871       -23.7248
 121   2.0000      -0.864476       -23.5236
 122   2.0000      -0.850975       -23.1562
 123   2.0000      -0.848743       -23.0955
 124   2.0000      -0.843594       -22.9554
 125   2.0000      -0.826600       -22.4929
 126   2.0000      -0.818071       -22.2608
 127   2.0000      -0.811051       -22.0698
 128   2.0000      -0.804182       -21.8829
 129   2.0000      -0.789504       -21.4835
 130   2.0000      -0.778787       -21.1919
 131   2.0000      -0.774148       -21.0656
 132   2.0000      -0.772927       -21.0324
 133   2.0000      -0.760950       -20.7065
 134   2.0000      -0.755681       -20.5631
 135   2.0000      -0.746967       -20.3260
 136   2.0000      -0.739468       -20.1220
 137   2.0000      -0.732713       -19.9381
 138   2.0000      -0.732024       -19.9194
 139   2.0000      -0.727821       -19.8050
 140   2.0000      -0.721058       -19.6210
 141   2.0000      -0.706875       -19.2351
 142   2.0000      -0.695510       -18.9258
 143   2.0000      -0.689561       -18.7639
 144   2.0000      -0.684321       -18.6213
 145   2.0000      -0.675592       -18.3838
 146   2.0000      -0.672381       -18.2964
 147   2.0000      -0.664270       -18.0757
 148   2.0000      -0.660627       -17.9766
 149   2.0000      -0.652713       -17.7612
 150   2.0000      -0.651625       -17.7316
 151   2.0000      -0.649172       -17.6649
 152   2.0000      -0.642097       -17.4724
 153   2.0000      -0.638219       -17.3668
 154   2.0000      -0.635261       -17.2863
 155   2.0000      -0.633001       -17.2248
 156   2.0000      -0.631544       -17.1852
 157   2.0000      -0.630151       -17.1473
 158   2.0000      -0.627130       -17.0651
 159   2.0000      -0.622240       -16.9320
 160   2.0000      -0.619463       -16.8565
 161   2.0000      -0.615395       -16.7457
 162   2.0000      -0.607232       -16.5236
 163   2.0000      -0.603184       -16.4135
 164   2.0000      -0.597620       -16.2621
 165   2.0000      -0.594139       -16.1674
 166   2.0000      -0.592602       -16.1255
 167   2.0000      -0.590913       -16.0796
 168   2.0000      -0.584498       -15.9050
 169   2.0000      -0.581927       -15.8350
 170   2.0000      -0.579920       -15.7804
 171   2.0000      -0.576154       -15.6780
 172   2.0000      -0.574603       -15.6357
 173   2.0000      -0.574140       -15.6231
 174   2.0000      -0.571305       -15.5460
 175   2.0000      -0.567805       -15.4508
 176   2.0000      -0.562612       -15.3095
 177   2.0000      -0.561672       -15.2839
 178   2.0000      -0.560319       -15.2470
 179   2.0000      -0.557071       -15.1587
 180   2.0000      -0.554618       -15.0919
 181   2.0000      -0.554012       -15.0754
 182   2.0000      -0.551282       -15.0011
 183   2.0000      -0.549513       -14.9530
 184   2.0000      -0.547640       -14.9020
 185   2.0000      -0.545099       -14.8329
 186   2.0000      -0.544423       -14.8145
 187   2.0000      -0.539603       -14.6833
 188   2.0000      -0.536448       -14.5975
 189   2.0000      -0.532949       -14.5023
 190   2.0000      -0.531470       -14.4620
 191   2.0000      -0.528906       -14.3923
 192   2.0000      -0.526560       -14.3284
 193   2.0000      -0.526276       -14.3207
 194   2.0000      -0.523829       -14.2541
 195   2.0000      -0.514955       -14.0126
 196   2.0000      -0.511684       -13.9236
 197   2.0000      -0.509138       -13.8544
 198   2.0000      -0.505461       -13.7543
 199   2.0000      -0.503610       -13.7039
 200   2.0000      -0.501658       -13.6508
 201   2.0000      -0.500438       -13.6176
 202   2.0000      -0.494497       -13.4559
 203   2.0000      -0.491919       -13.3858
 204   2.0000      -0.490589       -13.3496
 205   2.0000      -0.489805       -13.3283
 206   2.0000      -0.485107       -13.2004
 207   2.0000      -0.483028       -13.1439
 208   2.0000      -0.481942       -13.1143
 209   2.0000      -0.479340       -13.0435
 210   2.0000      -0.477253       -12.9867
 211   2.0000      -0.474273       -12.9056
 212   2.0000      -0.473050       -12.8724
 213   2.0000      -0.472488       -12.8571
 214   2.0000      -0.472207       -12.8494
 215   2.0000      -0.461535       -12.5590
 216   2.0000      -0.459812       -12.5121
 217   2.0000      -0.458501       -12.4765
 218   2.0000      -0.455826       -12.4037
 219   2.0000      -0.455073       -12.3832
 220   2.0000      -0.453542       -12.3415
 221   2.0000      -0.448822       -12.2131
 222   2.0000      -0.447444       -12.1756
 223   2.0000      -0.443170       -12.0593
 224   2.0000      -0.441096       -12.0028
 225   2.0000      -0.440469       -11.9858
 226   2.0000      -0.438108       -11.9215
 227   2.0000      -0.436451       -11.8764
 228   2.0000      -0.426893       -11.6163
 229   2.0000      -0.426373       -11.6022
 230   2.0000      -0.421066       -11.4578
 231   2.0000      -0.419640       -11.4190
 232   2.0000      -0.416872       -11.3437
 233   2.0000      -0.415474       -11.3056
 234   2.0000      -0.413692       -11.2571
 235   2.0000      -0.412668       -11.2293
 236   2.0000      -0.412347       -11.2205
 237   2.0000      -0.406155       -11.0520
 238   2.0000      -0.396563       -10.7910
 239   2.0000      -0.390130       -10.6160
 240   2.0000      -0.388534       -10.5725
 241   2.0000      -0.383654       -10.4398
 242   2.0000      -0.380767       -10.3612
 243   2.0000      -0.377524       -10.2730
 244   2.0000      -0.374043       -10.1782
 245   2.0000      -0.371100       -10.0981
 246   2.0000      -0.367838       -10.0094
 247   2.0000      -0.364700        -9.9240
 248   2.0000      -0.361951        -9.8492
 249   2.0000      -0.349375        -9.5070
 250   2.0000      -0.344556        -9.3759
 251   2.0000      -0.342178        -9.3111
 252   2.0000      -0.338086        -9.1998
 253   2.0000      -0.328351        -8.9349
 254   2.0000      -0.327017        -8.8986
 255   2.0000      -0.320363        -8.7175
 256   2.0000      -0.315286        -8.5794
 257   2.0000      -0.306092        -8.3292
 258   2.0000      -0.284127        -7.7315
 259   2.0000      -0.266469        -7.2510
 260   0.0000      -0.135696        -3.6925
 261   0.0000      -0.111111        -3.0235
 262   0.0000      -0.080177        -2.1817
 263   0.0000      -0.074630        -2.0308
 264   0.0000      -0.063533        -1.7288

MULLIKEN ATOMIC CHARGES
-----------------------
   0 C :   -0.104949
   1 C :    0.243392
   2 F :   -0.168052
   3 C :    0.239323
   4 F :   -0.168962
   5 C :   -0.101538
   6 C :    0.113178
   7 C :    0.111278
   8 C :   -0.078453
   9 C :    0.047734
  10 C :   -0.001060
  11 C :   -0.074949
  12 C :    0.166473
  13 O :   -0.166791
  14 C :   -0.078805
  15 C :    0.309578
  16 C :   -0.332894
  17 C :   -0.202083
  18 N :    0.160420
  19 C :   -0.179640
  20 N :    0.152855
  21 C :   -0.056706
  22 C :   -0.103019
  23 S :    0.210776
  24 C :   -0.090887
  25 C :    0.012969
  26 C :    0.093209
  27 C :    0.044586
  28 C :   -0.154069
  29 C :    0.162683
  30 O :   -0.119183
  31 C :    0.086708
  32 C :    0.080938
  33 N :    0.273196
  34 O :   -0.255749
  35 O :   -0.240939
  36 C :    0.001475
  37 C :    0.018357
  38 C :   -0.016022
  39 C :    0.046517
  40 C :    0.016466
  41 C :    0.026682
  42 C :    0.081924
  43 N :    0.270989
  44 O :   -0.259770
  45 O :   -0.248439
  46 C :    0.041480
  47 C :   -0.058847
  48 C :    0.037055
  49 C :   -0.150328
  50 S :    0.150100
  51 C :   -0.143757
  52 C :    0.155742
  53 C :    0.202244
  54 O :   -0.189765
  55 C :    0.147694
  56 O :   -0.085775
  57 C :    0.151513
  58 O :   -0.086573
  59 O :   -0.212732
  60 C :   -0.126606
  61 S :    0.181737
  62 C :   -0.116147
  63 C :   -0.063983
  64 C :   -0.077560
  65 C :    0.179592
  66 C :   -0.091694
  67 C :   -0.260210
  68 N :    0.172203
  69 C :   -0.112102
  70 C :   -0.257230
  71 N :    0.165325
  72 C :    0.223126
  73 H :    0.009171
  74 H :    0.001238
  75 H :   -0.002806
  76 H :   -0.007713
  77 H :    0.022597
  78 H :    0.041939
  79 H :    0.033734
  80 H :    0.001737
  81 H :   -0.003784
  82 H :   -0.002145
  83 H :    0.008303
  84 H :    0.024710
  85 H :    0.041961
  86 H :    0.023959
  87 H :    0.047560
  88 H :    0.043891
  89 H :    0.051797
  90 H :    0.051094
  91 H :    0.034223
  92 H :    0.035284
Sum of atomic charges:   -0.0000000

LOEWDIN ATOMIC CHARGES
----------------------
   0 C :   -0.028212
   1 C :    0.068510
   2 F :   -0.045607
   3 C :    0.069065
   4 F :   -0.046369
   5 C :   -0.032197
   6 C :   -0.008305
   7 C :   -0.005184
   8 C :    0.020251
   9 C :   -0.022551
  10 C :   -0.053861
  11 C :    0.033651
  12 C :    0.086057
  13 O :   -0.156093
  14 C :   -0.093449
  15 C :    0.075158
  16 C :   -0.132298
  17 C :   -0.021792
  18 N :   -0.046235
  19 C :   -0.017525
  20 N :   -0.045789
  21 C :    0.060677
  22 C :   -0.174061
  23 S :    0.512622
  24 C :   -0.114992
  25 C :   -0.110690
  26 C :   -0.020299
  27 C :    0.055894
  28 C :   -0.065796
  29 C :    0.100735
  30 O :   -0.110544
  31 C :    0.000790
  32 C :   -0.030587
  33 N :    0.285099
  34 O :   -0.211772
  35 O :   -0.205389
  36 C :   -0.005932
  37 C :   -0.032500
  38 C :    0.021028
  39 C :    0.071498
  40 C :   -0.044589
  41 C :    0.030474
  42 C :   -0.055330
  43 N :    0.284415
  44 O :   -0.223251
  45 O :   -0.213009
  46 C :    0.021128
  47 C :   -0.025369
  48 C :    0.007794
  49 C :   -0.196568
  50 S :    0.487990
  51 C :   -0.179808
  52 C :   -0.028073
  53 C :    0.006317
  54 O :   -0.017962
  55 C :    0.057858
  56 O :   -0.069829
  57 C :    0.058325
  58 O :   -0.071256
  59 O :   -0.031379
  60 C :   -0.197004
  61 S :    0.485494
  62 C :   -0.178777
  63 C :   -0.072648
  64 C :   -0.057142
  65 C :   -0.019565
  66 C :   -0.030055
  67 C :   -0.040639
  68 N :   -0.036825
  69 C :   -0.033186
  70 C :   -0.038603
  71 N :   -0.041274
  72 C :   -0.002161
  73 H :    0.048536
  74 H :    0.045512
  75 H :    0.040952
  76 H :    0.041322
  77 H :    0.053365
  78 H :    0.037515
  79 H :    0.039767
  80 H :    0.037051
  81 H :    0.030337
  82 H :    0.031015
  83 H :    0.040345
  84 H :    0.033237
  85 H :    0.047152
  86 H :    0.028072
  87 H :    0.034975
  88 H :    0.043937
  89 H :    0.059625
  90 H :    0.059253
  91 H :    0.044253
  92 H :    0.045283

  Mayer bond orders larger than 0.100000
B(  0-C ,  1-C ) :   1.4404 B(  0-C ,  5-C ) :   0.1074 B(  0-C ,  7-C ) :   1.1903
B(  0-C , 73-H ) :   1.0072 B(  1-C ,  2-F ) :   1.1376 B(  1-C ,  3-C ) :   1.1886
B(  3-C ,  4-F ) :   1.1364 B(  3-C ,  5-C ) :   1.4440 B(  5-C ,  6-C ) :   1.1908
B(  5-C , 74-H ) :   1.0075 B(  6-C ,  7-C ) :   1.2544 B(  6-C , 11-C ) :   1.1932
B(  7-C ,  8-C ) :   1.2162 B(  8-C ,  9-C ) :   1.4525 B(  8-C , 75-H ) :   0.9909
B(  9-C , 10-C ) :   1.2194 B(  9-C , 15-C ) :   0.9907 B( 10-C , 11-C ) :   1.4643
B( 10-C , 12-C ) :   0.9561 B( 11-C , 76-H ) :   1.0173 B( 12-C , 13-O ) :   2.1564
B( 12-C , 14-C ) :   0.9599 B( 14-C , 15-C ) :   1.0569 B( 14-C , 21-C ) :   1.5608
B( 15-C , 16-C ) :   1.6505 B( 16-C , 17-C ) :   1.1408 B( 16-C , 19-C ) :   1.1419
B( 17-C , 18-N ) :   2.9923 B( 19-C , 20-N ) :   2.9675 B( 21-C , 22-C ) :   1.2285
B( 21-C , 77-H ) :   0.9480 B( 22-C , 23-S ) :   1.0850 B( 22-C , 26-C ) :   1.3823
B( 23-S , 24-C ) :   1.1759 B( 24-C , 25-C ) :   1.5290 B( 24-C , 78-H ) :   0.9673
B( 25-C , 26-C ) :   1.2474 B( 25-C , 29-C ) :   0.9292 B( 26-C , 27-C ) :   1.0387
B( 27-C , 28-C ) :   1.6326 B( 27-C , 79-H ) :   0.9946 B( 28-C , 29-C ) :   0.9334
B( 28-C , 31-C ) :   1.0378 B( 29-C , 30-O ) :   2.2066 B( 31-C , 32-C ) :   1.5578
B( 31-C , 38-C ) :   1.0607 B( 32-C , 33-N ) :   0.9482 B( 32-C , 36-C ) :   1.1426
B( 33-N , 34-O ) :   1.4914 B( 33-N , 35-O ) :   1.5393 B( 34-O , 35-O ) :   0.2618
B( 36-C , 37-C ) :   1.5688 B( 36-C , 80-H ) :   1.0107 B( 37-C , 38-C ) :   1.1385
B( 37-C , 81-H ) :   0.9998 B( 38-C , 39-C ) :   1.4739 B( 39-C , 40-C ) :   1.1488
B( 39-C , 46-C ) :   0.9999 B( 40-C , 41-C ) :   1.5739 B( 40-C , 82-H ) :   0.9957
B( 41-C , 42-C ) :   1.1263 B( 41-C , 83-H ) :   1.0114 B( 42-C , 43-N ) :   0.9555
B( 42-C , 46-C ) :   1.4968 B( 43-N , 44-O ) :   1.4924 B( 43-N , 45-O ) :   1.5324
B( 44-O , 45-O ) :   0.2570 B( 46-C , 47-C ) :   1.2212 B( 47-C , 48-C ) :   1.5127
B( 47-C , 84-H ) :   0.9608 B( 48-C , 49-C ) :   1.2216 B( 48-C , 85-H ) :   0.9606
B( 49-C , 50-S ) :   1.0721 B( 49-C , 51-C ) :   0.1141 B( 49-C , 53-C ) :   1.4422
B( 50-S , 51-C ) :   1.1301 B( 51-C , 52-C ) :   1.4583 B( 51-C , 60-C ) :   1.1805
B( 52-C , 53-C ) :   1.2489 B( 52-C , 59-O ) :   1.0544 B( 53-C , 54-O ) :   1.0866
B( 54-O , 55-C ) :   1.0649 B( 55-C , 56-O ) :   2.2629 B( 55-C , 57-C ) :   0.8337
B( 57-C , 58-O ) :   2.2642 B( 57-C , 59-O ) :   1.0604 B( 60-C , 61-S ) :   1.1508
B( 60-C , 64-C ) :   1.4844 B( 61-S , 62-C ) :   1.1657 B( 62-C , 63-C ) :   1.5542
B( 62-C , 86-H ) :   0.9725 B( 63-C , 64-C ) :   1.3208 B( 63-C , 72-C ) :   1.0260
B( 64-C , 65-C ) :   1.0556 B( 65-C , 66-C ) :   1.0837 B( 65-C , 87-H ) :   0.9034
B( 65-C , 88-H ) :   0.8898 B( 66-C , 67-C ) :   1.0827 B( 66-C , 69-C ) :   1.0610
B( 66-C , 89-H ) :   0.8591 B( 67-C , 68-N ) :   3.1260 B( 69-C , 70-C ) :   1.0914
B( 69-C , 72-C ) :   1.0923 B( 69-C , 90-H ) :   0.8600 B( 70-C , 71-N ) :   3.1237
B( 72-C , 91-H ) :   0.8921 B( 72-C , 92-H ) :   0.9207

-----------------------------------------------------------------------------
         ABSORPTION SPECTRUM VIA TRANSITION ELECTRIC DIPOLE MOMENTS
-----------------------------------------------------------------------------
State   Energy  Wavelength   fosc         T2         TX        TY        TZ
        (cm-1)    (nm)                  (au**2)     (au)      (au)      (au)
-----------------------------------------------------------------------------
   0   10898.6    917.5   0.299742305   9.05422  -1.99617  -0.05343  -2.25093
   1   14518.9    688.8   0.056619492   1.28383   0.35112   0.85990  -0.64894
   2   19407.2    515.3   0.319462141   5.41915   0.29773  -0.68994   2.20329
   3   21618.7    462.6   0.466631101   7.10592   1.70925   0.37286   2.01131
   4   22303.5    448.4   0.038773245   0.57232  -0.03991   0.75493   0.02823
   5   22878.5    437.1   0.160046411   2.30300   1.33902  -0.47829   0.53034
   6   23196.3    431.1   0.052300422   0.74227   0.84820  -0.07642  -0.13031
   7   24770.1    403.7   0.339742594   4.51542  -1.72716  -0.53251  -1.11749
   8   25543.0    391.5   0.093049575   1.19927   0.69693  -0.60421  -0.59033
   9   26221.3    381.4   0.164133766   2.06072   1.01325  -0.07470   1.01413
  10   26464.4    377.9   0.069861947   0.86907   0.14694  -0.04971  -0.91924
  11   26828.5    372.7   0.061969897   0.76043   0.39443  -0.52777   0.57125
  12   27147.6    368.4   0.010622916   0.12882   0.03808  -0.01311  -0.35665
  13   27608.9    362.2   0.240296617   2.86532   0.31174   0.17947   1.65407
  14   27737.2    360.5   0.020092698   0.23848   0.23723   0.19197  -0.38125
  15   27804.2    359.7   0.036401306   0.43101  -0.58201   0.18896   0.23784
  16   28276.3    353.7   0.062156507   0.72367  -0.13576  -0.03214   0.83917
  17   28713.9    348.3   0.067890004   0.77837  -0.04593   0.16317   0.86582
  18   28959.6    345.3   0.046004119   0.52297  -0.47449  -0.32273   0.44009
  19   29406.5    340.1   0.122286496   1.36902  -0.57417   0.95210  -0.36451
  20   29628.0    337.5   0.044353848   0.49284  -0.67886  -0.15772   0.08436
  21   30024.9    333.1   0.045199118   0.49559   0.18877   0.54928  -0.39781
  22   30459.0    328.3   0.263132918   2.84404   1.60412  -0.31267  -0.41604
  23   30740.4    325.3   0.282638223   3.02689   0.01154   0.87263  -1.50509
  24   31498.0    317.5   0.022507674   0.23525  -0.47978   0.05209   0.04840
  25   31923.7    313.2   0.089778633   0.92584  -0.00923  -0.46991   0.83961
  26   32277.3    309.8   0.003601362   0.03673   0.16227   0.10181  -0.00601
  27   32305.8    309.5   0.058646795   0.59764   0.24708  -0.60235   0.41685
  28   32476.6    307.9   0.273851376   2.77600   0.20065   1.09644  -1.23837
  29   32873.1    304.2   0.153981086   1.54206  -0.96651   0.22947  -0.74516
  30   33191.6    301.3   0.048344541   0.47951  -0.38363   0.55402   0.15938
  31   33621.0    297.4   0.031338145   0.30686  -0.46487   0.28197  -0.10604
  32   33749.5    296.3   0.111291546   1.08560  -0.04870   0.73953  -0.73235
  33   34323.7    291.3   0.161600482   1.54997   0.22251  -1.19256  -0.27976
  34   34508.3    289.8   0.036311574   0.34642   0.01598  -0.52551   0.26458
  35   34577.6    289.2   0.478414170   4.55496   0.67731   0.46431  -1.96993
  36   34677.9    288.4   0.094561373   0.89771   0.10394   0.79802  -0.50007
  37   34839.6    287.0   0.100314184   0.94790  -0.22390   0.55126   0.77064
  38   35124.5    284.7   0.093995071   0.88099   0.42295  -0.36087  -0.75623
  39   35279.2    283.5   0.048380526   0.45147  -0.19143  -0.00441   0.64405
  40   35526.6    281.5   0.033929078   0.31441   0.12795  -0.18683  -0.51296
  41   35729.3    279.9   0.246899214   2.27494   0.31610  -0.14417  -1.46773
  42   36068.0    277.3   0.002900778   0.02648  -0.08397   0.13294   0.04188
  43   36392.4    274.8   0.023385035   0.21155  -0.06977   0.44561   0.09007
  44   36617.4    273.1   0.019094290   0.17167  -0.41368   0.00711   0.02213
  45   37177.9    269.0   0.038793138   0.34351  -0.04811   0.01891   0.58382
  46   37322.2    267.9   0.166787142   1.47120   0.68932  -0.75622  -0.65128
  47   37798.5    264.6   0.040810310   0.35544  -0.18756  -0.33388   0.45694
  48   37841.2    264.3   0.015914565   0.13845  -0.22763  -0.16890   0.24106
  49   38093.8    262.5   0.064177658   0.55463   0.39689  -0.62684   0.06464
  50   38308.8    261.0   0.166652574   1.43215   0.14476   0.48740   1.08335
  51   38793.9    257.8   0.089762266   0.76174  -0.73413  -0.44104  -0.16814
  52   39042.5    256.1   0.067391545   0.56825   0.06846   0.10738   0.74299
  53   39163.7    255.3   0.098451630   0.82759   0.05023  -0.46574  -0.77984
  54   39739.6    251.6   0.061941237   0.51314  -0.60822  -0.20436   0.31850
  55   39837.5    251.0   0.066876929   0.55266  -0.04487   0.33095  -0.66417
  56   40280.8    248.3   0.010786784   0.08816  -0.07309  -0.13299  -0.25521

FINAL SINGLE POINT ENERGY     -4463.864012989806

DIPOLE MOMENT
-------------
                                X             Y             Z
Electronic contribution:    -11.83213      14.15283     -58.50899
Nuclear contribution   :     13.35312     -12.06166      57.65282
                        -----------------------------------------
Total Dipole Moment    :      1.52099       2.09117      -0.85617
                        -----------------------------------------
Magnitude (a.u.)       :      2.72386
Magnitude (Debye)      :      6.92350

Rotational constants in cm-1:     0.002001     0.000267     0.000256
Rotational constants in MHz :    59.990924     8.011824     7.673551

                             ****ORCA TERMINATED NORMALLY****
TOTAL RUN TIME: 0 days 0 hours 10 minutes 11 seconds 600 msec
