                         Program Version 4.2.0 -  RELEASE  -
|  1> # ORCA input file
|  2> # SCF done       -209.279045366307          0.000305937549
|  3> ! CAM-B3LYP def2-SVP def2/J RIJCOSX Grid4 TightSCF
|  4> %maxcore 5000
|  5> %tddft
|  6>     Mode sTDDFT
|  7>     Ethresh 5.0
|  8>     maxcore 5000
|  9> end
| 10>
| 11> %pal
| 12>   nprocs 6
| 13>   end
| 14> * xyz 0 1
| 15>    C       -4.20698         2.81436         7.91243
| 16>    C       -4.91239         3.15202         9.03294
| 17>    F       -5.08113         4.44039         9.36003
| 18>    C       -5.47015         2.15435         9.85757
| 19>    F       -6.15704         2.51537        10.95040
| 20>    C       -5.31494         0.83195         9.54982
| 21>    C       -4.59302         0.45178         8.40174
| 22>    C       -4.02715         1.45939         7.56781
| 23>    C       -3.29313         1.10220         6.41384
| 24>    C       -3.12795        -0.22267         6.10486
| 25>    C       -3.70412        -1.21964         6.93734
| 26>    C       -4.41894        -0.90682         8.05732
| 27>    C       -3.41025        -2.55863         6.38671
| 28>    O       -3.79487        -3.60956         6.84974
| 29>    C       -2.62617        -2.31921         5.14794
| 30>    C       -2.41741        -0.88699         5.01624
| 31>    C       -1.62219        -0.25318         4.09636
| 32>    C       -1.45520         1.14655         4.03230
| 33>    N       -1.28148         2.27604         3.92274
| 34>    C       -0.82201        -0.88153         3.11747
| 35>    N       -0.11682        -1.30095         2.31408
| 36>    C       -2.26347        -3.23435         4.19537
| 37>    C       -2.26785        -4.64696         4.21082
| 38>    C       -2.03716        -5.40132         3.06931
| 39>    C       -2.06160        -6.78207         3.40363
| 40>    C       -2.28376        -6.84360         4.85540
| 41>    C       -2.40209        -5.57335         5.32645
| 42>    C       -2.27181        -7.98947         5.66215
| 43>    N       -2.22280        -8.89614         6.36518
| 44>    C       -1.89069        -7.85730         2.55253
| 45>    C       -1.97801        -9.23124         2.87524
| 46>    C       -1.63018        -9.98826         1.76560
| 47>    C       -1.33642        -9.06342         0.67876
| 48>    C       -1.51747        -7.79402         1.12673
| 49>    C       -1.36472        -6.64715         0.33916
| 50>    N       -1.24093        -5.73429        -0.34678
| 51>    C       -1.60099       -11.40189         1.76601
| 52>    N       -0.94408       -12.23568         0.89403
| 53>    C       -0.04388       -11.88314        -0.17996
| 54>    C        1.22223       -11.20080         0.32689
| 55>    C       -1.10564       -13.59080         1.24329
| 56>    O       -0.59150       -14.50375         0.63035
| 57>    C       -1.97002       -13.56697         2.40231
| 58>    C       -2.24992       -12.22306         2.70277
| 59>    C       -3.18266       -12.19563         3.81665
| 60>    O       -3.74087       -11.29282         4.39501
| 61>    N       -3.36807       -13.55543         4.14010
| 62>    C       -4.25456       -13.94374         5.21086
| 63>    C       -5.61830       -14.38598         4.68619
| 64>    C       -2.66191       -14.38914         3.31119
| 65>    C       -2.66161       -15.79194         3.41636
| 66>    C       -1.90892       -16.59395         2.60337
| 67>    C       -1.86401       -18.00153         2.67984
| 68>    C       -1.03775       -18.81491         1.91741
| 69>    C       -1.25178       -20.17075         2.27367
| 70>    C       -2.29847       -20.15757         3.31020
| 71>    C       -2.64691       -18.86408         3.54783
| 72>    C       -2.87188       -21.26630         3.94097
| 73>    N       -3.37373       -22.15541         4.46952
| 74>    C       -0.61061       -21.28931         1.78131
| 75>    C       -0.79944       -22.63768         2.17528
| 76>    C        0.06026       -23.45266         1.47034
| 77>    C        0.82424       -22.60306         0.56450
| 78>    C        0.43290       -21.31447         0.73463
| 79>    C        0.93779       -20.22554         0.01753
| 80>    N        1.38185       -19.35934        -0.59308
| 81>    C        0.15796       -24.88152         1.58107
| 82>    C        1.32502       -25.60305         1.22383
| 83>    O        2.39612       -24.88332         0.80967
| 84>    C        3.60404       -25.54587         0.51898
| 85>    C        1.33057       -26.98344         1.35198
| 86>    C        0.23219       -27.69419         1.82504
| 87>    C       -0.93304       -26.97335         2.19334
| 88>    C       -0.94217       -25.59821         2.07052
| 89>    O       -1.97649       -27.70541         2.64625
| 90>    C       -3.17066       -27.05040         3.03842
| 91>    C       -4.14507       -28.11953         3.50586
| 92>    C        0.23065       -29.14112         1.94534
| 93>    C        1.28401       -29.94744         1.84262
| 94>    H       -3.78519         3.59040         7.29294
| 95>    H       -5.74810         0.08011        10.19079
| 96>    H       -2.88309         1.88914         5.80220
| 97>    H       -4.84341        -1.68620         8.67182
| 98>    H       -1.90943        -2.82858         3.25383
| 99>    H       -1.89070        -5.00850         2.08129
|100>    H       -2.55929        -5.29077         6.34833
|101>    H       -2.26255        -9.61845         3.83299
|102>    H       -1.07310        -9.32823        -0.32683
|103>    H       -0.56321       -11.26234        -0.91413
|104>    H        0.21670       -12.83152        -0.65999
|105>    H        0.99307       -10.26587         0.83370
|106>    H        1.88178       -10.98915        -0.51003
|107>    H        1.74357       -11.85346         1.02307
|108>    H       -4.37477       -13.05722         5.83967
|109>    H       -3.78657       -14.73463         5.80329
|110>    H       -6.08874       -13.56930         4.14446
|111>    H       -6.25912       -14.66411         5.51816
|112>    H       -5.52454       -15.23719         4.01502
|113>    H       -3.27344       -16.23490         4.18849
|114>    H       -1.28850       -16.13801         1.84261
|115>    H       -0.33723       -18.47055         1.18172
|116>    H       -3.38951       -18.53805         4.25222
|117>    H       -1.47704       -22.94550         2.94590
|118>    H        1.55278       -22.95523        -0.13872
|119>    H        4.30859       -24.76054         0.24918
|120>    H        3.49302       -26.23604        -0.32309
|121>    H        3.98387       -26.08711         1.39063
|122>    H        2.20645       -27.54142         1.06734
|123>    H       -1.82618       -25.03869         2.32530
|124>    H       -3.59217       -26.49792         2.18803
|125>    H       -2.96240       -26.34310         3.85160
|126>    H       -4.34921       -28.81748         2.69832
|127>    H       -5.07525       -27.65553         3.81960
|128>    H       -3.72133       -28.66944         4.34165
|129>    H       -0.74080       -29.56477         2.15724
|130>    H        2.28458       -29.59150         1.66445
|131>    H        1.17859       -31.01301         1.94876
|132> *
|133>
|134>                          ****END OF INPUT****

CARTESIAN COORDINATES (ANGSTROEM)
---------------------------------
  C     -4.206980    2.814360    7.912430
  C     -4.912390    3.152020    9.032940
  F     -5.081130    4.440390    9.360030
  C     -5.470150    2.154350    9.857570
  F     -6.157040    2.515370   10.950400
  C     -5.314940    0.831950    9.549820
  C     -4.593020    0.451780    8.401740
  C     -4.027150    1.459390    7.567810
  C     -3.293130    1.102200    6.413840
  C     -3.127950   -0.222670    6.104860
  C     -3.704120   -1.219640    6.937340
  C     -4.418940   -0.906820    8.057320
  C     -3.410250   -2.558630    6.386710
  O     -3.794870   -3.609560    6.849740
  C     -2.626170   -2.319210    5.147940
  C     -2.417410   -0.886990    5.016240
  C     -1.622190   -0.253180    4.096360
  C     -1.455200    1.146550    4.032300
  N     -1.281480    2.276040    3.922740
  C     -0.822010   -0.881530    3.117470
  N     -0.116820   -1.300950    2.314080
  C     -2.263470   -3.234350    4.195370
  C     -2.267850   -4.646960    4.210820
  C     -2.037160   -5.401320    3.069310
  C     -2.061600   -6.782070    3.403630
  C     -2.283760   -6.843600    4.855400
  C     -2.402090   -5.573350    5.326450
  C     -2.271810   -7.989470    5.662150
  N     -2.222800   -8.896140    6.365180
  C     -1.890690   -7.857300    2.552530
  C     -1.978010   -9.231240    2.875240
  C     -1.630180   -9.988260    1.765600
  C     -1.336420   -9.063420    0.678760
  C     -1.517470   -7.794020    1.126730
  C     -1.364720   -6.647150    0.339160
  N     -1.240930   -5.734290   -0.346780
  C     -1.600990  -11.401890    1.766010
  N     -0.944080  -12.235680    0.894030
  C     -0.043880  -11.883140   -0.179960
  C      1.222230  -11.200800    0.326890
  C     -1.105640  -13.590800    1.243290
  O     -0.591500  -14.503750    0.630350
  C     -1.970020  -13.566970    2.402310
  C     -2.249920  -12.223060    2.702770
  C     -3.182660  -12.195630    3.816650
  O     -3.740870  -11.292820    4.395010
  N     -3.368070  -13.555430    4.140100
  C     -4.254560  -13.943740    5.210860
  C     -5.618300  -14.385980    4.686190
  C     -2.661910  -14.389140    3.311190
  C     -2.661610  -15.791940    3.416360
  C     -1.908920  -16.593950    2.603370
  C     -1.864010  -18.001530    2.679840
  C     -1.037750  -18.814910    1.917410
  C     -1.251780  -20.170750    2.273670
  C     -2.298470  -20.157570    3.310200
  C     -2.646910  -18.864080    3.547830
  C     -2.871880  -21.266300    3.940970
  N     -3.373730  -22.155410    4.469520
  C     -0.610610  -21.289310    1.781310
  C     -0.799440  -22.637680    2.175280
  C      0.060260  -23.452660    1.470340
  C      0.824240  -22.603060    0.564500
  C      0.432900  -21.314470    0.734630
  C      0.937790  -20.225540    0.017530
  N      1.381850  -19.359340   -0.593080
  C      0.157960  -24.881520    1.581070
  C      1.325020  -25.603050    1.223830
  O      2.396120  -24.883320    0.809670
  C      3.604040  -25.545870    0.518980
  C      1.330570  -26.983440    1.351980
  C      0.232190  -27.694190    1.825040
  C     -0.933040  -26.973350    2.193340
  C     -0.942170  -25.598210    2.070520
  O     -1.976490  -27.705410    2.646250
  C     -3.170660  -27.050400    3.038420
  C     -4.145070  -28.119530    3.505860
  C      0.230650  -29.141120    1.945340
  C      1.284010  -29.947440    1.842620
  H     -3.785190    3.590400    7.292940
  H     -5.748100    0.080110   10.190790
  H     -2.883090    1.889140    5.802200
  H     -4.843410   -1.686200    8.671820
  H     -1.909430   -2.828580    3.253830
  H     -1.890700   -5.008500    2.081290
  H     -2.559290   -5.290770    6.348330
  H     -2.262550   -9.618450    3.832990
  H     -1.073100   -9.328230   -0.326830
  H     -0.563210  -11.262340   -0.914130
  H      0.216700  -12.831520   -0.659990
  H      0.993070  -10.265870    0.833700
  H      1.881780  -10.989150   -0.510030
  H      1.743570  -11.853460    1.023070
  H     -4.374770  -13.057220    5.839670
  H     -3.786570  -14.734630    5.803290
  H     -6.088740  -13.569300    4.144460
  H     -6.259120  -14.664110    5.518160
  H     -5.524540  -15.237190    4.015020
  H     -3.273440  -16.234900    4.188490
  H     -1.288500  -16.138010    1.842610
  H     -0.337230  -18.470550    1.181720
  H     -3.389510  -18.538050    4.252220
  H     -1.477040  -22.945500    2.945900
  H      1.552780  -22.955230   -0.138720
  H      4.308590  -24.760540    0.249180
  H      3.493020  -26.236040   -0.323090
  H      3.983870  -26.087110    1.390630
  H      2.206450  -27.541420    1.067340
  H     -1.826180  -25.038690    2.325300
  H     -3.592170  -26.497920    2.188030
  H     -2.962400  -26.343100    3.851600
  H     -4.349210  -28.817480    2.698320
  H     -5.075250  -27.655530    3.819600
  H     -3.721330  -28.669440    4.341650
  H     -0.740800  -29.564770    2.157240
  H      2.284580  -29.591500    1.664450
  H      1.178590  -31.013010    1.948760

 Total Charge           Charge          ....    0
 Multiplicity           Mult            ....    1
 Number of Electrons    NEL             ....  536
 Basis Dimension        Dim             .... 1296

ORBITAL ENERGIES
----------------

  NO   OCC          E(Eh)            E(eV)
   0   2.0000     -24.798507      -674.8017
   1   2.0000     -24.797534      -674.7752
   2   2.0000     -19.262725      -524.1654
   3   2.0000     -19.249826      -523.8144
   4   2.0000     -19.222371      -523.0673
   5   2.0000     -19.205937      -522.6201
   6   2.0000     -19.198145      -522.4081
   7   2.0000     -14.465464      -393.6253
   8   2.0000     -14.463456      -393.5706
   9   2.0000     -14.417204      -392.3121
  10   2.0000     -14.416800      -392.3011
  11   2.0000     -14.413002      -392.1977
  12   2.0000     -14.412726      -392.1902
  13   2.0000     -14.406703      -392.0263
  14   2.0000     -14.397517      -391.7763
  15   2.0000     -10.387321      -282.6534
  16   2.0000     -10.382018      -282.5091
  17   2.0000     -10.381672      -282.4997
  18   2.0000     -10.381349      -282.4909
  19   2.0000     -10.374375      -282.3011
  20   2.0000     -10.356243      -281.8077
  21   2.0000     -10.349043      -281.6118
  22   2.0000     -10.347403      -281.5672
  23   2.0000     -10.345913      -281.5266
  24   2.0000     -10.343583      -281.4632
  25   2.0000     -10.338152      -281.3154
  26   2.0000     -10.337135      -281.2878
  27   2.0000     -10.328472      -281.0520
  28   2.0000     -10.328076      -281.0412
  29   2.0000     -10.327439      -281.0239
  30   2.0000     -10.323467      -280.9158
  31   2.0000     -10.322899      -280.9004
  32   2.0000     -10.322769      -280.8968
  33   2.0000     -10.319975      -280.8208
  34   2.0000     -10.319795      -280.8159
  35   2.0000     -10.318896      -280.7914
  36   2.0000     -10.318103      -280.7699
  37   2.0000     -10.317560      -280.7551
  38   2.0000     -10.316242      -280.7192
  39   2.0000     -10.315546      -280.7003
  40   2.0000     -10.315326      -280.6943
  41   2.0000     -10.314079      -280.6604
  42   2.0000     -10.313947      -280.6568
  43   2.0000     -10.313783      -280.6523
  44   2.0000     -10.311371      -280.5867
  45   2.0000     -10.311111      -280.5796
  46   2.0000     -10.310389      -280.5599
  47   2.0000     -10.308741      -280.5151
  48   2.0000     -10.308482      -280.5081
  49   2.0000     -10.307610      -280.4843
  50   2.0000     -10.306969      -280.4669
  51   2.0000     -10.306772      -280.4615
  52   2.0000     -10.306299      -280.4486
  53   2.0000     -10.306235      -280.4469
  54   2.0000     -10.305086      -280.4156
  55   2.0000     -10.303517      -280.3729
  56   2.0000     -10.302990      -280.3586
  57   2.0000     -10.302558      -280.3469
  58   2.0000     -10.301593      -280.3206
  59   2.0000     -10.301385      -280.3149
  60   2.0000     -10.300778      -280.2984
  61   2.0000     -10.300285      -280.2850
  62   2.0000     -10.299203      -280.2556
  63   2.0000     -10.297931      -280.2210
  64   2.0000     -10.295011      -280.1415
  65   2.0000     -10.294236      -280.1204
  66   2.0000     -10.292812      -280.0817
  67   2.0000     -10.291962      -280.0585
  68   2.0000     -10.284714      -279.8613
  69   2.0000     -10.282025      -279.7881
  70   2.0000     -10.281918      -279.7852
  71   2.0000     -10.280456      -279.7454
  72   2.0000     -10.278075      -279.6806
  73   2.0000     -10.275811      -279.6190
  74   2.0000     -10.274057      -279.5713
  75   2.0000     -10.271236      -279.4945
  76   2.0000     -10.271040      -279.4892
  77   2.0000     -10.269327      -279.4426
  78   2.0000     -10.264903      -279.3222
  79   2.0000      -1.320806       -35.9410
  80   2.0000      -1.305928       -35.5361
  81   2.0000      -1.167996       -31.7828
  82   2.0000      -1.156591       -31.4724
  83   2.0000      -1.146748       -31.2046
  84   2.0000      -1.138295       -30.9746
  85   2.0000      -1.137937       -30.9648
  86   2.0000      -1.076158       -29.2838
  87   2.0000      -1.066302       -29.0156
  88   2.0000      -1.021786       -27.8042
  89   2.0000      -1.017898       -27.6984
  90   2.0000      -1.017253       -27.6809
  91   2.0000      -1.005471       -27.3603
  92   2.0000      -1.001639       -27.2560
  93   2.0000      -0.999648       -27.2018
  94   2.0000      -0.995246       -27.0820
  95   2.0000      -0.987590       -26.8737
  96   2.0000      -0.986753       -26.8509
  97   2.0000      -0.982974       -26.7481
  98   2.0000      -0.982854       -26.7448
  99   2.0000      -0.975517       -26.5452
 100   2.0000      -0.961353       -26.1597
 101   2.0000      -0.939524       -25.5657
 102   2.0000      -0.933777       -25.4094
 103   2.0000      -0.921410       -25.0728
 104   2.0000      -0.908613       -24.7246
 105   2.0000      -0.904637       -24.6164
 106   2.0000      -0.894752       -24.3474
 107   2.0000      -0.890538       -24.2328
 108   2.0000      -0.885136       -24.0858
 109   2.0000      -0.874154       -23.7869
 110   2.0000      -0.869141       -23.6505
 111   2.0000      -0.867426       -23.6039
 112   2.0000      -0.858427       -23.3590
 113   2.0000      -0.857492       -23.3335
 114   2.0000      -0.849793       -23.1240
 115   2.0000      -0.843180       -22.9441
 116   2.0000      -0.841257       -22.8918
 117   2.0000      -0.837607       -22.7924
 118   2.0000      -0.829747       -22.5786
 119   2.0000      -0.825782       -22.4707
 120   2.0000      -0.818058       -22.2605
 121   2.0000      -0.805609       -21.9217
 122   2.0000      -0.793829       -21.6012
 123   2.0000      -0.786947       -21.4139
 124   2.0000      -0.772163       -21.0116
 125   2.0000      -0.769296       -20.9336
 126   2.0000      -0.769155       -20.9298
 127   2.0000      -0.765612       -20.8334
 128   2.0000      -0.742163       -20.1953
 129   2.0000      -0.741106       -20.1665
 130   2.0000      -0.729886       -19.8612
 131   2.0000      -0.722607       -19.6631
 132   2.0000      -0.721361       -19.6292
 133   2.0000      -0.721004       -19.6195
 134   2.0000      -0.717366       -19.5205
 135   2.0000      -0.712172       -19.3792
 136   2.0000      -0.710024       -19.3207
 137   2.0000      -0.698310       -19.0020
 138   2.0000      -0.690676       -18.7943
 139   2.0000      -0.684248       -18.6193
 140   2.0000      -0.681938       -18.5565
 141   2.0000      -0.671446       -18.2710
 142   2.0000      -0.670509       -18.2455
 143   2.0000      -0.664153       -18.0725
 144   2.0000      -0.660621       -17.9764
 145   2.0000      -0.658060       -17.9067
 146   2.0000      -0.657889       -17.9021
 147   2.0000      -0.656661       -17.8687
 148   2.0000      -0.644654       -17.5419
 149   2.0000      -0.642728       -17.4895
 150   2.0000      -0.640318       -17.4239
 151   2.0000      -0.629735       -17.1360
 152   2.0000      -0.627200       -17.0670
 153   2.0000      -0.621448       -16.9105
 154   2.0000      -0.614800       -16.7296
 155   2.0000      -0.611577       -16.6419
 156   2.0000      -0.601209       -16.3597
 157   2.0000      -0.599078       -16.3017
 158   2.0000      -0.594817       -16.1858
 159   2.0000      -0.594601       -16.1799
 160   2.0000      -0.585469       -15.9314
 161   2.0000      -0.584608       -15.9080
 162   2.0000      -0.581420       -15.8212
 163   2.0000      -0.578495       -15.7417
 164   2.0000      -0.575493       -15.6600
 165   2.0000      -0.573684       -15.6107
 166   2.0000      -0.570247       -15.5172
 167   2.0000      -0.567592       -15.4450
 168   2.0000      -0.565613       -15.3911
 169   2.0000      -0.557328       -15.1657
 170   2.0000      -0.554196       -15.0804
 171   2.0000      -0.550312       -14.9747
 172   2.0000      -0.546996       -14.8845
 173   2.0000      -0.546434       -14.8692
 174   2.0000      -0.543853       -14.7990
 175   2.0000      -0.541607       -14.7379
 176   2.0000      -0.539122       -14.6702
 177   2.0000      -0.537290       -14.6204
 178   2.0000      -0.535268       -14.5654
 179   2.0000      -0.532511       -14.4904
 180   2.0000      -0.530755       -14.4426
 181   2.0000      -0.529602       -14.4112
 182   2.0000      -0.528397       -14.3784
 183   2.0000      -0.527815       -14.3626
 184   2.0000      -0.524958       -14.2848
 185   2.0000      -0.523260       -14.2386
 186   2.0000      -0.522227       -14.2105
 187   2.0000      -0.520831       -14.1725
 188   2.0000      -0.519822       -14.1451
 189   2.0000      -0.516228       -14.0473
 190   2.0000      -0.514652       -14.0044
 191   2.0000      -0.513200       -13.9649
 192   2.0000      -0.509576       -13.8663
 193   2.0000      -0.505497       -13.7553
 194   2.0000      -0.503865       -13.7109
 195   2.0000      -0.502595       -13.6763
 196   2.0000      -0.500859       -13.6291
 197   2.0000      -0.499282       -13.5862
 198   2.0000      -0.498368       -13.5613
 199   2.0000      -0.496993       -13.5239
 200   2.0000      -0.493658       -13.4331
 201   2.0000      -0.489752       -13.3268
 202   2.0000      -0.486836       -13.2475
 203   2.0000      -0.486220       -13.2307
 204   2.0000      -0.485684       -13.2161
 205   2.0000      -0.482662       -13.1339
 206   2.0000      -0.480957       -13.0875
 207   2.0000      -0.477117       -12.9830
 208   2.0000      -0.474987       -12.9251
 209   2.0000      -0.470528       -12.8037
 210   2.0000      -0.469841       -12.7850
 211   2.0000      -0.468891       -12.7592
 212   2.0000      -0.467281       -12.7154
 213   2.0000      -0.466382       -12.6909
 214   2.0000      -0.464080       -12.6283
 215   2.0000      -0.461297       -12.5525
 216   2.0000      -0.461035       -12.5454
 217   2.0000      -0.460812       -12.5393
 218   2.0000      -0.453543       -12.3415
 219   2.0000      -0.451729       -12.2922
 220   2.0000      -0.450169       -12.2497
 221   2.0000      -0.449583       -12.2338
 222   2.0000      -0.446990       -12.1632
 223   2.0000      -0.445295       -12.1171
 224   2.0000      -0.444110       -12.0848
 225   2.0000      -0.442833       -12.0501
 226   2.0000      -0.441111       -12.0032
 227   2.0000      -0.438808       -11.9406
 228   2.0000      -0.438115       -11.9217
 229   2.0000      -0.436503       -11.8779
 230   2.0000      -0.434981       -11.8364
 231   2.0000      -0.432183       -11.7603
 232   2.0000      -0.430704       -11.7201
 233   2.0000      -0.430421       -11.7123
 234   2.0000      -0.429648       -11.6913
 235   2.0000      -0.427629       -11.6364
 236   2.0000      -0.426559       -11.6072
 237   2.0000      -0.425556       -11.5800
 238   2.0000      -0.423270       -11.5177
 239   2.0000      -0.422769       -11.5041
 240   2.0000      -0.417494       -11.3606
 241   2.0000      -0.416061       -11.3216
 242   2.0000      -0.413964       -11.2645
 243   2.0000      -0.408861       -11.1257
 244   2.0000      -0.401372       -10.9219
 245   2.0000      -0.397355       -10.8126
 246   2.0000      -0.396850       -10.7988
 247   2.0000      -0.393702       -10.7132
 248   2.0000      -0.391059       -10.6412
 249   2.0000      -0.387368       -10.5408
 250   2.0000      -0.385634       -10.4936
 251   2.0000      -0.368320       -10.0225
 252   2.0000      -0.359844        -9.7918
 253   2.0000      -0.358340        -9.7509
 254   2.0000      -0.345336        -9.3971
 255   2.0000      -0.342824        -9.3287
 256   2.0000      -0.332412        -9.0454
 257   2.0000      -0.328531        -8.9398
 258   2.0000      -0.325620        -8.8606
 259   2.0000      -0.320136        -8.7113
 260   2.0000      -0.318559        -8.6684
 261   2.0000      -0.316921        -8.6238
 262   2.0000      -0.306053        -8.3281
 263   2.0000      -0.303949        -8.2709
 264   2.0000      -0.298602        -8.1254
 265   2.0000      -0.290190        -7.8965
 266   2.0000      -0.264528        -7.1982
 267   2.0000      -0.239630        -6.5207
 268   0.0000      -0.143751        -3.9117
 269   0.0000      -0.123205        -3.3526
 270   0.0000      -0.083077        -2.2606
 271   0.0000      -0.065673        -1.7870
 272   0.0000      -0.059054        -1.6069

MULLIKEN ATOMIC CHARGES
-----------------------
   0 C :   -0.107391
   1 C :    0.243482
   2 F :   -0.171236
   3 C :    0.238893
   4 F :   -0.171822
   5 C :   -0.103157
   6 C :    0.115644
   7 C :    0.112642
   8 C :   -0.081150
   9 C :    0.051026
  10 C :   -0.008380
  11 C :   -0.079214
  12 C :    0.152031
  13 O :   -0.145407
  14 C :   -0.069660
  15 C :    0.312254
  16 C :   -0.343563
  17 C :   -0.180946
  18 N :    0.149430
  19 C :   -0.204852
  20 N :    0.170891
  21 C :   -0.039890
  22 C :    0.086767
  23 C :   -0.085089
  24 C :    0.101807
  25 C :   -0.101232
  26 C :    0.025343
  27 C :   -0.181803
  28 N :    0.139055
  29 C :    0.139878
  30 C :   -0.115093
  31 C :    0.042414
  32 C :   -0.027109
  33 C :   -0.094037
  34 C :   -0.181970
  35 N :    0.151296
  36 C :    0.142663
  37 N :   -0.255320
  38 C :    0.093863
  39 C :   -0.007225
  40 C :    0.159832
  41 O :   -0.201270
  42 C :   -0.077498
  43 C :   -0.039414
  44 C :    0.150663
  45 O :   -0.165589
  46 N :   -0.257877
  47 C :    0.094564
  48 C :    0.002739
  49 C :    0.168492
  50 C :   -0.039203
  51 C :    0.025315
  52 C :    0.092418
  53 C :   -0.087974
  54 C :    0.105468
  55 C :   -0.101005
  56 C :   -0.009711
  57 C :   -0.171668
  58 N :    0.125406
  59 C :    0.140642
  60 C :   -0.145160
  61 C :    0.095690
  62 C :    0.013747
  63 C :   -0.098874
  64 C :   -0.181705
  65 N :    0.138858
  66 C :    0.073321
  67 C :    0.223422
  68 O :   -0.320954
  69 C :    0.178597
  70 C :   -0.162764
  71 C :    0.046176
  72 C :    0.238322
  73 C :   -0.166993
  74 O :   -0.313297
  75 C :    0.125372
  76 C :    0.026433
  77 C :    0.012345
  78 C :   -0.013199
  79 H :    0.008006
  80 H :    0.000852
  81 H :   -0.006289
  82 H :   -0.008584
  83 H :    0.025658
  84 H :    0.020599
  85 H :    0.014782
  86 H :    0.025447
  87 H :   -0.008534
  88 H :    0.025147
  89 H :    0.053598
  90 H :    0.029774
  91 H :    0.030757
  92 H :    0.030742
  93 H :    0.055409
  94 H :    0.026461
  95 H :    0.033202
  96 H :    0.028158
  97 H :    0.014206
  98 H :   -0.030612
  99 H :    0.020822
 100 H :    0.019133
 101 H :   -0.004873
 102 H :   -0.000595
 103 H :    0.001964
 104 H :    0.043087
 105 H :    0.030821
 106 H :    0.029287
 107 H :   -0.048516
 108 H :   -0.022011
 109 H :    0.020778
 110 H :    0.028715
 111 H :    0.024936
 112 H :    0.021397
 113 H :    0.026663
 114 H :    0.002545
 115 H :    0.011194
 116 H :    0.028374
Sum of atomic charges:   -0.0000000

LOEWDIN ATOMIC CHARGES
----------------------
   0 C :   -0.028988
   1 C :    0.067698
   2 F :   -0.048826
   3 C :    0.068217
   4 F :   -0.049389
   5 C :   -0.032626
   6 C :   -0.008583
   7 C :   -0.005692
   8 C :    0.017499
   9 C :   -0.023053
  10 C :   -0.053382
  11 C :    0.031661
  12 C :    0.085497
  13 O :   -0.135807
  14 C :   -0.086712
  15 C :    0.072877
  16 C :   -0.132403
  17 C :   -0.016123
  18 N :   -0.050344
  19 C :   -0.028056
  20 N :   -0.040246
  21 C :    0.075127
  22 C :   -0.033469
  23 C :    0.026931
  24 C :    0.026802
  25 C :   -0.089261
  26 C :    0.064354
  27 C :   -0.031488
  28 N :   -0.057313
  29 C :    0.046131
  30 C :   -0.001669
  31 C :   -0.024056
  32 C :    0.048148
  33 C :   -0.073970
  34 C :   -0.034558
  35 N :   -0.052216
  36 C :    0.061579
  37 N :    0.000403
  38 C :    0.035245
  39 C :   -0.060670
  40 C :    0.078085
  41 O :   -0.193328
  42 C :   -0.121001
  43 C :   -0.087667
  44 C :    0.085422
  45 O :   -0.159373
  46 N :    0.001999
  47 C :    0.037314
  48 C :   -0.060744
  49 C :    0.093089
  50 C :   -0.055323
  51 C :    0.055244
  52 C :   -0.036982
  53 C :    0.011891
  54 C :    0.013302
  55 C :   -0.080550
  56 C :    0.044653
  57 C :   -0.027238
  58 N :   -0.072018
  59 C :    0.059087
  60 C :   -0.050422
  61 C :    0.020269
  62 C :    0.066428
  63 C :   -0.086215
  64 C :   -0.033380
  65 N :   -0.061571
  66 C :   -0.045910
  67 C :    0.057236
  68 O :   -0.095721
  69 C :    0.078494
  70 C :   -0.055390
  71 C :   -0.022098
  72 C :    0.049357
  73 C :   -0.043061
  74 O :   -0.099649
  75 C :    0.083649
  76 C :   -0.058789
  77 C :   -0.017044
  78 C :   -0.034540
  79 H :    0.048031
  80 H :    0.045316
  81 H :    0.040003
  82 H :    0.040818
  83 H :    0.051755
  84 H :    0.040321
  85 H :    0.036654
  86 H :    0.038971
  87 H :    0.036120
  88 H :    0.019683
  89 H :    0.041172
  90 H :    0.023972
  91 H :    0.034831
  92 H :    0.033741
  93 H :    0.042643
  94 H :    0.024398
  95 H :    0.033795
  96 H :    0.032706
  97 H :    0.021060
  98 H :    0.027785
  99 H :    0.044128
 100 H :    0.041544
 101 H :    0.033202
 102 H :    0.030668
 103 H :    0.035505
 104 H :    0.031769
 105 H :    0.017730
 106 H :    0.018819
 107 H :    0.028343
 108 H :    0.034064
 109 H :    0.014797
 110 H :    0.018280
 111 H :    0.029302
 112 H :    0.033128
 113 H :    0.030295
 114 H :    0.032690
 115 H :    0.017165
 116 H :    0.028027

  Mayer bond orders larger than 0.100000
B(  0-C ,  1-C ) :   1.4413 B(  0-C ,  5-C ) :   0.1086 B(  0-C ,  7-C ) :   1.1885
B(  0-C , 79-H ) :   1.0069 B(  1-C ,  2-F ) :   1.1343 B(  1-C ,  3-C ) :   1.1901
B(  3-C ,  4-F ) :   1.1333 B(  3-C ,  5-C ) :   1.4442 B(  5-C ,  6-C ) :   1.1908
B(  5-C , 80-H ) :   1.0071 B(  6-C ,  7-C ) :   1.2548 B(  6-C , 11-C ) :   1.1904
B(  7-C ,  8-C ) :   1.2183 B(  8-C ,  9-C ) :   1.4477 B(  8-C , 81-H ) :   0.9897
B(  9-C , 10-C ) :   1.2212 B(  9-C , 15-C ) :   0.9831 B( 10-C , 11-C ) :   1.4687
B( 10-C , 12-C ) :   0.9461 B( 11-C , 82-H ) :   1.0164 B( 12-C , 13-O ) :   2.2092
B( 12-C , 14-C ) :   0.9315 B( 14-C , 15-C ) :   1.0665 B( 14-C , 21-C ) :   1.5479
B( 15-C , 16-C ) :   1.6370 B( 16-C , 17-C ) :   1.1484 B( 16-C , 19-C ) :   1.1372
B( 17-C , 18-N ) :   2.9605 B( 19-C , 20-N ) :   2.9917 B( 21-C , 22-C ) :   1.1598
B( 21-C , 83-H ) :   0.9454 B( 22-C , 23-C ) :   1.4566 B( 22-C , 26-C ) :   1.0635
B( 23-C , 24-C ) :   1.1219 B( 23-C , 84-H ) :   1.0077 B( 24-C , 25-C ) :   1.1211
B( 24-C , 29-C ) :   1.3627 B( 25-C , 26-C ) :   1.6437 B( 25-C , 27-C ) :   1.0942
B( 26-C , 85-H ) :   1.0085 B( 27-C , 28-N ) :   2.9828 B( 29-C , 30-C ) :   1.1497
B( 29-C , 33-C ) :   1.0879 B( 30-C , 31-C ) :   1.5161 B( 30-C , 86-H ) :   0.9917
B( 31-C , 32-C ) :   1.0089 B( 31-C , 36-C ) :   1.0706 B( 32-C , 33-C ) :   1.6816
B( 32-C , 87-H ) :   1.0291 B( 33-C , 34-C ) :   1.0850 B( 34-C , 35-N ) :   2.9704
B( 36-C , 37-N ) :   1.1942 B( 36-C , 43-C ) :   1.3487 B( 37-N , 38-C ) :   0.9397
B( 37-N , 40-C ) :   1.0524 B( 38-C , 39-C ) :   1.1188 B( 38-C , 88-H ) :   0.9512
B( 38-C , 89-H ) :   0.9215 B( 39-C , 90-H ) :   0.9659 B( 39-C , 91-H ) :   0.9659
B( 39-C , 92-H ) :   0.9612 B( 40-C , 41-O ) :   2.0263 B( 40-C , 42-C ) :   0.9966
B( 41-O , 99-H ) :   0.1115 B( 42-C , 43-C ) :   1.2873 B( 42-C , 49-C ) :   1.2680
B( 43-C , 44-C ) :   0.9572 B( 44-C , 45-O ) :   2.1139 B( 44-C , 46-N ) :   1.0343
B( 46-N , 47-C ) :   0.9407 B( 46-N , 49-C ) :   1.1810 B( 47-C , 48-C ) :   1.1209
B( 47-C , 93-H ) :   0.9281 B( 47-C , 94-H ) :   0.9495 B( 48-C , 95-H ) :   0.9635
B( 48-C , 96-H ) :   0.9680 B( 48-C , 97-H ) :   0.9684 B( 49-C , 50-C ) :   1.1893
B( 50-C , 51-C ) :   1.5228 B( 50-C , 98-H ) :   0.9637 B( 51-C , 52-C ) :   1.1377
B( 51-C , 99-H ) :   0.9565 B( 52-C , 53-C ) :   1.4742 B( 52-C , 56-C ) :   1.0551
B( 53-C , 54-C ) :   1.1252 B( 53-C ,100-H ) :   1.0116 B( 54-C , 55-C ) :   1.1167
B( 54-C , 59-C ) :   1.3835 B( 55-C , 56-C ) :   1.6670 B( 55-C , 57-C ) :   1.0921
B( 56-C ,101-H ) :   1.0148 B( 57-C , 58-N ) :   2.9661 B( 59-C , 60-C ) :   1.1361
B( 59-C , 63-C ) :   1.0925 B( 60-C , 61-C ) :   1.5590 B( 60-C ,102-H ) :   0.9965
B( 61-C , 62-C ) :   1.0415 B( 61-C , 66-C ) :   1.0268 B( 62-C , 63-C ) :   1.6646
B( 62-C ,103-H ) :   1.0225 B( 63-C , 64-C ) :   1.0887 B( 64-C , 65-N ) :   2.9710
B( 66-C , 67-C ) :   1.3302 B( 66-C , 73-C ) :   1.2938 B( 67-C , 68-O ) :   1.1514
B( 67-C , 70-C ) :   1.2939 B( 68-O , 69-C ) :   0.9542 B( 69-C ,104-H ) :   0.9771
B( 69-C ,105-H ) :   0.9687 B( 69-C ,106-H ) :   0.9690 B( 70-C , 71-C ) :   1.3403
B( 70-C ,107-H ) :   0.9924 B( 71-C , 72-C ) :   1.3088 B( 71-C , 77-C ) :   1.1006
B( 72-C , 73-C ) :   1.3063 B( 72-C , 74-O ) :   1.1715 B( 73-C ,108-H ) :   1.0026
B( 74-O , 75-C ) :   0.9367 B( 75-C , 76-C ) :   1.0974 B( 75-C ,109-H ) :   0.9504
B( 75-C ,110-H ) :   0.9513 B( 76-C ,111-H ) :   0.9686 B( 76-C ,112-H ) :   0.9609
B( 76-C ,113-H ) :   0.9685 B( 77-C , 78-C ) :   1.9281 B( 77-C ,114-H ) :   0.9591
B( 78-C ,115-H ) :   0.9500 B( 78-C ,116-H ) :   0.9514

-----------------------------------------------------------------------------
         ABSORPTION SPECTRUM VIA TRANSITION ELECTRIC DIPOLE MOMENTS
-----------------------------------------------------------------------------
State   Energy  Wavelength   fosc         T2         TX        TY        TZ
        (cm-1)    (nm)                  (au**2)     (au)      (au)      (au)
-----------------------------------------------------------------------------
   0    6688.1   1495.2   0.744478686  36.64600  -0.38366   5.97775   0.87480
   1   11816.3    846.3   0.283481776   7.89801   0.95648  -2.63588  -0.18794
   2   13681.1    730.9   0.051404095   1.23695   0.56815  -0.87751  -0.37965
   3   15415.0    648.7   0.051924713   1.10893   0.14530  -0.83649  -0.62298
   4   18696.7    534.9   0.035699600   0.62860  -0.07794   0.76622  -0.18824
   5   18800.6    531.9   0.077239184   1.35251   0.21132   1.10062  -0.31062
   6   19743.8    506.5   0.048215119   0.80395  -0.49854   0.51817   0.53564
   7   20327.2    492.0   0.059532210   0.96416   0.31935   0.85859  -0.35355
   8   21499.5    465.1   0.177474986   2.71759  -0.16834  -1.62720  -0.20366
   9   21966.0    455.2   0.064159520   0.96158  -0.34324  -0.48451   0.78039
  10   22868.7    437.3   0.376775885   5.42396  -0.23134   2.23176   0.62424
  11   23096.0    433.0   0.215021477   3.06493   0.11565  -1.72216  -0.29276
  12   24007.5    416.5   0.062247713   0.85360  -0.23695   0.27032   0.85111
  13   24379.8    410.2   0.131841517   1.78032   0.34175  -1.25836  -0.28293
  14   24746.5    404.1   0.324277823   4.31398  -0.72961   1.86541   0.54946
  15   25327.8    394.8   0.007625429   0.09912   0.00845   0.31176  -0.04300
  16   25586.2    390.8   0.008305932   0.10687  -0.20876  -0.13681   0.21113
  17   26305.9    380.1   0.480687659   6.01569  -0.61612   1.78438   1.56590
  18   27599.9    362.3   0.115855130   1.38192   0.09325   1.15156   0.21713
  19   28043.2    356.6   0.000801323   0.00941  -0.06352   0.01972   0.07060
  20   28185.4    354.8   0.000792476   0.00926   0.04692  -0.08040   0.02432
  21   28299.1    353.4   0.077612192   0.90288   0.53053  -0.11798  -0.77943
  22   28504.9    350.8   0.156912004   1.81223  -0.13652   1.31663   0.24512
  23   28829.1    346.9   0.177045382   2.02176   0.83999  -0.96993  -0.61271
  24   29611.3    337.7   0.003954236   0.04396  -0.12981  -0.09327   0.13569
  25   30503.3    327.8   0.030654298   0.33084   0.11716  -0.54059  -0.15772
  26   30998.4    322.6   0.288299716   3.06182  -0.73349   1.03020   1.20934
  27   31287.3    319.6   0.072880676   0.76687   0.10751  -0.86722  -0.05691
  28   31475.9    317.7   0.004294495   0.04492  -0.00733  -0.20946  -0.03146
  29   31727.2    315.2   0.061220198   0.63524   0.35668  -0.62666  -0.33959
  30   32082.6    311.7   0.060470427   0.62051  -0.44792   0.57172   0.30498
  31   32805.4    304.8   0.003501379   0.03514  -0.04514   0.10116  -0.15121
  32   33126.9    301.9   0.067906893   0.67485  -0.52399   0.29267   0.56092
  33   33187.9    301.3   0.002947176   0.02923   0.13988   0.07270  -0.06622
  34   33218.1    301.0   0.230548019   2.28487  -0.75379   1.15472   0.61910
  35   33757.2    296.2   0.081077556   0.79070   0.20145   0.33379  -0.79918
  36   33864.8    295.3   0.096316815   0.93633   0.27946  -0.92521  -0.04711
  37   33934.7    294.7   0.383602301   3.72146  -0.77010   1.49849   0.93964
  38   34157.7    292.8   0.016432550   0.15838  -0.01038  -0.34630   0.19582
  39   34400.2    290.7   0.067849194   0.64932  -0.00838  -0.69264   0.41171
  40   34636.0    288.7   0.028130370   0.26738  -0.00654   0.51421   0.05407
  41   34880.2    286.7   0.016668977   0.15733   0.20211  -0.23929  -0.24335
  42   35093.0    285.0   0.014703762   0.13794  -0.05237   0.20243   0.30695
  43   35605.8    280.9   0.066385652   0.61380   0.01145   0.77984  -0.07425
  44   35788.0    279.4   0.574641529   5.28610   1.26463  -0.57318  -1.83256
  45   36160.8    276.5   0.034186572   0.31124  -0.21456  -0.40720   0.31526
  46   36219.4    276.1   0.001743457   0.01585   0.01796   0.10223  -0.07122
  47   36519.6    273.8   0.078340175   0.70621  -0.02952  -0.82195  -0.17246
  48   36990.2    270.3   0.040192811   0.35771  -0.13494   0.58217   0.02418
  49   37074.7    269.7   0.061804598   0.54881  -0.42405  -0.18210   0.57951
  50   37571.4    266.2   0.086104168   0.75447   0.32808   0.67520  -0.43696
  51   37745.0    264.9   0.010838546   0.09453  -0.09332   0.29283   0.00859
  52   37788.7    264.6   0.003117062   0.02716   0.12353  -0.08755  -0.06504
  53   38056.0    262.8   0.067480323   0.58375   0.14822   0.74369  -0.09335
  54   38218.0    261.7   0.011974969   0.10315   0.02442  -0.13015  -0.29260
  55   38384.2    260.5   0.042814687   0.36721  -0.25707   0.41723   0.35643
  56   38721.2    258.3   0.175947055   1.49592  -0.28136   1.11113   0.42679
  57   38788.4    257.8   0.020944266   0.17776   0.21047  -0.07832  -0.35684
  58   39015.5    256.3   0.003090153   0.02607  -0.09581  -0.03388   0.12548
  59   39143.2    255.5   0.030673320   0.25798   0.25216   0.26439  -0.35283
  60   39356.8    254.1   0.033738326   0.28221  -0.08043  -0.51067   0.12232
  61   39548.7    252.9   0.108879686   0.90634   0.05948  -0.94658   0.08243
  62   39779.6    251.4   0.005021167   0.04155  -0.03432  -0.19648   0.04211

FINAL SINGLE POINT ENERGY     -3470.950441066793

DIPOLE MOMENT
-------------
                                X             Y             Z
Electronic contribution:    -17.68221     184.87808      34.32622
Nuclear contribution   :     17.18847    -190.34681     -33.90402
                        -----------------------------------------
Total Dipole Moment    :     -0.49374      -5.46873       0.42220
                        -----------------------------------------
Magnitude (a.u.)       :      5.50718
Magnitude (Debye)      :     13.99813

Rotational constants in cm-1:     0.002418     0.000152     0.000145
Rotational constants in MHz :    72.492766     4.565598     4.359210

                             ****ORCA TERMINATED NORMALLY****
TOTAL RUN TIME: 0 days 0 hours 14 minutes 33 seconds 20 msec
