                         Program Version 4.2.0 -  RELEASE  -
|  1> # ORCA input file
|  2> # SCF done       -224.272186110908          0.000571574933
|  3> ! CAM-B3LYP def2-SVP def2/J RIJCOSX Grid4 TightSCF
|  4> %maxcore 5000
|  5> %tddft
|  6>     Mode sTDDFT
|  7>     Ethresh 5.0
|  8>     maxcore 5000
|  9> end
| 10>
| 11> %pal
| 12>   nprocs 6
| 13>   end
| 14> * xyz 0 1
| 15>    C       -9.65895         1.51761         4.18513
| 16>    C      -11.02389         1.58393         4.20335
| 17>    F      -11.63901         2.76963         4.28608
| 18>    C      -11.80089         0.40924         4.13500
| 19>    F      -13.13598         0.50535         4.15313
| 20>    C      -11.20133        -0.81606         4.05030
| 21>    C       -9.79662        -0.91727         4.02900
| 22>    C       -9.00968         0.26949         4.09776
| 23>    C       -7.59859         0.19234         4.07625
| 24>    C       -6.99249        -1.03403         3.99044
| 25>    C       -7.78662        -2.21320         3.91904
| 26>    C       -9.15139        -2.16996         3.93590
| 27>    C       -6.91054        -3.39314         3.80422
| 28>    O       -7.25562        -4.54441         3.65694
| 29>    C       -5.52108        -2.85786         3.79952
| 30>    C       -5.58446        -1.41501         3.95034
| 31>    C       -4.51836        -0.57027         4.10410
| 32>    C       -3.16860        -0.98235         4.14567
| 33>    N       -2.05516        -1.25269         4.20998
| 34>    C       -4.63535         0.82613         4.27285
| 35>    N       -4.67219         1.96494         4.40805
| 36>    C       -4.43044        -3.61442         3.49923
| 37>    C       -4.40830        -5.03767         3.46278
| 38>    C       -3.69493        -5.80353         2.57126
| 39>    C       -3.96668        -7.18553         2.82169
| 40>    C       -4.86087        -7.21990         3.98849
| 41>    C       -5.12873        -5.93959         4.35656
| 42>    C       -5.41363        -8.35448         4.59847
| 43>    N       -5.91288        -9.25248         5.11036
| 44>    C       -3.52636        -8.26722         2.09417
| 45>    C       -3.75489        -9.64292         2.37122
| 46>    C       -3.26967       -10.40553         1.32581
| 47>    C       -2.67517        -9.49882         0.35365
| 48>    C       -2.79439        -8.22624         0.81546
| 49>    C       -2.32289        -7.09030         0.14756
| 50>    N       -1.92751        -6.18069        -0.43162
| 51>    C       -3.37968       -11.82049         1.28497
| 52>    N       -3.37778       -12.62629         0.17709
| 53>    C       -3.24840       -12.24189        -1.20909
| 54>    C       -1.79790       -12.32361        -1.67905
| 55>    C       -3.59171       -13.98003         0.51062
| 56>    O       -3.64944       -14.86820        -0.31090
| 57>    C       -3.71019       -13.97934         1.95413
| 58>    C       -3.57591       -12.64817         2.39742
| 59>    C       -3.59617       -12.65400         3.84881
| 60>    O       -3.47545       -11.77533         4.66958
| 61>    N       -3.76135       -14.01821         4.18291
| 62>    C       -3.93019       -14.42586         5.55764
| 63>    C       -5.39483       -14.68168         5.90044
| 64>    C       -3.84915       -14.81107         3.07135
| 65>    C       -4.05186       -16.21358         3.10277
| 66>    C       -4.35099       -16.93017         1.98739
| 67>    C       -4.62197       -18.31996         1.99441
| 68>    O       -4.36701       -19.09573         3.08180
| 69>    C       -5.19802       -19.11988         1.01843
| 70>    C       -5.77684       -19.12313        -0.33584
| 71>    O       -5.92188       -18.24660        -1.13973
| 72>    N       -6.16562       -20.45305        -0.51599
| 73>    C       -5.92250       -21.30317         0.55592
| 74>    O       -6.17908       -22.47451         0.59635
| 75>    C       -5.29745       -20.41739         1.55600
| 76>    C       -4.78095       -20.37153         2.84036
| 77>    C       -4.60753       -21.43516         3.75669
| 78>    C       -4.08914       -21.42085         5.01280
| 79>    C       -3.59005       -22.70140         5.60399
| 80>    O       -3.86514       -23.81873         5.24509
| 81>    C       -2.64710       -22.28642         6.66176
| 82>    C       -1.81882       -23.06265         7.42028
| 83>    C       -0.96455       -22.44195         8.35880
| 84>    C       -0.98512       -21.02259         8.49289
| 85>    C       -0.12284       -20.41007         9.42436
| 86>    C        0.71879       -21.17014        10.18732
| 87>    C        0.73668       -22.57396        10.05535
| 88>    C       -0.08772       -23.19775         9.16115
| 89>    F        1.57201       -23.29208        10.81481
| 90>    F        1.53768       -20.58648        11.06956
| 91>    C       -1.86145       -20.24518         7.70167
| 92>    C       -2.68312       -20.86856         6.80068
| 93>    C       -3.70036       -20.34121         5.89533
| 94>    C       -4.32011       -19.12743         6.01805
| 95>    C       -5.51807       -18.78016         5.35680
| 96>    N       -6.51998       -18.45650         4.90062
| 97>    C       -3.87621       -18.10040         6.87394
| 98>    N       -3.53008       -17.19852         7.49447
| 99>    H       -9.07987         2.42627         4.23890
|100>    H      -11.80944        -1.70556         3.99833
|101>    H       -7.03166         1.10811         4.12203
|102>    H       -9.72920        -3.07993         3.87876
|103>    H       -3.50935        -3.12336         3.20875
|104>    H       -3.06950        -5.43315         1.78220
|105>    H       -5.72566        -5.63293         5.19318
|106>    H       -4.23540       -10.01886         3.25218
|107>    H       -2.17444        -9.77995        -0.55254
|108>    H       -3.66208       -11.24044        -1.34329
|109>    H       -3.84839       -12.95223        -1.78579
|110>    H       -1.14353       -11.72047        -1.05281
|111>    H       -1.72214       -11.97672        -2.70582
|112>    H       -1.45736       -13.35495        -1.63504
|113>    H       -3.55268       -13.59848         6.16426
|114>    H       -3.32515       -15.31335         5.76009
|115>    H       -5.97508       -13.77317         5.76073
|116>    H       -5.47051       -14.98905         6.93929
|117>    H       -5.81628       -15.46587         5.27445
|118>    H       -4.00569       -16.70965         4.06187
|119>    H       -4.44408       -16.44689         1.02399
|120>    H       -6.60631       -20.77205        -1.36761
|121>    H       -4.84278       -22.41199         3.34737
|122>    H       -1.81438       -24.13563         7.30422
|123>    H       -0.12529       -19.33761         9.54123
|124>    H       -0.06213       -24.27244         9.07169
|125>    H       -1.85266       -19.17307         7.81965
|126> *
|127>
|128>                          ****END OF INPUT****

CARTESIAN COORDINATES (ANGSTROEM)
---------------------------------
  C     -9.658950    1.517610    4.185130
  C    -11.023890    1.583930    4.203350
  F    -11.639010    2.769630    4.286080
  C    -11.800890    0.409240    4.135000
  F    -13.135980    0.505350    4.153130
  C    -11.201330   -0.816060    4.050300
  C     -9.796620   -0.917270    4.029000
  C     -9.009680    0.269490    4.097760
  C     -7.598590    0.192340    4.076250
  C     -6.992490   -1.034030    3.990440
  C     -7.786620   -2.213200    3.919040
  C     -9.151390   -2.169960    3.935900
  C     -6.910540   -3.393140    3.804220
  O     -7.255620   -4.544410    3.656940
  C     -5.521080   -2.857860    3.799520
  C     -5.584460   -1.415010    3.950340
  C     -4.518360   -0.570270    4.104100
  C     -3.168600   -0.982350    4.145670
  N     -2.055160   -1.252690    4.209980
  C     -4.635350    0.826130    4.272850
  N     -4.672190    1.964940    4.408050
  C     -4.430440   -3.614420    3.499230
  C     -4.408300   -5.037670    3.462780
  C     -3.694930   -5.803530    2.571260
  C     -3.966680   -7.185530    2.821690
  C     -4.860870   -7.219900    3.988490
  C     -5.128730   -5.939590    4.356560
  C     -5.413630   -8.354480    4.598470
  N     -5.912880   -9.252480    5.110360
  C     -3.526360   -8.267220    2.094170
  C     -3.754890   -9.642920    2.371220
  C     -3.269670  -10.405530    1.325810
  C     -2.675170   -9.498820    0.353650
  C     -2.794390   -8.226240    0.815460
  C     -2.322890   -7.090300    0.147560
  N     -1.927510   -6.180690   -0.431620
  C     -3.379680  -11.820490    1.284970
  N     -3.377780  -12.626290    0.177090
  C     -3.248400  -12.241890   -1.209090
  C     -1.797900  -12.323610   -1.679050
  C     -3.591710  -13.980030    0.510620
  O     -3.649440  -14.868200   -0.310900
  C     -3.710190  -13.979340    1.954130
  C     -3.575910  -12.648170    2.397420
  C     -3.596170  -12.654000    3.848810
  O     -3.475450  -11.775330    4.669580
  N     -3.761350  -14.018210    4.182910
  C     -3.930190  -14.425860    5.557640
  C     -5.394830  -14.681680    5.900440
  C     -3.849150  -14.811070    3.071350
  C     -4.051860  -16.213580    3.102770
  C     -4.350990  -16.930170    1.987390
  C     -4.621970  -18.319960    1.994410
  O     -4.367010  -19.095730    3.081800
  C     -5.198020  -19.119880    1.018430
  C     -5.776840  -19.123130   -0.335840
  O     -5.921880  -18.246600   -1.139730
  N     -6.165620  -20.453050   -0.515990
  C     -5.922500  -21.303170    0.555920
  O     -6.179080  -22.474510    0.596350
  C     -5.297450  -20.417390    1.556000
  C     -4.780950  -20.371530    2.840360
  C     -4.607530  -21.435160    3.756690
  C     -4.089140  -21.420850    5.012800
  C     -3.590050  -22.701400    5.603990
  O     -3.865140  -23.818730    5.245090
  C     -2.647100  -22.286420    6.661760
  C     -1.818820  -23.062650    7.420280
  C     -0.964550  -22.441950    8.358800
  C     -0.985120  -21.022590    8.492890
  C     -0.122840  -20.410070    9.424360
  C      0.718790  -21.170140   10.187320
  C      0.736680  -22.573960   10.055350
  C     -0.087720  -23.197750    9.161150
  F      1.572010  -23.292080   10.814810
  F      1.537680  -20.586480   11.069560
  C     -1.861450  -20.245180    7.701670
  C     -2.683120  -20.868560    6.800680
  C     -3.700360  -20.341210    5.895330
  C     -4.320110  -19.127430    6.018050
  C     -5.518070  -18.780160    5.356800
  N     -6.519980  -18.456500    4.900620
  C     -3.876210  -18.100400    6.873940
  N     -3.530080  -17.198520    7.494470
  H     -9.079870    2.426270    4.238900
  H    -11.809440   -1.705560    3.998330
  H     -7.031660    1.108110    4.122030
  H     -9.729200   -3.079930    3.878760
  H     -3.509350   -3.123360    3.208750
  H     -3.069500   -5.433150    1.782200
  H     -5.725660   -5.632930    5.193180
  H     -4.235400  -10.018860    3.252180
  H     -2.174440   -9.779950   -0.552540
  H     -3.662080  -11.240440   -1.343290
  H     -3.848390  -12.952230   -1.785790
  H     -1.143530  -11.720470   -1.052810
  H     -1.722140  -11.976720   -2.705820
  H     -1.457360  -13.354950   -1.635040
  H     -3.552680  -13.598480    6.164260
  H     -3.325150  -15.313350    5.760090
  H     -5.975080  -13.773170    5.760730
  H     -5.470510  -14.989050    6.939290
  H     -5.816280  -15.465870    5.274450
  H     -4.005690  -16.709650    4.061870
  H     -4.444080  -16.446890    1.023990
  H     -6.606310  -20.772050   -1.367610
  H     -4.842780  -22.411990    3.347370
  H     -1.814380  -24.135630    7.304220
  H     -0.125290  -19.337610    9.541230
  H     -0.062130  -24.272440    9.071690
  H     -1.852660  -19.173070    7.819650

 Total Charge           Charge          ....    0
 Multiplicity           Mult            ....    1
 Number of Electrons    NEL             ....  566
 Basis Dimension        Dim             .... 1311

ORBITAL ENERGIES
----------------

  NO   OCC          E(Eh)            E(eV)
   0   2.0000     -24.806500      -675.0192
   1   2.0000     -24.806154      -675.0098
   2   2.0000     -24.805236      -674.9848
   3   2.0000     -24.804392      -674.9618
   4   2.0000     -19.332700      -526.0695
   5   2.0000     -19.234031      -523.3846
   6   2.0000     -19.230092      -523.2774
   7   2.0000     -19.226939      -523.1916
   8   2.0000     -19.223393      -523.0951
   9   2.0000     -19.203920      -522.5652
  10   2.0000     -19.199806      -522.4533
  11   2.0000     -14.467507      -393.6809
  12   2.0000     -14.467233      -393.6734
  13   2.0000     -14.461134      -393.5075
  14   2.0000     -14.437895      -392.8751
  15   2.0000     -14.428703      -392.6250
  16   2.0000     -14.427213      -392.5844
  17   2.0000     -14.426872      -392.5752
  18   2.0000     -14.416718      -392.2989
  19   2.0000     -14.403047      -391.9268
  20   2.0000     -10.416206      -283.4394
  21   2.0000     -10.413133      -283.3558
  22   2.0000     -10.390596      -282.7425
  23   2.0000     -10.390229      -282.7325
  24   2.0000     -10.389221      -282.7051
  25   2.0000     -10.388687      -282.6905
  26   2.0000     -10.385737      -282.6103
  27   2.0000     -10.385023      -282.5908
  28   2.0000     -10.383711      -282.5552
  29   2.0000     -10.383093      -282.5383
  30   2.0000     -10.382532      -282.5231
  31   2.0000     -10.381362      -282.4912
  32   2.0000     -10.361108      -281.9401
  33   2.0000     -10.358482      -281.8686
  34   2.0000     -10.357399      -281.8392
  35   2.0000     -10.354078      -281.7488
  36   2.0000     -10.353640      -281.7369
  37   2.0000     -10.353030      -281.7203
  38   2.0000     -10.340256      -281.3727
  39   2.0000     -10.338124      -281.3147
  40   2.0000     -10.333540      -281.1899
  41   2.0000     -10.333256      -281.1822
  42   2.0000     -10.331786      -281.1422
  43   2.0000     -10.330619      -281.1104
  44   2.0000     -10.329084      -281.0687
  45   2.0000     -10.328456      -281.0516
  46   2.0000     -10.325121      -280.9608
  47   2.0000     -10.321492      -280.8621
  48   2.0000     -10.321171      -280.8534
  49   2.0000     -10.320843      -280.8444
  50   2.0000     -10.320781      -280.8427
  51   2.0000     -10.319773      -280.8153
  52   2.0000     -10.319505      -280.8080
  53   2.0000     -10.319494      -280.8077
  54   2.0000     -10.319225      -280.8004
  55   2.0000     -10.318973      -280.7935
  56   2.0000     -10.318579      -280.7828
  57   2.0000     -10.318116      -280.7702
  58   2.0000     -10.317263      -280.7470
  59   2.0000     -10.316207      -280.7183
  60   2.0000     -10.315589      -280.7014
  61   2.0000     -10.315327      -280.6943
  62   2.0000     -10.314851      -280.6814
  63   2.0000     -10.314515      -280.6722
  64   2.0000     -10.313968      -280.6573
  65   2.0000     -10.313922      -280.6561
  66   2.0000     -10.312889      -280.6280
  67   2.0000     -10.312677      -280.6222
  68   2.0000     -10.312157      -280.6081
  69   2.0000     -10.311648      -280.5942
  70   2.0000     -10.310159      -280.5537
  71   2.0000     -10.309717      -280.5417
  72   2.0000     -10.308742      -280.5151
  73   2.0000     -10.307968      -280.4941
  74   2.0000     -10.305975      -280.4398
  75   2.0000     -10.305277      -280.4208
  76   2.0000     -10.304686      -280.4048
  77   2.0000     -10.303989      -280.3858
  78   2.0000     -10.303224      -280.3650
  79   2.0000     -10.293707      -280.1060
  80   2.0000     -10.276380      -279.6345
  81   2.0000     -10.275360      -279.6068
  82   2.0000     -10.272609      -279.5319
  83   2.0000     -10.254946      -279.0513
  84   2.0000      -1.329860       -36.1873
  85   2.0000      -1.328089       -36.1391
  86   2.0000      -1.314953       -35.7817
  87   2.0000      -1.313162       -35.7330
  88   2.0000      -1.248482       -33.9729
  89   2.0000      -1.170660       -31.8553
  90   2.0000      -1.150407       -31.3042
  91   2.0000      -1.149707       -31.2851
  92   2.0000      -1.146690       -31.2030
  93   2.0000      -1.146053       -31.1857
  94   2.0000      -1.137977       -30.9659
  95   2.0000      -1.076339       -29.2887
  96   2.0000      -1.066782       -29.0286
  97   2.0000      -1.057731       -28.7823
  98   2.0000      -1.036584       -28.2069
  99   2.0000      -1.031196       -28.0603
 100   2.0000      -1.023368       -27.8473
 101   2.0000      -1.018472       -27.7140
 102   2.0000      -1.014236       -27.5988
 103   2.0000      -1.011264       -27.5179
 104   2.0000      -1.006167       -27.3792
 105   2.0000      -1.005031       -27.3483
 106   2.0000      -0.994702       -27.0672
 107   2.0000      -0.992181       -26.9986
 108   2.0000      -0.990374       -26.9494
 109   2.0000      -0.981926       -26.7196
 110   2.0000      -0.954688       -25.9784
 111   2.0000      -0.944795       -25.7092
 112   2.0000      -0.942678       -25.6516
 113   2.0000      -0.941481       -25.6190
 114   2.0000      -0.936808       -25.4918
 115   2.0000      -0.920604       -25.0509
 116   2.0000      -0.919709       -25.0266
 117   2.0000      -0.904760       -24.6198
 118   2.0000      -0.902752       -24.5651
 119   2.0000      -0.900380       -24.5006
 120   2.0000      -0.896482       -24.3945
 121   2.0000      -0.887210       -24.1422
 122   2.0000      -0.875460       -23.8225
 123   2.0000      -0.863249       -23.4902
 124   2.0000      -0.862631       -23.4734
 125   2.0000      -0.851780       -23.1781
 126   2.0000      -0.850722       -23.1493
 127   2.0000      -0.849644       -23.1200
 128   2.0000      -0.828525       -22.5453
 129   2.0000      -0.825561       -22.4647
 130   2.0000      -0.821541       -22.3553
 131   2.0000      -0.803800       -21.8725
 132   2.0000      -0.794843       -21.6288
 133   2.0000      -0.784778       -21.3549
 134   2.0000      -0.780611       -21.2415
 135   2.0000      -0.778351       -21.1800
 136   2.0000      -0.775329       -21.0978
 137   2.0000      -0.769583       -20.9414
 138   2.0000      -0.765186       -20.8218
 139   2.0000      -0.749271       -20.3887
 140   2.0000      -0.748723       -20.3738
 141   2.0000      -0.731190       -19.8967
 142   2.0000      -0.729868       -19.8607
 143   2.0000      -0.728947       -19.8357
 144   2.0000      -0.726308       -19.7638
 145   2.0000      -0.719411       -19.5762
 146   2.0000      -0.718644       -19.5553
 147   2.0000      -0.714553       -19.4440
 148   2.0000      -0.707072       -19.2404
 149   2.0000      -0.698719       -19.0131
 150   2.0000      -0.697153       -18.9705
 151   2.0000      -0.692322       -18.8390
 152   2.0000      -0.688757       -18.7420
 153   2.0000      -0.676510       -18.4088
 154   2.0000      -0.671439       -18.2708
 155   2.0000      -0.668773       -18.1982
 156   2.0000      -0.665688       -18.1143
 157   2.0000      -0.661449       -17.9990
 158   2.0000      -0.656667       -17.8688
 159   2.0000      -0.653583       -17.7849
 160   2.0000      -0.652606       -17.7583
 161   2.0000      -0.648296       -17.6410
 162   2.0000      -0.639210       -17.3938
 163   2.0000      -0.629436       -17.1278
 164   2.0000      -0.624526       -16.9942
 165   2.0000      -0.621131       -16.9018
 166   2.0000      -0.615918       -16.7600
 167   2.0000      -0.613371       -16.6907
 168   2.0000      -0.608926       -16.5697
 169   2.0000      -0.605223       -16.4690
 170   2.0000      -0.604760       -16.4563
 171   2.0000      -0.600634       -16.3441
 172   2.0000      -0.594212       -16.1693
 173   2.0000      -0.593944       -16.1620
 174   2.0000      -0.592483       -16.1223
 175   2.0000      -0.591618       -16.0987
 176   2.0000      -0.588998       -16.0274
 177   2.0000      -0.581244       -15.8165
 178   2.0000      -0.580844       -15.8056
 179   2.0000      -0.575431       -15.6583
 180   2.0000      -0.574390       -15.6300
 181   2.0000      -0.573103       -15.5949
 182   2.0000      -0.571401       -15.5486
 183   2.0000      -0.565026       -15.3751
 184   2.0000      -0.562028       -15.2936
 185   2.0000      -0.561054       -15.2670
 186   2.0000      -0.560480       -15.2514
 187   2.0000      -0.555512       -15.1162
 188   2.0000      -0.553862       -15.0714
 189   2.0000      -0.552484       -15.0339
 190   2.0000      -0.551018       -14.9940
 191   2.0000      -0.550771       -14.9872
 192   2.0000      -0.548721       -14.9315
 193   2.0000      -0.545554       -14.8453
 194   2.0000      -0.542101       -14.7513
 195   2.0000      -0.540807       -14.7161
 196   2.0000      -0.539674       -14.6853
 197   2.0000      -0.536287       -14.5931
 198   2.0000      -0.535128       -14.5616
 199   2.0000      -0.532430       -14.4882
 200   2.0000      -0.531374       -14.4594
 201   2.0000      -0.529621       -14.4117
 202   2.0000      -0.529181       -14.3998
 203   2.0000      -0.528307       -14.3760
 204   2.0000      -0.525975       -14.3125
 205   2.0000      -0.524852       -14.2819
 206   2.0000      -0.522344       -14.2137
 207   2.0000      -0.522044       -14.2056
 208   2.0000      -0.521162       -14.1815
 209   2.0000      -0.515023       -14.0145
 210   2.0000      -0.514798       -14.0084
 211   2.0000      -0.510831       -13.9004
 212   2.0000      -0.508984       -13.8502
 213   2.0000      -0.506979       -13.7956
 214   2.0000      -0.505631       -13.7589
 215   2.0000      -0.503078       -13.6894
 216   2.0000      -0.498188       -13.5564
 217   2.0000      -0.497384       -13.5345
 218   2.0000      -0.494575       -13.4581
 219   2.0000      -0.493197       -13.4206
 220   2.0000      -0.492231       -13.3943
 221   2.0000      -0.488807       -13.3011
 222   2.0000      -0.487069       -13.2538
 223   2.0000      -0.485236       -13.2039
 224   2.0000      -0.480225       -13.0676
 225   2.0000      -0.479173       -13.0390
 226   2.0000      -0.477638       -12.9972
 227   2.0000      -0.476556       -12.9677
 228   2.0000      -0.474400       -12.9091
 229   2.0000      -0.471169       -12.8212
 230   2.0000      -0.470893       -12.8137
 231   2.0000      -0.468948       -12.7607
 232   2.0000      -0.466212       -12.6863
 233   2.0000      -0.464769       -12.6470
 234   2.0000      -0.461022       -12.5450
 235   2.0000      -0.459358       -12.4998
 236   2.0000      -0.457857       -12.4589
 237   2.0000      -0.455157       -12.3854
 238   2.0000      -0.453913       -12.3516
 239   2.0000      -0.451592       -12.2884
 240   2.0000      -0.448397       -12.2015
 241   2.0000      -0.446652       -12.1540
 242   2.0000      -0.445156       -12.1133
 243   2.0000      -0.442639       -12.0448
 244   2.0000      -0.441157       -12.0045
 245   2.0000      -0.440808       -11.9950
 246   2.0000      -0.438698       -11.9376
 247   2.0000      -0.438462       -11.9312
 248   2.0000      -0.437172       -11.8961
 249   2.0000      -0.434626       -11.8268
 250   2.0000      -0.433434       -11.7944
 251   2.0000      -0.431168       -11.7327
 252   2.0000      -0.429770       -11.6946
 253   2.0000      -0.425864       -11.5883
 254   2.0000      -0.420943       -11.4544
 255   2.0000      -0.420347       -11.4382
 256   2.0000      -0.417287       -11.3549
 257   2.0000      -0.416596       -11.3362
 258   2.0000      -0.405422       -11.0321
 259   2.0000      -0.400259       -10.8916
 260   2.0000      -0.399393       -10.8680
 261   2.0000      -0.398280       -10.8377
 262   2.0000      -0.393462       -10.7066
 263   2.0000      -0.388799       -10.5798
 264   2.0000      -0.384176       -10.4540
 265   2.0000      -0.375175       -10.2090
 266   2.0000      -0.365720        -9.9517
 267   2.0000      -0.361817        -9.8455
 268   2.0000      -0.358427        -9.7533
 269   2.0000      -0.358290        -9.7496
 270   2.0000      -0.358233        -9.7480
 271   2.0000      -0.349254        -9.5037
 272   2.0000      -0.342442        -9.3183
 273   2.0000      -0.329495        -8.9660
 274   2.0000      -0.328284        -8.9331
 275   2.0000      -0.326657        -8.8888
 276   2.0000      -0.324237        -8.8229
 277   2.0000      -0.319340        -8.6897
 278   2.0000      -0.313880        -8.5411
 279   2.0000      -0.312540        -8.5046
 280   2.0000      -0.303937        -8.2706
 281   2.0000      -0.301346        -8.2000
 282   2.0000      -0.247447        -6.7334
 283   0.0000      -0.141591        -3.8529
 284   0.0000      -0.117481        -3.1968
 285   0.0000      -0.093668        -2.5488
 286   0.0000      -0.082901        -2.2558
 287   0.0000      -0.070627        -1.9219

MULLIKEN ATOMIC CHARGES
-----------------------
   0 C :   -0.105109
   1 C :    0.242424
   2 F :   -0.167633
   3 C :    0.239811
   4 F :   -0.168880
   5 C :   -0.101227
   6 C :    0.113717
   7 C :    0.111608
   8 C :   -0.080732
   9 C :    0.058718
  10 C :   -0.016673
  11 C :   -0.071204
  12 C :    0.143782
  13 O :   -0.135075
  14 C :   -0.093461
  15 C :    0.304599
  16 C :   -0.327002
  17 C :   -0.198909
  18 N :    0.169620
  19 C :   -0.180600
  20 N :    0.156460
  21 C :   -0.013136
  22 C :    0.073498
  23 C :   -0.067417
  24 C :    0.107403
  25 C :   -0.118857
  26 C :    0.078906
  27 C :   -0.181331
  28 N :    0.147896
  29 C :    0.114698
  30 C :   -0.097319
  31 C :    0.044757
  32 C :   -0.028252
  33 C :   -0.089233
  34 C :   -0.186424
  35 N :    0.144963
  36 C :    0.147208
  37 N :   -0.256371
  38 C :    0.101825
  39 C :   -0.000926
  40 C :    0.158298
  41 O :   -0.192175
  42 C :   -0.065427
  43 C :   -0.053611
  44 C :    0.148548
  45 O :   -0.169431
  46 N :   -0.253325
  47 C :    0.093928
  48 C :   -0.006622
  49 C :    0.137246
  50 C :    0.009436
  51 C :   -0.003785
  52 C :    0.120707
  53 O :   -0.219601
  54 C :   -0.031108
  55 C :    0.175740
  56 O :   -0.115310
  57 N :   -0.168915
  58 C :    0.175451
  59 O :   -0.125501
  60 C :   -0.012706
  61 C :    0.087673
  62 C :    0.011515
  63 C :   -0.108539
  64 C :    0.139375
  65 O :   -0.124133
  66 C :    0.006220
  67 C :   -0.077465
  68 C :    0.111277
  69 C :    0.113473
  70 C :   -0.106699
  71 C :    0.242825
  72 C :    0.238319
  73 C :   -0.101578
  74 F :   -0.167652
  75 F :   -0.167334
  76 C :   -0.085008
  77 C :    0.048739
  78 C :    0.270530
  79 C :   -0.323991
  80 C :   -0.204627
  81 N :    0.178988
  82 C :   -0.150876
  83 N :    0.133382
  84 H :    0.010490
  85 H :    0.002561
  86 H :   -0.004123
  87 H :   -0.005569
  88 H :    0.043783
  89 H :    0.014071
  90 H :    0.003731
  91 H :    0.029115
  92 H :   -0.009603
  93 H :    0.026584
  94 H :    0.045672
  95 H :    0.020179
  96 H :    0.027967
  97 H :    0.037332
  98 H :    0.047833
  99 H :    0.024823
 100 H :    0.034434
 101 H :    0.033414
 102 H :    0.018869
 103 H :   -0.018815
 104 H :    0.041200
 105 H :    0.145438
 106 H :    0.041804
 107 H :   -0.003059
 108 H :    0.008387
 109 H :    0.003933
 110 H :   -0.002825
Sum of atomic charges:   -0.0000000

LOEWDIN ATOMIC CHARGES
----------------------
   0 C :   -0.028596
   1 C :    0.069059
   2 F :   -0.045701
   3 C :    0.069644
   4 F :   -0.046339
   5 C :   -0.031288
   6 C :   -0.007901
   7 C :   -0.004836
   8 C :    0.019802
   9 C :   -0.023101
  10 C :   -0.055371
  11 C :    0.034941
  12 C :    0.085151
  13 O :   -0.123183
  14 C :   -0.078855
  15 C :    0.070963
  16 C :   -0.125255
  17 C :   -0.024117
  18 N :   -0.037555
  19 C :   -0.017117
  20 N :   -0.043070
  21 C :    0.077108
  22 C :   -0.023027
  23 C :    0.016963
  24 C :    0.046597
  25 C :   -0.090981
  26 C :    0.080385
  27 C :   -0.032619
  28 N :   -0.052083
  29 C :    0.034713
  30 C :    0.019649
  31 C :   -0.032896
  32 C :    0.045308
  33 C :   -0.078467
  34 C :   -0.032956
  35 N :   -0.058558
  36 C :    0.073553
  37 N :    0.002711
  38 C :    0.037650
  39 C :   -0.062207
  40 C :    0.079868
  41 O :   -0.184467
  42 C :   -0.113927
  43 C :   -0.103158
  44 C :    0.082838
  45 O :   -0.166441
  46 N :    0.005652
  47 C :    0.035707
  48 C :   -0.061759
  49 C :    0.078401
  50 C :   -0.006896
  51 C :    0.007504
  52 C :    0.088076
  53 O :    0.028811
  54 C :   -0.082935
  55 C :    0.087561
  56 O :   -0.133287
  57 N :   -0.003400
  58 C :    0.084280
  59 O :   -0.141423
  60 C :   -0.054226
  61 C :    0.048589
  62 C :    0.049966
  63 C :   -0.073039
  64 C :    0.083440
  65 O :   -0.126773
  66 C :   -0.055032
  67 C :    0.034295
  68 C :   -0.008082
  69 C :   -0.004583
  70 C :   -0.030360
  71 C :    0.068955
  72 C :    0.068739
  73 C :   -0.031472
  74 F :   -0.045677
  75 F :   -0.045324
  76 C :    0.013520
  77 C :   -0.020488
  78 C :    0.071077
  79 C :   -0.133929
  80 C :   -0.028678
  81 N :   -0.048234
  82 C :   -0.012121
  83 N :   -0.050859
  84 H :    0.048704
  85 H :    0.046115
  86 H :    0.040740
  87 H :    0.042200
  88 H :    0.053912
  89 H :    0.039948
  90 H :    0.037896
  91 H :    0.041375
  92 H :    0.036846
  93 H :    0.025231
  94 H :    0.039893
  95 H :    0.020313
  96 H :    0.032844
  97 H :    0.035914
  98 H :    0.040520
  99 H :    0.019960
 100 H :    0.033813
 101 H :    0.034434
 102 H :    0.021968
 103 H :    0.035363
 104 H :    0.053315
 105 H :    0.098771
 106 H :    0.064546
 107 H :    0.042786
 108 H :    0.047795
 109 H :    0.046360
 110 H :    0.039614

  Mayer bond orders larger than 0.100000
B(  0-C ,  1-C ) :   1.4432 B(  0-C ,  5-C ) :   0.1074 B(  0-C ,  7-C ) :   1.1874
B(  0-C , 84-H ) :   1.0071 B(  1-C ,  2-F ) :   1.1393 B(  1-C ,  3-C ) :   1.1873
B(  3-C ,  4-F ) :   1.1359 B(  3-C ,  5-C ) :   1.4444 B(  5-C ,  6-C ) :   1.1924
B(  5-C , 85-H ) :   1.0074 B(  6-C ,  7-C ) :   1.2512 B(  6-C , 11-C ) :   1.1925
B(  7-C ,  8-C ) :   1.2220 B(  8-C ,  9-C ) :   1.4455 B(  8-C , 86-H ) :   0.9906
B(  9-C , 10-C ) :   1.2156 B(  9-C , 15-C ) :   0.9969 B( 10-C , 11-C ) :   1.4715
B( 10-C , 12-C ) :   0.9448 B( 11-C , 87-H ) :   1.0169 B( 12-C , 13-O ) :   2.2163
B( 12-C , 14-C ) :   0.9378 B( 14-C , 15-C ) :   1.0383 B( 14-C , 21-C ) :   1.6457
B( 15-C , 16-C ) :   1.6625 B( 16-C , 17-C ) :   1.1382 B( 16-C , 19-C ) :   1.1414
B( 17-C , 18-N ) :   2.9888 B( 19-C , 20-N ) :   2.9654 B( 21-C , 22-C ) :   1.0842
B( 21-C , 88-H ) :   0.9483 B( 22-C , 23-C ) :   1.5382 B( 22-C , 26-C ) :   1.0446
B( 23-C , 24-C ) :   1.0941 B( 23-C , 89-H ) :   1.0068 B( 24-C , 25-C ) :   1.1231
B( 24-C , 29-C ) :   1.4098 B( 25-C , 26-C ) :   1.6796 B( 25-C , 27-C ) :   1.0902
B( 26-C , 90-H ) :   1.0077 B( 27-C , 28-N ) :   2.9837 B( 29-C , 30-C ) :   1.1174
B( 29-C , 33-C ) :   1.0976 B( 30-C , 31-C ) :   1.5512 B( 30-C , 91-H ) :   0.9940
B( 31-C , 32-C ) :   1.0270 B( 31-C , 36-C ) :   1.0360 B( 32-C , 33-C ) :   1.6681
B( 32-C , 92-H ) :   1.0255 B( 33-C , 34-C ) :   1.0831 B( 34-C , 35-N ) :   2.9710
B( 36-C , 37-N ) :   1.2073 B( 36-C , 43-C ) :   1.3626 B( 37-N , 38-C ) :   0.9402
B( 37-N , 40-C ) :   1.0394 B( 38-C , 39-C ) :   1.1167 B( 38-C , 93-H ) :   0.9499
B( 38-C , 94-H ) :   0.9287 B( 39-C , 95-H ) :   0.9649 B( 39-C , 96-H ) :   0.9689
B( 39-C , 97-H ) :   0.9604 B( 40-C , 41-O ) :   2.0599 B( 40-C , 42-C ) :   0.9843
B( 42-C , 43-C ) :   1.2604 B( 42-C , 49-C ) :   1.3129 B( 43-C , 44-C ) :   0.9653
B( 44-C , 45-O ) :   2.1215 B( 44-C , 46-N ) :   1.0314 B( 46-N , 47-C ) :   0.9275
B( 46-N , 49-C ) :   1.1928 B( 47-C , 48-C ) :   1.1189 B( 47-C , 98-H ) :   0.9258
B( 47-C , 99-H ) :   0.9446 B( 48-C ,100-H ) :   0.9618 B( 48-C ,101-H ) :   0.9658
B( 48-C ,102-H ) :   0.9664 B( 49-C , 50-C ) :   1.1401 B( 50-C , 51-C ) :   1.5714
B( 50-C ,103-H ) :   0.9760 B( 51-C , 52-C ) :   1.1787 B( 51-C ,104-H ) :   0.9358
B( 52-C , 53-O ) :   1.1528 B( 52-C , 54-C ) :   1.3713 B( 53-O , 61-C ) :   1.1183
B( 54-C , 55-C ) :   0.8659 B( 54-C , 60-C ) :   1.3143 B( 55-C , 56-O ) :   2.2869
B( 55-C , 57-N ) :   1.0680 B( 57-N , 58-C ) :   1.0917 B( 57-N ,105-H ) :   0.9124
B( 58-C , 59-O ) :   2.2707 B( 58-C , 60-C ) :   0.8606 B( 60-C , 61-C ) :   1.4190
B( 61-C , 62-C ) :   1.1547 B( 62-C , 63-C ) :   1.6167 B( 62-C ,106-H ) :   0.9403
B( 63-C , 64-C ) :   0.9243 B( 63-C , 78-C ) :   1.0301 B( 64-C , 65-O ) :   2.2877
B( 64-C , 66-C ) :   0.9177 B( 66-C , 67-C ) :   1.4780 B( 66-C , 77-C ) :   1.2173
B( 67-C , 68-C ) :   1.1984 B( 67-C ,107-H ) :   1.0152 B( 68-C , 69-C ) :   1.2533
B( 68-C , 73-C ) :   1.1952 B( 69-C , 70-C ) :   1.1912 B( 69-C , 76-C ) :   1.2197
B( 70-C , 71-C ) :   1.4439 B( 70-C , 73-C ) :   0.1075 B( 70-C ,108-H ) :   1.0052
B( 71-C , 72-C ) :   1.1881 B( 71-C , 75-F ) :   1.1396 B( 72-C , 73-C ) :   1.4452
B( 72-C , 74-F ) :   1.1385 B( 73-C ,109-H ) :   1.0055 B( 76-C , 77-C ) :   1.4541
B( 76-C ,110-H ) :   0.9921 B( 77-C , 78-C ) :   1.0089 B( 78-C , 79-C ) :   1.6585
B( 79-C , 80-C ) :   1.1688 B( 79-C , 82-C ) :   1.1468 B( 80-C , 81-N ) :   2.9632
B( 82-C , 83-N ) :   2.8843

-----------------------------------------------------------------------------
         ABSORPTION SPECTRUM VIA TRANSITION ELECTRIC DIPOLE MOMENTS
-----------------------------------------------------------------------------
State   Energy  Wavelength   fosc         T2         TX        TY        TZ
        (cm-1)    (nm)                  (au**2)     (au)      (au)      (au)
-----------------------------------------------------------------------------
   0    8192.3   1220.7   0.495901440  19.92800  -0.49166   4.42954  -0.25588
   1   14238.4    702.3   0.248560876   5.74708  -0.08587  -1.71032   1.67765
   2   16877.4    592.5   0.038434486   0.74971  -0.39354   0.64606   0.42124
   3   19434.1    514.6   0.068540885   1.16108  -0.30014  -1.00597   0.24294
   4   20164.8    495.9   0.062213570   1.01570  -0.40508  -0.91478  -0.12161
   5   21904.9    456.5   0.272894469   4.10137  -0.27605   1.78451  -0.91689
   6   22272.3    449.0   0.343734852   5.08083   0.48763  -1.89948  -1.11132
   7   22799.7    438.6   0.015333886   0.22141   0.04864  -0.01521   0.46777
   8   22885.0    437.0   0.008941528   0.12863  -0.00617  -0.28442   0.21839
   9   24125.5    414.5   0.189557490   2.58666  -0.97640   1.10641   0.63964
  10   24205.6    413.1   0.001527725   0.02078   0.02057  -0.06719  -0.12586
  11   25051.5    399.2   0.085303652   1.12101  -0.62895   0.54611  -0.65360
  12   25646.7    389.9   0.156699201   2.01146   0.36222   0.78766   1.12243
  13   26194.8    381.8   0.050148553   0.63026  -0.37834   0.61936  -0.32172
  14   26263.9    380.8   0.051606457   0.64688  -0.74094   0.30645   0.06303
  15   26966.4    370.8   0.050323082   0.61436   0.36233  -0.64788   0.25165
  16   27702.2    361.0   0.236027337   2.80494  -0.39599   1.51309   0.59890
  17   27915.5    358.2   0.301945254   3.56089   0.53679  -1.75635  -0.43356
  18   28259.2    353.9   0.039935337   0.46524  -0.55683   0.32435  -0.22355
  19   28451.3    351.5   0.180372810   2.08711  -1.01159   0.89687   0.50933
  20   28733.4    348.0   0.007595532   0.08703  -0.20804   0.00826   0.20899
  21   29380.7    340.4   0.003719393   0.04168  -0.18800   0.02321  -0.07610
  22   30048.0    332.8   0.046013919   0.50414   0.63345   0.14316   0.28703
  23   30544.0    327.4   0.105073068   1.13251  -0.19373   0.46764  -0.93610
  24   31086.4    321.7   0.373453058   3.95496   1.68586  -0.96768  -0.42004
  25   31328.1    319.2   0.150358027   1.58004   0.06405   1.14884   0.50608
  26   31393.4    318.5   0.036350000   0.38119   0.50478  -0.18332   0.30461
  27   31660.6    315.8   0.035132664   0.36531  -0.45550  -0.05083  -0.39401
  28   31858.3    313.9   0.041336831   0.42716  -0.15804   0.49337   0.39846
  29   32236.2    310.2   0.001625843   0.01660   0.03190   0.11384   0.05126
  30   32288.5    309.7   0.098916494   1.00855  -0.38845   0.87050   0.31606
  31   32461.3    308.1   0.285715844   2.89763   1.00123  -1.26703   0.53835
  32   32637.1    306.4   0.032953607   0.33240  -0.25110   0.02191  -0.51853
  33   32943.6    303.5   0.124972279   1.24887  -0.98528   0.51779   0.10000
  34   32986.1    303.2   0.061637563   0.61516  -0.52063  -0.42162  -0.40786
  35   33435.6    299.1   0.020282933   0.19971   0.38705   0.19396   0.11083
  36   33519.3    298.3   0.085408093   0.83884  -0.58274   0.56198  -0.42830
  37   33794.3    295.9   0.039261216   0.38247   0.15514   0.11307   0.58789
  38   34086.8    293.4   0.145000339   1.40042   0.55797  -0.62620   0.83484
  39   34369.2    291.0   0.129419368   1.23967   0.83031  -0.19118   0.71674
  40   34434.1    290.4   0.342623893   3.27570  -1.31886   0.31942  -1.19762
  41   34506.8    289.8   0.030445688   0.29047   0.32650  -0.06683   0.42355
  42   34941.0    286.2   0.054785614   0.51619   0.53376   0.37184   0.30499
  43   35309.8    283.2   0.413216644   3.85264   0.19788   1.09218   1.61884
  44   35543.4    281.3   0.279463852   2.58847  -1.58159   0.11541  -0.27151
  45   35623.9    280.7   0.234110630   2.16349  -1.47082  -0.00312   0.01276
  46   35744.6    279.8   0.262095758   2.41393  -1.37520  -0.60215  -0.40023
  47   36032.9    277.5   0.009474821   0.08657  -0.01808  -0.21654  -0.19837
  48   36595.0    273.3   0.056117239   0.50484   0.42828  -0.56486   0.04844
  49   36677.3    272.6   0.101311903   0.90937  -0.66286  -0.68345  -0.05371
  50   36774.3    271.9   0.015059959   0.13482   0.06266   0.09947  -0.34785
  51   36954.7    270.6   0.104750042   0.93317   0.05151  -0.94525  -0.19241
  52   37355.4    267.7   0.024470874   0.21566  -0.00444   0.23987  -0.39762
  53   37515.8    266.6   0.007916583   0.06947   0.09334   0.20135   0.14219
  54   38238.1    261.5   0.013893450   0.11962   0.02118   0.19418   0.28542
  55   38265.4    261.3   0.018989871   0.16338   0.38387  -0.10511  -0.07051
  56   38678.2    258.5   0.036007792   0.30648   0.01056   0.53520   0.14117
  57   38750.7    258.1   0.110674241   0.94025  -0.29419  -0.84503  -0.37366
  58   38783.6    257.8   0.034427444   0.29223   0.32176   0.33719   0.27387
  59   38900.9    257.1   0.016803966   0.14221   0.19030  -0.30579   0.11174
  60   39010.4    256.3   0.238269775   2.01078   0.23735  -1.37287  -0.26393
  61   39074.9    255.9   0.046652579   0.39305   0.16556  -0.60023   0.07324
  62   39246.3    254.8   0.056525853   0.47416  -0.06921  -0.51375  -0.45324
  63   39943.6    250.4   0.027788032   0.22903  -0.33855   0.33811  -0.00964
  64   40115.6    249.3   0.022797430   0.18709  -0.25363  -0.07986  -0.34115

FINAL SINGLE POINT ENERGY     -3868.900795132925

DIPOLE MOMENT
-------------
                                X             Y             Z
Electronic contribution:    -10.50839      13.28653      27.89330
Nuclear contribution   :     10.49115     -15.05824     -28.14314
                        -----------------------------------------
Total Dipole Moment    :     -0.01724      -1.77171      -0.24984
                        -----------------------------------------
Magnitude (a.u.)       :      1.78932
Magnitude (Debye)      :      4.54810

Rotational constants in cm-1:     0.001157     0.000193     0.000185
Rotational constants in MHz :    34.674891     5.794329     5.541603

                             ****ORCA TERMINATED NORMALLY****
TOTAL RUN TIME: 0 days 0 hours 12 minutes 50 seconds 260 msec
