                         Program Version 4.2.0 -  RELEASE  -
|  1> # ORCA input file
|  2> # SCF done       -210.932350144744          0.000671360562
|  3> ! CAM-B3LYP def2-SVP def2/J RIJCOSX Grid4 TightSCF
|  4> %maxcore 5000
|  5> %tddft
|  6>     Mode sTDDFT
|  7>     Ethresh 5.0
|  8>     maxcore 5000
|  9> end
| 10>
| 11> %pal
| 12>   nprocs 6
| 13>   end
| 14> * xyz 0 1
| 15>    C       -9.98268         1.42590        -0.35578
| 16>    C      -11.03536         1.60062        -1.20985
| 17>    F      -11.58963         2.81023        -1.35676
| 18>    C      -11.55053         0.51386        -1.94511
| 19>    F      -12.58202         0.71416        -2.77551
| 20>    C      -11.00679        -0.73336        -1.81459
| 21>    C       -9.92241        -0.94560        -0.94130
| 22>    C       -9.39879         0.15274        -0.19943
| 23>    C       -8.30882        -0.03489         0.68121
| 24>    C       -7.76103        -1.28314         0.81904
| 25>    C       -8.29694        -2.37505         0.08080
| 26>    C       -9.34498        -2.22458        -0.78118
| 27>    C       -7.55518        -3.60042         0.42268
| 28>    O       -7.74509        -4.71028        -0.04090
| 29>    C       -6.55648        -3.20748         1.42888
| 30>    C       -6.65402        -1.77259         1.63765
| 31>    C       -5.85399        -0.98985         2.42739
| 32>    C       -4.75743        -1.43523         3.19653
| 33>    N       -3.84921        -1.71068         3.84287
| 34>    C       -6.00873         0.40633         2.56855
| 35>    N       -6.07770         1.54067         2.72893
| 36>    C       -5.71355        -4.05605         2.09585
| 37>    C       -5.56087        -5.45137         1.99944
| 38>    S       -6.39299        -6.53624         0.91558
| 39>    C       -5.57071        -7.91249         1.58074
| 40>    C       -4.68331        -7.53602         2.60579
| 41>    C       -4.68671        -6.15963         2.81807
| 42>    C       -3.83733        -8.44310         3.38645
| 43>    O       -3.07055        -8.07119         4.23900
| 44>    C       -5.82242        -9.22185         1.11999
| 45>    C       -6.66786        -9.51807         0.09301
| 46>    C       -6.92128       -10.84726        -0.31148
| 47>    N       -7.74125       -11.19326        -1.36120
| 48>    C       -8.38656       -10.28651        -2.27993
| 49>    C       -7.40249        -9.71569        -3.29772
| 50>    C       -7.84671       -12.58546        -1.51223
| 51>    O       -8.51178       -13.12333        -2.37517
| 52>    C       -7.02440       -13.12257        -0.44999
| 53>    C       -6.46183       -12.03687         0.25977
| 54>    C       -5.64956       -12.57808         1.32838
| 55>    O       -4.95863       -12.04193         2.17411
| 56>    N       -5.78772       -13.96768         1.20323
| 57>    C       -5.11666       -14.87105         2.10849
| 58>    C       -6.04229       -15.40479         3.19891
| 59>    C       -6.60970       -14.31020         0.15394
| 60>    C       -6.95353       -15.64199        -0.16392
| 61>    C       -7.75306       -15.99079        -1.20737
| 62>    C       -8.14387       -17.33081        -1.44208
| 63>    S       -7.68056       -18.60295        -0.34437
| 64>    C       -8.59354       -19.79670        -1.21577
| 65>    C       -9.19274       -19.21177        -2.34378
| 66>    C       -8.94600       -17.83506        -2.44570
| 67>    C      -10.03122       -19.91444        -3.31333
| 68>    O      -10.54591       -19.39099        -4.26786
| 69>    C       -8.64393       -21.15538        -0.81858
| 70>    C       -8.33463       -21.69013         0.40146
| 71>    C       -8.09597       -20.91775         1.55810
| 72>    C       -7.51403       -21.19080         2.76288
| 73>    C       -7.17351       -19.99687         3.59133
| 74>    O       -7.53580       -18.85811         3.38982
| 75>    C       -6.24936       -20.47852         4.62918
| 76>    C       -5.59041       -19.76216         5.58665
| 77>    C       -4.71151       -20.43479         6.46346
| 78>    C       -4.52458       -21.83998         6.31758
| 79>    C       -3.63933       -22.50650         7.18843
| 80>    C       -2.97540       -21.81151         8.16022
| 81>    C       -3.16336       -20.42179         8.30474
| 82>    C       -4.01288       -19.74620         7.47420
| 83>    F       -2.49917       -19.76680         9.26518
| 84>    F       -2.13650       -22.44653         8.98760
| 85>    C       -5.22400       -22.55421         5.31735
| 86>    C       -6.08632       -21.88556         4.48936
| 87>    C       -6.96173       -22.35910         3.41353
| 88>    C       -7.30113       -23.67367         3.22581
| 89>    C       -8.31314       -24.14297         2.36626
| 90>    N       -9.14665       -24.58867         1.71428
| 91>    C       -6.73718       -24.74578         3.95103
| 92>    N       -6.31127       -25.66329         4.49342
| 93>    H       -9.59989         2.26836         0.19883
| 94>    H      -11.41333        -1.55453        -2.38389
| 95>    H       -7.93858         0.81696         1.22771
| 96>    H       -9.72998        -3.07031        -1.33034
| 97>    H       -5.06224        -3.61585         2.84137
| 98>    H       -4.06691        -5.68788         3.56099
| 99>    H       -3.94905        -9.51318         3.14423
|100>    H       -5.31264       -10.03160         1.62381
|101>    H       -7.17322        -8.71567        -0.42655
|102>    H       -8.87532        -9.48416        -1.72042
|103>    H       -9.15096       -10.87406        -2.79598
|104>    H       -6.61317        -9.15286        -2.80447
|105>    H       -7.92567        -9.05562        -3.98361
|106>    H       -6.94901       -10.52194        -3.86916
|107>    H       -4.31353       -14.28790         2.56869
|108>    H       -4.67285       -15.69251         1.53885
|109>    H       -6.47964       -14.57765         3.75245
|110>    H       -5.46879       -16.01825         3.88804
|111>    H       -6.84429       -16.01291         2.78813
|112>    H       -6.57186       -16.42142         0.48230
|113>    H       -8.14078       -15.23629        -1.87951
|114>    H       -9.35389       -17.23264        -3.23771
|115>    H      -10.17005       -20.99269        -3.11195
|116>    H       -8.94313       -21.84962        -1.59319
|117>    H       -8.31751       -22.76608         0.47093
|118>    H       -8.38272       -19.87193         1.49081
|119>    H       -5.74190       -18.69713         5.67559
|120>    H       -3.48641       -23.57029         7.09473
|121>    H       -4.14617       -18.68284         7.59770
|122>    H       -5.05131       -23.61449         5.23009
|123> *
|124>
|125>                          ****END OF INPUT****

CARTESIAN COORDINATES (ANGSTROEM)
---------------------------------
  C     -9.982680    1.425900   -0.355780
  C    -11.035360    1.600620   -1.209850
  F    -11.589630    2.810230   -1.356760
  C    -11.550530    0.513860   -1.945110
  F    -12.582020    0.714160   -2.775510
  C    -11.006790   -0.733360   -1.814590
  C     -9.922410   -0.945600   -0.941300
  C     -9.398790    0.152740   -0.199430
  C     -8.308820   -0.034890    0.681210
  C     -7.761030   -1.283140    0.819040
  C     -8.296940   -2.375050    0.080800
  C     -9.344980   -2.224580   -0.781180
  C     -7.555180   -3.600420    0.422680
  O     -7.745090   -4.710280   -0.040900
  C     -6.556480   -3.207480    1.428880
  C     -6.654020   -1.772590    1.637650
  C     -5.853990   -0.989850    2.427390
  C     -4.757430   -1.435230    3.196530
  N     -3.849210   -1.710680    3.842870
  C     -6.008730    0.406330    2.568550
  N     -6.077700    1.540670    2.728930
  C     -5.713550   -4.056050    2.095850
  C     -5.560870   -5.451370    1.999440
  S     -6.392990   -6.536240    0.915580
  C     -5.570710   -7.912490    1.580740
  C     -4.683310   -7.536020    2.605790
  C     -4.686710   -6.159630    2.818070
  C     -3.837330   -8.443100    3.386450
  O     -3.070550   -8.071190    4.239000
  C     -5.822420   -9.221850    1.119990
  C     -6.667860   -9.518070    0.093010
  C     -6.921280  -10.847260   -0.311480
  N     -7.741250  -11.193260   -1.361200
  C     -8.386560  -10.286510   -2.279930
  C     -7.402490   -9.715690   -3.297720
  C     -7.846710  -12.585460   -1.512230
  O     -8.511780  -13.123330   -2.375170
  C     -7.024400  -13.122570   -0.449990
  C     -6.461830  -12.036870    0.259770
  C     -5.649560  -12.578080    1.328380
  O     -4.958630  -12.041930    2.174110
  N     -5.787720  -13.967680    1.203230
  C     -5.116660  -14.871050    2.108490
  C     -6.042290  -15.404790    3.198910
  C     -6.609700  -14.310200    0.153940
  C     -6.953530  -15.641990   -0.163920
  C     -7.753060  -15.990790   -1.207370
  C     -8.143870  -17.330810   -1.442080
  S     -7.680560  -18.602950   -0.344370
  C     -8.593540  -19.796700   -1.215770
  C     -9.192740  -19.211770   -2.343780
  C     -8.946000  -17.835060   -2.445700
  C    -10.031220  -19.914440   -3.313330
  O    -10.545910  -19.390990   -4.267860
  C     -8.643930  -21.155380   -0.818580
  C     -8.334630  -21.690130    0.401460
  C     -8.095970  -20.917750    1.558100
  C     -7.514030  -21.190800    2.762880
  C     -7.173510  -19.996870    3.591330
  O     -7.535800  -18.858110    3.389820
  C     -6.249360  -20.478520    4.629180
  C     -5.590410  -19.762160    5.586650
  C     -4.711510  -20.434790    6.463460
  C     -4.524580  -21.839980    6.317580
  C     -3.639330  -22.506500    7.188430
  C     -2.975400  -21.811510    8.160220
  C     -3.163360  -20.421790    8.304740
  C     -4.012880  -19.746200    7.474200
  F     -2.499170  -19.766800    9.265180
  F     -2.136500  -22.446530    8.987600
  C     -5.224000  -22.554210    5.317350
  C     -6.086320  -21.885560    4.489360
  C     -6.961730  -22.359100    3.413530
  C     -7.301130  -23.673670    3.225810
  C     -8.313140  -24.142970    2.366260
  N     -9.146650  -24.588670    1.714280
  C     -6.737180  -24.745780    3.951030
  N     -6.311270  -25.663290    4.493420
  H     -9.599890    2.268360    0.198830
  H    -11.413330   -1.554530   -2.383890
  H     -7.938580    0.816960    1.227710
  H     -9.729980   -3.070310   -1.330340
  H     -5.062240   -3.615850    2.841370
  H     -4.066910   -5.687880    3.560990
  H     -3.949050   -9.513180    3.144230
  H     -5.312640  -10.031600    1.623810
  H     -7.173220   -8.715670   -0.426550
  H     -8.875320   -9.484160   -1.720420
  H     -9.150960  -10.874060   -2.795980
  H     -6.613170   -9.152860   -2.804470
  H     -7.925670   -9.055620   -3.983610
  H     -6.949010  -10.521940   -3.869160
  H     -4.313530  -14.287900    2.568690
  H     -4.672850  -15.692510    1.538850
  H     -6.479640  -14.577650    3.752450
  H     -5.468790  -16.018250    3.888040
  H     -6.844290  -16.012910    2.788130
  H     -6.571860  -16.421420    0.482300
  H     -8.140780  -15.236290   -1.879510
  H     -9.353890  -17.232640   -3.237710
  H    -10.170050  -20.992690   -3.111950
  H     -8.943130  -21.849620   -1.593190
  H     -8.317510  -22.766080    0.470930
  H     -8.382720  -19.871930    1.490810
  H     -5.741900  -18.697130    5.675590
  H     -3.486410  -23.570290    7.094730
  H     -4.146170  -18.682840    7.597700
  H     -5.051310  -23.614490    5.230090

 Total Charge           Charge          ....    0
 Multiplicity           Mult            ....    1
 Number of Electrons    NEL             ....  548
 Basis Dimension        Dim             .... 1250

ORBITAL ENERGIES
----------------

  NO   OCC          E(Eh)            E(eV)
   0   2.0000     -88.987640     -2421.4768
   1   2.0000     -88.976954     -2421.1860
   2   2.0000     -24.805240      -674.9849
   3   2.0000     -24.804487      -674.9644
   4   2.0000     -24.803310      -674.9324
   5   2.0000     -24.802230      -674.9030
   6   2.0000     -19.231279      -523.3097
   7   2.0000     -19.229866      -523.2713
   8   2.0000     -19.226533      -523.1806
   9   2.0000     -19.213251      -522.8192
  10   2.0000     -19.205541      -522.6093
  11   2.0000     -19.201393      -522.4965
  12   2.0000     -14.465374      -393.6228
  13   2.0000     -14.464057      -393.5870
  14   2.0000     -14.428499      -392.6194
  15   2.0000     -14.427500      -392.5922
  16   2.0000     -14.423210      -392.4755
  17   2.0000     -14.420778      -392.4093
  18   2.0000     -10.389304      -282.7073
  19   2.0000     -10.388725      -282.6916
  20   2.0000     -10.387016      -282.6451
  21   2.0000     -10.386893      -282.6417
  22   2.0000     -10.385990      -282.6172
  23   2.0000     -10.384278      -282.5706
  24   2.0000     -10.379938      -282.4525
  25   2.0000     -10.378900      -282.4242
  26   2.0000     -10.372447      -282.2486
  27   2.0000     -10.358102      -281.8583
  28   2.0000     -10.357544      -281.8431
  29   2.0000     -10.355503      -281.7876
  30   2.0000     -10.350711      -281.6572
  31   2.0000     -10.349870      -281.6343
  32   2.0000     -10.349604      -281.6271
  33   2.0000     -10.348783      -281.6047
  34   2.0000     -10.344067      -281.4764
  35   2.0000     -10.332994      -281.1751
  36   2.0000     -10.330900      -281.1181
  37   2.0000     -10.330504      -281.1073
  38   2.0000     -10.329628      -281.0835
  39   2.0000     -10.329597      -281.0826
  40   2.0000     -10.328832      -281.0618
  41   2.0000     -10.327883      -281.0360
  42   2.0000     -10.325628      -280.9746
  43   2.0000     -10.325469      -280.9703
  44   2.0000     -10.323611      -280.9197
  45   2.0000     -10.319515      -280.8083
  46   2.0000     -10.319224      -280.8003
  47   2.0000     -10.318288      -280.7749
  48   2.0000     -10.317212      -280.7456
  49   2.0000     -10.317185      -280.7449
  50   2.0000     -10.316405      -280.7237
  51   2.0000     -10.316011      -280.7129
  52   2.0000     -10.313678      -280.6495
  53   2.0000     -10.313263      -280.6381
  54   2.0000     -10.313099      -280.6337
  55   2.0000     -10.311619      -280.5934
  56   2.0000     -10.310123      -280.5527
  57   2.0000     -10.309628      -280.5392
  58   2.0000     -10.309174      -280.5269
  59   2.0000     -10.308811      -280.5170
  60   2.0000     -10.308363      -280.5048
  61   2.0000     -10.308141      -280.4988
  62   2.0000     -10.308118      -280.4981
  63   2.0000     -10.308062      -280.4966
  64   2.0000     -10.308042      -280.4961
  65   2.0000     -10.306671      -280.4588
  66   2.0000     -10.306166      -280.4450
  67   2.0000     -10.305566      -280.4287
  68   2.0000     -10.305434      -280.4251
  69   2.0000     -10.304233      -280.3924
  70   2.0000     -10.303780      -280.3801
  71   2.0000     -10.303315      -280.3675
  72   2.0000     -10.300199      -280.2827
  73   2.0000     -10.294752      -280.1345
  74   2.0000     -10.274806      -279.5917
  75   2.0000     -10.272962      -279.5415
  76   2.0000     -10.271825      -279.5106
  77   2.0000     -10.268636      -279.4238
  78   2.0000      -8.082749      -219.9428
  79   2.0000      -8.070432      -219.6076
  80   2.0000      -6.051809      -164.6781
  81   2.0000      -6.047725      -164.5670
  82   2.0000      -6.045218      -164.4988
  83   2.0000      -6.039748      -164.3499
  84   2.0000      -6.035259      -164.2277
  85   2.0000      -6.032810      -164.1611
  86   2.0000      -1.328126       -36.1402
  87   2.0000      -1.325937       -36.0806
  88   2.0000      -1.313226       -35.7347
  89   2.0000      -1.311028       -35.6749
  90   2.0000      -1.146681       -31.2028
  91   2.0000      -1.145815       -31.1792
  92   2.0000      -1.144298       -31.1379
  93   2.0000      -1.139860       -31.0172
  94   2.0000      -1.138596       -30.9828
  95   2.0000      -1.126259       -30.6471
  96   2.0000      -1.075753       -29.2727
  97   2.0000      -1.067214       -29.0404
  98   2.0000      -1.031276       -28.0624
  99   2.0000      -1.026687       -27.9376
 100   2.0000      -1.018041       -27.7023
 101   2.0000      -1.014763       -27.6131
 102   2.0000      -1.010857       -27.5068
 103   2.0000      -1.007995       -27.4289
 104   2.0000      -1.006255       -27.3816
 105   2.0000      -1.000430       -27.2231
 106   2.0000      -0.991083       -26.9687
 107   2.0000      -0.987719       -26.8772
 108   2.0000      -0.950116       -25.8540
 109   2.0000      -0.942176       -25.6379
 110   2.0000      -0.939713       -25.5709
 111   2.0000      -0.937296       -25.5051
 112   2.0000      -0.928724       -25.2719
 113   2.0000      -0.923075       -25.1181
 114   2.0000      -0.910218       -24.7683
 115   2.0000      -0.907244       -24.6874
 116   2.0000      -0.901251       -24.5243
 117   2.0000      -0.898855       -24.4591
 118   2.0000      -0.891022       -24.2459
 119   2.0000      -0.883169       -24.0322
 120   2.0000      -0.876222       -23.8432
 121   2.0000      -0.869157       -23.6510
 122   2.0000      -0.859617       -23.3914
 123   2.0000      -0.851447       -23.1690
 124   2.0000      -0.849931       -23.1278
 125   2.0000      -0.846410       -23.0320
 126   2.0000      -0.845315       -23.0022
 127   2.0000      -0.829554       -22.5733
 128   2.0000      -0.818351       -22.2685
 129   2.0000      -0.812350       -22.1052
 130   2.0000      -0.795347       -21.6425
 131   2.0000      -0.782066       -21.2811
 132   2.0000      -0.777842       -21.1662
 133   2.0000      -0.775423       -21.1003
 134   2.0000      -0.769535       -20.9401
 135   2.0000      -0.755710       -20.5639
 136   2.0000      -0.748061       -20.3558
 137   2.0000      -0.738125       -20.0854
 138   2.0000      -0.734770       -19.9941
 139   2.0000      -0.727985       -19.8095
 140   2.0000      -0.727904       -19.8073
 141   2.0000      -0.723202       -19.6793
 142   2.0000      -0.717017       -19.5110
 143   2.0000      -0.715608       -19.4727
 144   2.0000      -0.710520       -19.3342
 145   2.0000      -0.701070       -19.0771
 146   2.0000      -0.695388       -18.9225
 147   2.0000      -0.693939       -18.8830
 148   2.0000      -0.679102       -18.4793
 149   2.0000      -0.675878       -18.3916
 150   2.0000      -0.666571       -18.1383
 151   2.0000      -0.664810       -18.0904
 152   2.0000      -0.662882       -18.0379
 153   2.0000      -0.661703       -18.0059
 154   2.0000      -0.655527       -17.8378
 155   2.0000      -0.652830       -17.7644
 156   2.0000      -0.651307       -17.7230
 157   2.0000      -0.647430       -17.6175
 158   2.0000      -0.644550       -17.5391
 159   2.0000      -0.637125       -17.3370
 160   2.0000      -0.627249       -17.0683
 161   2.0000      -0.625573       -17.0227
 162   2.0000      -0.620011       -16.8714
 163   2.0000      -0.616650       -16.7799
 164   2.0000      -0.608857       -16.5678
 165   2.0000      -0.603626       -16.4255
 166   2.0000      -0.600694       -16.3457
 167   2.0000      -0.598277       -16.2799
 168   2.0000      -0.593781       -16.1576
 169   2.0000      -0.592638       -16.1265
 170   2.0000      -0.590714       -16.0741
 171   2.0000      -0.590393       -16.0654
 172   2.0000      -0.584773       -15.9125
 173   2.0000      -0.583323       -15.8730
 174   2.0000      -0.579331       -15.7644
 175   2.0000      -0.576084       -15.6760
 176   2.0000      -0.573546       -15.6070
 177   2.0000      -0.565934       -15.3998
 178   2.0000      -0.564193       -15.3525
 179   2.0000      -0.562915       -15.3177
 180   2.0000      -0.558790       -15.2054
 181   2.0000      -0.553993       -15.0749
 182   2.0000      -0.553445       -15.0600
 183   2.0000      -0.551885       -15.0176
 184   2.0000      -0.549519       -14.9532
 185   2.0000      -0.549324       -14.9479
 186   2.0000      -0.549178       -14.9439
 187   2.0000      -0.542397       -14.7594
 188   2.0000      -0.541224       -14.7275
 189   2.0000      -0.540282       -14.7018
 190   2.0000      -0.540022       -14.6948
 191   2.0000      -0.539636       -14.6843
 192   2.0000      -0.537289       -14.6204
 193   2.0000      -0.536489       -14.5986
 194   2.0000      -0.532913       -14.5013
 195   2.0000      -0.527235       -14.3468
 196   2.0000      -0.526062       -14.3149
 197   2.0000      -0.525013       -14.2863
 198   2.0000      -0.523976       -14.2581
 199   2.0000      -0.522460       -14.2169
 200   2.0000      -0.520311       -14.1584
 201   2.0000      -0.518559       -14.1107
 202   2.0000      -0.518369       -14.1055
 203   2.0000      -0.515506       -14.0276
 204   2.0000      -0.514155       -13.9909
 205   2.0000      -0.510402       -13.8887
 206   2.0000      -0.509811       -13.8727
 207   2.0000      -0.509326       -13.8595
 208   2.0000      -0.504651       -13.7323
 209   2.0000      -0.502397       -13.6709
 210   2.0000      -0.498143       -13.5552
 211   2.0000      -0.495864       -13.4931
 212   2.0000      -0.494284       -13.4502
 213   2.0000      -0.493577       -13.4309
 214   2.0000      -0.485035       -13.1985
 215   2.0000      -0.482769       -13.1368
 216   2.0000      -0.480855       -13.0847
 217   2.0000      -0.479996       -13.0613
 218   2.0000      -0.476753       -12.9731
 219   2.0000      -0.475738       -12.9455
 220   2.0000      -0.475532       -12.9399
 221   2.0000      -0.473724       -12.8907
 222   2.0000      -0.472650       -12.8615
 223   2.0000      -0.469758       -12.7828
 224   2.0000      -0.468545       -12.7498
 225   2.0000      -0.466439       -12.6924
 226   2.0000      -0.465824       -12.6757
 227   2.0000      -0.462987       -12.5985
 228   2.0000      -0.461350       -12.5540
 229   2.0000      -0.457953       -12.4615
 230   2.0000      -0.456358       -12.4181
 231   2.0000      -0.454892       -12.3782
 232   2.0000      -0.454175       -12.3587
 233   2.0000      -0.452169       -12.3041
 234   2.0000      -0.450839       -12.2680
 235   2.0000      -0.449975       -12.2444
 236   2.0000      -0.449314       -12.2265
 237   2.0000      -0.443659       -12.0726
 238   2.0000      -0.439798       -11.9675
 239   2.0000      -0.439155       -11.9500
 240   2.0000      -0.437041       -11.8925
 241   2.0000      -0.436244       -11.8708
 242   2.0000      -0.435606       -11.8535
 243   2.0000      -0.433561       -11.7978
 244   2.0000      -0.432967       -11.7816
 245   2.0000      -0.431817       -11.7503
 246   2.0000      -0.424460       -11.5501
 247   2.0000      -0.420503       -11.4425
 248   2.0000      -0.418945       -11.4001
 249   2.0000      -0.417347       -11.3566
 250   2.0000      -0.412486       -11.2243
 251   2.0000      -0.405419       -11.0320
 252   2.0000      -0.396218       -10.7816
 253   2.0000      -0.394387       -10.7318
 254   2.0000      -0.385401       -10.4873
 255   2.0000      -0.376824       -10.2539
 256   2.0000      -0.361065        -9.8251
 257   2.0000      -0.355583        -9.6759
 258   2.0000      -0.351679        -9.5697
 259   2.0000      -0.349832        -9.5194
 260   2.0000      -0.348866        -9.4931
 261   2.0000      -0.345992        -9.4149
 262   2.0000      -0.343926        -9.3587
 263   2.0000      -0.340958        -9.2779
 264   2.0000      -0.337808        -9.1922
 265   2.0000      -0.329142        -8.9564
 266   2.0000      -0.327241        -8.9047
 267   2.0000      -0.326659        -8.8888
 268   2.0000      -0.323958        -8.8154
 269   2.0000      -0.311128        -8.4662
 270   2.0000      -0.309413        -8.4196
 271   2.0000      -0.297582        -8.0976
 272   2.0000      -0.290708        -7.9106
 273   2.0000      -0.243402        -6.6233
 274   0.0000      -0.124336        -3.3834
 275   0.0000      -0.110236        -2.9997
 276   0.0000      -0.085081        -2.3152
 277   0.0000      -0.072295        -1.9672
 278   0.0000      -0.067434        -1.8350

MULLIKEN ATOMIC CHARGES
-----------------------
   0 C :   -0.106428
   1 C :    0.243748
   2 F :   -0.169097
   3 C :    0.239311
   4 F :   -0.170601
   5 C :   -0.105578
   6 C :    0.115931
   7 C :    0.112192
   8 C :   -0.080849
   9 C :    0.046126
  10 C :   -0.003390
  11 C :   -0.078845
  12 C :    0.167025
  13 O :   -0.176084
  14 C :   -0.092378
  15 C :    0.328918
  16 C :   -0.346883
  17 C :   -0.192648
  18 N :    0.154427
  19 C :   -0.182229
  20 N :    0.150312
  21 C :   -0.007478
  22 C :   -0.040946
  23 S :    0.178896
  24 C :   -0.034214
  25 C :    0.025352
  26 C :   -0.008743
  27 C :    0.142208
  28 O :   -0.176775
  29 C :   -0.004951
  30 C :   -0.021749
  31 C :    0.134326
  32 N :   -0.256767
  33 C :    0.097878
  34 C :    0.000864
  35 C :    0.161159
  36 O :   -0.206832
  37 C :   -0.069319
  38 C :   -0.062582
  39 C :    0.166504
  40 O :   -0.212808
  41 N :   -0.253871
  42 C :    0.096607
  43 C :    0.004075
  44 C :    0.149127
  45 C :   -0.045912
  46 C :    0.046420
  47 C :   -0.034909
  48 S :    0.125034
  49 C :   -0.076633
  50 C :    0.042716
  51 C :   -0.005741
  52 C :    0.146018
  53 O :   -0.166477
  54 C :    0.015686
  55 C :    0.023651
  56 C :   -0.002499
  57 C :   -0.103681
  58 C :    0.133975
  59 O :   -0.152678
  60 C :    0.014969
  61 C :   -0.082676
  62 C :    0.116658
  63 C :    0.110948
  64 C :   -0.107169
  65 C :    0.242277
  66 C :    0.239399
  67 C :   -0.103745
  68 F :   -0.169087
  69 F :   -0.167991
  70 C :   -0.080640
  71 C :    0.032094
  72 C :    0.302810
  73 C :   -0.328684
  74 C :   -0.186226
  75 N :    0.158353
  76 C :   -0.178462
  77 N :    0.155907
  78 H :    0.009092
  79 H :   -0.001035
  80 H :   -0.006208
  81 H :   -0.012335
  82 H :    0.017741
  83 H :    0.021622
  84 H :    0.010367
  85 H :    0.018534
  86 H :   -0.005576
  87 H :    0.027500
  88 H :    0.045638
  89 H :    0.018759
  90 H :    0.026918
  91 H :    0.029990
  92 H :    0.042575
  93 H :    0.023477
  94 H :    0.026077
  95 H :    0.018680
  96 H :    0.030527
  97 H :   -0.003108
  98 H :    0.024662
  99 H :    0.017739
 100 H :   -0.012848
 101 H :    0.022559
 102 H :    0.005918
 103 H :    0.038121
 104 H :   -0.011577
 105 H :    0.009781
 106 H :    0.001513
 107 H :   -0.001747
Sum of atomic charges:    0.0000000

LOEWDIN ATOMIC CHARGES
----------------------
   0 C :   -0.028267
   1 C :    0.067401
   2 F :   -0.047079
   3 C :    0.068366
   4 F :   -0.048075
   5 C :   -0.033302
   6 C :   -0.008974
   7 C :   -0.005923
   8 C :    0.019018
   9 C :   -0.022204
  10 C :   -0.053191
  11 C :    0.030505
  12 C :    0.084912
  13 O :   -0.166186
  14 C :   -0.103761
  15 C :    0.075245
  16 C :   -0.136745
  17 C :   -0.023385
  18 N :   -0.045093
  19 C :   -0.017188
  20 N :   -0.050692
  21 C :    0.061625
  22 C :   -0.180507
  23 S :    0.510835
  24 C :   -0.139110
  25 C :   -0.112971
  26 C :    0.022228
  27 C :    0.108460
  28 O :   -0.129525
  29 C :   -0.001416
  30 C :   -0.030258
  31 C :    0.069823
  32 N :    0.001423
  33 C :    0.036908
  34 C :   -0.060302
  35 C :    0.079832
  36 O :   -0.199606
  37 C :   -0.117774
  38 C :   -0.113570
  39 C :    0.082315
  40 O :   -0.201023
  41 N :    0.003071
  42 C :    0.035907
  43 C :   -0.059899
  44 C :    0.076930
  45 C :   -0.049385
  46 C :    0.016172
  47 C :   -0.157411
  48 S :    0.490638
  49 C :   -0.149277
  50 C :   -0.099429
  51 C :   -0.004672
  52 C :    0.106780
  53 O :   -0.121254
  54 C :    0.007638
  55 C :   -0.031374
  56 C :    0.047032
  57 C :   -0.084533
  58 C :    0.085735
  59 O :   -0.150164
  60 C :   -0.055812
  61 C :    0.030577
  62 C :   -0.009123
  63 C :   -0.004851
  64 C :   -0.029058
  65 C :    0.068662
  66 C :    0.069042
  67 C :   -0.032921
  68 F :   -0.046804
  69 F :   -0.046148
  70 C :    0.016109
  71 C :   -0.020257
  72 C :    0.069458
  73 C :   -0.130151
  74 C :   -0.017176
  75 N :   -0.043849
  76 C :   -0.018161
  77 N :   -0.044902
  78 H :    0.048441
  79 H :    0.044662
  80 H :    0.040428
  81 H :    0.039570
  82 H :    0.053643
  83 H :    0.045717
  84 H :    0.007273
  85 H :    0.038373
  86 H :    0.027002
  87 H :    0.024565
  88 H :    0.038553
  89 H :    0.023052
  90 H :    0.032284
  91 H :    0.032409
  92 H :    0.037772
  93 H :    0.023718
  94 H :    0.031532
  95 H :    0.029060
  96 H :    0.025493
  97 H :    0.023415
  98 H :    0.045790
  99 H :    0.046103
 100 H :   -0.002106
 101 H :    0.045461
 102 H :    0.038811
 103 H :    0.024826
 104 H :    0.039906
 105 H :    0.048527
 106 H :    0.045411
 107 H :    0.040404

  Mayer bond orders larger than 0.100000
B(  0-C ,  1-C ) :   1.4389 B(  0-C ,  5-C ) :   0.1082 B(  0-C ,  7-C ) :   1.1896
B(  0-C , 78-H ) :   1.0072 B(  1-C ,  2-F ) :   1.1371 B(  1-C ,  3-C ) :   1.1901
B(  3-C ,  4-F ) :   1.1345 B(  3-C ,  5-C ) :   1.4441 B(  5-C ,  6-C ) :   1.1904
B(  5-C , 79-H ) :   1.0072 B(  6-C ,  7-C ) :   1.2558 B(  6-C , 11-C ) :   1.1904
B(  7-C ,  8-C ) :   1.2149 B(  8-C ,  9-C ) :   1.4521 B(  8-C , 80-H ) :   0.9895
B(  9-C , 10-C ) :   1.2219 B(  9-C , 15-C ) :   0.9827 B( 10-C , 11-C ) :   1.4660
B( 10-C , 12-C ) :   0.9575 B( 11-C , 81-H ) :   1.0166 B( 12-C , 13-O ) :   2.1466
B( 12-C , 14-C ) :   0.9675 B( 14-C , 15-C ) :   1.0733 B( 14-C , 21-C ) :   1.5140
B( 15-C , 16-C ) :   1.6329 B( 16-C , 17-C ) :   1.1392 B( 16-C , 19-C ) :   1.1472
B( 17-C , 18-N ) :   2.9639 B( 19-C , 20-N ) :   2.9600 B( 21-C , 22-C ) :   1.2460
B( 21-C , 82-H ) :   0.9403 B( 22-C , 23-S ) :   1.0840 B( 22-C , 26-C ) :   1.3686
B( 23-S , 24-C ) :   1.1285 B( 24-C , 25-C ) :   1.3195 B( 24-C , 29-C ) :   1.1876
B( 25-C , 26-C ) :   1.2965 B( 25-C , 27-C ) :   0.9757 B( 26-C , 83-H ) :   1.0080
B( 27-C , 28-O ) :   2.1864 B( 27-C , 84-H ) :   0.9652 B( 29-C , 30-C ) :   1.5713
B( 29-C , 85-H ) :   0.9530 B( 30-C , 31-C ) :   1.1711 B( 30-C , 86-H ) :   0.9651
B( 31-C , 32-N ) :   1.1584 B( 31-C , 38-C ) :   1.3328 B( 32-N , 33-C ) :   0.9437
B( 32-N , 35-C ) :   1.0610 B( 33-C , 34-C ) :   1.1190 B( 33-C , 87-H ) :   0.9499
B( 33-C , 88-H ) :   0.9286 B( 34-C , 89-H ) :   0.9685 B( 34-C , 90-H ) :   0.9683
B( 34-C , 91-H ) :   0.9645 B( 35-C , 36-O ) :   2.0385 B( 35-C , 37-C ) :   0.9858
B( 36-O , 98-H ) :   0.1053 B( 37-C , 38-C ) :   1.2627 B( 37-C , 44-C ) :   1.3318
B( 38-C , 39-C ) :   0.9868 B( 39-C , 40-O ) :   2.0170 B( 39-C , 41-N ) :   1.0702
B( 41-N , 42-C ) :   0.9408 B( 41-N , 44-C ) :   1.1598 B( 42-C , 43-C ) :   1.1181
B( 42-C , 92-H ) :   0.9276 B( 42-C , 93-H ) :   0.9500 B( 43-C , 94-H ) :   0.9610
B( 43-C , 95-H ) :   0.9677 B( 43-C , 96-H ) :   0.9673 B( 44-C , 45-C ) :   1.1831
B( 45-C , 46-C ) :   1.5753 B( 45-C , 97-H ) :   0.9494 B( 46-C , 47-C ) :   1.1606
B( 46-C , 98-H ) :   0.9599 B( 47-C , 48-S ) :   1.1002 B( 47-C , 51-C ) :   1.4361
B( 48-S , 49-C ) :   1.1408 B( 49-C , 50-C ) :   1.3737 B( 49-C , 54-C ) :   1.1554
B( 50-C , 51-C ) :   1.2603 B( 50-C , 52-C ) :   0.9787 B( 51-C , 99-H ) :   1.0101
B( 52-C , 53-O ) :   2.1962 B( 52-C ,100-H ) :   0.9603 B( 54-C , 55-C ) :   1.6771
B( 54-C ,101-H ) :   0.9597 B( 55-C , 56-C ) :   1.1237 B( 55-C ,102-H ) :   0.9506
B( 56-C , 57-C ) :   1.6734 B( 56-C ,103-H ) :   0.8948 B( 57-C , 58-C ) :   0.9511
B( 57-C , 72-C ) :   1.0124 B( 58-C , 59-O ) :   2.2089 B( 58-C , 60-C ) :   0.9330
B( 60-C , 61-C ) :   1.4721 B( 60-C , 71-C ) :   1.2179 B( 61-C , 62-C ) :   1.1952
B( 61-C ,104-H ) :   1.0168 B( 62-C , 63-C ) :   1.2526 B( 62-C , 67-C ) :   1.1909
B( 63-C , 64-C ) :   1.1918 B( 63-C , 70-C ) :   1.2201 B( 64-C , 65-C ) :   1.4429
B( 64-C , 67-C ) :   0.1079 B( 64-C ,105-H ) :   1.0058 B( 65-C , 66-C ) :   1.1890
B( 65-C , 69-F ) :   1.1383 B( 66-C , 67-C ) :   1.4454 B( 66-C , 68-F ) :   1.1366
B( 67-C ,106-H ) :   1.0062 B( 70-C , 71-C ) :   1.4555 B( 70-C ,107-H ) :   0.9890
B( 71-C , 72-C ) :   0.9979 B( 72-C , 73-C ) :   1.6516 B( 73-C , 74-C ) :   1.1745
B( 73-C , 76-C ) :   1.1254 B( 74-C , 75-N ) :   2.9559 B( 76-C , 77-N ) :   2.9755

-----------------------------------------------------------------------------
         ABSORPTION SPECTRUM VIA TRANSITION ELECTRIC DIPOLE MOMENTS
-----------------------------------------------------------------------------
State   Energy  Wavelength   fosc         T2         TX        TY        TZ
        (cm-1)    (nm)                  (au**2)     (au)      (au)      (au)
-----------------------------------------------------------------------------
   0   11953.1    836.6   1.254706267  34.55708  -0.01094   5.85285  -0.54875
   1   16121.7    620.3   0.161883766   3.30574   0.06309   1.34575   1.22095
   2   21428.4    466.7   0.168827900   2.59376  -0.59153   0.94804  -1.15977
   3   21861.2    457.4   0.203553531   3.06535  -0.04525   0.85875  -1.52507
   4   23310.5    429.0   0.577937270   8.16216  -0.09068   2.85215   0.13860
   5   25094.1    398.5   0.002075363   0.02723   0.15553  -0.04791  -0.02725
   6   25655.9    389.8   0.008725103   0.11196  -0.13453   0.26725  -0.14980
   7   25858.2    386.7   0.028629176   0.36449  -0.31291  -0.33017  -0.39695
   8   25968.8    385.1   0.053059894   0.67265  -0.49179  -0.14127  -0.64096
   9   26428.2    378.4   0.003047604   0.03796  -0.17922   0.07161  -0.02673
  10   27086.3    369.2   0.134783181   1.63818   0.73693  -0.97930   0.36889
  11   27191.9    367.8   0.031824948   0.38530   0.31693   0.04773   0.53158
  12   27359.7    365.5   0.004134179   0.04975  -0.16454  -0.14006  -0.05527
  13   27665.5    361.5   0.171018808   2.03508   0.82185   0.35032   1.11216
  14   28130.3    355.5   0.001117188   0.01307  -0.00035   0.08002   0.08167
  15   28544.5    350.3   0.013104571   0.15114   0.18643   0.29566   0.17020
  16   28740.7    347.9   0.021060040   0.24123  -0.15396   0.22355  -0.40934
  17   28858.8    346.5   0.030641232   0.34955   0.44320  -0.29479   0.25732
  18   29042.2    344.3   0.001152956   0.01307   0.01462  -0.11127   0.02180
  19   29524.4    338.7   0.033894774   0.37794  -0.21524   0.57564  -0.01599
  20   30031.1    333.0   0.025590342   0.28053   0.23649   0.30885   0.35946
  21   31342.4    319.1   0.023112500   0.24277  -0.35982   0.14953  -0.30156
  22   31429.7    318.2   0.015107245   0.15824  -0.00170  -0.38623   0.09519
  23   31564.1    316.8   0.017476636   0.18228  -0.15869  -0.37439  -0.13010
  24   32050.5    312.0   0.075648262   0.77703  -0.03097  -0.60051  -0.64457
  25   32243.9    310.1   0.078391696   0.80038   0.68873  -0.02007   0.57064
  26   32658.7    306.2   0.668257803   6.73628   1.60925   0.25703   2.02004
  27   33217.8    301.0   0.178709997   1.77114  -0.51181  -0.99374  -0.72227
  28   33393.6    299.5   0.459892468   4.53387   1.62318  -0.04501   1.37737
  29   33688.4    296.8   0.083428183   0.81528   0.71590  -0.30782   0.45609
  30   33693.6    296.8   0.069156352   0.67571  -0.64384   0.21817  -0.46215
  31   33859.3    295.3   0.003365817   0.03273   0.04006   0.16868   0.05166
  32   34237.2    292.1   0.003584891   0.03447  -0.11801   0.03588  -0.13877
  33   34446.4    290.3   0.001318683   0.01260   0.04620  -0.03247  -0.09703
  34   34494.2    289.9   0.145391659   1.38761  -0.83279  -0.21738  -0.80425
  35   34624.2    288.8   0.022091907   0.21005  -0.20111   0.39821  -0.10506
  36   34807.9    287.3   0.076194021   0.72064  -0.43817  -0.33528  -0.64517
  37   35488.9    281.8   0.106474248   0.98771  -0.51702  -0.60894  -0.59127
  38   36010.5    277.7   0.074918415   0.68491   0.14338   0.60282   0.54860
  39   36463.9    274.2   0.790706586   7.13885   1.81578   0.47969   1.90044
  40   36682.0    272.6   0.097170662   0.87208   0.27258   0.84150   0.29942
  41   36741.2    272.2   0.165962995   1.48708   0.61002   0.47317   0.94396
  42   37032.1    270.0   0.129160617   1.14822   0.68969   0.35685   0.73838
  43   37208.3    268.8   0.057826793   0.51164  -0.45612  -0.17431  -0.52270
  44   37508.9    266.6   0.093168722   0.81773  -0.68336   0.08477  -0.58615
  45   37792.6    264.6   0.183592322   1.59927   0.54036   1.04661   0.46033
  46   37876.6    264.0   0.006625324   0.05759   0.12772   0.14536   0.14193
  47   38043.6    262.9   0.007957283   0.06886  -0.05446   0.25663   0.00596
  48   38075.9    262.6   0.025029948   0.21641   0.25353   0.29456   0.25568
  49   38223.9    261.6   0.024171279   0.20818  -0.17678   0.33623  -0.25274
  50   38676.9    258.6   0.098506206   0.83847  -0.05609  -0.88960  -0.20961
  51   38946.1    256.8   0.200632150   1.69595  -0.54915   0.86122  -0.80788
  52   39060.6    256.0   0.120478925   1.01542   0.20528  -0.98474  -0.05969
  53   39301.3    254.4   0.025866688   0.21668  -0.24263   0.39612   0.02996
  54   39590.4    252.6   0.020034057   0.16659  -0.19688  -0.22912  -0.27447
  55   39850.3    250.9   0.110368614   0.91178  -0.50678   0.60076  -0.54225
  56   40067.7    249.6   0.013993608   0.11498   0.15117   0.25733   0.16095
  57   40293.4    248.2   0.044763795   0.36574  -0.27403   0.41753  -0.34104

FINAL SINGLE POINT ENERGY     -4275.447213823359

DIPOLE MOMENT
-------------
                                X             Y             Z
Electronic contribution:     -0.77901      25.95900      25.12107
Nuclear contribution   :      0.14225     -26.62177     -26.49801
                        -----------------------------------------
Total Dipole Moment    :     -0.63676      -0.66277      -1.37694
                        -----------------------------------------
Magnitude (a.u.)       :      1.65550
Magnitude (Debye)      :      4.20795

Rotational constants in cm-1:     0.001248     0.000207     0.000182
Rotational constants in MHz :    37.425806     6.197783     5.459647

                             ****ORCA TERMINATED NORMALLY****
TOTAL RUN TIME: 0 days 0 hours 11 minutes 15 seconds 446 msec
