                         Program Version 4.2.0 -  RELEASE  -
|  1> # ORCA input file
|  2> # SCF done       -213.733228783234          0.000389311303
|  3> ! CAM-B3LYP def2-SVP def2/J RIJCOSX Grid4 TightSCF
|  4> %maxcore 5000
|  5> %tddft
|  6>     Mode sTDDFT
|  7>     Ethresh 5.0
|  8>     maxcore 5000
|  9> end
| 10>
| 11> %pal
| 12>   nprocs 6
| 13>   end
| 14> * xyz 0 1
| 15>    C       -6.04008         1.12297         9.55537
| 16>    C       -7.01114         1.10130        10.51693
| 17>    F       -7.43204         2.24303        11.07407
| 18>    C       -7.58142        -0.11879        10.93440
| 19>    F       -8.53130        -0.10910        11.87769
| 20>    C       -7.17189        -1.30089        10.38404
| 21>    C       -6.17328        -1.31123         9.39086
| 22>    C       -5.59515        -0.07869         8.96810
| 23>    C       -4.58985        -0.06513         7.97436
| 24>    C       -4.17254        -1.24821         7.42251
| 25>    C       -4.75932        -2.47293         7.84789
| 26>    C       -5.73435        -2.51765         8.80273
| 27>    C       -4.16333        -3.59284         7.09782
| 28>    O       -4.48626        -4.75915         7.15929
| 29>    C       -3.16591        -2.97491         6.18309
| 30>    C       -3.16590        -1.54122         6.40676
| 31>    C       -2.32082        -0.63042         5.83034
| 32>    C       -1.29515        -0.95172         4.91528
| 33>    N       -0.43074        -1.14693         4.18595
| 34>    C       -2.34785         0.75388         6.10324
| 35>    N       -2.32696         1.88701         6.28334
| 36>    C       -2.52547        -3.65966         5.19261
| 37>    C       -2.44581        -5.07408         5.09309
| 38>    C       -2.39113        -5.79377         3.91514
| 39>    C       -2.38947        -7.18328         4.22068
| 40>    C       -2.36504        -7.27905         5.68737
| 41>    C       -2.39571        -6.01825         6.19882
| 42>    C       -2.28782        -8.45960         6.43090
| 43>    N       -2.22375        -9.44470         7.02135
| 44>    C       -2.42888        -8.25172         3.34429
| 45>    C       -2.50559        -9.61660         3.69201
| 46>    C       -2.53638       -10.38662         2.53996
| 47>    C       -2.47444        -9.48013         1.40291
| 48>    C       -2.41357        -8.20613         1.86796
| 49>    C       -2.34830        -7.05461         1.07404
| 50>    N       -2.30017        -6.12484         0.40217
| 51>    C       -2.62862       -11.78366         2.46685
| 52>    S       -2.71792       -12.63400         0.94295
| 53>    C       -2.86514       -14.21215         1.68235
| 54>    C       -2.82362       -14.07646         3.08369
| 55>    C       -2.68823       -12.72267         3.50339
| 56>    N       -2.64248       -12.69613         4.85707
| 57>    C       -2.73865       -13.98845         5.31539
| 58>    C       -2.71470       -14.30333         6.68361
| 59>    N       -2.69534       -14.58230         7.79512
| 60>    C       -2.85236       -14.86540         4.25269
| 61>    C       -3.00112       -15.33564         0.86156
| 62>    C       -3.24255       -16.60654         1.31462
| 63>    C       -3.37746       -17.74475         0.50139
| 64>    C       -3.69164       -19.01762         0.95618
| 65>    C       -3.72789       -19.91288        -0.13775
| 66>    C       -3.40818       -19.10764        -1.33648
| 67>    C       -3.21417       -17.82314        -0.94613
| 68>    C       -3.35318       -19.57102        -2.65635
| 69>    N       -3.29882       -19.93673        -3.74425
| 70>    C       -4.03897       -21.25629        -0.12973
| 71>    C       -4.03755       -22.13537        -1.24725
| 72>    C       -4.54062       -23.36087        -0.86393
| 73>    C       -4.83149       -23.29299         0.56059
| 74>    C       -4.53738       -22.04392         1.00903
| 75>    C       -4.70128       -21.58684         2.32124
| 76>    N       -4.82705       -21.22781         3.40511
| 77>    C       -4.71309       -24.52324        -1.65379
| 78>    C       -4.74917       -24.63946        -3.01000
| 79>    C       -4.51368       -25.98653        -3.61292
| 80>    O       -4.53677       -27.04611        -3.03302
| 81>    C       -4.19222       -25.72632        -5.02851
| 82>    C       -3.75731       -26.59812        -5.98532
| 83>    C       -3.46197       -26.10694        -7.27646
| 84>    C       -3.61313       -24.71547        -7.54788
| 85>    C       -3.30116       -24.23056        -8.83395
| 86>    C       -2.86425       -25.08662        -9.80550
| 87>    C       -2.71806       -26.46286        -9.53686
| 88>    C       -3.01032       -26.96373        -8.29939
| 89>    F       -2.28673       -27.27813       -10.50813
| 90>    F       -2.56879       -24.62481       -11.02701
| 91>    C       -4.07325       -23.83808        -6.53938
| 92>    C       -4.37029       -24.34007        -5.30087
| 93>    C       -4.87432       -23.68591        -4.09460
| 94>    C       -5.55569       -22.49810        -4.08549
| 95>    C       -6.20547       -21.95890        -2.95840
| 96>    N       -6.76522       -21.48108        -2.07725
| 97>    C       -5.76797       -21.70920        -5.23764
| 98>    N       -5.98710       -21.04486        -6.14646
| 99>    H       -5.61400         2.06545         9.24868
|100>    H       -7.61788        -2.22620        10.71363
|101>    H       -4.17759         0.88389         7.67198
|102>    H       -6.16214        -3.46128         9.10566
|103>    H       -2.07228        -3.10699         4.37843
|104>    H       -2.41797        -5.38123         2.92487
|105>    H       -2.32731        -5.75735         7.23670
|106>    H       -2.55178        -9.97578         4.69708
|107>    H       -2.47838        -9.79188         0.37470
|108>    H       -2.53656       -11.89162         5.45601
|109>    H       -2.93493       -15.92911         4.34237
|110>    H       -2.92992       -15.15647        -0.20248
|111>    H       -3.36344       -16.76945         2.37511
|112>    H       -3.87587       -19.28849         1.97736
|113>    H       -2.97789       -16.99937        -1.59328
|114>    H       -3.64744       -21.88636        -2.21354
|115>    H       -5.23759       -24.10223         1.13875
|116>    H       -4.75671       -25.46655        -1.11619
|117>    H       -3.63602       -27.64657        -5.75935
|118>    H       -3.41095       -23.18080        -9.05686
|119>    H       -2.89238       -28.01908        -8.10949
|120>    H       -4.16486       -22.78772        -6.76502
|121> *
|122>
|123>                          ****END OF INPUT****

CARTESIAN COORDINATES (ANGSTROEM)
---------------------------------
  C     -6.040080    1.122970    9.555370
  C     -7.011140    1.101300   10.516930
  F     -7.432040    2.243030   11.074070
  C     -7.581420   -0.118790   10.934400
  F     -8.531300   -0.109100   11.877690
  C     -7.171890   -1.300890   10.384040
  C     -6.173280   -1.311230    9.390860
  C     -5.595150   -0.078690    8.968100
  C     -4.589850   -0.065130    7.974360
  C     -4.172540   -1.248210    7.422510
  C     -4.759320   -2.472930    7.847890
  C     -5.734350   -2.517650    8.802730
  C     -4.163330   -3.592840    7.097820
  O     -4.486260   -4.759150    7.159290
  C     -3.165910   -2.974910    6.183090
  C     -3.165900   -1.541220    6.406760
  C     -2.320820   -0.630420    5.830340
  C     -1.295150   -0.951720    4.915280
  N     -0.430740   -1.146930    4.185950
  C     -2.347850    0.753880    6.103240
  N     -2.326960    1.887010    6.283340
  C     -2.525470   -3.659660    5.192610
  C     -2.445810   -5.074080    5.093090
  C     -2.391130   -5.793770    3.915140
  C     -2.389470   -7.183280    4.220680
  C     -2.365040   -7.279050    5.687370
  C     -2.395710   -6.018250    6.198820
  C     -2.287820   -8.459600    6.430900
  N     -2.223750   -9.444700    7.021350
  C     -2.428880   -8.251720    3.344290
  C     -2.505590   -9.616600    3.692010
  C     -2.536380  -10.386620    2.539960
  C     -2.474440   -9.480130    1.402910
  C     -2.413570   -8.206130    1.867960
  C     -2.348300   -7.054610    1.074040
  N     -2.300170   -6.124840    0.402170
  C     -2.628620  -11.783660    2.466850
  S     -2.717920  -12.634000    0.942950
  C     -2.865140  -14.212150    1.682350
  C     -2.823620  -14.076460    3.083690
  C     -2.688230  -12.722670    3.503390
  N     -2.642480  -12.696130    4.857070
  C     -2.738650  -13.988450    5.315390
  C     -2.714700  -14.303330    6.683610
  N     -2.695340  -14.582300    7.795120
  C     -2.852360  -14.865400    4.252690
  C     -3.001120  -15.335640    0.861560
  C     -3.242550  -16.606540    1.314620
  C     -3.377460  -17.744750    0.501390
  C     -3.691640  -19.017620    0.956180
  C     -3.727890  -19.912880   -0.137750
  C     -3.408180  -19.107640   -1.336480
  C     -3.214170  -17.823140   -0.946130
  C     -3.353180  -19.571020   -2.656350
  N     -3.298820  -19.936730   -3.744250
  C     -4.038970  -21.256290   -0.129730
  C     -4.037550  -22.135370   -1.247250
  C     -4.540620  -23.360870   -0.863930
  C     -4.831490  -23.292990    0.560590
  C     -4.537380  -22.043920    1.009030
  C     -4.701280  -21.586840    2.321240
  N     -4.827050  -21.227810    3.405110
  C     -4.713090  -24.523240   -1.653790
  C     -4.749170  -24.639460   -3.010000
  C     -4.513680  -25.986530   -3.612920
  O     -4.536770  -27.046110   -3.033020
  C     -4.192220  -25.726320   -5.028510
  C     -3.757310  -26.598120   -5.985320
  C     -3.461970  -26.106940   -7.276460
  C     -3.613130  -24.715470   -7.547880
  C     -3.301160  -24.230560   -8.833950
  C     -2.864250  -25.086620   -9.805500
  C     -2.718060  -26.462860   -9.536860
  C     -3.010320  -26.963730   -8.299390
  F     -2.286730  -27.278130  -10.508130
  F     -2.568790  -24.624810  -11.027010
  C     -4.073250  -23.838080   -6.539380
  C     -4.370290  -24.340070   -5.300870
  C     -4.874320  -23.685910   -4.094600
  C     -5.555690  -22.498100   -4.085490
  C     -6.205470  -21.958900   -2.958400
  N     -6.765220  -21.481080   -2.077250
  C     -5.767970  -21.709200   -5.237640
  N     -5.987100  -21.044860   -6.146460
  H     -5.614000    2.065450    9.248680
  H     -7.617880   -2.226200   10.713630
  H     -4.177590    0.883890    7.671980
  H     -6.162140   -3.461280    9.105660
  H     -2.072280   -3.106990    4.378430
  H     -2.417970   -5.381230    2.924870
  H     -2.327310   -5.757350    7.236700
  H     -2.551780   -9.975780    4.697080
  H     -2.478380   -9.791880    0.374700
  H     -2.536560  -11.891620    5.456010
  H     -2.934930  -15.929110    4.342370
  H     -2.929920  -15.156470   -0.202480
  H     -3.363440  -16.769450    2.375110
  H     -3.875870  -19.288490    1.977360
  H     -2.977890  -16.999370   -1.593280
  H     -3.647440  -21.886360   -2.213540
  H     -5.237590  -24.102230    1.138750
  H     -4.756710  -25.466550   -1.116190
  H     -3.636020  -27.646570   -5.759350
  H     -3.410950  -23.180800   -9.056860
  H     -2.892380  -28.019080   -8.109490
  H     -4.164860  -22.787720   -6.765020

 Total Charge           Charge          ....    0
 Multiplicity           Mult            ....    1
 Number of Electrons    NEL             ....  562
 Basis Dimension        Dim             .... 1290

ORBITAL ENERGIES
----------------

  NO   OCC          E(Eh)            E(eV)
   0   2.0000     -89.000674     -2421.8315
   1   2.0000     -24.805025      -674.9790
   2   2.0000     -24.804292      -674.9591
   3   2.0000     -24.801266      -674.8768
   4   2.0000     -24.800357      -674.8520
   5   2.0000     -19.233251      -523.3634
   6   2.0000     -19.224454      -523.1240
   7   2.0000     -14.506063      -394.7300
   8   2.0000     -14.431138      -392.6912
   9   2.0000     -14.426943      -392.5771
  10   2.0000     -14.426326      -392.5603
  11   2.0000     -14.426149      -392.5555
  12   2.0000     -14.425653      -392.5420
  13   2.0000     -14.424278      -392.5045
  14   2.0000     -14.420406      -392.3992
  15   2.0000     -14.418758      -392.3544
  16   2.0000     -14.414546      -392.2397
  17   2.0000     -10.389055      -282.7006
  18   2.0000     -10.388486      -282.6851
  19   2.0000     -10.384600      -282.5793
  20   2.0000     -10.384163      -282.5675
  21   2.0000     -10.383276      -282.5433
  22   2.0000     -10.375270      -282.3255
  23   2.0000     -10.372252      -282.2433
  24   2.0000     -10.356018      -281.8016
  25   2.0000     -10.355575      -281.7895
  26   2.0000     -10.352870      -281.7159
  27   2.0000     -10.352651      -281.7099
  28   2.0000     -10.351953      -281.6910
  29   2.0000     -10.349530      -281.6250
  30   2.0000     -10.347333      -281.5653
  31   2.0000     -10.338178      -281.3161
  32   2.0000     -10.338025      -281.3120
  33   2.0000     -10.336789      -281.2783
  34   2.0000     -10.334420      -281.2139
  35   2.0000     -10.332862      -281.1715
  36   2.0000     -10.332349      -281.1575
  37   2.0000     -10.331534      -281.1353
  38   2.0000     -10.330894      -281.1179
  39   2.0000     -10.329129      -281.0699
  40   2.0000     -10.328851      -281.0623
  41   2.0000     -10.328697      -281.0581
  42   2.0000     -10.328376      -281.0494
  43   2.0000     -10.327924      -281.0371
  44   2.0000     -10.327331      -281.0210
  45   2.0000     -10.327235      -281.0184
  46   2.0000     -10.326157      -280.9890
  47   2.0000     -10.325687      -280.9762
  48   2.0000     -10.325155      -280.9617
  49   2.0000     -10.324786      -280.9517
  50   2.0000     -10.322089      -280.8783
  51   2.0000     -10.321589      -280.8647
  52   2.0000     -10.320763      -280.8422
  53   2.0000     -10.319292      -280.8022
  54   2.0000     -10.319018      -280.7948
  55   2.0000     -10.318668      -280.7852
  56   2.0000     -10.318589      -280.7831
  57   2.0000     -10.317585      -280.7558
  58   2.0000     -10.317216      -280.7457
  59   2.0000     -10.316699      -280.7317
  60   2.0000     -10.316618      -280.7294
  61   2.0000     -10.316616      -280.7294
  62   2.0000     -10.315633      -280.7026
  63   2.0000     -10.314483      -280.6714
  64   2.0000     -10.314320      -280.6669
  65   2.0000     -10.314205      -280.6638
  66   2.0000     -10.313353      -280.6406
  67   2.0000     -10.312551      -280.6188
  68   2.0000     -10.312462      -280.6163
  69   2.0000     -10.311885      -280.6007
  70   2.0000     -10.311758      -280.5972
  71   2.0000     -10.311350      -280.5861
  72   2.0000     -10.308691      -280.5137
  73   2.0000     -10.307872      -280.4915
  74   2.0000     -10.307857      -280.4910
  75   2.0000     -10.307826      -280.4902
  76   2.0000     -10.306004      -280.4406
  77   2.0000     -10.305063      -280.4150
  78   2.0000     -10.304449      -280.3983
  79   2.0000     -10.303564      -280.3742
  80   2.0000     -10.303285      -280.3666
  81   2.0000     -10.299158      -280.2543
  82   2.0000     -10.297625      -280.2126
  83   2.0000     -10.295047      -280.1425
  84   2.0000      -8.095366      -220.2861
  85   2.0000      -6.064698      -165.0288
  86   2.0000      -6.060543      -164.9158
  87   2.0000      -6.057535      -164.8339
  88   2.0000      -1.327986       -36.1363
  89   2.0000      -1.323890       -36.0249
  90   2.0000      -1.313068       -35.7304
  91   2.0000      -1.308998       -35.6196
  92   2.0000      -1.148918       -31.2636
  93   2.0000      -1.140112       -31.0240
  94   2.0000      -1.129044       -30.7229
  95   2.0000      -1.033012       -28.1097
  96   2.0000      -1.031612       -28.0716
  97   2.0000      -1.030326       -28.0366
  98   2.0000      -1.025514       -27.9056
  99   2.0000      -1.018997       -27.7283
 100   2.0000      -1.013842       -27.5880
 101   2.0000      -1.012866       -27.5615
 102   2.0000      -1.012585       -27.5538
 103   2.0000      -1.009737       -27.4763
 104   2.0000      -1.008434       -27.4409
 105   2.0000      -1.004578       -27.3360
 106   2.0000      -1.000826       -27.2339
 107   2.0000      -0.999346       -27.1936
 108   2.0000      -0.998715       -27.1764
 109   2.0000      -0.995325       -27.0842
 110   2.0000      -0.991778       -26.9876
 111   2.0000      -0.989757       -26.9326
 112   2.0000      -0.985525       -26.8175
 113   2.0000      -0.943624       -25.6773
 114   2.0000      -0.941359       -25.6157
 115   2.0000      -0.937230       -25.5033
 116   2.0000      -0.922252       -25.0958
 117   2.0000      -0.918623       -24.9970
 118   2.0000      -0.913998       -24.8712
 119   2.0000      -0.902617       -24.5615
 120   2.0000      -0.897870       -24.4323
 121   2.0000      -0.896553       -24.3964
 122   2.0000      -0.892775       -24.2936
 123   2.0000      -0.887177       -24.1413
 124   2.0000      -0.879824       -23.9412
 125   2.0000      -0.870289       -23.6818
 126   2.0000      -0.867852       -23.6155
 127   2.0000      -0.864817       -23.5329
 128   2.0000      -0.853493       -23.2247
 129   2.0000      -0.849557       -23.1176
 130   2.0000      -0.848199       -23.0807
 131   2.0000      -0.844868       -22.9900
 132   2.0000      -0.831464       -22.6253
 133   2.0000      -0.816493       -22.2179
 134   2.0000      -0.806541       -21.9471
 135   2.0000      -0.787913       -21.4402
 136   2.0000      -0.781880       -21.2760
 137   2.0000      -0.777881       -21.1672
 138   2.0000      -0.772343       -21.0165
 139   2.0000      -0.769887       -20.9497
 140   2.0000      -0.758461       -20.6388
 141   2.0000      -0.750377       -20.4188
 142   2.0000      -0.744851       -20.2684
 143   2.0000      -0.738889       -20.1062
 144   2.0000      -0.731307       -19.8999
 145   2.0000      -0.729018       -19.8376
 146   2.0000      -0.728591       -19.8260
 147   2.0000      -0.720889       -19.6164
 148   2.0000      -0.718644       -19.5553
 149   2.0000      -0.715889       -19.4803
 150   2.0000      -0.706043       -19.2124
 151   2.0000      -0.697691       -18.9851
 152   2.0000      -0.693661       -18.8755
 153   2.0000      -0.688909       -18.7462
 154   2.0000      -0.685648       -18.6574
 155   2.0000      -0.680152       -18.5079
 156   2.0000      -0.676739       -18.4150
 157   2.0000      -0.671848       -18.2819
 158   2.0000      -0.666401       -18.1337
 159   2.0000      -0.658891       -17.9293
 160   2.0000      -0.656806       -17.8726
 161   2.0000      -0.654618       -17.8131
 162   2.0000      -0.650597       -17.7036
 163   2.0000      -0.647728       -17.6256
 164   2.0000      -0.645972       -17.5778
 165   2.0000      -0.641569       -17.4580
 166   2.0000      -0.632182       -17.2025
 167   2.0000      -0.622883       -16.9495
 168   2.0000      -0.621267       -16.9055
 169   2.0000      -0.620694       -16.8899
 170   2.0000      -0.611148       -16.6302
 171   2.0000      -0.601600       -16.3704
 172   2.0000      -0.597679       -16.2637
 173   2.0000      -0.592455       -16.1215
 174   2.0000      -0.592379       -16.1195
 175   2.0000      -0.588358       -16.0100
 176   2.0000      -0.586544       -15.9607
 177   2.0000      -0.585848       -15.9417
 178   2.0000      -0.578598       -15.7444
 179   2.0000      -0.577661       -15.7190
 180   2.0000      -0.575868       -15.6702
 181   2.0000      -0.574158       -15.6236
 182   2.0000      -0.564546       -15.3621
 183   2.0000      -0.562980       -15.3195
 184   2.0000      -0.561941       -15.2912
 185   2.0000      -0.558303       -15.1922
 186   2.0000      -0.557286       -15.1645
 187   2.0000      -0.553714       -15.0673
 188   2.0000      -0.553227       -15.0541
 189   2.0000      -0.551209       -14.9992
 190   2.0000      -0.550109       -14.9692
 191   2.0000      -0.549941       -14.9646
 192   2.0000      -0.544721       -14.8226
 193   2.0000      -0.544187       -14.8081
 194   2.0000      -0.542026       -14.7493
 195   2.0000      -0.539778       -14.6881
 196   2.0000      -0.537955       -14.6385
 197   2.0000      -0.536650       -14.6030
 198   2.0000      -0.534138       -14.5346
 199   2.0000      -0.532732       -14.4964
 200   2.0000      -0.531705       -14.4684
 201   2.0000      -0.530482       -14.4352
 202   2.0000      -0.527514       -14.3544
 203   2.0000      -0.525035       -14.2869
 204   2.0000      -0.522358       -14.2141
 205   2.0000      -0.520744       -14.1702
 206   2.0000      -0.518031       -14.0963
 207   2.0000      -0.516055       -14.0426
 208   2.0000      -0.513987       -13.9863
 209   2.0000      -0.510886       -13.9019
 210   2.0000      -0.508748       -13.8437
 211   2.0000      -0.506877       -13.7928
 212   2.0000      -0.504896       -13.7389
 213   2.0000      -0.503658       -13.7052
 214   2.0000      -0.500614       -13.6224
 215   2.0000      -0.499915       -13.6034
 216   2.0000      -0.497209       -13.5297
 217   2.0000      -0.493407       -13.4263
 218   2.0000      -0.492881       -13.4120
 219   2.0000      -0.491485       -13.3740
 220   2.0000      -0.488521       -13.2933
 221   2.0000      -0.486448       -13.2369
 222   2.0000      -0.482293       -13.1239
 223   2.0000      -0.478521       -13.0212
 224   2.0000      -0.477340       -12.9891
 225   2.0000      -0.471415       -12.8278
 226   2.0000      -0.471085       -12.8189
 227   2.0000      -0.468766       -12.7558
 228   2.0000      -0.465465       -12.6659
 229   2.0000      -0.464513       -12.6400
 230   2.0000      -0.459652       -12.5078
 231   2.0000      -0.458904       -12.4874
 232   2.0000      -0.457601       -12.4519
 233   2.0000      -0.456303       -12.4166
 234   2.0000      -0.455461       -12.3937
 235   2.0000      -0.454945       -12.3797
 236   2.0000      -0.454391       -12.3646
 237   2.0000      -0.453502       -12.3404
 238   2.0000      -0.453224       -12.3329
 239   2.0000      -0.451173       -12.2770
 240   2.0000      -0.449796       -12.2396
 241   2.0000      -0.448294       -12.1987
 242   2.0000      -0.447367       -12.1735
 243   2.0000      -0.446287       -12.1441
 244   2.0000      -0.446147       -12.1403
 245   2.0000      -0.444477       -12.0948
 246   2.0000      -0.439994       -11.9728
 247   2.0000      -0.436918       -11.8891
 248   2.0000      -0.436452       -11.8765
 249   2.0000      -0.434555       -11.8249
 250   2.0000      -0.433733       -11.8025
 251   2.0000      -0.430137       -11.7046
 252   2.0000      -0.430021       -11.7015
 253   2.0000      -0.428390       -11.6571
 254   2.0000      -0.426598       -11.6083
 255   2.0000      -0.421460       -11.4685
 256   2.0000      -0.419840       -11.4244
 257   2.0000      -0.414221       -11.2715
 258   2.0000      -0.410676       -11.1751
 259   2.0000      -0.408639       -11.1196
 260   2.0000      -0.408054       -11.1037
 261   2.0000      -0.402528       -10.9533
 262   2.0000      -0.394128       -10.7248
 263   2.0000      -0.391161       -10.6440
 264   2.0000      -0.383754       -10.4425
 265   2.0000      -0.368556       -10.0289
 266   2.0000      -0.364977        -9.9315
 267   2.0000      -0.359029        -9.7697
 268   2.0000      -0.348011        -9.4698
 269   2.0000      -0.344724        -9.3804
 270   2.0000      -0.335764        -9.1366
 271   2.0000      -0.333751        -9.0818
 272   2.0000      -0.327872        -8.9218
 273   2.0000      -0.326021        -8.8715
 274   2.0000      -0.321457        -8.7473
 275   2.0000      -0.317440        -8.6380
 276   2.0000      -0.313147        -8.5212
 277   2.0000      -0.306676        -8.3451
 278   2.0000      -0.302860        -8.2412
 279   2.0000      -0.297322        -8.0905
 280   2.0000      -0.255931        -6.9642
 281   0.0000      -0.154921        -4.2156
 282   0.0000      -0.131737        -3.5847
 283   0.0000      -0.093860        -2.5541
 284   0.0000      -0.088478        -2.4076
 285   0.0000      -0.073089        -1.9889

MULLIKEN ATOMIC CHARGES
-----------------------
   0 C :   -0.102937
   1 C :    0.242326
   2 F :   -0.167820
   3 C :    0.239192
   4 F :   -0.169520
   5 C :   -0.099869
   6 C :    0.111659
   7 C :    0.110080
   8 C :   -0.080330
   9 C :    0.057636
  10 C :   -0.013583
  11 C :   -0.070994
  12 C :    0.142937
  13 O :   -0.141347
  14 C :   -0.097804
  15 C :    0.305404
  16 C :   -0.331873
  17 C :   -0.199369
  18 N :    0.167202
  19 C :   -0.180065
  20 N :    0.155641
  21 C :   -0.009475
  22 C :    0.067838
  23 C :   -0.071597
  24 C :    0.099463
  25 C :   -0.131952
  26 C :    0.087921
  27 C :   -0.164625
  28 N :    0.106181
  29 C :    0.127882
  30 C :   -0.146638
  31 C :    0.127000
  32 C :   -0.022203
  33 C :   -0.077054
  34 C :   -0.189940
  35 N :    0.153740
  36 C :   -0.149085
  37 S :    0.172321
  38 C :   -0.121589
  39 C :    0.110705
  40 C :    0.109796
  41 N :   -0.015105
  42 C :   -0.090071
  43 C :   -0.141126
  44 N :    0.185563
  45 C :   -0.045099
  46 C :    0.066782
  47 C :   -0.000782
  48 C :    0.120724
  49 C :   -0.112749
  50 C :    0.144395
  51 C :   -0.092897
  52 C :   -0.002091
  53 C :   -0.168695
  54 N :    0.139793
  55 C :    0.103760
  56 C :   -0.104681
  57 C :    0.091657
  58 C :    0.011157
  59 C :   -0.079570
  60 C :   -0.179660
  61 N :    0.133159
  62 C :    0.034420
  63 C :   -0.114050
  64 C :    0.134695
  65 O :   -0.136721
  66 C :    0.019348
  67 C :   -0.083953
  68 C :    0.114277
  69 C :    0.112489
  70 C :   -0.108203
  71 C :    0.242198
  72 C :    0.241600
  73 C :   -0.105272
  74 F :   -0.170498
  75 F :   -0.169656
  76 C :   -0.079901
  77 C :    0.029304
  78 C :    0.274562
  79 C :   -0.325608
  80 C :   -0.198415
  81 N :    0.177111
  82 C :   -0.164619
  83 N :    0.162787
  84 H :    0.009509
  85 H :    0.001532
  86 H :   -0.004277
  87 H :   -0.007615
  88 H :    0.040141
  89 H :    0.013552
  90 H :    0.002365
  91 H :   -0.058738
  92 H :    0.009232
  93 H :    0.153898
  94 H :    0.008642
  95 H :   -0.014994
  96 H :   -0.018144
  97 H :    0.006341
  98 H :    0.003577
  99 H :    0.016956
 100 H :    0.002695
 101 H :    0.020732
 102 H :   -0.007430
 103 H :    0.008939
 104 H :    0.000559
 105 H :    0.006912
Sum of atomic charges:   -0.0000000

LOEWDIN ATOMIC CHARGES
----------------------
   0 C :   -0.028470
   1 C :    0.068670
   2 F :   -0.045866
   3 C :    0.069429
   4 F :   -0.046556
   5 C :   -0.031646
   6 C :   -0.008362
   7 C :   -0.005201
   8 C :    0.019457
   9 C :   -0.023010
  10 C :   -0.055124
  11 C :    0.033928
  12 C :    0.084759
  13 O :   -0.128205
  14 C :   -0.084313
  15 C :    0.071122
  16 C :   -0.127870
  17 C :   -0.024116
  18 N :   -0.039592
  19 C :   -0.017387
  20 N :   -0.044809
  21 C :    0.078034
  22 C :   -0.034246
  23 C :    0.020545
  24 C :    0.021929
  25 C :   -0.103196
  26 C :    0.080440
  27 C :   -0.012295
  28 N :   -0.090000
  29 C :    0.045498
  30 C :   -0.061239
  31 C :   -0.018433
  32 C :    0.044581
  33 C :   -0.064225
  34 C :   -0.032448
  35 N :   -0.048441
  36 C :   -0.189888
  37 S :    0.471959
  38 C :   -0.148560
  39 C :   -0.059480
  40 C :    0.011131
  41 N :    0.097493
  42 C :   -0.013256
  43 C :   -0.044405
  44 N :   -0.016397
  45 C :   -0.030794
  46 C :   -0.025279
  47 C :   -0.001530
  48 C :   -0.007678
  49 C :   -0.023762
  50 C :    0.048656
  51 C :   -0.068639
  52 C :    0.055209
  53 C :   -0.023804
  54 N :   -0.058565
  55 C :    0.034415
  56 C :    0.019380
  57 C :   -0.037501
  58 C :    0.061844
  59 C :   -0.082097
  60 C :   -0.028358
  61 N :   -0.063399
  62 C :    0.061884
  63 C :   -0.069477
  64 C :    0.084084
  65 O :   -0.136246
  66 C :   -0.056056
  67 C :    0.032293
  68 C :   -0.009172
  69 C :   -0.004346
  70 C :   -0.029023
  71 C :    0.068054
  72 C :    0.067677
  73 C :   -0.032597
  74 F :   -0.048557
  75 F :   -0.047534
  76 C :    0.018687
  77 C :   -0.019618
  78 C :    0.062842
  79 C :   -0.121932
  80 C :   -0.013003
  81 N :   -0.039199
  82 C :   -0.015874
  83 N :   -0.041519
  84 H :    0.048508
  85 H :    0.045765
  86 H :    0.040668
  87 H :    0.041479
  88 H :    0.052698
  89 H :    0.039467
  90 H :    0.037199
  91 H :    0.020884
  92 H :    0.035432
  93 H :    0.103294
  94 H :    0.038844
  95 H :    0.032350
  96 H :    0.038426
  97 H :    0.036868
  98 H :    0.036804
  99 H :    0.033944
 100 H :    0.039891
 101 H :    0.048418
 102 H :    0.041204
 103 H :    0.048431
 104 H :    0.045151
 105 H :    0.042870

  Mayer bond orders larger than 0.100000
B(  0-C ,  1-C ) :   1.4428 B(  0-C ,  5-C ) :   0.1073 B(  0-C ,  7-C ) :   1.1880
B(  0-C , 84-H ) :   1.0066 B(  1-C ,  2-F ) :   1.1387 B(  1-C ,  3-C ) :   1.1873
B(  3-C ,  4-F ) :   1.1349 B(  3-C ,  5-C ) :   1.4437 B(  5-C ,  6-C ) :   1.1932
B(  5-C , 85-H ) :   1.0072 B(  6-C ,  7-C ) :   1.2540 B(  6-C , 11-C ) :   1.1915
B(  7-C ,  8-C ) :   1.2209 B(  8-C ,  9-C ) :   1.4456 B(  8-C , 86-H ) :   0.9900
B(  9-C , 10-C ) :   1.2178 B(  9-C , 15-C ) :   0.9941 B( 10-C , 11-C ) :   1.4708
B( 10-C , 12-C ) :   0.9451 B( 11-C , 87-H ) :   1.0167 B( 12-C , 13-O ) :   2.2102
B( 12-C , 14-C ) :   0.9414 B( 14-C , 15-C ) :   1.0473 B( 14-C , 21-C ) :   1.6152
B( 15-C , 16-C ) :   1.6556 B( 16-C , 17-C ) :   1.1397 B( 16-C , 19-C ) :   1.1420
B( 17-C , 18-N ) :   2.9863 B( 19-C , 20-N ) :   2.9642 B( 21-C , 22-C ) :   1.1074
B( 21-C , 88-H ) :   0.9486 B( 22-C , 23-C ) :   1.4901 B( 22-C , 26-C ) :   1.0686
B( 23-C , 24-C ) :   1.1296 B( 23-C , 89-H ) :   1.0088 B( 24-C , 25-C ) :   1.1315
B( 24-C , 29-C ) :   1.3603 B( 25-C , 26-C ) :   1.6443 B( 25-C , 27-C ) :   1.0947
B( 26-C , 90-H ) :   1.0047 B( 27-C , 28-N ) :   2.9763 B( 29-C , 30-C ) :   1.2038
B( 29-C , 33-C ) :   1.0981 B( 30-C , 31-C ) :   1.4847 B( 30-C , 91-H ) :   0.9897
B( 31-C , 32-C ) :   1.0200 B( 31-C , 36-C ) :   1.1820 B( 32-C , 33-C ) :   1.7013
B( 32-C , 92-H ) :   1.0144 B( 33-C , 34-C ) :   1.0823 B( 34-C , 35-N ) :   2.9750
B( 36-C , 37-S ) :   1.1102 B( 36-C , 38-C ) :   0.1048 B( 36-C , 40-C ) :   1.3398
B( 37-S , 38-C ) :   1.1325 B( 38-C , 39-C ) :   1.2529 B( 38-C , 46-C ) :   1.2133
B( 39-C , 40-C ) :   1.2544 B( 39-C , 45-C ) :   1.1919 B( 40-C , 41-N ) :   1.2226
B( 41-N , 42-C ) :   1.2191 B( 41-N , 93-H ) :   0.9182 B( 42-C , 43-C ) :   1.0554
B( 42-C , 45-C ) :   1.5780 B( 43-C , 44-N ) :   3.0554 B( 45-C , 94-H ) :   1.0080
B( 46-C , 47-C ) :   1.5447 B( 46-C , 95-H ) :   0.9554 B( 47-C , 48-C ) :   1.1804
B( 47-C , 96-H ) :   0.9772 B( 48-C , 49-C ) :   1.4672 B( 48-C , 52-C ) :   1.0278
B( 49-C , 50-C ) :   1.1477 B( 49-C , 97-H ) :   1.0100 B( 50-C , 51-C ) :   1.0955
B( 50-C , 55-C ) :   1.3905 B( 51-C , 52-C ) :   1.7004 B( 51-C , 53-C ) :   1.0954
B( 52-C , 98-H ) :   1.0126 B( 53-C , 54-N ) :   2.9501 B( 55-C , 56-C ) :   1.1370
B( 55-C , 59-C ) :   1.1285 B( 56-C , 57-C ) :   1.5073 B( 56-C , 99-H ) :   0.9902
B( 57-C , 58-C ) :   1.0547 B( 57-C , 62-C ) :   1.0742 B( 58-C , 59-C ) :   1.6532
B( 58-C ,100-H ) :   1.0225 B( 59-C , 60-C ) :   1.0860 B( 60-C , 61-N ) :   2.9660
B( 62-C , 63-C ) :   1.6694 B( 62-C ,101-H ) :   0.9456 B( 63-C , 64-C ) :   0.9331
B( 63-C , 78-C ) :   1.0279 B( 64-C , 65-O ) :   2.2711 B( 64-C , 66-C ) :   0.9190
B( 66-C , 67-C ) :   1.4697 B( 66-C , 77-C ) :   1.2224 B( 67-C , 68-C ) :   1.1961
B( 67-C ,102-H ) :   1.0166 B( 68-C , 69-C ) :   1.2576 B( 68-C , 73-C ) :   1.1916
B( 69-C , 70-C ) :   1.1883 B( 69-C , 76-C ) :   1.2160 B( 70-C , 71-C ) :   1.4419
B( 70-C , 73-C ) :   0.1089 B( 70-C ,103-H ) :   1.0075 B( 71-C , 72-C ) :   1.1911
B( 71-C , 75-F ) :   1.1360 B( 72-C , 73-C ) :   1.4439 B( 72-C , 74-F ) :   1.1349
B( 73-C ,104-H ) :   1.0071 B( 76-C , 77-C ) :   1.4587 B( 76-C ,105-H ) :   0.9946
B( 77-C , 78-C ) :   0.9913 B( 78-C , 79-C ) :   1.6682 B( 79-C , 80-C ) :   1.1767
B( 79-C , 82-C ) :   1.1268 B( 80-C , 81-N ) :   2.9855 B( 82-C , 83-N ) :   2.9912

-----------------------------------------------------------------------------
         ABSORPTION SPECTRUM VIA TRANSITION ELECTRIC DIPOLE MOMENTS
-----------------------------------------------------------------------------
State   Energy  Wavelength   fosc         T2         TX        TY        TZ
        (cm-1)    (nm)                  (au**2)     (au)      (au)      (au)
-----------------------------------------------------------------------------
   0    8864.5   1128.1   1.555771013  57.77872  -0.59909  -7.00476  -2.89018
   1   13022.2    767.9   0.012890502   0.32588   0.53753  -0.19199  -0.00892
   2   15756.6    634.7   0.004044104   0.08450  -0.26313   0.01516  -0.12260
   3   17129.9    583.8   0.018755305   0.36045   0.11833  -0.39355  -0.43768
   4   19545.5    511.6   0.006996254   0.11784   0.17895  -0.02715  -0.29169
   5   20066.1    498.4   0.024013423   0.39397  -0.36853  -0.37866  -0.33878
   6   20929.9    477.8   0.558552722   8.78563  -0.08917  -2.67401  -1.27568
   7   22212.6    450.2   0.022193055   0.32892  -0.06620  -0.55203   0.14071
   8   23207.0    430.9   0.149841379   2.12564   0.54503  -1.27325  -0.45542
   9   23529.3    425.0   0.183413764   2.56625  -0.19439  -1.54148  -0.39027
  10   23752.3    421.0   0.015395538   0.21339  -0.30133   0.03578  -0.34829
  11   24090.0    415.1   0.238451112   3.25865  -0.28408  -1.10659  -1.39765
  12   24395.1    409.9   0.110936677   1.49709  -0.00484   1.20910  -0.18745
  13   25363.6    394.3   0.106022018   1.37614  -0.11229  -0.32959  -1.12022
  14   25809.7    387.5   0.006059955   0.07730  -0.03453   0.13844   0.23862
  15   25896.6    386.2   0.030189740   0.38379  -0.43178   0.01143   0.44410
  16   26201.9    381.7   0.014523032   0.18247   0.15517   0.25045  -0.30931
  17   26343.1    379.6   0.059375956   0.74203   0.17515   0.81296   0.22459
  18   27293.9    366.4   0.013292359   0.16033   0.09479   0.37758  -0.09369
  19   27811.8    359.6   0.065086235   0.77044  -0.18403   0.85746   0.03659
  20   27958.2    357.7   0.112921339   1.32967   0.02863   1.09588   0.35764
  21   28100.7    355.9   0.051381818   0.60196   0.17344   0.11602   0.74727
  22   28564.9    350.1   0.089951882   1.03670  -0.54636   0.33585   0.79082
  23   29072.5    344.0   0.102679586   1.16272  -0.03987  -1.01032  -0.37469
  24   29202.4    342.4   0.146429353   1.65076   0.35840  -0.51631  -1.12060
  25   29355.8    340.6   0.041393063   0.46420  -0.45164   0.19040   0.47326
  26   30342.7    329.6   0.170853451   1.85373   0.88199  -0.42863  -0.94451
  27   30419.8    328.7   0.063629216   0.68861  -0.07847   0.81233   0.15026
  28   30819.0    324.5   0.087782470   0.93770  -0.29988  -0.15045   0.90837
  29   30984.4    322.7   0.061993093   0.65868   0.34813  -0.36460  -0.63605
  30   31654.7    315.9   0.050626380   0.52652   0.05025   0.00109   0.72387
  31   31693.9    315.5   0.005529064   0.05743   0.14750  -0.17416   0.07310
  32   32208.8    310.5   0.348108965   3.55808  -0.52484   1.03598   1.48639
  33   32427.7    308.4   0.046681652   0.47392   0.21215  -0.53529  -0.37734
  34   32938.3    303.6   0.122394240   1.22331   0.85886  -0.41441  -0.56029
  35   33128.4    301.9   0.032321966   0.32120   0.15728  -0.49467  -0.22752
  36   33433.3    299.1   0.192662379   1.89711  -1.01658   0.61273   0.69874
  37   33625.0    297.4   0.052343317   0.51248  -0.31524  -0.25961   0.58797
  38   33929.6    294.7   0.184482626   1.79000   0.25970  -0.90591  -0.94968
  39   34148.3    292.8   0.021567170   0.20792  -0.34382  -0.29224  -0.06557
  40   34566.8    289.3   0.222424104   2.11835   0.94145  -0.60026  -0.93365
  41   34727.6    288.0   0.043654943   0.41384  -0.07109   0.63936   0.00016
  42   34860.3    286.9   0.267320411   2.52451   1.01696   0.07669  -1.21837
  43   34954.8    286.1   0.145917215   1.37428   0.34627  -0.05220  -1.11877
  44   35204.5    284.1   0.009606500   0.08983   0.23224   0.06804   0.17684
  45   35478.4    281.9   0.054923069   0.50964  -0.17179   0.27464   0.63616
  46   35856.2    278.9   0.091551450   0.84058  -0.54310   0.43300   0.59843
  47   35952.3    278.1   0.031681711   0.29011  -0.27142   0.33401   0.32384
  48   36337.8    275.2   0.248950448   2.25543   0.48224   1.41702   0.12223
  49   36492.1    274.0   0.612498441   5.52563   1.17402  -1.19822  -1.64668
  50   36654.0    272.8   0.024978731   0.22435   0.35614  -0.17135  -0.26106
  51   37068.3    269.8   0.031706925   0.28160   0.41083   0.29705   0.15677
  52   37372.3    267.6   0.016746730   0.14752   0.16559  -0.34552   0.02680
  53   37406.9    267.3   0.032927586   0.28979   0.22290   0.29273   0.39295
  54   37484.4    266.8   0.185109104   1.62575  -0.07385  -1.24716   0.25470
  55   37894.9    263.9   0.025834506   0.22444  -0.18675  -0.30763   0.30810
  56   38261.5    261.4   0.003639544   0.03132  -0.01911   0.01972  -0.17482
  57   38483.6    259.9   0.002988085   0.02556   0.10415  -0.07679  -0.09390
  58   38725.3    258.2   0.069651665   0.59212  -0.27791  -0.68155   0.22445
  59   38821.7    257.6   0.023123658   0.19609   0.06267  -0.07433  -0.43202
  60   39072.1    255.9   0.060559118   0.51026   0.43461  -0.42511  -0.37504
  61   39204.6    255.1   0.181398049   1.52325  -0.20611  -1.08806   0.54489
  62   39349.0    254.1   0.120526912   1.00838   0.27768   0.17297  -0.94940
  63   39887.0    250.7   0.080556595   0.66488  -0.23919   0.77542   0.07999
  64   40272.1    248.3   0.061995416   0.50679   0.01603  -0.52948   0.47559
  65   40322.0    248.0   0.004643049   0.03791   0.06065  -0.11463  -0.14522

FINAL SINGLE POINT ENERGY     -4056.931309264068

DIPOLE MOMENT
-------------
                                X             Y             Z
Electronic contribution:     -6.58134      13.21513      -6.58523
Nuclear contribution   :      6.77972     -14.31630       6.41184
                        -----------------------------------------
Total Dipole Moment    :      0.19838      -1.10116      -0.17339
                        -----------------------------------------
Magnitude (a.u.)       :      1.13225
Magnitude (Debye)      :      2.87794

Rotational constants in cm-1:     0.001813     0.000126     0.000122
Rotational constants in MHz :    54.341001     3.778699     3.649567

                             ****ORCA TERMINATED NORMALLY****
TOTAL RUN TIME: 0 days 0 hours 13 minutes 8 seconds 744 msec
