                         Program Version 4.2.0 -  RELEASE  -
|  1> # ORCA input file
|  2> # SCF done       -168.523552017116          0.000741627330
|  3> ! CAM-B3LYP def2-SVP def2/J RIJCOSX Grid4 TightSCF
|  4> %maxcore 5000
|  5> %tddft
|  6>     Mode sTDDFT
|  7>     Ethresh 5.0
|  8>     maxcore 5000
|  9> end
| 10>
| 11> %pal
| 12>   nprocs 6
| 13>   end
| 14> * xyz 0 1
| 15>    C        0.07635         0.12182         1.33966
| 16>    C       -0.03145         1.41783         1.75799
| 17>    F        0.99977         2.26021         1.61255
| 18>    C       -1.22400         1.88533         2.34765
| 19>    F       -1.29930         3.16058         2.74967
| 20>    C       -2.29264         1.04905         2.50915
| 21>    C       -2.21250        -0.29312         2.08868
| 22>    C       -1.00677        -0.76812         1.49412
| 23>    C       -0.90020        -2.11166         1.07240
| 24>    C       -1.96655        -2.95857         1.24013
| 25>    C       -3.16959        -2.47164         1.82313
| 26>    C       -3.30096        -1.17877         2.24278
| 27>    C       -4.17045        -3.55327         1.87714
| 28>    O       -5.26317        -3.50186         2.38816
| 29>    C       -3.52290        -4.72393         1.20793
| 30>    C       -2.13340        -4.36952         0.91946
| 31>    C       -1.15317        -5.20800         0.46999
| 32>    C       -1.31435        -6.58725         0.21813
| 33>    N       -1.36770        -7.71244        -0.00469
| 34>    C        0.17242        -4.80201         0.20244
| 35>    N        1.26346        -4.52969        -0.02584
| 36>    C       -4.15144        -5.86414         0.88006
| 37>    C       -5.61746        -6.10355         1.07751
| 38>    C       -5.90176        -7.55627         1.27669
| 39>    N       -5.80484        -8.15977         2.44017
| 40>    S       -6.19110        -9.72555         2.26556
| 41>    N       -6.49982        -9.66619         0.67205
| 42>    C       -6.30989        -8.43920         0.24297
| 43>    C       -6.45095        -8.02212        -1.18994
| 44>    C       -6.69770        -6.55070        -1.22247
| 45>    C       -6.29295        -5.66345        -0.19141
| 46>    N       -6.56264        -4.40866        -0.47081
| 47>    S       -7.28507        -4.32912        -1.91818
| 48>    N       -7.26744        -5.92429        -2.22698
| 49>    C       -5.14811        -8.34945        -1.86354
| 50>    C       -4.14892        -7.49180        -2.19087
| 51>    C       -3.03784        -8.24810        -2.71122
| 52>    C       -3.47443        -9.65264        -2.70567
| 53>    C       -4.73029        -9.69867        -2.18012
| 54>    C       -2.74529       -10.75465        -3.16191
| 55>    N       -2.17685       -11.67591        -3.54711
| 56>    C       -1.80026        -7.76840        -3.03233
| 57>    C       -0.64927        -8.51776        -3.43769
| 58>    C        0.43082        -7.68116        -3.51888
| 59>    C       -0.02070        -6.33088        -3.20951
| 60>    C       -1.34891        -6.36635        -2.92464
| 61>    C       -2.10808        -5.26192        -2.53633
| 62>    N       -2.68842        -4.33593        -2.17475
| 63>    C        1.78757        -8.05525        -3.83167
| 64>    C        2.06480        -9.17416        -4.60099
| 65>    C        3.36757        -9.54260        -4.91473
| 66>    C        4.46566        -8.82836        -4.46592
| 67>    C        4.22541        -7.68939        -3.64456
| 68>    N        5.26100        -7.00168        -3.12320
| 69>    C        5.00126        -5.99604        -2.33205
| 70>    C        3.68200        -5.61260        -2.02789
| 71>    N        2.65956        -6.25578        -2.52084
| 72>    C        2.89000        -7.30464        -3.33266
| 73>    C        5.81553        -9.24677        -4.80387
| 74>    C        6.92233        -8.36406        -4.94995
| 75>    C        8.07184        -9.01046        -5.27636
| 76>    S        9.67363        -8.37567        -5.56978
| 77>    C        9.42846        -6.62264        -5.16860
| 78>    S        7.83441       -10.73079        -5.40398
| 79>    C        6.17117       -10.55073        -5.03293
| 80>    H        0.99651        -0.21908         0.89148
| 81>    H       -3.19838         1.42161         2.96137
| 82>    H        0.02250        -2.43862         0.62164
| 83>    H       -4.22545        -0.83862         2.68395
| 84>    H       -3.61998        -6.65493         0.36692
| 85>    H       -5.98134        -5.50689         1.91835
| 86>    H       -7.26206        -8.57382        -1.67463
| 87>    H       -4.15680        -6.42377        -2.09610
| 88>    H       -5.32840       -10.57496        -2.01179
| 89>    H       -0.64928        -9.58016        -3.57909
| 90>    H        0.60943        -5.46295        -3.21336
| 91>    H        1.24692        -9.76033        -4.99136
| 92>    H        3.52518       -10.40355        -5.54624
| 93>    H        5.85310        -5.47039        -1.92112
| 94>    H        3.45773        -4.78259        -1.37327
| 95>    H        6.83168        -7.30443        -4.81828
| 96>    H       10.40397        -6.15594        -5.26034
| 97>    H        9.06228        -6.53237        -4.15082
| 98>    H        8.73509        -6.17806        -5.87599
| 99>    H        5.55886       -11.42714        -4.96038
|100> *
|101>
|102>                          ****END OF INPUT****

CARTESIAN COORDINATES (ANGSTROEM)
---------------------------------
  C      0.076350    0.121820    1.339660
  C     -0.031450    1.417830    1.757990
  F      0.999770    2.260210    1.612550
  C     -1.224000    1.885330    2.347650
  F     -1.299300    3.160580    2.749670
  C     -2.292640    1.049050    2.509150
  C     -2.212500   -0.293120    2.088680
  C     -1.006770   -0.768120    1.494120
  C     -0.900200   -2.111660    1.072400
  C     -1.966550   -2.958570    1.240130
  C     -3.169590   -2.471640    1.823130
  C     -3.300960   -1.178770    2.242780
  C     -4.170450   -3.553270    1.877140
  O     -5.263170   -3.501860    2.388160
  C     -3.522900   -4.723930    1.207930
  C     -2.133400   -4.369520    0.919460
  C     -1.153170   -5.208000    0.469990
  C     -1.314350   -6.587250    0.218130
  N     -1.367700   -7.712440   -0.004690
  C      0.172420   -4.802010    0.202440
  N      1.263460   -4.529690   -0.025840
  C     -4.151440   -5.864140    0.880060
  C     -5.617460   -6.103550    1.077510
  C     -5.901760   -7.556270    1.276690
  N     -5.804840   -8.159770    2.440170
  S     -6.191100   -9.725550    2.265560
  N     -6.499820   -9.666190    0.672050
  C     -6.309890   -8.439200    0.242970
  C     -6.450950   -8.022120   -1.189940
  C     -6.697700   -6.550700   -1.222470
  C     -6.292950   -5.663450   -0.191410
  N     -6.562640   -4.408660   -0.470810
  S     -7.285070   -4.329120   -1.918180
  N     -7.267440   -5.924290   -2.226980
  C     -5.148110   -8.349450   -1.863540
  C     -4.148920   -7.491800   -2.190870
  C     -3.037840   -8.248100   -2.711220
  C     -3.474430   -9.652640   -2.705670
  C     -4.730290   -9.698670   -2.180120
  C     -2.745290  -10.754650   -3.161910
  N     -2.176850  -11.675910   -3.547110
  C     -1.800260   -7.768400   -3.032330
  C     -0.649270   -8.517760   -3.437690
  C      0.430820   -7.681160   -3.518880
  C     -0.020700   -6.330880   -3.209510
  C     -1.348910   -6.366350   -2.924640
  C     -2.108080   -5.261920   -2.536330
  N     -2.688420   -4.335930   -2.174750
  C      1.787570   -8.055250   -3.831670
  C      2.064800   -9.174160   -4.600990
  C      3.367570   -9.542600   -4.914730
  C      4.465660   -8.828360   -4.465920
  C      4.225410   -7.689390   -3.644560
  N      5.261000   -7.001680   -3.123200
  C      5.001260   -5.996040   -2.332050
  C      3.682000   -5.612600   -2.027890
  N      2.659560   -6.255780   -2.520840
  C      2.890000   -7.304640   -3.332660
  C      5.815530   -9.246770   -4.803870
  C      6.922330   -8.364060   -4.949950
  C      8.071840   -9.010460   -5.276360
  S      9.673630   -8.375670   -5.569780
  C      9.428460   -6.622640   -5.168600
  S      7.834410  -10.730790   -5.403980
  C      6.171170  -10.550730   -5.032930
  H      0.996510   -0.219080    0.891480
  H     -3.198380    1.421610    2.961370
  H      0.022500   -2.438620    0.621640
  H     -4.225450   -0.838620    2.683950
  H     -3.619980   -6.654930    0.366920
  H     -5.981340   -5.506890    1.918350
  H     -7.262060   -8.573820   -1.674630
  H     -4.156800   -6.423770   -2.096100
  H     -5.328400  -10.574960   -2.011790
  H     -0.649280   -9.580160   -3.579090
  H      0.609430   -5.462950   -3.213360
  H      1.246920   -9.760330   -4.991360
  H      3.525180  -10.403550   -5.546240
  H      5.853100   -5.470390   -1.921120
  H      3.457730   -4.782590   -1.373270
  H      6.831680   -7.304430   -4.818280
  H     10.403970   -6.155940   -5.260340
  H      9.062280   -6.532370   -4.150820
  H      8.735090   -6.178060   -5.875990
  H      5.558860  -11.427140   -4.960380

 Total Charge           Charge          ....    0
 Multiplicity           Mult            ....    1
 Number of Electrons    NEL             ....  468
 Basis Dimension        Dim             .... 1026

ORBITAL ENERGIES
----------------

  NO   OCC          E(Eh)            E(eV)
   0   2.0000     -89.014273     -2422.2015
   1   2.0000     -89.013135     -2422.1705
   2   2.0000     -88.949951     -2420.4512
   3   2.0000     -88.925356     -2419.7820
   4   2.0000     -24.801962      -674.8957
   5   2.0000     -24.801318      -674.8782
   6   2.0000     -19.224644      -523.1292
   7   2.0000     -14.443615      -393.0307
   8   2.0000     -14.443261      -393.0211
   9   2.0000     -14.441094      -392.9621
  10   2.0000     -14.440712      -392.9517
  11   2.0000     -14.427837      -392.6014
  12   2.0000     -14.425661      -392.5422
  13   2.0000     -14.425515      -392.5382
  14   2.0000     -14.425379      -392.5345
  15   2.0000     -14.411881      -392.1672
  16   2.0000     -14.403375      -391.9358
  17   2.0000     -10.385497      -282.6037
  18   2.0000     -10.384870      -282.5867
  19   2.0000     -10.374602      -282.3073
  20   2.0000     -10.350078      -281.6399
  21   2.0000     -10.348741      -281.6036
  22   2.0000     -10.335198      -281.2350
  23   2.0000     -10.333902      -281.1998
  24   2.0000     -10.332858      -281.1714
  25   2.0000     -10.331890      -281.1450
  26   2.0000     -10.330715      -281.1130
  27   2.0000     -10.327838      -281.0348
  28   2.0000     -10.325390      -280.9681
  29   2.0000     -10.321290      -280.8566
  30   2.0000     -10.319317      -280.8029
  31   2.0000     -10.319261      -280.8014
  32   2.0000     -10.319022      -280.7949
  33   2.0000     -10.316714      -280.7321
  34   2.0000     -10.316505      -280.7264
  35   2.0000     -10.315569      -280.7009
  36   2.0000     -10.314745      -280.6785
  37   2.0000     -10.314568      -280.6737
  38   2.0000     -10.314466      -280.6709
  39   2.0000     -10.311675      -280.5949
  40   2.0000     -10.311485      -280.5898
  41   2.0000     -10.309841      -280.5450
  42   2.0000     -10.307293      -280.4757
  43   2.0000     -10.307267      -280.4750
  44   2.0000     -10.307139      -280.4715
  45   2.0000     -10.306425      -280.4521
  46   2.0000     -10.305884      -280.4374
  47   2.0000     -10.305677      -280.4317
  48   2.0000     -10.304710      -280.4054
  49   2.0000     -10.304548      -280.4010
  50   2.0000     -10.303556      -280.3740
  51   2.0000     -10.302937      -280.3572
  52   2.0000     -10.302120      -280.3349
  53   2.0000     -10.298551      -280.2378
  54   2.0000     -10.296888      -280.1926
  55   2.0000     -10.294747      -280.1343
  56   2.0000     -10.293386      -280.0973
  57   2.0000     -10.292422      -280.0710
  58   2.0000     -10.287949      -279.9493
  59   2.0000     -10.286069      -279.8982
  60   2.0000     -10.283238      -279.8211
  61   2.0000     -10.282749      -279.8078
  62   2.0000     -10.279272      -279.7132
  63   2.0000     -10.276362      -279.6340
  64   2.0000     -10.258442      -279.1464
  65   2.0000      -8.107103      -220.6055
  66   2.0000      -8.105888      -220.5724
  67   2.0000      -8.046161      -218.9472
  68   2.0000      -8.021167      -218.2671
  69   2.0000      -6.078747      -165.4111
  70   2.0000      -6.077477      -165.3766
  71   2.0000      -6.071091      -165.2028
  72   2.0000      -6.069829      -165.1685
  73   2.0000      -6.068256      -165.1256
  74   2.0000      -6.067145      -165.0954
  75   2.0000      -6.015582      -163.6923
  76   2.0000      -6.011237      -163.5741
  77   2.0000      -6.008130      -163.4895
  78   2.0000      -5.991737      -163.0435
  79   2.0000      -5.987544      -162.9294
  80   2.0000      -5.980602      -162.7404
  81   2.0000      -1.324684       -36.0465
  82   2.0000      -1.309801       -35.6415
  83   2.0000      -1.140554       -31.0361
  84   2.0000      -1.128792       -30.7160
  85   2.0000      -1.123615       -30.5751
  86   2.0000      -1.082655       -29.4605
  87   2.0000      -1.028493       -27.9867
  88   2.0000      -1.014257       -27.5993
  89   2.0000      -1.010045       -27.4847
  90   2.0000      -1.006543       -27.3894
  91   2.0000      -1.005008       -27.3477
  92   2.0000      -1.000047       -27.2127
  93   2.0000      -0.991145       -26.9704
  94   2.0000      -0.986851       -26.8536
  95   2.0000      -0.984464       -26.7886
  96   2.0000      -0.980479       -26.6802
  97   2.0000      -0.978232       -26.6190
  98   2.0000      -0.977341       -26.5948
  99   2.0000      -0.960727       -26.1427
 100   2.0000      -0.953114       -25.9356
 101   2.0000      -0.935703       -25.4618
 102   2.0000      -0.911062       -24.7913
 103   2.0000      -0.898037       -24.4368
 104   2.0000      -0.896622       -24.3983
 105   2.0000      -0.890416       -24.2295
 106   2.0000      -0.880575       -23.9617
 107   2.0000      -0.867493       -23.6057
 108   2.0000      -0.864362       -23.5205
 109   2.0000      -0.859314       -23.3831
 110   2.0000      -0.851198       -23.1623
 111   2.0000      -0.844867       -22.9900
 112   2.0000      -0.842337       -22.9212
 113   2.0000      -0.831757       -22.6332
 114   2.0000      -0.813582       -22.1387
 115   2.0000      -0.804606       -21.8944
 116   2.0000      -0.797022       -21.6881
 117   2.0000      -0.780514       -21.2389
 118   2.0000      -0.772858       -21.0305
 119   2.0000      -0.767074       -20.8732
 120   2.0000      -0.757866       -20.6226
 121   2.0000      -0.748837       -20.3769
 122   2.0000      -0.739252       -20.1161
 123   2.0000      -0.733183       -19.9509
 124   2.0000      -0.725366       -19.7382
 125   2.0000      -0.716769       -19.5043
 126   2.0000      -0.713159       -19.4060
 127   2.0000      -0.707281       -19.2461
 128   2.0000      -0.701861       -19.0986
 129   2.0000      -0.693509       -18.8713
 130   2.0000      -0.685969       -18.6662
 131   2.0000      -0.678769       -18.4702
 132   2.0000      -0.672439       -18.2980
 133   2.0000      -0.664481       -18.0814
 134   2.0000      -0.663442       -18.0532
 135   2.0000      -0.656895       -17.8750
 136   2.0000      -0.651492       -17.7280
 137   2.0000      -0.645738       -17.5714
 138   2.0000      -0.643629       -17.5140
 139   2.0000      -0.633005       -17.2250
 140   2.0000      -0.627968       -17.0879
 141   2.0000      -0.624720       -16.9995
 142   2.0000      -0.619593       -16.8600
 143   2.0000      -0.613918       -16.7056
 144   2.0000      -0.610127       -16.6024
 145   2.0000      -0.601755       -16.3746
 146   2.0000      -0.598652       -16.2901
 147   2.0000      -0.594062       -16.1653
 148   2.0000      -0.589063       -16.0292
 149   2.0000      -0.585553       -15.9337
 150   2.0000      -0.582683       -15.8556
 151   2.0000      -0.569565       -15.4986
 152   2.0000      -0.565312       -15.3829
 153   2.0000      -0.560465       -15.2510
 154   2.0000      -0.557634       -15.1740
 155   2.0000      -0.550915       -14.9912
 156   2.0000      -0.550663       -14.9843
 157   2.0000      -0.549987       -14.9659
 158   2.0000      -0.544946       -14.8287
 159   2.0000      -0.541272       -14.7287
 160   2.0000      -0.537838       -14.6353
 161   2.0000      -0.535967       -14.5844
 162   2.0000      -0.533465       -14.5163
 163   2.0000      -0.529064       -14.3966
 164   2.0000      -0.527148       -14.3444
 165   2.0000      -0.525372       -14.2961
 166   2.0000      -0.523319       -14.2402
 167   2.0000      -0.522366       -14.2143
 168   2.0000      -0.520218       -14.1559
 169   2.0000      -0.516860       -14.0645
 170   2.0000      -0.515614       -14.0306
 171   2.0000      -0.513472       -13.9723
 172   2.0000      -0.512936       -13.9577
 173   2.0000      -0.511254       -13.9119
 174   2.0000      -0.502909       -13.6849
 175   2.0000      -0.501239       -13.6394
 176   2.0000      -0.498130       -13.5548
 177   2.0000      -0.496558       -13.5120
 178   2.0000      -0.490848       -13.3567
 179   2.0000      -0.487632       -13.2692
 180   2.0000      -0.484737       -13.1904
 181   2.0000      -0.482219       -13.1219
 182   2.0000      -0.476346       -12.9620
 183   2.0000      -0.475759       -12.9461
 184   2.0000      -0.473714       -12.8904
 185   2.0000      -0.472993       -12.8708
 186   2.0000      -0.470588       -12.8054
 187   2.0000      -0.467287       -12.7155
 188   2.0000      -0.464108       -12.6290
 189   2.0000      -0.461650       -12.5621
 190   2.0000      -0.458894       -12.4871
 191   2.0000      -0.455435       -12.3930
 192   2.0000      -0.454947       -12.3797
 193   2.0000      -0.452192       -12.3048
 194   2.0000      -0.448930       -12.2160
 195   2.0000      -0.446016       -12.1367
 196   2.0000      -0.442900       -12.0519
 197   2.0000      -0.437234       -11.8978
 198   2.0000      -0.436937       -11.8896
 199   2.0000      -0.434085       -11.8121
 200   2.0000      -0.433803       -11.8044
 201   2.0000      -0.432560       -11.7706
 202   2.0000      -0.429044       -11.6749
 203   2.0000      -0.425223       -11.5709
 204   2.0000      -0.420042       -11.4299
 205   2.0000      -0.417961       -11.3733
 206   2.0000      -0.416212       -11.3257
 207   2.0000      -0.414042       -11.2667
 208   2.0000      -0.412783       -11.2324
 209   2.0000      -0.401239       -10.9183
 210   2.0000      -0.397577       -10.8186
 211   2.0000      -0.393931       -10.7194
 212   2.0000      -0.393132       -10.6977
 213   2.0000      -0.392635       -10.6841
 214   2.0000      -0.386468       -10.5163
 215   2.0000      -0.383669       -10.4402
 216   2.0000      -0.383178       -10.4268
 217   2.0000      -0.371269       -10.1028
 218   2.0000      -0.367195        -9.9919
 219   2.0000      -0.360999        -9.8233
 220   2.0000      -0.348760        -9.4902
 221   2.0000      -0.347701        -9.4614
 222   2.0000      -0.339318        -9.2333
 223   2.0000      -0.336289        -9.1509
 224   2.0000      -0.332634        -9.0514
 225   2.0000      -0.331549        -9.0219
 226   2.0000      -0.329400        -8.9634
 227   2.0000      -0.321106        -8.7377
 228   2.0000      -0.315398        -8.5824
 229   2.0000      -0.309788        -8.4298
 230   2.0000      -0.303669        -8.2633
 231   2.0000      -0.302055        -8.2193
 232   2.0000      -0.275292        -7.4911
 233   2.0000      -0.252461        -6.8698
 234   0.0000      -0.109547        -2.9809
 235   0.0000      -0.092979        -2.5301
 236   0.0000      -0.060758        -1.6533
 237   0.0000      -0.048923        -1.3313
 238   0.0000      -0.034189        -0.9303

MULLIKEN ATOMIC CHARGES
-----------------------
   0 C :   -0.106270
   1 C :    0.242035
   2 F :   -0.171184
   3 C :    0.239283
   4 F :   -0.170353
   5 C :   -0.102867
   6 C :    0.118541
   7 C :    0.116615
   8 C :   -0.083508
   9 C :    0.055300
  10 C :    0.000221
  11 C :   -0.079800
  12 C :    0.160771
  13 O :   -0.129848
  14 C :   -0.023004
  15 C :    0.365774
  16 C :   -0.364750
  17 C :   -0.193198
  18 N :    0.158620
  19 C :   -0.166837
  20 N :    0.158354
  21 C :   -0.080022
  22 C :    0.218398
  23 C :   -0.111398
  24 N :   -0.252916
  25 S :    0.466753
  26 N :   -0.274859
  27 C :   -0.080258
  28 C :    0.341220
  29 C :   -0.134847
  30 C :   -0.100630
  31 N :   -0.248968
  32 S :    0.474249
  33 N :   -0.255793
  34 C :   -0.024670
  35 C :   -0.122514
  36 C :    0.126886
  37 C :   -0.082925
  38 C :    0.003665
  39 C :   -0.174994
  40 N :    0.128918
  41 C :    0.135756
  42 C :   -0.108449
  43 C :    0.071478
  44 C :    0.043312
  45 C :   -0.146889
  46 C :   -0.165068
  47 N :    0.119693
  48 C :    0.107413
  49 C :   -0.034294
  50 C :   -0.053081
  51 C :    0.132743
  52 C :   -0.058012
  53 N :   -0.017339
  54 C :    0.030053
  55 C :    0.033859
  56 N :   -0.036769
  57 C :   -0.036461
  58 C :    0.047977
  59 C :    0.038141
  60 C :   -0.167750
  61 S :   -0.008682
  62 C :   -0.090330
  63 S :    0.128577
  64 C :   -0.137540
  65 H :    0.003756
  66 H :    0.001100
  67 H :   -0.010891
  68 H :   -0.007249
  69 H :    0.041881
  70 H :    0.060945
  71 H :    0.019817
  72 H :    0.010653
  73 H :    0.000573
  74 H :    0.001574
  75 H :    0.006810
  76 H :   -0.009350
  77 H :   -0.017671
  78 H :    0.009568
  79 H :    0.019663
  80 H :   -0.021159
  81 H :    0.061905
  82 H :    0.070991
  83 H :    0.068489
  84 H :    0.021067
Sum of atomic charges:   -0.0000000

LOEWDIN ATOMIC CHARGES
----------------------
   0 C :   -0.029653
   1 C :    0.067318
   2 F :   -0.048694
   3 C :    0.068719
   4 F :   -0.047984
   5 C :   -0.031951
   6 C :   -0.006359
   7 C :   -0.005085
   8 C :    0.021485
   9 C :   -0.018138
  10 C :   -0.049049
  11 C :    0.033829
  12 C :    0.092889
  13 O :   -0.120840
  14 C :   -0.071467
  15 C :    0.092449
  16 C :   -0.132048
  17 C :   -0.015981
  18 N :   -0.046761
  19 C :   -0.001154
  20 N :   -0.055264
  21 C :    0.093208
  22 C :   -0.026982
  23 C :   -0.052922
  24 N :   -0.259565
  25 S :    0.596384
  26 N :   -0.272288
  27 C :   -0.048094
  28 C :   -0.018076
  29 C :   -0.052523
  30 C :   -0.050553
  31 N :   -0.256665
  32 S :    0.602396
  33 N :   -0.263252
  34 C :   -0.008002
  35 C :   -0.033809
  36 C :    0.033950
  37 C :   -0.076443
  38 C :    0.048433
  39 C :   -0.026996
  40 N :   -0.068086
  41 C :    0.054613
  42 C :   -0.014500
  43 C :    0.004774
  44 C :    0.080864
  45 C :   -0.104507
  46 C :   -0.023461
  47 N :   -0.088711
  48 C :   -0.032639
  49 C :    0.011036
  50 C :   -0.011203
  51 C :    0.001781
  52 C :   -0.007479
  53 N :   -0.027421
  54 C :    0.002168
  55 C :    0.014514
  56 N :   -0.031362
  57 C :    0.000601
  58 C :   -0.057626
  59 C :   -0.091274
  60 C :   -0.322479
  61 S :    0.275484
  62 C :   -0.149058
  63 S :    0.426000
  64 C :   -0.189653
  65 H :    0.046392
  66 H :    0.045622
  67 H :    0.038531
  68 H :    0.041570
  69 H :    0.037740
  70 H :    0.063375
  71 H :    0.059257
  72 H :    0.028785
  73 H :    0.038403
  74 H :    0.033977
  75 H :    0.035781
  76 H :    0.037366
  77 H :    0.033371
  78 H :    0.025313
  79 H :    0.025333
  80 H :    0.022344
  81 H :    0.033478
  82 H :    0.029088
  83 H :    0.026332
  84 H :    0.021106

  Mayer bond orders larger than 0.100000
B(  0-C ,  1-C ) :   1.4456 B(  0-C ,  5-C ) :   0.1086 B(  0-C ,  7-C ) :   1.1847
B(  0-C , 65-H ) :   1.0057 B(  1-C ,  2-F ) :   1.1345 B(  1-C ,  3-C ) :   1.1882
B(  3-C ,  4-F ) :   1.1348 B(  3-C ,  5-C ) :   1.4460 B(  5-C ,  6-C ) :   1.1896
B(  5-C , 66-H ) :   1.0068 B(  6-C ,  7-C ) :   1.2531 B(  6-C , 11-C ) :   1.1955
B(  7-C ,  8-C ) :   1.2267 B(  8-C ,  9-C ) :   1.4373 B(  8-C , 67-H ) :   0.9886
B(  9-C , 10-C ) :   1.2258 B(  9-C , 15-C ) :   1.0001 B( 10-C , 11-C ) :   1.4659
B( 10-C , 12-C ) :   0.9399 B( 11-C , 68-H ) :   1.0153 B( 12-C , 13-O ) :   2.2247
B( 12-C , 14-C ) :   0.9145 B( 14-C , 15-C ) :   1.0250 B( 14-C , 21-C ) :   1.7959
B( 15-C , 16-C ) :   1.6600 B( 16-C , 17-C ) :   1.1531 B( 16-C , 19-C ) :   1.1445
B( 17-C , 18-N ) :   2.9273 B( 19-C , 20-N ) :   2.9392 B( 21-C , 22-C ) :   1.0245
B( 21-C , 69-H ) :   0.9228 B( 22-C , 23-C ) :   0.9541 B( 22-C , 30-C ) :   0.9905
B( 22-C , 70-H ) :   0.8610 B( 23-C , 24-N ) :   1.6982 B( 23-C , 27-C ) :   1.2221
B( 24-N , 25-S ) :   1.2139 B( 24-N , 26-N ) :   0.1220 B( 25-S , 26-N ) :   1.2069
B( 26-N , 27-C ) :   1.6725 B( 27-C , 28-C ) :   0.9860 B( 28-C , 29-C ) :   0.9724
B( 28-C , 34-C ) :   1.0138 B( 28-C , 71-H ) :   0.8235 B( 29-C , 30-C ) :   1.2147
B( 29-C , 33-N ) :   1.6940 B( 30-C , 31-N ) :   1.6906 B( 31-N , 32-S ) :   1.2177
B( 31-N , 33-N ) :   0.1232 B( 32-S , 33-N ) :   1.2131 B( 34-C , 35-C ) :   1.6645
B( 34-C , 38-C ) :   1.0820 B( 35-C , 36-C ) :   1.0589 B( 35-C , 72-H ) :   0.9948
B( 36-C , 37-C ) :   1.1261 B( 36-C , 41-C ) :   1.4694 B( 37-C , 38-C ) :   1.6417
B( 37-C , 39-C ) :   1.0921 B( 38-C , 73-H ) :   1.0248 B( 39-C , 40-N ) :   2.9638
B( 41-C , 42-C ) :   1.0865 B( 41-C , 45-C ) :   1.0992 B( 42-C , 43-C ) :   1.6113
B( 42-C , 74-H ) :   0.9974 B( 43-C , 44-C ) :   1.0579 B( 43-C , 48-C ) :   0.9843
B( 44-C , 45-C ) :   1.6393 B( 44-C , 75-H ) :   1.0152 B( 45-C , 46-C ) :   1.1033
B( 46-C , 47-N ) :   2.9178 B( 48-C , 49-C ) :   1.4294 B( 48-C , 51-C ) :   0.1215
B( 48-C , 57-C ) :   1.2315 B( 49-C , 50-C ) :   1.2397 B( 49-C , 76-H ) :   1.0044
B( 50-C , 51-C ) :   1.4376 B( 50-C , 77-H ) :   1.0013 B( 51-C , 52-C ) :   1.2276
B( 51-C , 58-C ) :   1.0096 B( 52-C , 53-N ) :   1.4610 B( 52-C , 57-C ) :   1.2283
B( 53-N , 54-C ) :   1.6518 B( 54-C , 55-C ) :   1.2234 B( 54-C , 78-H ) :   0.9747
B( 55-C , 56-N ) :   1.6395 B( 55-C , 79-H ) :   0.9654 B( 56-N , 57-C ) :   1.4601
B( 58-C , 59-C ) :   1.2269 B( 58-C , 64-C ) :   1.5656 B( 59-C , 60-C ) :   1.5565
B( 59-C , 80-H ) :   0.9897 B( 60-C , 61-S ) :   1.0013 B( 60-C , 63-S ) :   1.1234
B( 61-S , 62-C ) :   1.0268 B( 62-C , 81-H ) :   0.9711 B( 62-C , 82-H ) :   0.9665
B( 62-C , 83-H ) :   0.9666 B( 63-S , 64-C ) :   1.1529 B( 64-C , 84-H ) :   0.9631

-----------------------------------------------------------------------------
         ABSORPTION SPECTRUM VIA TRANSITION ELECTRIC DIPOLE MOMENTS
-----------------------------------------------------------------------------
State   Energy  Wavelength   fosc         T2         TX        TY        TZ
        (cm-1)    (nm)                  (au**2)     (au)      (au)      (au)
-----------------------------------------------------------------------------
   0   16697.1    598.9   0.279349935   5.50787   2.27516   0.23172  -0.52710
   1   20972.5    476.8   0.042299849   0.66399  -0.54786   0.57529   0.18135
   2   21697.2    460.9   0.011944259   0.18123   0.20594   0.36711  -0.06363
   3   23300.4    429.2   0.002150798   0.03039   0.06693  -0.14550  -0.06885
   4   25646.7    389.9   0.166798848   2.14110  -1.39666   0.07854   0.42926
   5   26786.4    373.3   0.287676795   3.53563   1.84529   0.09544  -0.34848
   6   26885.3    372.0   0.083020053   1.01658   0.66155  -0.69882  -0.30099
   7   27377.9    365.3   0.023500795   0.28259  -0.38249   0.28075   0.23974
   8   27635.9    361.8   0.010656585   0.12695  -0.05117  -0.35116  -0.03185
   9   28482.3    351.1   0.018233904   0.21076   0.11134  -0.44533  -0.00615
  10   28811.0    347.1   0.060646978   0.69299  -0.00114   0.82099   0.13771
  11   29562.2    338.3   0.018096398   0.20153   0.28538  -0.34470   0.03558
  12   30055.0    332.7   0.164055298   1.79700   0.51372  -1.13470  -0.49554
  13   30207.0    331.0   0.132780290   1.44711  -1.05837  -0.53229   0.20886
  14   31369.7    318.8   0.002980498   0.03128  -0.03927  -0.05955   0.16184
  15   31433.7    318.1   0.014229372   0.14903   0.00014  -0.27002  -0.27589
  16   31966.0    312.8   0.059592102   0.61373  -0.05832  -0.75711   0.19263
  17   32221.9    310.3   0.010144598   0.10365   0.26956   0.04909  -0.16904
  18   32507.2    307.6   0.057879528   0.58617   0.68987   0.14071  -0.30075
  19   32551.0    307.2   0.044858969   0.45369  -0.35346  -0.56408   0.10280
  20   33147.8    301.7   0.046773572   0.46454   0.28602   0.61754   0.03706
  21   33249.5    300.8   0.032733979   0.32411   0.53542   0.19347   0.00194
  22   34102.8    293.2   0.181403392   1.75118  -1.09582   0.67661   0.30426
  23   34384.7    290.8   0.108813869   1.04182  -0.94244   0.35182   0.17276
  24   35012.6    285.6   0.268417151   2.52383   0.66959   1.32627   0.56258
  25   35256.0    283.6   0.679626789   6.34619   0.01251   2.39317   0.78662
  26   35848.2    279.0   0.026257916   0.24114  -0.40186  -0.02107   0.28144
  27   36304.6    275.4   0.003298927   0.02991   0.07446   0.09613   0.12300
  28   36460.1    274.3   0.057189068   0.51638   0.07997   0.64706   0.30215
  29   36726.7    272.3   0.010476028   0.09391   0.30400  -0.03775  -0.00790
  30   36977.8    270.4   0.007878899   0.07015   0.14241   0.22178  -0.02602
  31   37008.7    270.2   0.088026609   0.78304  -0.71954  -0.48341   0.17781
  32   37427.4    267.2   0.061306458   0.53925   0.01036   0.72836  -0.09294
  33   37761.1    264.8   0.022399310   0.19528   0.33397   0.05940  -0.28323
  34   37940.7    263.6   0.031808146   0.27600  -0.42324  -0.31016  -0.02593
  35   38192.0    261.8   0.007805024   0.06728  -0.09523  -0.18286  -0.15739
  36   38779.8    257.9   0.004258824   0.03615   0.16837   0.08735  -0.01321
  37   39240.3    254.8   0.003493402   0.02931   0.10880   0.13206   0.00569
  38   39333.8    254.2   0.000232200   0.00194  -0.00438   0.03382   0.02794
  39   39378.0    253.9   0.000502994   0.00421  -0.05238   0.03631   0.01195
  40   39707.4    251.8   0.022948568   0.19027   0.04346  -0.41604  -0.12363
  41   39858.4    250.9   0.017551948   0.14497   0.08988  -0.18887  -0.31815
  42   40119.7    249.3   0.068502967   0.56212   0.47987  -0.22907  -0.52856

FINAL SINGLE POINT ENERGY     -4252.390607383752

DIPOLE MOMENT
-------------
                                X             Y             Z
Electronic contribution:    -32.86755      19.74213      21.73474
Nuclear contribution   :     32.91161     -18.14990     -21.41556
                        -----------------------------------------
Total Dipole Moment    :      0.04406       1.59223       0.31918
                        -----------------------------------------
Magnitude (a.u.)       :      1.62450
Magnitude (Debye)      :      4.12916

Rotational constants in cm-1:     0.001287     0.000608     0.000443
Rotational constants in MHz :    38.593150    18.227133    13.292134

                             ****ORCA TERMINATED NORMALLY****
TOTAL RUN TIME: 0 days 0 hours 8 minutes 24 seconds 677 msec
