                         Program Version 4.2.0 -  RELEASE  -
|  1> # ORCA input file
|  2> # SCF done       -219.109179396415          0.000437697643
|  3> ! CAM-B3LYP def2-SVP def2/J RIJCOSX Grid4 TightSCF
|  4> %maxcore 5000
|  5> %tddft
|  6>     Mode sTDDFT
|  7>     Ethresh 5.0
|  8>     maxcore 5000
|  9> end
| 10>
| 11> %pal
| 12>   nprocs 6
| 13>   end
| 14> * xyz 0 1
| 15>    C       -2.17249        -1.50453       -11.14386
| 16>    C       -1.40562        -1.71853       -12.25396
| 17>    F       -1.43584        -0.84899       -13.27257
| 18>    C       -0.57307        -2.85291       -12.34410
| 19>    F        0.16996        -3.03482       -13.44454
| 20>    C       -0.52179        -3.75963       -11.32341
| 21>    C       -1.30137        -3.56797       -10.16556
| 22>    C       -2.14015        -2.41904       -10.07071
| 23>    C       -2.92573        -2.20273        -8.91711
| 24>    C       -2.87469        -3.10605        -7.88622
| 25>    C       -2.04430        -4.25653        -7.99537
| 26>    C       -1.27342        -4.49153        -9.09856
| 27>    C       -2.17373        -5.08088        -6.77902
| 28>    O       -1.59380        -6.11564        -6.53844
| 29>    C       -3.15206        -4.36306        -5.91522
| 30>    C       -3.57947        -3.14920        -6.61049
| 31>    C       -4.50738        -2.24232        -6.18699
| 32>    C       -4.83667        -1.06043        -6.88620
| 33>    N       -5.10399        -0.05505        -7.36991
| 34>    C       -5.27928        -2.32857        -5.00792
| 35>    N       -5.95370        -2.32625        -4.07863
| 36>    C       -3.62248        -4.80519        -4.73163
| 37>    C       -3.33231        -6.06994        -4.08572
| 38>    C       -2.10932        -6.57989        -3.76775
| 39>    S       -2.21682        -8.05473        -2.89907
| 40>    C       -3.92364        -8.02221        -2.96115
| 41>    C       -4.39383        -6.91941        -3.61543
| 42>    C       -5.81741        -6.67864        -3.89546
| 43>    O       -6.74727        -7.15170        -3.29554
| 44>    O       -5.91620        -5.85487        -4.97027
| 45>    C       -7.04068        -5.23536        -5.39811
| 46>    C       -8.27796        -5.28191        -4.88345
| 47>    C       -9.30561        -4.47433        -5.46218
| 48>    N      -10.63141        -4.58707        -5.13317
| 49>    C      -11.21431        -5.54854        -4.22992
| 50>    C      -11.27457        -6.94462        -4.84464
| 51>    C      -11.43435        -3.67988        -5.86164
| 52>    O      -12.64133        -3.61530        -5.75232
| 53>    C      -10.48804        -2.95372        -6.67214
| 54>    C       -9.18812        -3.46258        -6.40728
| 55>    C       -8.26439        -2.71486        -7.22494
| 56>    O       -7.05440        -2.81257        -7.37640
| 57>    N       -9.05765        -1.78903        -7.91729
| 58>    C       -8.46850        -0.89762        -8.88967
| 59>    C       -8.17802         0.48605        -8.31273
| 60>    C      -10.39154        -1.92840        -7.60195
| 61>    C      -11.52927        -1.25321        -8.13118
| 62>    C      -11.58664        -0.12505        -8.86737
| 63>    C      -12.80339         0.41127        -9.41796
| 64>    C      -14.00986        -0.23585        -9.49288
| 65>    S      -15.21584         0.67419       -10.30315
| 66>    C      -14.11620         1.94781       -10.58899
| 67>    C      -12.87741         1.69461       -10.06551
| 68>    C      -11.76404         2.64058       -10.17985
| 69>    O      -10.78625         2.71531        -9.48743
| 70>    O      -11.96885         3.44677       -11.26630
| 71>    C      -11.07931         4.41942       -11.58835
| 72>    C      -11.01412         4.88195       -12.84825
| 73>    C      -11.79022         4.38489       -13.94486
| 74>    C      -12.29763         3.14228       -14.15302
| 75>    C      -13.42994         2.97308       -15.11386
| 76>    O      -13.78886         3.76009       -15.95556
| 77>    C      -14.04739         1.67835       -14.75544
| 78>    C      -15.20673         1.12140       -15.21317
| 79>    C      -15.62899        -0.11895       -14.68307
| 80>    C      -14.83763        -0.76130       -13.68689
| 81>    C      -15.27195        -1.99006       -13.15101
| 82>    C      -16.43465        -2.55902       -13.58886
| 83>    C      -17.21397        -1.92661       -14.57900
| 84>    C      -16.82106        -0.73220       -15.11509
| 85>    F      -18.34750        -2.50788       -14.99018
| 86>    F      -16.84560        -3.72642       -13.08008
| 87>    C      -13.63374        -0.16884       -13.24439
| 88>    C      -13.24579         1.03400       -13.77112
| 89>    C      -12.07916         1.86651       -13.50181
| 90>    C      -10.93320         1.44113       -12.88622
| 91>    C       -9.74683         2.20064       -12.81720
| 92>    N       -8.75488         2.77232       -12.74992
| 93>    C      -10.78256         0.18573       -12.26504
| 94>    N      -10.60750        -0.79733       -11.69798
| 95>    H       -2.80440        -0.63174       -11.09126
| 96>    H        0.11884        -4.62341       -11.40816
| 97>    H       -3.55335        -1.32765        -8.87683
| 98>    H       -0.65333        -5.37339        -9.15490
| 99>    H       -4.35017        -4.19903        -4.20717
|100>    H       -1.14909        -6.15289        -3.97444
|101>    H       -4.50613        -8.81679        -2.53896
|102>    H       -6.80807        -4.61911        -6.25838
|103>    H       -8.51265        -5.90772        -4.03739
|104>    H      -12.22774        -5.19107        -4.02632
|105>    H      -10.64930        -5.56311        -3.29390
|106>    H      -11.85410        -6.92139        -5.76440
|107>    H      -11.75085        -7.63111        -4.15033
|108>    H      -10.27690        -7.31333        -5.07101
|109>    H       -9.12783        -0.84263        -9.75981
|110>    H       -7.52478        -1.36024        -9.19398
|111>    H       -9.05089         0.90683        -7.82020
|112>    H       -7.87409         1.15690        -9.11150
|113>    H       -7.36926         0.42438        -7.58922
|114>    H      -12.45106        -1.74828        -7.85308
|115>    H      -10.70488         0.45718        -9.07096
|116>    H      -14.25807        -1.20656        -9.11423
|117>    H      -14.43861         2.83097       -11.10411
|118>    H      -10.47515         4.80594       -10.77738
|119>    H      -10.39264         5.74321       -13.03778
|120>    H      -12.07053         5.11991       -14.69373
|121>    H      -15.79721         1.62138       -15.96570
|122>    H      -14.68424        -2.48857       -12.39618
|123>    H      -17.42963        -0.26139       -15.87111
|124>    H      -13.05439        -0.67431       -12.48789
|125> *
|126>
|127>                          ****END OF INPUT****

CARTESIAN COORDINATES (ANGSTROEM)
---------------------------------
  C     -2.172490   -1.504530  -11.143860
  C     -1.405620   -1.718530  -12.253960
  F     -1.435840   -0.848990  -13.272570
  C     -0.573070   -2.852910  -12.344100
  F      0.169960   -3.034820  -13.444540
  C     -0.521790   -3.759630  -11.323410
  C     -1.301370   -3.567970  -10.165560
  C     -2.140150   -2.419040  -10.070710
  C     -2.925730   -2.202730   -8.917110
  C     -2.874690   -3.106050   -7.886220
  C     -2.044300   -4.256530   -7.995370
  C     -1.273420   -4.491530   -9.098560
  C     -2.173730   -5.080880   -6.779020
  O     -1.593800   -6.115640   -6.538440
  C     -3.152060   -4.363060   -5.915220
  C     -3.579470   -3.149200   -6.610490
  C     -4.507380   -2.242320   -6.186990
  C     -4.836670   -1.060430   -6.886200
  N     -5.103990   -0.055050   -7.369910
  C     -5.279280   -2.328570   -5.007920
  N     -5.953700   -2.326250   -4.078630
  C     -3.622480   -4.805190   -4.731630
  C     -3.332310   -6.069940   -4.085720
  C     -2.109320   -6.579890   -3.767750
  S     -2.216820   -8.054730   -2.899070
  C     -3.923640   -8.022210   -2.961150
  C     -4.393830   -6.919410   -3.615430
  C     -5.817410   -6.678640   -3.895460
  O     -6.747270   -7.151700   -3.295540
  O     -5.916200   -5.854870   -4.970270
  C     -7.040680   -5.235360   -5.398110
  C     -8.277960   -5.281910   -4.883450
  C     -9.305610   -4.474330   -5.462180
  N    -10.631410   -4.587070   -5.133170
  C    -11.214310   -5.548540   -4.229920
  C    -11.274570   -6.944620   -4.844640
  C    -11.434350   -3.679880   -5.861640
  O    -12.641330   -3.615300   -5.752320
  C    -10.488040   -2.953720   -6.672140
  C     -9.188120   -3.462580   -6.407280
  C     -8.264390   -2.714860   -7.224940
  O     -7.054400   -2.812570   -7.376400
  N     -9.057650   -1.789030   -7.917290
  C     -8.468500   -0.897620   -8.889670
  C     -8.178020    0.486050   -8.312730
  C    -10.391540   -1.928400   -7.601950
  C    -11.529270   -1.253210   -8.131180
  C    -11.586640   -0.125050   -8.867370
  C    -12.803390    0.411270   -9.417960
  C    -14.009860   -0.235850   -9.492880
  S    -15.215840    0.674190  -10.303150
  C    -14.116200    1.947810  -10.588990
  C    -12.877410    1.694610  -10.065510
  C    -11.764040    2.640580  -10.179850
  O    -10.786250    2.715310   -9.487430
  O    -11.968850    3.446770  -11.266300
  C    -11.079310    4.419420  -11.588350
  C    -11.014120    4.881950  -12.848250
  C    -11.790220    4.384890  -13.944860
  C    -12.297630    3.142280  -14.153020
  C    -13.429940    2.973080  -15.113860
  O    -13.788860    3.760090  -15.955560
  C    -14.047390    1.678350  -14.755440
  C    -15.206730    1.121400  -15.213170
  C    -15.628990   -0.118950  -14.683070
  C    -14.837630   -0.761300  -13.686890
  C    -15.271950   -1.990060  -13.151010
  C    -16.434650   -2.559020  -13.588860
  C    -17.213970   -1.926610  -14.579000
  C    -16.821060   -0.732200  -15.115090
  F    -18.347500   -2.507880  -14.990180
  F    -16.845600   -3.726420  -13.080080
  C    -13.633740   -0.168840  -13.244390
  C    -13.245790    1.034000  -13.771120
  C    -12.079160    1.866510  -13.501810
  C    -10.933200    1.441130  -12.886220
  C     -9.746830    2.200640  -12.817200
  N     -8.754880    2.772320  -12.749920
  C    -10.782560    0.185730  -12.265040
  N    -10.607500   -0.797330  -11.697980
  H     -2.804400   -0.631740  -11.091260
  H      0.118840   -4.623410  -11.408160
  H     -3.553350   -1.327650   -8.876830
  H     -0.653330   -5.373390   -9.154900
  H     -4.350170   -4.199030   -4.207170
  H     -1.149090   -6.152890   -3.974440
  H     -4.506130   -8.816790   -2.538960
  H     -6.808070   -4.619110   -6.258380
  H     -8.512650   -5.907720   -4.037390
  H    -12.227740   -5.191070   -4.026320
  H    -10.649300   -5.563110   -3.293900
  H    -11.854100   -6.921390   -5.764400
  H    -11.750850   -7.631110   -4.150330
  H    -10.276900   -7.313330   -5.071010
  H     -9.127830   -0.842630   -9.759810
  H     -7.524780   -1.360240   -9.193980
  H     -9.050890    0.906830   -7.820200
  H     -7.874090    1.156900   -9.111500
  H     -7.369260    0.424380   -7.589220
  H    -12.451060   -1.748280   -7.853080
  H    -10.704880    0.457180   -9.070960
  H    -14.258070   -1.206560   -9.114230
  H    -14.438610    2.830970  -11.104110
  H    -10.475150    4.805940  -10.777380
  H    -10.392640    5.743210  -13.037780
  H    -12.070530    5.119910  -14.693730
  H    -15.797210    1.621380  -15.965700
  H    -14.684240   -2.488570  -12.396180
  H    -17.429630   -0.261390  -15.871110
  H    -13.054390   -0.674310  -12.487890

 Total Charge           Charge          ....    0
 Multiplicity           Mult            ....    1
 Number of Electrons    NEL             ....  564
 Basis Dimension        Dim             .... 1278

ORBITAL ENERGIES
----------------

  NO   OCC          E(Eh)            E(eV)
   0   2.0000     -88.981314     -2421.3046
   1   2.0000     -88.974947     -2421.1314
   2   2.0000     -24.802210      -674.9024
   3   2.0000     -24.801934      -674.8949
   4   2.0000     -24.795351      -674.7158
   5   2.0000     -24.793820      -674.6741
   6   2.0000     -19.303274      -525.2688
   7   2.0000     -19.294107      -525.0194
   8   2.0000     -19.236038      -523.4392
   9   2.0000     -19.224413      -523.1229
  10   2.0000     -19.222779      -523.0784
  11   2.0000     -19.215348      -522.8762
  12   2.0000     -19.180107      -521.9173
  13   2.0000     -19.179368      -521.8971
  14   2.0000     -14.443625      -393.0310
  15   2.0000     -14.439081      -392.9074
  16   2.0000     -14.427691      -392.5974
  17   2.0000     -14.421258      -392.4224
  18   2.0000     -14.412646      -392.1880
  19   2.0000     -14.408630      -392.0788
  20   2.0000     -10.433514      -283.9103
  21   2.0000     -10.423757      -283.6449
  22   2.0000     -10.385602      -282.6066
  23   2.0000     -10.385277      -282.5978
  24   2.0000     -10.378171      -282.4044
  25   2.0000     -10.377359      -282.3823
  26   2.0000     -10.373724      -282.2834
  27   2.0000     -10.367046      -282.1017
  28   2.0000     -10.366550      -282.0882
  29   2.0000     -10.362964      -281.9906
  30   2.0000     -10.361462      -281.9497
  31   2.0000     -10.349987      -281.6375
  32   2.0000     -10.346739      -281.5491
  33   2.0000     -10.346447      -281.5411
  34   2.0000     -10.338896      -281.3357
  35   2.0000     -10.334886      -281.2266
  36   2.0000     -10.334269      -281.2097
  37   2.0000     -10.330668      -281.1118
  38   2.0000     -10.323404      -280.9141
  39   2.0000     -10.322227      -280.8821
  40   2.0000     -10.321595      -280.8649
  41   2.0000     -10.320967      -280.8478
  42   2.0000     -10.318301      -280.7752
  43   2.0000     -10.315328      -280.6943
  44   2.0000     -10.314956      -280.6842
  45   2.0000     -10.314874      -280.6820
  46   2.0000     -10.314598      -280.6745
  47   2.0000     -10.313011      -280.6313
  48   2.0000     -10.311894      -280.6009
  49   2.0000     -10.308540      -280.5096
  50   2.0000     -10.308131      -280.4985
  51   2.0000     -10.307553      -280.4828
  52   2.0000     -10.307037      -280.4687
  53   2.0000     -10.306699      -280.4595
  54   2.0000     -10.306418      -280.4519
  55   2.0000     -10.305450      -280.4255
  56   2.0000     -10.304852      -280.4093
  57   2.0000     -10.304565      -280.4015
  58   2.0000     -10.303945      -280.3846
  59   2.0000     -10.303093      -280.3614
  60   2.0000     -10.300114      -280.2803
  61   2.0000     -10.299319      -280.2587
  62   2.0000     -10.299203      -280.2556
  63   2.0000     -10.299000      -280.2500
  64   2.0000     -10.298997      -280.2500
  65   2.0000     -10.298497      -280.2363
  66   2.0000     -10.297935      -280.2211
  67   2.0000     -10.297683      -280.2142
  68   2.0000     -10.297207      -280.2012
  69   2.0000     -10.297105      -280.1985
  70   2.0000     -10.296574      -280.1840
  71   2.0000     -10.289481      -279.9910
  72   2.0000     -10.280836      -279.7558
  73   2.0000     -10.280043      -279.7342
  74   2.0000     -10.279105      -279.7087
  75   2.0000     -10.277952      -279.6773
  76   2.0000     -10.255232      -279.0591
  77   2.0000     -10.245965      -278.8069
  78   2.0000     -10.244640      -278.7708
  79   2.0000     -10.229877      -278.3691
  80   2.0000      -8.076830      -219.7817
  81   2.0000      -8.071301      -219.6313
  82   2.0000      -6.045970      -164.5192
  83   2.0000      -6.041426      -164.3955
  84   2.0000      -6.040431      -164.3685
  85   2.0000      -6.039679      -164.3480
  86   2.0000      -6.035909      -164.2454
  87   2.0000      -6.033986      -164.1931
  88   2.0000      -1.325486       -36.0683
  89   2.0000      -1.317480       -35.8505
  90   2.0000      -1.310616       -35.6637
  91   2.0000      -1.302548       -35.4441
  92   2.0000      -1.232146       -33.5284
  93   2.0000      -1.219517       -33.1847
  94   2.0000      -1.138826       -30.9890
  95   2.0000      -1.137311       -30.9478
  96   2.0000      -1.131033       -30.7770
  97   2.0000      -1.125996       -30.6399
  98   2.0000      -1.120957       -30.5028
  99   2.0000      -1.113633       -30.3035
 100   2.0000      -1.052061       -28.6280
 101   2.0000      -1.040967       -28.3261
 102   2.0000      -1.027375       -27.9563
 103   2.0000      -1.015024       -27.6202
 104   2.0000      -1.010659       -27.5014
 105   2.0000      -1.005932       -27.3728
 106   2.0000      -1.002336       -27.2749
 107   2.0000      -1.002121       -27.2691
 108   2.0000      -1.000299       -27.2195
 109   2.0000      -0.989427       -26.9237
 110   2.0000      -0.986482       -26.8435
 111   2.0000      -0.976776       -26.5794
 112   2.0000      -0.940472       -25.5916
 113   2.0000      -0.928929       -25.2774
 114   2.0000      -0.926993       -25.2248
 115   2.0000      -0.915910       -24.9232
 116   2.0000      -0.907080       -24.6829
 117   2.0000      -0.903309       -24.5803
 118   2.0000      -0.901704       -24.5366
 119   2.0000      -0.898314       -24.4444
 120   2.0000      -0.896254       -24.3883
 121   2.0000      -0.889475       -24.2038
 122   2.0000      -0.880446       -23.9581
 123   2.0000      -0.877209       -23.8701
 124   2.0000      -0.863861       -23.5068
 125   2.0000      -0.854974       -23.2650
 126   2.0000      -0.849255       -23.1094
 127   2.0000      -0.845489       -23.0069
 128   2.0000      -0.836973       -22.7752
 129   2.0000      -0.836101       -22.7515
 130   2.0000      -0.830470       -22.5982
 131   2.0000      -0.806758       -21.9530
 132   2.0000      -0.805523       -21.9194
 133   2.0000      -0.803126       -21.8542
 134   2.0000      -0.785592       -21.3770
 135   2.0000      -0.773994       -21.0615
 136   2.0000      -0.772475       -21.0201
 137   2.0000      -0.764983       -20.8163
 138   2.0000      -0.763950       -20.7881
 139   2.0000      -0.744070       -20.2472
 140   2.0000      -0.739616       -20.1260
 141   2.0000      -0.737621       -20.0717
 142   2.0000      -0.734186       -19.9782
 143   2.0000      -0.723081       -19.6760
 144   2.0000      -0.713678       -19.4202
 145   2.0000      -0.708130       -19.2692
 146   2.0000      -0.703344       -19.1390
 147   2.0000      -0.700629       -19.0651
 148   2.0000      -0.692820       -18.8526
 149   2.0000      -0.689472       -18.7615
 150   2.0000      -0.689159       -18.7530
 151   2.0000      -0.682329       -18.5671
 152   2.0000      -0.679000       -18.4765
 153   2.0000      -0.671608       -18.2754
 154   2.0000      -0.670932       -18.2570
 155   2.0000      -0.668303       -18.1854
 156   2.0000      -0.659716       -17.9518
 157   2.0000      -0.657888       -17.9020
 158   2.0000      -0.653335       -17.7781
 159   2.0000      -0.647063       -17.6075
 160   2.0000      -0.644564       -17.5395
 161   2.0000      -0.638118       -17.3641
 162   2.0000      -0.635680       -17.2977
 163   2.0000      -0.632232       -17.2039
 164   2.0000      -0.621171       -16.9029
 165   2.0000      -0.620783       -16.8924
 166   2.0000      -0.615064       -16.7367
 167   2.0000      -0.606596       -16.5063
 168   2.0000      -0.605900       -16.4874
 169   2.0000      -0.604852       -16.4589
 170   2.0000      -0.596003       -16.2181
 171   2.0000      -0.592874       -16.1329
 172   2.0000      -0.589865       -16.0510
 173   2.0000      -0.588810       -16.0223
 174   2.0000      -0.585490       -15.9320
 175   2.0000      -0.582348       -15.8465
 176   2.0000      -0.582066       -15.8388
 177   2.0000      -0.578599       -15.7445
 178   2.0000      -0.576244       -15.6804
 179   2.0000      -0.573446       -15.6043
 180   2.0000      -0.567462       -15.4414
 181   2.0000      -0.564149       -15.3513
 182   2.0000      -0.560893       -15.2627
 183   2.0000      -0.560312       -15.2469
 184   2.0000      -0.558207       -15.1896
 185   2.0000      -0.555091       -15.1048
 186   2.0000      -0.551394       -15.0042
 187   2.0000      -0.550288       -14.9741
 188   2.0000      -0.549900       -14.9635
 189   2.0000      -0.547890       -14.9088
 190   2.0000      -0.545864       -14.8537
 191   2.0000      -0.543747       -14.7961
 192   2.0000      -0.540815       -14.7163
 193   2.0000      -0.537036       -14.6135
 194   2.0000      -0.536737       -14.6054
 195   2.0000      -0.535585       -14.5740
 196   2.0000      -0.531816       -14.4715
 197   2.0000      -0.527664       -14.3585
 198   2.0000      -0.525195       -14.2913
 199   2.0000      -0.522291       -14.2123
 200   2.0000      -0.520545       -14.1647
 201   2.0000      -0.519478       -14.1357
 202   2.0000      -0.514924       -14.0118
 203   2.0000      -0.514050       -13.9880
 204   2.0000      -0.513508       -13.9733
 205   2.0000      -0.510849       -13.9009
 206   2.0000      -0.508947       -13.8491
 207   2.0000      -0.507610       -13.8128
 208   2.0000      -0.503868       -13.7110
 209   2.0000      -0.502109       -13.6631
 210   2.0000      -0.501346       -13.6423
 211   2.0000      -0.500033       -13.6066
 212   2.0000      -0.498281       -13.5589
 213   2.0000      -0.495526       -13.4839
 214   2.0000      -0.494206       -13.4480
 215   2.0000      -0.493329       -13.4242
 216   2.0000      -0.489301       -13.3145
 217   2.0000      -0.488020       -13.2797
 218   2.0000      -0.486137       -13.2285
 219   2.0000      -0.483415       -13.1544
 220   2.0000      -0.480308       -13.0698
 221   2.0000      -0.478592       -13.0232
 222   2.0000      -0.476926       -12.9778
 223   2.0000      -0.474271       -12.9056
 224   2.0000      -0.469848       -12.7852
 225   2.0000      -0.467882       -12.7317
 226   2.0000      -0.467661       -12.7257
 227   2.0000      -0.464915       -12.6510
 228   2.0000      -0.463509       -12.6127
 229   2.0000      -0.461267       -12.5517
 230   2.0000      -0.459305       -12.4983
 231   2.0000      -0.458314       -12.4714
 232   2.0000      -0.457194       -12.4409
 233   2.0000      -0.452111       -12.3026
 234   2.0000      -0.451083       -12.2746
 235   2.0000      -0.449949       -12.2437
 236   2.0000      -0.448146       -12.1947
 237   2.0000      -0.445777       -12.1302
 238   2.0000      -0.443152       -12.0588
 239   2.0000      -0.442347       -12.0369
 240   2.0000      -0.440038       -11.9740
 241   2.0000      -0.438973       -11.9451
 242   2.0000      -0.437124       -11.8947
 243   2.0000      -0.436176       -11.8689
 244   2.0000      -0.434776       -11.8309
 245   2.0000      -0.431547       -11.7430
 246   2.0000      -0.429975       -11.7002
 247   2.0000      -0.426195       -11.5974
 248   2.0000      -0.425480       -11.5779
 249   2.0000      -0.424590       -11.5537
 250   2.0000      -0.422961       -11.5093
 251   2.0000      -0.419307       -11.4099
 252   2.0000      -0.419059       -11.4032
 253   2.0000      -0.415881       -11.3167
 254   2.0000      -0.407283       -11.0827
 255   2.0000      -0.406781       -11.0691
 256   2.0000      -0.405345       -11.0300
 257   2.0000      -0.395463       -10.7611
 258   2.0000      -0.392424       -10.6784
 259   2.0000      -0.388658       -10.5759
 260   2.0000      -0.381865       -10.3911
 261   2.0000      -0.381252       -10.3744
 262   2.0000      -0.371328       -10.1044
 263   2.0000      -0.369935       -10.0664
 264   2.0000      -0.363059        -9.8793
 265   2.0000      -0.353984        -9.6324
 266   2.0000      -0.342804        -9.3282
 267   2.0000      -0.339874        -9.2484
 268   2.0000      -0.338448        -9.2096
 269   2.0000      -0.336950        -9.1689
 270   2.0000      -0.332723        -9.0539
 271   2.0000      -0.323051        -8.7907
 272   2.0000      -0.321413        -8.7461
 273   2.0000      -0.321199        -8.7403
 274   2.0000      -0.313585        -8.5331
 275   2.0000      -0.312068        -8.4918
 276   2.0000      -0.307938        -8.3794
 277   2.0000      -0.306481        -8.3398
 278   2.0000      -0.300952        -8.1893
 279   2.0000      -0.300391        -8.1740
 280   2.0000      -0.291764        -7.9393
 281   2.0000      -0.229450        -6.2436
 282   0.0000      -0.094036        -2.5588
 283   0.0000      -0.083347        -2.2680
 284   0.0000      -0.065275        -1.7762
 285   0.0000      -0.062697        -1.7061
 286   0.0000      -0.054062        -1.4711

MULLIKEN ATOMIC CHARGES
-----------------------
   0 C :   -0.109030
   1 C :    0.243104
   2 F :   -0.171856
   3 C :    0.237963
   4 F :   -0.172782
   5 C :   -0.106291
   6 C :    0.119577
   7 C :    0.115350
   8 C :   -0.081077
   9 C :    0.053627
  10 C :   -0.018370
  11 C :   -0.081157
  12 C :    0.145082
  13 O :   -0.137496
  14 C :   -0.075729
  15 C :    0.330184
  16 C :   -0.331687
  17 C :   -0.126094
  18 N :    0.120410
  19 C :   -0.204870
  20 N :    0.160774
  21 C :   -0.019086
  22 C :    0.073439
  23 C :   -0.068049
  24 S :    0.149942
  25 C :   -0.101949
  26 C :    0.022081
  27 C :    0.203969
  28 O :   -0.172219
  29 O :   -0.257251
  30 C :    0.169006
  31 C :   -0.038224
  32 C :    0.128780
  33 N :   -0.264808
  34 C :    0.100089
  35 C :    0.003104
  36 C :    0.150036
  37 O :   -0.199907
  38 C :   -0.050049
  39 C :   -0.052960
  40 C :    0.174351
  41 O :   -0.253168
  42 N :   -0.254676
  43 C :    0.095740
  44 C :    0.018802
  45 C :    0.110997
  46 C :   -0.030165
  47 C :    0.033906
  48 C :    0.116801
  49 C :   -0.160826
  50 S :    0.154613
  51 C :   -0.091658
  52 C :   -0.022425
  53 C :    0.219930
  54 O :   -0.155644
  55 O :   -0.267568
  56 C :    0.185075
  57 C :   -0.010149
  58 C :    0.035133
  59 C :   -0.123385
  60 C :    0.138083
  61 O :   -0.135294
  62 C :    0.008556
  63 C :   -0.087175
  64 C :    0.112016
  65 C :    0.121824
  66 C :   -0.113875
  67 C :    0.242462
  68 C :    0.239297
  69 C :   -0.106357
  70 F :   -0.169534
  71 F :   -0.168571
  72 C :   -0.095399
  73 C :    0.052404
  74 C :    0.318632
  75 C :   -0.367967
  76 C :   -0.224287
  77 N :    0.189931
  78 C :   -0.144915
  79 N :    0.145199
  80 H :    0.009162
  81 H :   -0.001424
  82 H :   -0.005123
  83 H :   -0.012434
  84 H :    0.032021
  85 H :    0.033228
  86 H :    0.043923
  87 H :    0.042332
  88 H :    0.015213
  89 H :    0.040535
  90 H :    0.027740
  91 H :    0.024193
  92 H :    0.021536
  93 H :    0.020275
  94 H :    0.025587
  95 H :    0.024980
  96 H :    0.017103
  97 H :    0.017726
  98 H :    0.025947
  99 H :   -0.005642
 100 H :   -0.001546
 101 H :    0.042340
 102 H :    0.036486
 103 H :    0.049696
 104 H :    0.030828
 105 H :    0.035116
 106 H :   -0.008103
 107 H :    0.002869
 108 H :    0.000940
 109 H :   -0.001796
Sum of atomic charges:   -0.0000000

LOEWDIN ATOMIC CHARGES
----------------------
   0 C :   -0.028655
   1 C :    0.066850
   2 F :   -0.049241
   3 C :    0.066878
   4 F :   -0.050507
   5 C :   -0.034084
   6 C :   -0.009163
   7 C :   -0.005125
   8 C :    0.019983
   9 C :   -0.019181
  10 C :   -0.055334
  11 C :    0.029487
  12 C :    0.083115
  13 O :   -0.137048
  14 C :   -0.084642
  15 C :    0.071045
  16 C :   -0.114366
  17 C :    0.000813
  18 N :   -0.053193
  19 C :   -0.015543
  20 N :   -0.052715
  21 C :    0.081772
  22 C :   -0.062138
  23 C :   -0.145088
  24 S :    0.483846
  25 C :   -0.144614
  26 C :   -0.103791
  27 C :    0.111707
  28 O :   -0.147482
  29 O :   -0.023281
  30 C :    0.112188
  31 C :   -0.085203
  32 C :    0.094038
  33 N :   -0.001958
  34 C :    0.036654
  35 C :   -0.061256
  36 C :    0.081570
  37 O :   -0.201089
  38 C :   -0.116944
  39 C :   -0.137400
  40 C :    0.088008
  41 O :   -0.225435
  42 N :    0.011026
  43 C :    0.032469
  44 C :   -0.065218
  45 C :    0.070483
  46 C :   -0.020381
  47 C :   -0.001071
  48 C :   -0.040238
  49 C :   -0.180671
  50 S :    0.488241
  51 C :   -0.153492
  52 C :   -0.114216
  53 C :    0.107214
  54 O :   -0.133451
  55 O :   -0.037915
  56 C :    0.112912
  57 C :   -0.068157
  58 C :    0.069588
  59 C :   -0.085334
  60 C :    0.084617
  61 O :   -0.135515
  62 C :   -0.056554
  63 C :    0.029934
  64 C :   -0.010326
  65 C :   -0.007415
  66 C :   -0.032798
  67 C :    0.067103
  68 C :    0.066626
  69 C :   -0.032614
  70 F :   -0.047740
  71 F :   -0.046971
  72 C :    0.011885
  73 C :   -0.020959
  74 C :    0.071542
  75 C :   -0.142805
  76 C :   -0.022559
  77 N :   -0.035502
  78 C :   -0.008831
  79 N :   -0.046853
  80 H :    0.048450
  81 H :    0.044295
  82 H :    0.040821
  83 H :    0.039263
  84 H :    0.042602
  85 H :    0.029681
  86 H :    0.035285
  87 H :    0.032192
  88 H :    0.036625
  89 H :    0.036542
  90 H :    0.025319
  91 H :    0.029954
  92 H :    0.030176
  93 H :    0.023895
  94 H :    0.021787
  95 H :    0.031250
  96 H :    0.019693
  97 H :    0.031373
  98 H :    0.026485
  99 H :    0.039821
 100 H :    0.031777
 101 H :    0.028855
 102 H :    0.029236
 103 H :    0.036444
 104 H :    0.049360
 105 H :    0.048791
 106 H :    0.040832
 107 H :    0.045898
 108 H :    0.045173
 109 H :    0.038597

  Mayer bond orders larger than 0.100000
B(  0-C ,  1-C ) :   1.4451 B(  0-C ,  5-C ) :   0.1089 B(  0-C ,  7-C ) :   1.1839
B(  0-C , 80-H ) :   1.0070 B(  1-C ,  2-F ) :   1.1332 B(  1-C ,  3-C ) :   1.1889
B(  3-C ,  4-F ) :   1.1327 B(  3-C ,  5-C ) :   1.4471 B(  5-C ,  6-C ) :   1.1877
B(  5-C , 81-H ) :   1.0069 B(  6-C ,  7-C ) :   1.2541 B(  6-C , 11-C ) :   1.1954
B(  7-C ,  8-C ) :   1.2231 B(  8-C ,  9-C ) :   1.4452 B(  8-C , 82-H ) :   0.9886
B(  9-C , 10-C ) :   1.2209 B(  9-C , 15-C ) :   0.9924 B( 10-C , 11-C ) :   1.4645
B( 10-C , 12-C ) :   0.9358 B( 11-C , 83-H ) :   1.0156 B( 12-C , 13-O ) :   2.2519
B( 12-C , 14-C ) :   0.9197 B( 14-C , 15-C ) :   1.0281 B( 14-C , 21-C ) :   1.7807
B( 15-C , 16-C ) :   1.6758 B( 16-C , 17-C ) :   1.1510 B( 16-C , 19-C ) :   1.1566
B( 17-C , 18-N ) :   2.8527 B( 19-C , 20-N ) :   2.9356 B( 21-C , 22-C ) :   1.0158
B( 21-C , 84-H ) :   0.9021 B( 22-C , 23-C ) :   1.5765 B( 22-C , 26-C ) :   1.2394
B( 23-C , 24-S ) :   1.1743 B( 23-C , 85-H ) :   0.9633 B( 24-S , 25-C ) :   1.2089
B( 25-C , 26-C ) :   1.5447 B( 25-C , 86-H ) :   0.9681 B( 26-C , 27-C ) :   0.9452
B( 27-C , 28-O ) :   2.1548 B( 27-C , 29-O ) :   1.0836 B( 29-O , 30-C ) :   1.0382
B( 30-C , 31-C ) :   1.6978 B( 30-C , 87-H ) :   0.9480 B( 31-C , 32-C ) :   1.1042
B( 31-C , 88-H ) :   0.9542 B( 32-C , 33-N ) :   1.1867 B( 32-C , 39-C ) :   1.3507
B( 33-N , 34-C ) :   0.9470 B( 33-N , 36-C ) :   1.0230 B( 34-C , 35-C ) :   1.1199
B( 34-C , 89-H ) :   0.9284 B( 34-C , 90-H ) :   0.9504 B( 35-C , 91-H ) :   0.9641
B( 35-C , 92-H ) :   0.9674 B( 35-C , 93-H ) :   0.9679 B( 36-C , 37-O ) :   2.1248
B( 36-C , 38-C ) :   0.9857 B( 38-C , 39-C ) :   1.2198 B( 38-C , 45-C ) :   1.3700
B( 39-C , 40-C ) :   1.0084 B( 40-C , 41-O ) :   1.9237 B( 40-C , 42-N ) :   1.0948
B( 41-O , 87-H ) :   0.1026 B( 42-N , 43-C ) :   0.9279 B( 42-N , 45-C ) :   1.1672
B( 43-C , 44-C ) :   1.1193 B( 43-C , 94-H ) :   0.9425 B( 43-C , 95-H ) :   0.9244
B( 44-C , 96-H ) :   0.9594 B( 44-C , 97-H ) :   0.9658 B( 44-C , 98-H ) :   0.9469
B( 45-C , 46-C ) :   1.1562 B( 46-C , 47-C ) :   1.6470 B( 46-C , 99-H ) :   0.9515
B( 47-C , 48-C ) :   1.0927 B( 47-C ,100-H ) :   0.9607 B( 48-C , 49-C ) :   1.5324
B( 48-C , 52-C ) :   1.2214 B( 49-C , 50-S ) :   1.1689 B( 49-C ,101-H ) :   0.9531
B( 50-S , 51-C ) :   1.2164 B( 51-C , 52-C ) :   1.5111 B( 51-C ,102-H ) :   0.9682
B( 52-C , 53-C ) :   0.9540 B( 53-C , 54-O ) :   2.1382 B( 53-C , 55-O ) :   1.0554
B( 55-O , 56-C ) :   1.0663 B( 56-C , 57-C ) :   1.7384 B( 56-C ,103-H ) :   0.9599
B( 57-C , 58-C ) :   1.1215 B( 57-C ,104-H ) :   0.9477 B( 58-C , 59-C ) :   1.7067
B( 58-C ,105-H ) :   0.9300 B( 59-C , 60-C ) :   0.9338 B( 59-C , 74-C ) :   1.0411
B( 60-C , 61-O ) :   2.2794 B( 60-C , 62-C ) :   0.9127 B( 62-C , 63-C ) :   1.4713
B( 62-C , 73-C ) :   1.2202 B( 63-C , 64-C ) :   1.1929 B( 63-C ,106-H ) :   1.0152
B( 64-C , 65-C ) :   1.2595 B( 64-C , 69-C ) :   1.1926 B( 65-C , 66-C ) :   1.1866
B( 65-C , 72-C ) :   1.2085 B( 66-C , 67-C ) :   1.4387 B( 66-C , 69-C ) :   0.1088
B( 66-C ,107-H ) :   1.0086 B( 67-C , 68-C ) :   1.1896 B( 67-C , 71-F ) :   1.1380
B( 68-C , 69-C ) :   1.4436 B( 68-C , 70-F ) :   1.1360 B( 69-C ,108-H ) :   1.0068
B( 72-C , 73-C ) :   1.4450 B( 72-C ,109-H ) :   0.9976 B( 73-C , 74-C ) :   1.0094
B( 74-C , 75-C ) :   1.6377 B( 75-C , 76-C ) :   1.1625 B( 75-C , 78-C ) :   1.1505
B( 76-C , 77-N ) :   3.0013 B( 78-C , 79-N ) :   2.8501

-----------------------------------------------------------------------------
         ABSORPTION SPECTRUM VIA TRANSITION ELECTRIC DIPOLE MOMENTS
-----------------------------------------------------------------------------
State   Energy  Wavelength   fosc         T2         TX        TY        TZ
        (cm-1)    (nm)                  (au**2)     (au)      (au)      (au)
-----------------------------------------------------------------------------
   0   16180.0    618.0   0.020855333   0.42434  -0.07262   0.47865  -0.43585
   1   16485.4    606.6   0.002855306   0.05702  -0.11264   0.13729  -0.15963
   2   20263.0    493.5   0.565862941   9.19355  -1.00236   2.12396  -1.91771
   3   23448.5    426.5   0.002770896   0.03890   0.04283  -0.10796   0.15942
   4   24780.6    403.5   0.012412922   0.16491  -0.39442  -0.00063   0.09664
   5   26778.5    373.4   0.245729416   3.02097  -0.93488  -1.25521  -0.75592
   6   26884.4    372.0   0.155517642   1.90439  -0.27666   1.25499  -0.50283
   7   27738.1    360.5   0.004311751   0.05117   0.16500  -0.13417   0.07712
   8   28250.0    354.0   0.026982444   0.31444  -0.32421   0.42324   0.17376
   9   28865.2    346.4   0.118432517   1.35074  -0.71509   0.20215   0.89360
  10   29149.7    343.1   0.025565807   0.28874   0.00876  -0.53487   0.05069
  11   29205.4    342.4   0.028407185   0.32021   0.48665  -0.27756  -0.07966
  12   29476.9    339.2   0.009034305   0.10090   0.20715   0.21405  -0.11033
  13   29706.2    336.6   0.011577905   0.12831   0.20897   0.18552  -0.22410
  14   29755.9    336.1   0.000143050   0.00158   0.02219  -0.00263   0.03291
  15   30542.8    327.4   0.022112512   0.23834  -0.44422   0.15973   0.12449
  16   30943.5    323.2   0.003871148   0.04119  -0.05990   0.15323  -0.11882
  17   31232.5    320.2   0.163168505   1.71991  -0.50068   1.06967  -0.57012
  18   32413.5    308.5   0.007547879   0.07666  -0.25910  -0.04383   0.08723
  19   32509.1    307.6   0.012397699   0.12555  -0.05748   0.27999  -0.20940
  20   32751.7    305.3   0.006587653   0.06622   0.19700   0.14302   0.08339
  21   32905.5    303.9   0.065336557   0.65368  -0.73970   0.20326   0.25536
  22   33083.8    302.3   0.072202492   0.71848   0.83664   0.05005   0.12654
  23   33290.1    300.4   0.104276397   1.03121  -0.77434   0.48285  -0.44549
  24   33661.5    297.1   0.155207059   1.51793   0.85663  -0.41192   0.78387
  25   33706.8    296.7   0.112625245   1.10000   0.35248   0.82785  -0.53891
  26   34046.0    293.7   0.028941398   0.27985   0.48353   0.18546  -0.10796
  27   34115.9    293.1   0.105130344   1.01449   0.62182   0.56190   0.55865
  28   34136.3    292.9   0.046341809   0.44692   0.59927  -0.18320  -0.23289
  29   34404.6    290.7   1.001129031   9.57965   2.55657  -0.37391  -1.70405
  30   34643.9    288.7   0.577713291   5.48986   1.72080   1.04045   1.20257
  31   34899.8    286.5   0.069170881   0.65249  -0.39412   0.63005  -0.31654
  32   35120.9    284.7   0.461630165   4.32717   0.15426   0.29700  -2.05309
  33   35499.7    281.7   0.102949923   0.95472  -0.27030  -0.34994   0.87132
  34   35713.0    280.0   0.090677988   0.83589  -0.44967  -0.06208   0.79362
  35   36228.0    276.0   0.107313426   0.97518   0.48302  -0.81393   0.28176
  36   36761.1    272.0   0.203823700   1.82533  -1.18018   0.21324  -0.62212
  37   37140.9    269.2   0.002244974   0.01990   0.02426  -0.10456  -0.09153
  38   37442.3    267.1   0.017799408   0.15650   0.16702  -0.23912   0.26726
  39   37795.6    264.6   0.000236576   0.00206  -0.04428   0.00590  -0.00808
  40   37943.0    263.6   0.018200096   0.15791   0.17746   0.03946  -0.35336
  41   38421.4    260.3   0.000096298   0.00083  -0.00840   0.02018  -0.01864
  42   38778.2    257.9   0.057797416   0.49068  -0.60858   0.23704  -0.25322
  43   39259.9    254.7   0.089590120   0.75125   0.08138  -0.77833   0.37260
  44   39335.7    254.2   0.004758021   0.03982   0.01350   0.15304  -0.12735
  45   39519.5    253.0   0.154770463   1.28929  -0.63661   0.87307  -0.34895
  46   39971.9    250.2   0.011832726   0.09746   0.17634  -0.17597   0.18814
  47   40138.8    249.1   0.001869422   0.01533   0.07038  -0.06222   0.08067
  48   40187.6    248.8   0.030480583   0.24969  -0.13349  -0.43756   0.20103

FINAL SINGLE POINT ENERGY     -4425.746626068368

DIPOLE MOMENT
-------------
                                X             Y             Z
Electronic contribution:     11.14250       0.21898     -34.53281
Nuclear contribution   :    -11.60412      -0.52709      33.86181
                        -----------------------------------------
Total Dipole Moment    :     -0.46162      -0.30810      -0.67100
                        -----------------------------------------
Magnitude (a.u.)       :      0.87078
Magnitude (Debye)      :      2.21336

Rotational constants in cm-1:     0.001070     0.000383     0.000320
Rotational constants in MHz :    32.064743    11.469369     9.598457

                             ****ORCA TERMINATED NORMALLY****
TOTAL RUN TIME: 0 days 0 hours 17 minutes 52 seconds 542 msec
