                         Program Version 4.2.0 -  RELEASE  -
|  1> # ORCA input file
|  2> # SCF done       -213.527458835520          0.000657906650
|  3> ! CAM-B3LYP def2-SVP def2/J RIJCOSX Grid4 TightSCF
|  4> %maxcore 5000
|  5> %tddft
|  6>     Mode sTDDFT
|  7>     Ethresh 5.0
|  8>     maxcore 5000
|  9> end
| 10>
| 11> %pal
| 12>   nprocs 6
| 13>   end
| 14> * xyz 0 1
| 15>    C       -6.03154         1.86979        -0.28681
| 16>    C       -6.84041         2.79042         0.31778
| 17>    F       -6.40668         4.04077         0.51585
| 18>    C       -8.13868         2.43772         0.74094
| 19>    F       -8.90793         3.36063         1.33114
| 20>    C       -8.60993         1.16878         0.55268
| 21>    C       -7.80031         0.19708        -0.06764
| 22>    C       -6.48716         0.55194        -0.49489
| 23>    C       -5.65613        -0.40677        -1.11625
| 24>    C       -6.12176        -1.68252        -1.30541
| 25>    C       -7.43841        -2.02677        -0.88049
| 26>    C       -8.26290        -1.12051        -0.27640
| 27>    C       -7.70494        -3.43628        -1.20934
| 28>    O       -8.70662        -4.08377        -1.00069
| 29>    C       -6.46968        -3.92796        -1.87716
| 30>    C       -5.48713        -2.85537        -1.89734
| 31>    C       -4.20398        -2.94099        -2.35583
| 32>    C       -3.61765        -4.12834        -2.84742
| 33>    N       -3.08231        -5.07293        -3.21779
| 34>    C       -3.29033        -1.86445        -2.36237
| 35>    N       -2.51005        -1.02406        -2.39110
| 36>    C       -6.42530        -5.15749        -2.43015
| 37>    C       -7.55612        -6.06513        -2.37352
| 38>    C       -8.41322        -6.23280        -3.43317
| 39>    N       -8.30223        -5.50154        -4.62153
| 40>    O       -9.12306        -5.68199        -5.49827
| 41>    O       -7.36553        -4.71213        -4.69734
| 42>    C       -9.44430        -7.18954        -3.09550
| 43>    C       -9.18023        -7.65179        -1.85739
| 44>    C       -7.98157        -7.00897        -1.34430
| 45>    C       -7.37090        -7.21950        -0.12892
| 46>    C       -6.50688        -6.30237         0.55245
| 47>    C       -6.42498        -6.66256         1.86168
| 48>    C       -7.14675        -7.88411         2.05599
| 49>    N       -7.18685        -8.54752         3.29188
| 50>    O       -6.62456        -8.01344         4.23237
| 51>    O       -7.78423        -9.61236         3.37069
| 52>    C       -7.67586        -8.30315         0.83214
| 53>    C       -8.19922        -9.57840         0.55585
| 54>    C       -8.18226       -10.14671        -0.69115
| 55>    C       -8.65694       -11.39966        -1.11433
| 56>    N       -9.32041       -12.39866        -0.44460
| 57>    C       -9.66116       -12.47274         0.95870
| 58>    C       -8.46900       -12.88855         1.81524
| 59>    C       -9.62280       -13.48276        -1.29136
| 60>    O      -10.20504       -14.48131        -0.92754
| 61>    C       -9.10858       -13.09044        -2.59023
| 62>    C       -8.53238       -11.82083        -2.44902
| 63>    C       -8.04757       -11.38765        -3.74343
| 64>    O       -7.50591       -10.36833        -4.10842
| 65>    N       -8.36702       -12.46305        -4.60101
| 66>    C       -7.99396       -12.44033        -5.99530
| 67>    C       -6.72398       -13.24646        -6.25536
| 68>    C       -8.99126       -13.48583        -3.93255
| 69>    C       -9.41946       -14.68727        -4.53380
| 70>    C      -10.01925       -15.68764        -3.82854
| 71>    C      -10.45294       -16.90105        -4.40157
| 72>    C      -11.06047       -17.96013        -3.72736
| 73>    C      -11.26096       -17.93988        -2.33519
| 74>    N      -11.38971       -17.92677        -1.19702
| 75>    C      -11.38444       -19.03988        -4.58341
| 76>    C      -10.99324       -18.77820        -5.89798
| 77>    S      -10.26267       -17.24071        -6.11642
| 78>    S      -11.30396       -20.05062        -7.02728
| 79>    C      -11.98465       -20.96857        -5.71827
| 80>    C      -11.98227       -20.33143        -4.48492
| 81>    C      -12.59420       -21.13948        -3.48453
| 82>    C      -12.91206       -20.71680        -2.18212
| 83>    N      -13.25533       -20.37225        -1.14454
| 84>    C      -13.00467       -22.36383        -3.98011
| 85>    S      -12.68417       -22.53961        -5.68961
| 86>    C      -13.62499       -23.42943        -3.25391
| 87>    S      -14.81607       -24.46462        -3.99830
| 88>    C      -15.02442       -25.35005        -2.55906
| 89>    C      -14.21729       -24.89873        -1.54733
| 90>    C      -13.39954       -23.79473        -1.94215
| 91>    O      -12.46597       -23.21169        -1.17541
| 92>    C      -14.15920       -25.44556        -0.25315
| 93>    N      -14.05872       -25.85356         0.81374
| 94>    H       -5.04103         2.15620        -0.60417
| 95>    H       -9.60544         0.91487         0.88154
| 96>    H       -4.66926        -0.10775        -1.43087
| 97>    H       -9.25545        -1.40677         0.03667
| 98>    H       -5.55943        -5.49553        -2.98650
| 99>    H      -10.26300        -7.43533        -3.74284
|100>    H       -9.78329        -8.33264        -1.29074
|101>    H       -6.08168        -5.42259         0.11500
|102>    H       -5.90564        -6.15088         2.65015
|103>    H       -8.51245       -10.14465         1.42027
|104>    H       -7.71548        -9.59532        -1.49815
|105>    H      -10.44338       -13.23375         1.03552
|106>    H      -10.07148       -11.51470         1.28454
|107>    H       -8.15041       -13.89227         1.54488
|108>    H       -8.75485       -12.88204         2.86260
|109>    H       -7.62994       -12.20953         1.68643
|110>    H       -7.81849       -11.39013        -6.24411
|111>    H       -8.82414       -12.81227        -6.60176
|112>    H       -5.89954       -12.83660        -5.67736
|113>    H       -6.46686       -13.19518        -7.30943
|114>    H       -6.85771       -14.28956        -5.97703
|115>    H       -9.25975       -14.81216        -5.59669
|116>    H      -10.18723       -15.57646        -2.76299
|117>    H      -15.72479       -26.16060        -2.51551
|118>    H      -12.50543       -23.54179        -0.26727
|119> *
|120>
|121>                          ****END OF INPUT****

CARTESIAN COORDINATES (ANGSTROEM)
---------------------------------
  C     -6.031540    1.869790   -0.286810
  C     -6.840410    2.790420    0.317780
  F     -6.406680    4.040770    0.515850
  C     -8.138680    2.437720    0.740940
  F     -8.907930    3.360630    1.331140
  C     -8.609930    1.168780    0.552680
  C     -7.800310    0.197080   -0.067640
  C     -6.487160    0.551940   -0.494890
  C     -5.656130   -0.406770   -1.116250
  C     -6.121760   -1.682520   -1.305410
  C     -7.438410   -2.026770   -0.880490
  C     -8.262900   -1.120510   -0.276400
  C     -7.704940   -3.436280   -1.209340
  O     -8.706620   -4.083770   -1.000690
  C     -6.469680   -3.927960   -1.877160
  C     -5.487130   -2.855370   -1.897340
  C     -4.203980   -2.940990   -2.355830
  C     -3.617650   -4.128340   -2.847420
  N     -3.082310   -5.072930   -3.217790
  C     -3.290330   -1.864450   -2.362370
  N     -2.510050   -1.024060   -2.391100
  C     -6.425300   -5.157490   -2.430150
  C     -7.556120   -6.065130   -2.373520
  C     -8.413220   -6.232800   -3.433170
  N     -8.302230   -5.501540   -4.621530
  O     -9.123060   -5.681990   -5.498270
  O     -7.365530   -4.712130   -4.697340
  C     -9.444300   -7.189540   -3.095500
  C     -9.180230   -7.651790   -1.857390
  C     -7.981570   -7.008970   -1.344300
  C     -7.370900   -7.219500   -0.128920
  C     -6.506880   -6.302370    0.552450
  C     -6.424980   -6.662560    1.861680
  C     -7.146750   -7.884110    2.055990
  N     -7.186850   -8.547520    3.291880
  O     -6.624560   -8.013440    4.232370
  O     -7.784230   -9.612360    3.370690
  C     -7.675860   -8.303150    0.832140
  C     -8.199220   -9.578400    0.555850
  C     -8.182260  -10.146710   -0.691150
  C     -8.656940  -11.399660   -1.114330
  N     -9.320410  -12.398660   -0.444600
  C     -9.661160  -12.472740    0.958700
  C     -8.469000  -12.888550    1.815240
  C     -9.622800  -13.482760   -1.291360
  O    -10.205040  -14.481310   -0.927540
  C     -9.108580  -13.090440   -2.590230
  C     -8.532380  -11.820830   -2.449020
  C     -8.047570  -11.387650   -3.743430
  O     -7.505910  -10.368330   -4.108420
  N     -8.367020  -12.463050   -4.601010
  C     -7.993960  -12.440330   -5.995300
  C     -6.723980  -13.246460   -6.255360
  C     -8.991260  -13.485830   -3.932550
  C     -9.419460  -14.687270   -4.533800
  C    -10.019250  -15.687640   -3.828540
  C    -10.452940  -16.901050   -4.401570
  C    -11.060470  -17.960130   -3.727360
  C    -11.260960  -17.939880   -2.335190
  N    -11.389710  -17.926770   -1.197020
  C    -11.384440  -19.039880   -4.583410
  C    -10.993240  -18.778200   -5.897980
  S    -10.262670  -17.240710   -6.116420
  S    -11.303960  -20.050620   -7.027280
  C    -11.984650  -20.968570   -5.718270
  C    -11.982270  -20.331430   -4.484920
  C    -12.594200  -21.139480   -3.484530
  C    -12.912060  -20.716800   -2.182120
  N    -13.255330  -20.372250   -1.144540
  C    -13.004670  -22.363830   -3.980110
  S    -12.684170  -22.539610   -5.689610
  C    -13.624990  -23.429430   -3.253910
  S    -14.816070  -24.464620   -3.998300
  C    -15.024420  -25.350050   -2.559060
  C    -14.217290  -24.898730   -1.547330
  C    -13.399540  -23.794730   -1.942150
  O    -12.465970  -23.211690   -1.175410
  C    -14.159200  -25.445560   -0.253150
  N    -14.058720  -25.853560    0.813740
  H     -5.041030    2.156200   -0.604170
  H     -9.605440    0.914870    0.881540
  H     -4.669260   -0.107750   -1.430870
  H     -9.255450   -1.406770    0.036670
  H     -5.559430   -5.495530   -2.986500
  H    -10.263000   -7.435330   -3.742840
  H     -9.783290   -8.332640   -1.290740
  H     -6.081680   -5.422590    0.115000
  H     -5.905640   -6.150880    2.650150
  H     -8.512450  -10.144650    1.420270
  H     -7.715480   -9.595320   -1.498150
  H    -10.443380  -13.233750    1.035520
  H    -10.071480  -11.514700    1.284540
  H     -8.150410  -13.892270    1.544880
  H     -8.754850  -12.882040    2.862600
  H     -7.629940  -12.209530    1.686430
  H     -7.818490  -11.390130   -6.244110
  H     -8.824140  -12.812270   -6.601760
  H     -5.899540  -12.836600   -5.677360
  H     -6.466860  -13.195180   -7.309430
  H     -6.857710  -14.289560   -5.977030
  H     -9.259750  -14.812160   -5.596690
  H    -10.187230  -15.576460   -2.762990
  H    -15.724790  -26.160600   -2.515510
  H    -12.505430  -23.541790   -0.267270

 Total Charge           Charge          ....    0
 Multiplicity           Mult            ....    1
 Number of Electrons    NEL             ....  570
 Basis Dimension        Dim             .... 1247

ORBITAL ENERGIES
----------------

  NO   OCC          E(Eh)            E(eV)
   0   2.0000     -89.001426     -2421.8519
   1   2.0000     -88.998957     -2421.7847
   2   2.0000     -88.996796     -2421.7259
   3   2.0000     -88.993700     -2421.6417
   4   2.0000     -24.803597      -674.9402
   5   2.0000     -24.802712      -674.9161
   6   2.0000     -19.276817      -524.5489
   7   2.0000     -19.246147      -523.7143
   8   2.0000     -19.243576      -523.6443
   9   2.0000     -19.234207      -523.3894
  10   2.0000     -19.233395      -523.3673
  11   2.0000     -19.230521      -523.2891
  12   2.0000     -19.209965      -522.7297
  13   2.0000     -19.197997      -522.4041
  14   2.0000     -14.651397      -398.6848
  15   2.0000     -14.643249      -398.4631
  16   2.0000     -14.469386      -393.7320
  17   2.0000     -14.461155      -393.5080
  18   2.0000     -14.425438      -392.5361
  19   2.0000     -14.424675      -392.5154
  20   2.0000     -14.424347      -392.5064
  21   2.0000     -14.410703      -392.1352
  22   2.0000     -14.402509      -391.9122
  23   2.0000     -10.391433      -282.7653
  24   2.0000     -10.387579      -282.6604
  25   2.0000     -10.386874      -282.6412
  26   2.0000     -10.381739      -282.5015
  27   2.0000     -10.378141      -282.4036
  28   2.0000     -10.375129      -282.3216
  29   2.0000     -10.360425      -281.9215
  30   2.0000     -10.355496      -281.7874
  31   2.0000     -10.354373      -281.7568
  32   2.0000     -10.350959      -281.6639
  33   2.0000     -10.349481      -281.6237
  34   2.0000     -10.348938      -281.6089
  35   2.0000     -10.346269      -281.5363
  36   2.0000     -10.344798      -281.4963
  37   2.0000     -10.341728      -281.4127
  38   2.0000     -10.340857      -281.3890
  39   2.0000     -10.336813      -281.2790
  40   2.0000     -10.333521      -281.1894
  41   2.0000     -10.332140      -281.1518
  42   2.0000     -10.330434      -281.1054
  43   2.0000     -10.330305      -281.1019
  44   2.0000     -10.329746      -281.0867
  45   2.0000     -10.328390      -281.0498
  46   2.0000     -10.326502      -280.9984
  47   2.0000     -10.325806      -280.9795
  48   2.0000     -10.325442      -280.9696
  49   2.0000     -10.325431      -280.9693
  50   2.0000     -10.324623      -280.9473
  51   2.0000     -10.323845      -280.9261
  52   2.0000     -10.323517      -280.9172
  53   2.0000     -10.321858      -280.8720
  54   2.0000     -10.321103      -280.8515
  55   2.0000     -10.318160      -280.7714
  56   2.0000     -10.317630      -280.7570
  57   2.0000     -10.317374      -280.7500
  58   2.0000     -10.316122      -280.7160
  59   2.0000     -10.311471      -280.5894
  60   2.0000     -10.310859      -280.5727
  61   2.0000     -10.310109      -280.5523
  62   2.0000     -10.309659      -280.5401
  63   2.0000     -10.308459      -280.5074
  64   2.0000     -10.307691      -280.4865
  65   2.0000     -10.307070      -280.4696
  66   2.0000     -10.306901      -280.4650
  67   2.0000     -10.306184      -280.4455
  68   2.0000     -10.302915      -280.3566
  69   2.0000     -10.302466      -280.3444
  70   2.0000     -10.302107      -280.3346
  71   2.0000     -10.300953      -280.3032
  72   2.0000     -10.293484      -280.0999
  73   2.0000     -10.286286      -279.9041
  74   2.0000     -10.285587      -279.8851
  75   2.0000     -10.281155      -279.7644
  76   2.0000     -10.275426      -279.6086
  77   2.0000     -10.275071      -279.5989
  78   2.0000     -10.257003      -279.1072
  79   2.0000      -8.096565      -220.3187
  80   2.0000      -8.094135      -220.2526
  81   2.0000      -8.092340      -220.2038
  82   2.0000      -8.089422      -220.1244
  83   2.0000      -6.066521      -165.0784
  84   2.0000      -6.063601      -164.9990
  85   2.0000      -6.062274      -164.9629
  86   2.0000      -6.061918      -164.9532
  87   2.0000      -6.059561      -164.8890
  88   2.0000      -6.058697      -164.8655
  89   2.0000      -6.057699      -164.8384
  90   2.0000      -6.057408      -164.8304
  91   2.0000      -6.055779      -164.7861
  92   2.0000      -6.054476      -164.7507
  93   2.0000      -6.053846      -164.7335
  94   2.0000      -6.051568      -164.6715
  95   2.0000      -1.326523       -36.0965
  96   2.0000      -1.322419       -35.9849
  97   2.0000      -1.312472       -35.7142
  98   2.0000      -1.311578       -35.6899
  99   2.0000      -1.175869       -31.9970
 100   2.0000      -1.148818       -31.2609
 101   2.0000      -1.145421       -31.1685
 102   2.0000      -1.140822       -31.0433
 103   2.0000      -1.137621       -30.9562
 104   2.0000      -1.129578       -30.7374
 105   2.0000      -1.079118       -29.3643
 106   2.0000      -1.065070       -28.9820
 107   2.0000      -1.054363       -28.6907
 108   2.0000      -1.028378       -27.9836
 109   2.0000      -1.027048       -27.9474
 110   2.0000      -1.019092       -27.7309
 111   2.0000      -1.016385       -27.6572
 112   2.0000      -1.011869       -27.5344
 113   2.0000      -1.002974       -27.2923
 114   2.0000      -1.002452       -27.2781
 115   2.0000      -0.999622       -27.2011
 116   2.0000      -0.994054       -27.0496
 117   2.0000      -0.988347       -26.8943
 118   2.0000      -0.983232       -26.7551
 119   2.0000      -0.962989       -26.2043
 120   2.0000      -0.941085       -25.6082
 121   2.0000      -0.940058       -25.5803
 122   2.0000      -0.924847       -25.1664
 123   2.0000      -0.919845       -25.0303
 124   2.0000      -0.915116       -24.9016
 125   2.0000      -0.911369       -24.7996
 126   2.0000      -0.907605       -24.6972
 127   2.0000      -0.900249       -24.4970
 128   2.0000      -0.890102       -24.2209
 129   2.0000      -0.889132       -24.1945
 130   2.0000      -0.882027       -24.0012
 131   2.0000      -0.881060       -23.9749
 132   2.0000      -0.880115       -23.9491
 133   2.0000      -0.861530       -23.4434
 134   2.0000      -0.851378       -23.1672
 135   2.0000      -0.847978       -23.0747
 136   2.0000      -0.844563       -22.9817
 137   2.0000      -0.835868       -22.7451
 138   2.0000      -0.828167       -22.5356
 139   2.0000      -0.820884       -22.3374
 140   2.0000      -0.813866       -22.1464
 141   2.0000      -0.792576       -21.5671
 142   2.0000      -0.782043       -21.2805
 143   2.0000      -0.775831       -21.1114
 144   2.0000      -0.769982       -20.9523
 145   2.0000      -0.767522       -20.8853
 146   2.0000      -0.745690       -20.2913
 147   2.0000      -0.742182       -20.1958
 148   2.0000      -0.733806       -19.9679
 149   2.0000      -0.729644       -19.8546
 150   2.0000      -0.724893       -19.7254
 151   2.0000      -0.724197       -19.7064
 152   2.0000      -0.718296       -19.5458
 153   2.0000      -0.711197       -19.3526
 154   2.0000      -0.709960       -19.3190
 155   2.0000      -0.703972       -19.1561
 156   2.0000      -0.697871       -18.9900
 157   2.0000      -0.692307       -18.8386
 158   2.0000      -0.688994       -18.7485
 159   2.0000      -0.687370       -18.7043
 160   2.0000      -0.673781       -18.3345
 161   2.0000      -0.668357       -18.1869
 162   2.0000      -0.662514       -18.0279
 163   2.0000      -0.660479       -17.9725
 164   2.0000      -0.657568       -17.8933
 165   2.0000      -0.652817       -17.7641
 166   2.0000      -0.649146       -17.6642
 167   2.0000      -0.641547       -17.4574
 168   2.0000      -0.637624       -17.3506
 169   2.0000      -0.637462       -17.3462
 170   2.0000      -0.635450       -17.2915
 171   2.0000      -0.630539       -17.1578
 172   2.0000      -0.628296       -17.0968
 173   2.0000      -0.624502       -16.9936
 174   2.0000      -0.618386       -16.8271
 175   2.0000      -0.615189       -16.7401
 176   2.0000      -0.611960       -16.6523
 177   2.0000      -0.601117       -16.3572
 178   2.0000      -0.596168       -16.2226
 179   2.0000      -0.593486       -16.1496
 180   2.0000      -0.591684       -16.1005
 181   2.0000      -0.590856       -16.0780
 182   2.0000      -0.588996       -16.0274
 183   2.0000      -0.585849       -15.9418
 184   2.0000      -0.584595       -15.9076
 185   2.0000      -0.580289       -15.7905
 186   2.0000      -0.576950       -15.6996
 187   2.0000      -0.565551       -15.3894
 188   2.0000      -0.561315       -15.2742
 189   2.0000      -0.559326       -15.2200
 190   2.0000      -0.558263       -15.1911
 191   2.0000      -0.556730       -15.1494
 192   2.0000      -0.552269       -15.0280
 193   2.0000      -0.551344       -15.0028
 194   2.0000      -0.548484       -14.9250
 195   2.0000      -0.547362       -14.8945
 196   2.0000      -0.546204       -14.8630
 197   2.0000      -0.544713       -14.8224
 198   2.0000      -0.541969       -14.7477
 199   2.0000      -0.540876       -14.7180
 200   2.0000      -0.537963       -14.6387
 201   2.0000      -0.534852       -14.5541
 202   2.0000      -0.534382       -14.5413
 203   2.0000      -0.528697       -14.3866
 204   2.0000      -0.525699       -14.3050
 205   2.0000      -0.524649       -14.2764
 206   2.0000      -0.523546       -14.2464
 207   2.0000      -0.520077       -14.1520
 208   2.0000      -0.517778       -14.0895
 209   2.0000      -0.516107       -14.0440
 210   2.0000      -0.513878       -13.9833
 211   2.0000      -0.511714       -13.9245
 212   2.0000      -0.510022       -13.8784
 213   2.0000      -0.506454       -13.7813
 214   2.0000      -0.506244       -13.7756
 215   2.0000      -0.503334       -13.6964
 216   2.0000      -0.498773       -13.5723
 217   2.0000      -0.495195       -13.4749
 218   2.0000      -0.490223       -13.3396
 219   2.0000      -0.489923       -13.3315
 220   2.0000      -0.485917       -13.2225
 221   2.0000      -0.485006       -13.1977
 222   2.0000      -0.481093       -13.0912
 223   2.0000      -0.479407       -13.0453
 224   2.0000      -0.478166       -13.0115
 225   2.0000      -0.476420       -12.9640
 226   2.0000      -0.475957       -12.9514
 227   2.0000      -0.472821       -12.8661
 228   2.0000      -0.470577       -12.8050
 229   2.0000      -0.469802       -12.7840
 230   2.0000      -0.467690       -12.7265
 231   2.0000      -0.466935       -12.7059
 232   2.0000      -0.465938       -12.6788
 233   2.0000      -0.464446       -12.6382
 234   2.0000      -0.459182       -12.4950
 235   2.0000      -0.457246       -12.4423
 236   2.0000      -0.453697       -12.3457
 237   2.0000      -0.453116       -12.3299
 238   2.0000      -0.451691       -12.2911
 239   2.0000      -0.451303       -12.2806
 240   2.0000      -0.451226       -12.2785
 241   2.0000      -0.448374       -12.2009
 242   2.0000      -0.446064       -12.1380
 243   2.0000      -0.445050       -12.1104
 244   2.0000      -0.440378       -11.9833
 245   2.0000      -0.438994       -11.9456
 246   2.0000      -0.438297       -11.9267
 247   2.0000      -0.437600       -11.9077
 248   2.0000      -0.435339       -11.8462
 249   2.0000      -0.434229       -11.8160
 250   2.0000      -0.431820       -11.7504
 251   2.0000      -0.429906       -11.6983
 252   2.0000      -0.428273       -11.6539
 253   2.0000      -0.422203       -11.4887
 254   2.0000      -0.421614       -11.4727
 255   2.0000      -0.418610       -11.3910
 256   2.0000      -0.417113       -11.3502
 257   2.0000      -0.408567       -11.1177
 258   2.0000      -0.395463       -10.7611
 259   2.0000      -0.390076       -10.6145
 260   2.0000      -0.387587       -10.5468
 261   2.0000      -0.386506       -10.5174
 262   2.0000      -0.384499       -10.4627
 263   2.0000      -0.382960       -10.4209
 264   2.0000      -0.381737       -10.3876
 265   2.0000      -0.378237       -10.2924
 266   2.0000      -0.373239       -10.1564
 267   2.0000      -0.370252       -10.0751
 268   2.0000      -0.362356        -9.8602
 269   2.0000      -0.360374        -9.8063
 270   2.0000      -0.356456        -9.6997
 271   2.0000      -0.352046        -9.5796
 272   2.0000      -0.343625        -9.3505
 273   2.0000      -0.341059        -9.2807
 274   2.0000      -0.334490        -9.1019
 275   2.0000      -0.333072        -9.0633
 276   2.0000      -0.329170        -8.9572
 277   2.0000      -0.327838        -8.9209
 278   2.0000      -0.324230        -8.8228
 279   2.0000      -0.312898        -8.5144
 280   2.0000      -0.306233        -8.3330
 281   2.0000      -0.304562        -8.2876
 282   2.0000      -0.297406        -8.0928
 283   2.0000      -0.286700        -7.8015
 284   2.0000      -0.242627        -6.6022
 285   0.0000      -0.135030        -3.6744
 286   0.0000      -0.098369        -2.6768
 287   0.0000      -0.093075        -2.5327
 288   0.0000      -0.066184        -1.8010
 289   0.0000      -0.056380        -1.5342

MULLIKEN ATOMIC CHARGES
-----------------------
   0 C :   -0.106448
   1 C :    0.243373
   2 F :   -0.167864
   3 C :    0.239094
   4 F :   -0.168800
   5 C :   -0.101679
   6 C :    0.116984
   7 C :    0.116472
   8 C :   -0.084008
   9 C :    0.045400
  10 C :   -0.005941
  11 C :   -0.073341
  12 C :    0.149976
  13 O :   -0.134983
  14 C :   -0.075383
  15 C :    0.339475
  16 C :   -0.334458
  17 C :   -0.203685
  18 N :    0.173763
  19 C :   -0.183931
  20 N :    0.158406
  21 C :   -0.049475
  22 C :    0.004502
  23 C :    0.107949
  24 N :    0.271486
  25 O :   -0.234008
  26 O :   -0.250773
  27 C :    0.037153
  28 C :   -0.004147
  29 C :    0.084212
  30 C :    0.026292
  31 C :    0.007649
  32 C :    0.027063
  33 C :    0.079071
  34 N :    0.274271
  35 O :   -0.248895
  36 O :   -0.262978
  37 C :    0.028696
  38 C :   -0.036131
  39 C :   -0.054551
  40 C :    0.111361
  41 N :   -0.257716
  42 C :    0.093650
  43 C :    0.010589
  44 C :    0.161473
  45 O :   -0.192788
  46 C :   -0.066075
  47 C :   -0.030531
  48 C :    0.152993
  49 O :   -0.176340
  50 N :   -0.261117
  51 C :    0.095808
  52 C :    0.001290
  53 C :    0.155697
  54 C :   -0.046778
  55 C :   -0.005817
  56 C :   -0.077780
  57 C :   -0.010965
  58 C :   -0.309386
  59 N :    0.239053
  60 C :    0.148257
  61 C :   -0.218306
  62 S :    0.156217
  63 S :    0.198726
  64 C :   -0.234274
  65 C :    0.120061
  66 C :    0.015950
  67 C :   -0.328188
  68 N :    0.228351
  69 C :   -0.092370
  70 S :    0.179903
  71 C :   -0.245180
  72 S :    0.177806
  73 C :   -0.041326
  74 C :   -0.108195
  75 C :    0.218610
  76 O :   -0.150892
  77 C :   -0.211802
  78 N :    0.145196
  79 H :    0.009654
  80 H :    0.001188
  81 H :   -0.004289
  82 H :   -0.008116
  83 H :    0.061133
  84 H :   -0.005793
  85 H :    0.004512
  86 H :   -0.019823
  87 H :    0.006830
  88 H :    0.021836
  89 H :    0.037323
  90 H :    0.049469
  91 H :    0.028782
  92 H :    0.025793
  93 H :    0.033474
  94 H :    0.021753
  95 H :    0.048521
  96 H :    0.025914
  97 H :    0.034090
  98 H :    0.029129
  99 H :    0.014979
 100 H :   -0.018237
 101 H :    0.053060
 102 H :    0.046460
 103 H :    0.207393
Sum of atomic charges:   -0.0000000

LOEWDIN ATOMIC CHARGES
----------------------
   0 C :   -0.028269
   1 C :    0.068834
   2 F :   -0.045864
   3 C :    0.069471
   4 F :   -0.046403
   5 C :   -0.031556
   6 C :   -0.007691
   7 C :   -0.004714
   8 C :    0.020791
   9 C :   -0.021884
  10 C :   -0.054960
  11 C :    0.034983
  12 C :    0.084653
  13 O :   -0.128269
  14 C :   -0.085524
  15 C :    0.074975
  16 C :   -0.123415
  17 C :   -0.018812
  18 N :   -0.038619
  19 C :   -0.016843
  20 N :   -0.043644
  21 C :    0.093114
  22 C :    0.013121
  23 C :   -0.025233
  24 N :    0.289284
  25 O :   -0.197312
  26 O :   -0.209799
  27 C :    0.005158
  28 C :   -0.024060
  29 C :    0.039221
  30 C :    0.047222
  31 C :   -0.046081
  32 C :    0.028331
  33 C :   -0.057875
  34 N :    0.286185
  35 O :   -0.214023
  36 O :   -0.228276
  37 C :    0.018437
  38 C :   -0.015916
  39 C :    0.000363
  40 C :    0.054109
  41 N :    0.002156
  42 C :    0.036651
  43 C :   -0.059069
  44 C :    0.078838
  45 O :   -0.183512
  46 C :   -0.123211
  47 C :   -0.088393
  48 C :    0.083316
  49 O :   -0.177731
  50 N :   -0.002351
  51 C :    0.036960
  52 C :   -0.060432
  53 C :    0.090095
  54 C :   -0.057281
  55 C :    0.028730
  56 C :   -0.141231
  57 C :   -0.069149
  58 C :   -0.044062
  59 N :   -0.003707
  60 C :   -0.062237
  61 C :   -0.322657
  62 S :    0.446824
  63 S :    0.431733
  64 C :   -0.334904
  65 C :   -0.059815
  66 C :   -0.091764
  67 C :   -0.040844
  68 N :   -0.032352
  69 C :   -0.144233
  70 S :    0.446513
  71 C :   -0.248586
  72 S :    0.475461
  73 C :   -0.131304
  74 C :   -0.138168
  75 C :    0.053130
  76 O :   -0.008927
  77 C :   -0.042967
  78 N :   -0.041116
  79 H :    0.048567
  80 H :    0.045758
  81 H :    0.040864
  82 H :    0.041757
  83 H :    0.055705
  84 H :    0.037947
  85 H :    0.032387
  86 H :    0.025995
  87 H :    0.039582
  88 H :    0.036379
  89 H :    0.048253
  90 H :    0.040100
  91 H :    0.024479
  92 H :    0.031473
  93 H :    0.036860
  94 H :    0.022676
  95 H :    0.040109
  96 H :    0.023975
  97 H :    0.034199
  98 H :    0.033003
  99 H :    0.021614
 100 H :    0.022651
 101 H :    0.052163
 102 H :    0.039683
 103 H :    0.110207

  Mayer bond orders larger than 0.100000
B(  0-C ,  1-C ) :   1.4429 B(  0-C ,  5-C ) :   0.1080 B(  0-C ,  7-C ) :   1.1864
B(  0-C , 79-H ) :   1.0064 B(  1-C ,  2-F ) :   1.1380 B(  1-C ,  3-C ) :   1.1891
B(  3-C ,  4-F ) :   1.1364 B(  3-C ,  5-C ) :   1.4457 B(  5-C ,  6-C ) :   1.1893
B(  5-C , 80-H ) :   1.0063 B(  6-C ,  7-C ) :   1.2543 B(  6-C , 11-C ) :   1.1938
B(  7-C ,  8-C ) :   1.2218 B(  8-C ,  9-C ) :   1.4450 B(  8-C , 81-H ) :   0.9890
B(  9-C , 10-C ) :   1.2187 B(  9-C , 15-C ) :   0.9989 B( 10-C , 11-C ) :   1.4689
B( 10-C , 12-C ) :   0.9440 B( 11-C , 82-H ) :   1.0158 B( 12-C , 13-O ) :   2.2202
B( 12-C , 14-C ) :   0.9262 B( 14-C , 15-C ) :   1.0064 B( 14-C , 21-C ) :   1.7391
B( 15-C , 16-C ) :   1.6832 B( 16-C , 17-C ) :   1.1530 B( 16-C , 19-C ) :   1.1351
B( 17-C , 18-N ) :   2.9799 B( 19-C , 20-N ) :   2.9685 B( 21-C , 22-C ) :   0.9882
B( 21-C , 26-O ) :   0.1259 B( 21-C , 83-H ) :   0.9236 B( 22-C , 23-C ) :   1.6299
B( 22-C , 29-C ) :   1.0638 B( 23-C , 24-N ) :   0.9419 B( 23-C , 27-C ) :   1.1046
B( 24-N , 25-O ) :   1.5406 B( 24-N , 26-O ) :   1.4810 B( 25-O , 26-O ) :   0.2604
B( 27-C , 28-C ) :   1.6381 B( 27-C , 84-H ) :   1.0147 B( 28-C , 29-C ) :   1.0926
B( 28-C , 85-H ) :   0.9871 B( 29-C , 30-C ) :   1.5157 B( 30-C , 31-C ) :   1.1432
B( 30-C , 37-C ) :   0.9891 B( 31-C , 32-C ) :   1.5573 B( 31-C , 86-H ) :   1.0035
B( 32-C , 33-C ) :   1.1460 B( 32-C , 87-H ) :   1.0101 B( 33-C , 34-N ) :   0.9643
B( 33-C , 37-C ) :   1.4647 B( 34-N , 35-O ) :   1.5336 B( 34-N , 36-O ) :   1.4805
B( 35-O , 36-O ) :   0.2514 B( 37-C , 38-C ) :   1.2330 B( 38-C , 39-C ) :   1.4454
B( 38-C , 88-H ) :   0.9520 B( 39-C , 40-C ) :   1.2477 B( 39-C , 89-H ) :   0.9322
B( 40-C , 41-N ) :   1.1700 B( 40-C , 47-C ) :   1.3038 B( 41-N , 42-C ) :   0.9306
B( 41-N , 44-C ) :   1.0661 B( 42-C , 43-C ) :   1.1224 B( 42-C , 90-H ) :   0.9247
B( 42-C , 91-H ) :   0.9501 B( 43-C , 92-H ) :   0.9607 B( 43-C , 93-H ) :   0.9677
B( 43-C , 94-H ) :   0.9662 B( 44-C , 45-O ) :   2.0360 B( 44-C , 46-C ) :   0.9799
B( 45-O ,101-H ) :   0.1134 B( 46-C , 47-C ) :   1.2878 B( 46-C , 53-C ) :   1.2925
B( 47-C , 48-C ) :   0.9660 B( 48-C , 49-O ) :   2.1323 B( 48-C , 50-N ) :   1.0298
B( 50-N , 51-C ) :   0.9418 B( 50-N , 53-C ) :   1.1783 B( 51-C , 52-C ) :   1.1194
B( 51-C , 95-H ) :   0.9286 B( 51-C , 96-H ) :   0.9503 B( 52-C , 97-H ) :   0.9640
B( 52-C , 98-H ) :   0.9680 B( 52-C , 99-H ) :   0.9689 B( 53-C , 54-C ) :   1.1849
B( 54-C , 55-C ) :   1.5396 B( 54-C ,100-H ) :   0.9628 B( 55-C , 56-C ) :   1.2101
B( 55-C ,101-H ) :   0.9422 B( 56-C , 57-C ) :   1.4553 B( 56-C , 62-S ) :   1.0953
B( 57-C , 58-C ) :   1.1825 B( 57-C , 60-C ) :   1.2647 B( 58-C , 59-N ) :   2.9814
B( 60-C , 61-C ) :   1.3876 B( 60-C , 65-C ) :   1.0692 B( 61-C , 62-S ) :   1.1061
B( 61-C , 63-S ) :   1.0994 B( 63-S , 64-C ) :   1.0744 B( 64-C , 65-C ) :   1.4340
B( 64-C , 70-S ) :   1.0838 B( 65-C , 66-C ) :   1.2446 B( 66-C , 67-C ) :   1.1751
B( 66-C , 69-C ) :   1.5532 B( 67-C , 68-N ) :   3.0015 B( 69-C , 70-S ) :   1.1437
B( 69-C , 71-C ) :   1.0742 B( 71-C , 72-S ) :   1.1180 B( 71-C , 75-C ) :   1.5010
B( 72-S , 73-C ) :   1.2033 B( 72-S , 74-C ) :   0.1077 B( 73-C , 74-C ) :   1.5237
B( 73-C ,102-H ) :   0.9764 B( 74-C , 75-C ) :   1.1929 B( 74-C , 77-C ) :   1.0849
B( 75-C , 76-O ) :   1.3202 B( 76-O ,103-H ) :   0.9374 B( 77-C , 78-N ) :   3.0397

-----------------------------------------------------------------------------
         ABSORPTION SPECTRUM VIA TRANSITION ELECTRIC DIPOLE MOMENTS
-----------------------------------------------------------------------------
State   Energy  Wavelength   fosc         T2         TX        TY        TZ
        (cm-1)    (nm)                  (au**2)     (au)      (au)      (au)
-----------------------------------------------------------------------------
   0    7647.1   1307.7   0.349997729  15.06758  -0.78247  -3.49182  -1.50416
   1   16110.1    620.7   0.358622137   7.32849  -0.55329  -1.72840  -2.00873
   2   16597.2    602.5   0.077908120   1.54534  -0.31648  -0.92626  -0.76630
   3   19306.0    518.0   0.003401824   0.05801  -0.10900   0.00364  -0.21474
   4   19657.5    508.7   0.005714206   0.09570   0.08477   0.24215   0.17284
   5   22356.8    447.3   0.005408821   0.07965   0.22465   0.16826  -0.02947
   6   22937.5    436.0   0.167958155   2.41063  -0.57473  -1.37648  -0.43082
   7   23408.2    427.2   0.022662000   0.31872  -0.18429  -0.24113   0.47604
   8   24170.2    413.7   0.157215199   2.14136  -0.51980  -1.29565  -0.43870
   9   24916.4    401.3   0.170121710   2.24776   0.70686   1.31398  -0.14680
  10   25099.5    398.4   0.002192661   0.02876  -0.05788  -0.14906  -0.05648
  11   25251.3    396.0   0.035495229   0.46277  -0.20565  -0.57551   0.29876
  12   25826.1    387.2   0.012141111   0.15477  -0.00249  -0.38940   0.05591
  13   26216.6    381.4   0.001918141   0.02409  -0.12607  -0.00481  -0.09039
  14   26908.8    371.6   0.226693567   2.77345  -0.25129  -1.38725   0.88648
  15   27450.3    364.3   0.006950072   0.08335   0.01425  -0.26294   0.11837
  16   27725.5    360.7   0.031387383   0.37269  -0.09949   0.43717  -0.41434
  17   28325.9    353.0   0.006930244   0.08055   0.03853   0.28113  -0.00503
  18   28804.5    347.2   0.017406054   0.19894   0.03158  -0.04102   0.44301
  19   28998.2    344.8   0.131123813   1.48863  -0.54561   0.77053   0.77280
  20   29607.9    337.7   0.204813014   2.27733   0.41183  -0.54645   1.34504
  21   29816.3    335.4   0.028721921   0.31713   0.27161  -0.49330  -0.00349
  22   29877.4    334.7   0.113574590   1.25145  -0.48536  -0.95251   0.32954
  23   30156.0    331.6   0.031238963   0.34103  -0.14999   0.54928   0.12972
  24   30408.8    328.9   0.046752425   0.50615  -0.55698  -0.30899  -0.31694
  25   30545.2    327.4   0.066919825   0.72125  -0.17452  -0.83017  -0.04006
  26   30665.2    326.1   0.135612773   1.45590   0.51785   0.33542   1.03693
  27   31186.8    320.6   0.002526481   0.02667   0.08709   0.12586  -0.05695
  28   31261.9    319.9   0.042244773   0.44487  -0.28109  -0.42462  -0.43077
  29   31354.2    318.9   0.078289359   0.82202  -0.17689  -0.72048   0.52119
  30   31430.5    318.2   0.038286874   0.40103   0.12063   0.61902   0.05735
  31   31601.8    316.4   0.038560364   0.40170  -0.10936   0.02399  -0.62383
  32   32090.0    311.6   0.329722997   3.38264  -0.11355  -1.12833   1.44797
  33   32469.0    308.0   0.273946795   2.77762  -0.98886  -1.33948   0.07461
  34   33084.5    302.3   0.344563742   3.42863   0.64142   1.37512  -1.06125
  35   33230.1    300.9   0.210134039   2.08181   0.75298   0.70011   1.01226
  36   33395.1    299.4   0.150676450   1.48538  -1.09548  -0.32497  -0.42392
  37   33623.2    297.4   0.106339236   1.04119   0.69293  -0.60492  -0.44172
  38   33658.6    297.1   0.002905291   0.02842   0.12255  -0.05381  -0.10248
  39   34220.5    292.2   0.038779803   0.37307  -0.56280   0.11287   0.20879
  40   34629.2    288.8   0.011876858   0.11291  -0.04476   0.31904  -0.09550
  41   34813.6    287.2   0.301341367   2.84961   0.60571  -1.31212  -0.87239
  42   35041.7    285.4   0.707004347   6.64221   1.30008  -1.90028  -1.15799
  43   35361.7    282.8   0.019381460   0.18044  -0.24635   0.15958   0.30706
  44   35956.1    278.1   0.049842835   0.45636   0.25550  -0.59259  -0.19980
  45   36275.6    275.7   0.000776890   0.00705   0.06138   0.05416  -0.01870
  46   36314.9    275.4   0.004514227   0.04092  -0.07696   0.16241   0.09286
  47   36781.0    271.9   0.018247497   0.16333   0.35012   0.17873  -0.09382
  48   36855.5    271.3   0.010865852   0.09706  -0.02454   0.17378   0.25741
  49   37123.2    269.4   0.053803267   0.47713  -0.03331  -0.68293  -0.09812
  50   37356.7    267.7   0.085535187   0.75379  -0.07221   0.85387   0.13956
  51   37415.8    267.3   0.008449949   0.07435  -0.06094  -0.16206  -0.21065
  52   37714.7    265.1   0.003909299   0.03412   0.10473   0.10235   0.11261
  53   37795.9    264.6   0.015950458   0.13893   0.17572   0.22880  -0.23602
  54   37910.6    263.8   0.041758561   0.36263  -0.33539  -0.49724  -0.05375
  55   37993.4    263.2   0.006706624   0.05811   0.05244   0.22117   0.08030
  56   38057.0    262.8   0.019387707   0.16771  -0.02534  -0.39685   0.09787
  57   38521.4    259.6   0.133992312   1.14513   0.41190  -0.21550   0.96386
  58   38651.3    258.7   0.022011527   0.18748  -0.04573  -0.15012  -0.40356
  59   38843.4    257.4   0.004656732   0.03947  -0.04655   0.17288  -0.08609
  60   39180.2    255.2   0.258653837   2.17334   0.08540  -0.19430   1.45887
  61   39378.9    253.9   0.256515965   2.14450  -0.85253  -1.15796  -0.27716
  62   39617.0    252.4   0.028636734   0.23797   0.13001   0.30325   0.35931
  63   39826.3    251.1   0.243321250   2.01134  -0.47649  -0.99865  -0.88713
  64   39848.4    251.0   0.009912755   0.08190  -0.17132   0.03141  -0.22706
  65   40149.0    249.1   0.158871805   1.30271   0.52829   0.87959  -0.49995

FINAL SINGLE POINT ENERGY     -5030.949378496474

DIPOLE MOMENT
-------------
                                X             Y             Z
Electronic contribution:    -16.22488       1.76671      -9.83147
Nuclear contribution   :     14.42907      -4.11985       6.43758
                        -----------------------------------------
Total Dipole Moment    :     -1.79582      -2.35314      -3.39389
                        -----------------------------------------
Magnitude (a.u.)       :      4.50341
Magnitude (Debye)      :     11.44676

Rotational constants in cm-1:     0.002001     0.000188     0.000180
Rotational constants in MHz :    59.976102     5.650333     5.400634

                             ****ORCA TERMINATED NORMALLY****
TOTAL RUN TIME: 0 days 0 hours 14 minutes 15 seconds 171 msec
