                         Program Version 4.2.0 -  RELEASE  -
|  1> # ORCA input file
|  2> # SCF done       -225.378725693878          0.000744200867
|  3> ! CAM-B3LYP def2-SVP def2/J RIJCOSX Grid4 TightSCF
|  4> %maxcore 5000
|  5> %tddft
|  6>     Mode sTDDFT
|  7>     Ethresh 5.0
|  8>     maxcore 5000
|  9> end
| 10>
| 11> %pal
| 12>   nprocs 6
| 13>   end
| 14> * xyz 0 1
| 15>    C        0.03902         1.84978         1.35676
| 16>    C        1.37934         1.70025         1.13525
| 17>    F        2.18757         2.76630         1.15639
| 18>    C        1.92750         0.42587         0.88150
| 19>    F        3.24337         0.31112         0.66749
| 20>    C        1.12658        -0.68143         0.85111
| 21>    C       -0.25904        -0.55952         1.07243
| 22>    C       -0.81393         0.72782         1.33286
| 23>    C       -2.20015         0.87384         1.56559
| 24>    C       -3.00777        -0.23349         1.53952
| 25>    C       -2.44625        -1.51290         1.26716
| 26>    C       -1.11098        -1.68520         1.03756
| 27>    C       -3.50802        -2.52985         1.27724
| 28>    O       -3.40183        -3.69637         0.96425
| 29>    C       -4.76204        -1.79804         1.61615
| 30>    C       -4.44140        -0.38741         1.75909
| 31>    C       -5.30876         0.61055         2.11315
| 32>    C       -4.93658         1.96392         2.26763
| 33>    N       -4.70007         3.07878         2.39898
| 34>    C       -6.68334         0.43301         2.38109
| 35>    N       -7.80314         0.35934         2.62237
| 36>    C       -6.00381        -2.35586         1.61990
| 37>    C       -6.26424        -3.75092         1.67467
| 38>    S       -7.66588        -4.43608         0.91813
| 39>    C       -7.24308        -6.04961         1.41379
| 40>    C       -6.06765        -6.03470         2.16221
| 41>    C       -5.53985        -4.74302         2.32380
| 42>    O       -4.50586        -4.41890         3.13111
| 43>    C       -3.55772        -5.28013         3.53297
| 44>    O       -2.68191        -4.89550         4.25147
| 45>    C       -3.60484        -6.74068         3.10417
| 46>    O       -2.64482        -7.45030         3.18147
| 47>    S       -5.17431        -7.45435         2.64743
| 48>    C       -8.04919        -7.19041         1.15345
| 49>    N       -8.85802        -7.37927         0.06188
| 50>    C       -8.95384        -6.54931        -1.11522
| 51>    C       -7.67171        -6.57727        -1.94072
| 52>    C       -9.53453        -8.62187         0.12149
| 53>    O      -10.28073        -9.01880        -0.74450
| 54>    C       -9.11360        -9.18925         1.38151
| 55>    C       -8.19649        -8.29871         1.98497
| 56>    C       -7.87303        -8.82981         3.29039
| 57>    O       -7.16027        -8.40526         4.17726
| 58>    N       -8.58995       -10.03676         3.37448
| 59>    C       -8.49134       -10.83811         4.57248
| 60>    C       -9.63949       -10.56147         5.54024
| 61>    C       -9.35236       -10.25447         2.24982
| 62>    C      -10.23622       -11.31462         1.93000
| 63>    C      -10.65161       -12.35981         2.68954
| 64>    C      -11.55567       -13.34496         2.22400
| 65>    S      -12.21444       -13.40915         0.62722
| 66>    C      -13.18823       -14.80441         0.99829
| 67>    C      -12.96591       -15.21436         2.31226
| 68>    C      -12.05173       -14.40149         2.98934
| 69>    O      -11.63937       -14.53993         4.27657
| 70>    C      -12.00449       -15.52041         5.11469
| 71>    O      -11.59769       -15.50938         6.24021
| 72>    C      -12.90557       -16.66526         4.66358
| 73>    O      -13.15670       -17.57939         5.39095
| 74>    S      -13.63281       -16.66558         3.03481
| 75>    C      -13.98290       -15.36544        -0.02650
| 76>    C      -15.09957       -16.14231         0.03150
| 77>    C      -15.47291       -16.92933        -1.18592
| 78>    O      -14.99560       -16.80997        -2.28801
| 79>    C      -16.49034       -17.89194        -0.72707
| 80>    C      -17.07213       -18.91849        -1.41397
| 81>    C      -18.01595       -19.73749        -0.75454
| 82>    C      -18.33406       -19.47902         0.61088
| 83>    C      -19.27115       -20.30399         1.26441
| 84>    C      -19.86751       -21.33471         0.59325
| 85>    C      -19.55314       -21.58865        -0.75750
| 86>    C      -18.64666       -20.80756        -1.41839
| 87>    F      -20.15170       -22.60538        -1.38930
| 88>    F      -20.75904       -22.11545         1.21388
| 89>    C      -17.71946       -18.40496         1.29470
| 90>    C      -16.81607       -17.61794         0.63220
| 91>    C      -16.05894       -16.44745         1.06676
| 92>    C      -16.37038       -15.66309         2.14818
| 93>    C      -15.75904       -14.42345         2.41437
| 94>    N      -15.27449       -13.41082         2.65499
| 95>    C      -17.39296       -15.96647         3.07202
| 96>    N      -18.20484       -16.16792         3.85696
| 97>    H       -0.36312         2.83170         1.55181
| 98>    H        1.56099        -1.64950         0.65689
| 99>    H       -2.58837         1.86094         1.75770
|100>    H       -0.71121        -2.66809         0.84020
|101>    H       -6.87817        -1.72115         1.55452
|102>    H       -9.21027        -5.52578        -0.82885
|103>    H       -9.77900        -6.96848        -1.69838
|104>    H       -6.83025        -6.18375        -1.37533
|105>    H       -7.80103        -5.97347        -2.83397
|106>    H       -7.44258        -7.59688        -2.24052
|107>    H       -7.54771       -10.55300         5.04720
|108>    H       -8.43634       -11.89361         4.29819
|109>    H       -9.58470        -9.53364         5.88982
|110>    H       -9.56461       -11.22368         6.39810
|111>    H      -10.60599       -10.71039         5.06424
|112>    H      -10.63391       -11.23243         0.92427
|113>    H      -10.33835       -12.49908         3.71201
|114>    H      -13.61914       -15.18546        -1.03505
|115>    H      -16.81570       -19.10388        -2.44579
|116>    H      -19.52521       -20.12207         2.29691
|117>    H      -18.41684       -21.01538        -2.45162
|118>    H      -17.97041       -18.23868         2.33001
|119> *
|120>
|121>                          ****END OF INPUT****

CARTESIAN COORDINATES (ANGSTROEM)
---------------------------------
  C      0.039020    1.849780    1.356760
  C      1.379340    1.700250    1.135250
  F      2.187570    2.766300    1.156390
  C      1.927500    0.425870    0.881500
  F      3.243370    0.311120    0.667490
  C      1.126580   -0.681430    0.851110
  C     -0.259040   -0.559520    1.072430
  C     -0.813930    0.727820    1.332860
  C     -2.200150    0.873840    1.565590
  C     -3.007770   -0.233490    1.539520
  C     -2.446250   -1.512900    1.267160
  C     -1.110980   -1.685200    1.037560
  C     -3.508020   -2.529850    1.277240
  O     -3.401830   -3.696370    0.964250
  C     -4.762040   -1.798040    1.616150
  C     -4.441400   -0.387410    1.759090
  C     -5.308760    0.610550    2.113150
  C     -4.936580    1.963920    2.267630
  N     -4.700070    3.078780    2.398980
  C     -6.683340    0.433010    2.381090
  N     -7.803140    0.359340    2.622370
  C     -6.003810   -2.355860    1.619900
  C     -6.264240   -3.750920    1.674670
  S     -7.665880   -4.436080    0.918130
  C     -7.243080   -6.049610    1.413790
  C     -6.067650   -6.034700    2.162210
  C     -5.539850   -4.743020    2.323800
  O     -4.505860   -4.418900    3.131110
  C     -3.557720   -5.280130    3.532970
  O     -2.681910   -4.895500    4.251470
  C     -3.604840   -6.740680    3.104170
  O     -2.644820   -7.450300    3.181470
  S     -5.174310   -7.454350    2.647430
  C     -8.049190   -7.190410    1.153450
  N     -8.858020   -7.379270    0.061880
  C     -8.953840   -6.549310   -1.115220
  C     -7.671710   -6.577270   -1.940720
  C     -9.534530   -8.621870    0.121490
  O    -10.280730   -9.018800   -0.744500
  C     -9.113600   -9.189250    1.381510
  C     -8.196490   -8.298710    1.984970
  C     -7.873030   -8.829810    3.290390
  O     -7.160270   -8.405260    4.177260
  N     -8.589950  -10.036760    3.374480
  C     -8.491340  -10.838110    4.572480
  C     -9.639490  -10.561470    5.540240
  C     -9.352360  -10.254470    2.249820
  C    -10.236220  -11.314620    1.930000
  C    -10.651610  -12.359810    2.689540
  C    -11.555670  -13.344960    2.224000
  S    -12.214440  -13.409150    0.627220
  C    -13.188230  -14.804410    0.998290
  C    -12.965910  -15.214360    2.312260
  C    -12.051730  -14.401490    2.989340
  O    -11.639370  -14.539930    4.276570
  C    -12.004490  -15.520410    5.114690
  O    -11.597690  -15.509380    6.240210
  C    -12.905570  -16.665260    4.663580
  O    -13.156700  -17.579390    5.390950
  S    -13.632810  -16.665580    3.034810
  C    -13.982900  -15.365440   -0.026500
  C    -15.099570  -16.142310    0.031500
  C    -15.472910  -16.929330   -1.185920
  O    -14.995600  -16.809970   -2.288010
  C    -16.490340  -17.891940   -0.727070
  C    -17.072130  -18.918490   -1.413970
  C    -18.015950  -19.737490   -0.754540
  C    -18.334060  -19.479020    0.610880
  C    -19.271150  -20.303990    1.264410
  C    -19.867510  -21.334710    0.593250
  C    -19.553140  -21.588650   -0.757500
  C    -18.646660  -20.807560   -1.418390
  F    -20.151700  -22.605380   -1.389300
  F    -20.759040  -22.115450    1.213880
  C    -17.719460  -18.404960    1.294700
  C    -16.816070  -17.617940    0.632200
  C    -16.058940  -16.447450    1.066760
  C    -16.370380  -15.663090    2.148180
  C    -15.759040  -14.423450    2.414370
  N    -15.274490  -13.410820    2.654990
  C    -17.392960  -15.966470    3.072020
  N    -18.204840  -16.167920    3.856960
  H     -0.363120    2.831700    1.551810
  H      1.560990   -1.649500    0.656890
  H     -2.588370    1.860940    1.757700
  H     -0.711210   -2.668090    0.840200
  H     -6.878170   -1.721150    1.554520
  H     -9.210270   -5.525780   -0.828850
  H     -9.779000   -6.968480   -1.698380
  H     -6.830250   -6.183750   -1.375330
  H     -7.801030   -5.973470   -2.833970
  H     -7.442580   -7.596880   -2.240520
  H     -7.547710  -10.553000    5.047200
  H     -8.436340  -11.893610    4.298190
  H     -9.584700   -9.533640    5.889820
  H     -9.564610  -11.223680    6.398100
  H    -10.605990  -10.710390    5.064240
  H    -10.633910  -11.232430    0.924270
  H    -10.338350  -12.499080    3.712010
  H    -13.619140  -15.185460   -1.035050
  H    -16.815700  -19.103880   -2.445790
  H    -19.525210  -20.122070    2.296910
  H    -18.416840  -21.015380   -2.451620
  H    -17.970410  -18.238680    2.330010

 Total Charge           Charge          ....    0
 Multiplicity           Mult            ....    1
 Number of Electrons    NEL             ....  592
 Basis Dimension        Dim             .... 1274

ORBITAL ENERGIES
----------------

  NO   OCC          E(Eh)            E(eV)
   0   2.0000     -88.998756     -2421.7793
   1   2.0000     -88.997421     -2421.7430
   2   2.0000     -88.997137     -2421.7352
   3   2.0000     -88.976650     -2421.1777
   4   2.0000     -24.804989      -674.9781
   5   2.0000     -24.804443      -674.9632
   6   2.0000     -24.802829      -674.9193
   7   2.0000     -24.802062      -674.8984
   8   2.0000     -19.329720      -525.9884
   9   2.0000     -19.316270      -525.6224
  10   2.0000     -19.265977      -524.2539
  11   2.0000     -19.249294      -523.7999
  12   2.0000     -19.246828      -523.7328
  13   2.0000     -19.236626      -523.4552
  14   2.0000     -19.231284      -523.3098
  15   2.0000     -19.229699      -523.2667
  16   2.0000     -19.208576      -522.6919
  17   2.0000     -19.207036      -522.6500
  18   2.0000     -14.472332      -393.8122
  19   2.0000     -14.471056      -393.7774
  20   2.0000     -14.432329      -392.7236
  21   2.0000     -14.429342      -392.6424
  22   2.0000     -14.427697      -392.5976
  23   2.0000     -14.425732      -392.5441
  24   2.0000     -10.452829      -284.4359
  25   2.0000     -10.438690      -284.0512
  26   2.0000     -10.430925      -283.8399
  27   2.0000     -10.411597      -283.3140
  28   2.0000     -10.391127      -282.7569
  29   2.0000     -10.390699      -282.7453
  30   2.0000     -10.389717      -282.7186
  31   2.0000     -10.388834      -282.6945
  32   2.0000     -10.388549      -282.6868
  33   2.0000     -10.388490      -282.6852
  34   2.0000     -10.386646      -282.6350
  35   2.0000     -10.386033      -282.6183
  36   2.0000     -10.381809      -282.5034
  37   2.0000     -10.380782      -282.4754
  38   2.0000     -10.368548      -282.1425
  39   2.0000     -10.360818      -281.9322
  40   2.0000     -10.359457      -281.8952
  41   2.0000     -10.358669      -281.8737
  42   2.0000     -10.355875      -281.7977
  43   2.0000     -10.355527      -281.7882
  44   2.0000     -10.353358      -281.7292
  45   2.0000     -10.352782      -281.7135
  46   2.0000     -10.352151      -281.6963
  47   2.0000     -10.349138      -281.6144
  48   2.0000     -10.347223      -281.5623
  49   2.0000     -10.342094      -281.4227
  50   2.0000     -10.340493      -281.3791
  51   2.0000     -10.339249      -281.3453
  52   2.0000     -10.333290      -281.1831
  53   2.0000     -10.331207      -281.1264
  54   2.0000     -10.329671      -281.0846
  55   2.0000     -10.327843      -281.0349
  56   2.0000     -10.323263      -280.9103
  57   2.0000     -10.320820      -280.8438
  58   2.0000     -10.319899      -280.8187
  59   2.0000     -10.319551      -280.8092
  60   2.0000     -10.319479      -280.8073
  61   2.0000     -10.319005      -280.7944
  62   2.0000     -10.318587      -280.7830
  63   2.0000     -10.317675      -280.7582
  64   2.0000     -10.316703      -280.7318
  65   2.0000     -10.316550      -280.7276
  66   2.0000     -10.316412      -280.7239
  67   2.0000     -10.315397      -280.6962
  68   2.0000     -10.313292      -280.6389
  69   2.0000     -10.312005      -280.6039
  70   2.0000     -10.309692      -280.5410
  71   2.0000     -10.309393      -280.5328
  72   2.0000     -10.308805      -280.5169
  73   2.0000     -10.307803      -280.4896
  74   2.0000     -10.305938      -280.4388
  75   2.0000     -10.305456      -280.4257
  76   2.0000     -10.304436      -280.3979
  77   2.0000     -10.300893      -280.3016
  78   2.0000     -10.285368      -279.8791
  79   2.0000     -10.281032      -279.7611
  80   2.0000     -10.273898      -279.5670
  81   2.0000     -10.270887      -279.4850
  82   2.0000      -8.093577      -220.2374
  83   2.0000      -8.092750      -220.2149
  84   2.0000      -8.092706      -220.2137
  85   2.0000      -8.072489      -219.6636
  86   2.0000      -6.063030      -164.9834
  87   2.0000      -6.062484      -164.9686
  88   2.0000      -6.062008      -164.9556
  89   2.0000      -6.058977      -164.8732
  90   2.0000      -6.058098      -164.8492
  91   2.0000      -6.058068      -164.8484
  92   2.0000      -6.055273      -164.7723
  93   2.0000      -6.054477      -164.7507
  94   2.0000      -6.053763      -164.7313
  95   2.0000      -6.042211      -164.4169
  96   2.0000      -6.037900      -164.2996
  97   2.0000      -6.033283      -164.1740
  98   2.0000      -1.328232       -36.1430
  99   2.0000      -1.325987       -36.0819
 100   2.0000      -1.313311       -35.7370
 101   2.0000      -1.311051       -35.6755
 102   2.0000      -1.258059       -34.2335
 103   2.0000      -1.247346       -33.9420
 104   2.0000      -1.190601       -32.3979
 105   2.0000      -1.171752       -31.8850
 106   2.0000      -1.153717       -31.3942
 107   2.0000      -1.151735       -31.3403
 108   2.0000      -1.147460       -31.2240
 109   2.0000      -1.145623       -31.1740
 110   2.0000      -1.144660       -31.1478
 111   2.0000      -1.140076       -31.0231
 112   2.0000      -1.083226       -29.4761
 113   2.0000      -1.073865       -29.2213
 114   2.0000      -1.041154       -28.3312
 115   2.0000      -1.031569       -28.0704
 116   2.0000      -1.030204       -28.0333
 117   2.0000      -1.027868       -27.9697
 118   2.0000      -1.015961       -27.6457
 119   2.0000      -1.012583       -27.5538
 120   2.0000      -1.008719       -27.4486
 121   2.0000      -1.005041       -27.3485
 122   2.0000      -0.992784       -27.0150
 123   2.0000      -0.989750       -26.9325
 124   2.0000      -0.961109       -26.1531
 125   2.0000      -0.952839       -25.9281
 126   2.0000      -0.944891       -25.7118
 127   2.0000      -0.943278       -25.6679
 128   2.0000      -0.936486       -25.4831
 129   2.0000      -0.932552       -25.3760
 130   2.0000      -0.917683       -24.9714
 131   2.0000      -0.915979       -24.9251
 132   2.0000      -0.903817       -24.5941
 133   2.0000      -0.901976       -24.5440
 134   2.0000      -0.899477       -24.4760
 135   2.0000      -0.897317       -24.4172
 136   2.0000      -0.888104       -24.1665
 137   2.0000      -0.876646       -23.8547
 138   2.0000      -0.876039       -23.8382
 139   2.0000      -0.860070       -23.4037
 140   2.0000      -0.853153       -23.2155
 141   2.0000      -0.850130       -23.1332
 142   2.0000      -0.847276       -23.0556
 143   2.0000      -0.834249       -22.7011
 144   2.0000      -0.827253       -22.5107
 145   2.0000      -0.820405       -22.3243
 146   2.0000      -0.801497       -21.8098
 147   2.0000      -0.791712       -21.5436
 148   2.0000      -0.790197       -21.5023
 149   2.0000      -0.778551       -21.1854
 150   2.0000      -0.776798       -21.1377
 151   2.0000      -0.774614       -21.0783
 152   2.0000      -0.773118       -21.0376
 153   2.0000      -0.763557       -20.7774
 154   2.0000      -0.756592       -20.5879
 155   2.0000      -0.747303       -20.3351
 156   2.0000      -0.736222       -20.0336
 157   2.0000      -0.733694       -19.9648
 158   2.0000      -0.728480       -19.8230
 159   2.0000      -0.726640       -19.7729
 160   2.0000      -0.722083       -19.6489
 161   2.0000      -0.713096       -19.4043
 162   2.0000      -0.703865       -19.1532
 163   2.0000      -0.701668       -19.0934
 164   2.0000      -0.699225       -19.0269
 165   2.0000      -0.696319       -18.9478
 166   2.0000      -0.687799       -18.7159
 167   2.0000      -0.684010       -18.6129
 168   2.0000      -0.672768       -18.3070
 169   2.0000      -0.666363       -18.1327
 170   2.0000      -0.665457       -18.1080
 171   2.0000      -0.663104       -18.0440
 172   2.0000      -0.660258       -17.9665
 173   2.0000      -0.653276       -17.7766
 174   2.0000      -0.650004       -17.6875
 175   2.0000      -0.649412       -17.6714
 176   2.0000      -0.638404       -17.3718
 177   2.0000      -0.628220       -17.0947
 178   2.0000      -0.624285       -16.9877
 179   2.0000      -0.622470       -16.9383
 180   2.0000      -0.616305       -16.7705
 181   2.0000      -0.614620       -16.7247
 182   2.0000      -0.613081       -16.6828
 183   2.0000      -0.609777       -16.5929
 184   2.0000      -0.603629       -16.4256
 185   2.0000      -0.599087       -16.3020
 186   2.0000      -0.596331       -16.2270
 187   2.0000      -0.594179       -16.1684
 188   2.0000      -0.592578       -16.1249
 189   2.0000      -0.591782       -16.1032
 190   2.0000      -0.590446       -16.0669
 191   2.0000      -0.590152       -16.0589
 192   2.0000      -0.586099       -15.9486
 193   2.0000      -0.584588       -15.9074
 194   2.0000      -0.580121       -15.7859
 195   2.0000      -0.572009       -15.5652
 196   2.0000      -0.563552       -15.3350
 197   2.0000      -0.563158       -15.3243
 198   2.0000      -0.561351       -15.2751
 199   2.0000      -0.559263       -15.2183
 200   2.0000      -0.558322       -15.1927
 201   2.0000      -0.554418       -15.0865
 202   2.0000      -0.553996       -15.0750
 203   2.0000      -0.552678       -15.0391
 204   2.0000      -0.551593       -15.0096
 205   2.0000      -0.551208       -14.9991
 206   2.0000      -0.549183       -14.9440
 207   2.0000      -0.548220       -14.9178
 208   2.0000      -0.545980       -14.8569
 209   2.0000      -0.545140       -14.8340
 210   2.0000      -0.544029       -14.8038
 211   2.0000      -0.540694       -14.7130
 212   2.0000      -0.539794       -14.6885
 213   2.0000      -0.537239       -14.6190
 214   2.0000      -0.535221       -14.5641
 215   2.0000      -0.533956       -14.5297
 216   2.0000      -0.533353       -14.5133
 217   2.0000      -0.531919       -14.4742
 218   2.0000      -0.529370       -14.4049
 219   2.0000      -0.527291       -14.3483
 220   2.0000      -0.523539       -14.2462
 221   2.0000      -0.522784       -14.2257
 222   2.0000      -0.521880       -14.2011
 223   2.0000      -0.519859       -14.1461
 224   2.0000      -0.518326       -14.1044
 225   2.0000      -0.517069       -14.0702
 226   2.0000      -0.515379       -14.0242
 227   2.0000      -0.509152       -13.8547
 228   2.0000      -0.507976       -13.8227
 229   2.0000      -0.506730       -13.7888
 230   2.0000      -0.505690       -13.7605
 231   2.0000      -0.503623       -13.7043
 232   2.0000      -0.502249       -13.6669
 233   2.0000      -0.494603       -13.4588
 234   2.0000      -0.488461       -13.2917
 235   2.0000      -0.486636       -13.2420
 236   2.0000      -0.485214       -13.2033
 237   2.0000      -0.483953       -13.1690
 238   2.0000      -0.482735       -13.1359
 239   2.0000      -0.477165       -12.9843
 240   2.0000      -0.476429       -12.9643
 241   2.0000      -0.475868       -12.9490
 242   2.0000      -0.472892       -12.8680
 243   2.0000      -0.470601       -12.8057
 244   2.0000      -0.469265       -12.7694
 245   2.0000      -0.468116       -12.7381
 246   2.0000      -0.464819       -12.6484
 247   2.0000      -0.464651       -12.6438
 248   2.0000      -0.463376       -12.6091
 249   2.0000      -0.459778       -12.5112
 250   2.0000      -0.459455       -12.5024
 251   2.0000      -0.456489       -12.4217
 252   2.0000      -0.455491       -12.3945
 253   2.0000      -0.454278       -12.3615
 254   2.0000      -0.453648       -12.3444
 255   2.0000      -0.453150       -12.3308
 256   2.0000      -0.452262       -12.3067
 257   2.0000      -0.447619       -12.1803
 258   2.0000      -0.444302       -12.0901
 259   2.0000      -0.439980       -11.9725
 260   2.0000      -0.439080       -11.9480
 261   2.0000      -0.437977       -11.9179
 262   2.0000      -0.437165       -11.8959
 263   2.0000      -0.435473       -11.8498
 264   2.0000      -0.433977       -11.8091
 265   2.0000      -0.432659       -11.7733
 266   2.0000      -0.427769       -11.6402
 267   2.0000      -0.426021       -11.5926
 268   2.0000      -0.419950       -11.4274
 269   2.0000      -0.418571       -11.3899
 270   2.0000      -0.413588       -11.2543
 271   2.0000      -0.412140       -11.2149
 272   2.0000      -0.408518       -11.1164
 273   2.0000      -0.402921       -10.9640
 274   2.0000      -0.399379       -10.8677
 275   2.0000      -0.395879       -10.7724
 276   2.0000      -0.390444       -10.6245
 277   2.0000      -0.385222       -10.4824
 278   2.0000      -0.370991       -10.0952
 279   2.0000      -0.367492       -10.0000
 280   2.0000      -0.362933        -9.8759
 281   2.0000      -0.359477        -9.7819
 282   2.0000      -0.355048        -9.6614
 283   2.0000      -0.352549        -9.5933
 284   2.0000      -0.350021        -9.5246
 285   2.0000      -0.349129        -9.5003
 286   2.0000      -0.333889        -9.0856
 287   2.0000      -0.333581        -9.0772
 288   2.0000      -0.324333        -8.8255
 289   2.0000      -0.323152        -8.7934
 290   2.0000      -0.317515        -8.6400
 291   2.0000      -0.310855        -8.4588
 292   2.0000      -0.308726        -8.4008
 293   2.0000      -0.305468        -8.3122
 294   2.0000      -0.302478        -8.2308
 295   2.0000      -0.256870        -6.9898
 296   0.0000      -0.125842        -3.4243
 297   0.0000      -0.108935        -2.9643
 298   0.0000      -0.086509        -2.3540
 299   0.0000      -0.071635        -1.9493
 300   0.0000      -0.068070        -1.8523

MULLIKEN ATOMIC CHARGES
-----------------------
   0 C :   -0.106179
   1 C :    0.243574
   2 F :   -0.168446
   3 C :    0.239259
   4 F :   -0.168734
   5 C :   -0.101044
   6 C :    0.114196
   7 C :    0.113546
   8 C :   -0.084112
   9 C :    0.058224
  10 C :   -0.005375
  11 C :   -0.069113
  12 C :    0.159923
  13 O :   -0.162013
  14 C :   -0.069543
  15 C :    0.301366
  16 C :   -0.338471
  17 C :   -0.178321
  18 N :    0.154431
  19 C :   -0.193107
  20 N :    0.161309
  21 C :    0.018151
  22 C :   -0.125659
  23 S :    0.182243
  24 C :   -0.216051
  25 C :   -0.010840
  26 C :    0.200382
  27 O :   -0.193976
  28 C :    0.229656
  29 O :   -0.119208
  30 C :   -0.000028
  31 O :   -0.120614
  32 S :    0.175368
  33 C :    0.131348
  34 N :   -0.269367
  35 C :    0.081213
  36 C :    0.003461
  37 C :    0.158950
  38 O :   -0.184122
  39 C :   -0.061734
  40 C :   -0.048311
  41 C :    0.141259
  42 O :   -0.194045
  43 N :   -0.264136
  44 C :    0.095302
  45 C :    0.002964
  46 C :    0.135228
  47 C :   -0.036131
  48 C :    0.019107
  49 C :   -0.093090
  50 S :    0.202876
  51 C :   -0.179130
  52 C :   -0.008476
  53 C :    0.174445
  54 O :   -0.198291
  55 C :    0.212379
  56 O :   -0.104139
  57 C :    0.008639
  58 O :   -0.102607
  59 S :    0.129669
  60 C :    0.056288
  61 C :   -0.136931
  62 C :    0.137174
  63 O :   -0.131841
  64 C :    0.016119
  65 C :   -0.077844
  66 C :    0.110065
  67 C :    0.111503
  68 C :   -0.104745
  69 C :    0.240882
  70 C :    0.239153
  71 C :   -0.100346
  72 F :   -0.168962
  73 F :   -0.167462
  74 C :   -0.080240
  75 C :    0.036743
  76 C :    0.273765
  77 C :   -0.322754
  78 C :   -0.194179
  79 N :    0.169602
  80 C :   -0.180646
  81 N :    0.165517
  82 H :    0.008676
  83 H :    0.002568
  84 H :   -0.004413
  85 H :   -0.005738
  86 H :    0.033444
  87 H :    0.033213
  88 H :    0.052284
  89 H :    0.028053
  90 H :    0.027889
  91 H :    0.028005
  92 H :    0.045927
  93 H :    0.028412
  94 H :    0.032018
  95 H :    0.033237
  96 H :    0.022844
  97 H :    0.016741
  98 H :    0.013893
  99 H :    0.035525
 100 H :   -0.006394
 101 H :    0.008637
 102 H :    0.001538
 103 H :   -0.001277
Sum of atomic charges:   -0.0000000

LOEWDIN ATOMIC CHARGES
----------------------
   0 C :   -0.028858
   1 C :    0.068463
   2 F :   -0.046071
   3 C :    0.069300
   4 F :   -0.046137
   5 C :   -0.030912
   6 C :   -0.006964
   7 C :   -0.004976
   8 C :    0.019765
   9 C :   -0.023038
  10 C :   -0.051658
  11 C :    0.036686
  12 C :    0.087222
  13 O :   -0.147467
  14 C :   -0.071800
  15 C :    0.073294
  16 C :   -0.128507
  17 C :   -0.017155
  18 N :   -0.044436
  19 C :   -0.021962
  20 N :   -0.043429
  21 C :    0.046019
  22 C :   -0.191779
  23 S :    0.488986
  24 C :   -0.191194
  25 C :   -0.195606
  26 C :    0.028044
  27 O :   -0.001800
  28 C :    0.053310
  29 O :   -0.091688
  30 C :   -0.101347
  31 O :   -0.093454
  32 S :    0.446682
  33 C :    0.050832
  34 N :   -0.004956
  35 C :    0.027835
  36 C :   -0.061468
  37 C :    0.081528
  38 O :   -0.185628
  39 C :   -0.111320
  40 C :   -0.121541
  41 C :    0.070131
  42 O :   -0.193362
  43 N :    0.001415
  44 C :    0.035999
  45 C :   -0.061432
  46 C :    0.075402
  47 C :   -0.021586
  48 C :   -0.016316
  49 C :   -0.167833
  50 S :    0.501168
  51 C :   -0.188123
  52 C :   -0.200605
  53 C :    0.005658
  54 O :   -0.014712
  55 C :    0.049166
  56 O :   -0.084190
  57 C :   -0.098901
  58 O :   -0.079415
  59 S :    0.420425
  60 C :    0.032267
  61 C :   -0.085845
  62 C :    0.085463
  63 O :   -0.132516
  64 C :   -0.057075
  65 C :    0.034903
  66 C :   -0.009343
  67 C :   -0.004237
  68 C :   -0.029211
  69 C :    0.068883
  70 C :    0.068322
  71 C :   -0.031717
  72 F :   -0.046702
  73 F :   -0.045412
  74 C :    0.015846
  75 C :   -0.020436
  76 C :    0.049667
  77 C :   -0.139202
  78 C :   -0.023531
  79 N :   -0.045736
  80 C :   -0.020250
  81 N :   -0.040435
  82 H :    0.048172
  83 H :    0.046251
  84 H :    0.040442
  85 H :    0.042410
  86 H :    0.047600
  87 H :    0.012001
  88 H :    0.040859
  89 H :    0.020934
  90 H :    0.033720
  91 H :    0.031753
  92 H :    0.039594
  93 H :    0.023946
  94 H :    0.034508
  95 H :    0.035649
  96 H :    0.022769
  97 H :    0.041777
  98 H :    0.041120
  99 H :    0.050683
 100 H :    0.041849
 101 H :    0.048328
 102 H :    0.045608
 103 H :    0.040618

  Mayer bond orders larger than 0.100000
B(  0-C ,  1-C ) :   1.4422 B(  0-C ,  5-C ) :   0.1075 B(  0-C ,  7-C ) :   1.1876
B(  0-C , 82-H ) :   1.0069 B(  1-C ,  2-F ) :   1.1372 B(  1-C ,  3-C ) :   1.1882
B(  3-C ,  4-F ) :   1.1361 B(  3-C ,  5-C ) :   1.4434 B(  5-C ,  6-C ) :   1.1923
B(  5-C , 83-H ) :   1.0075 B(  6-C ,  7-C ) :   1.2527 B(  6-C , 11-C ) :   1.1926
B(  7-C ,  8-C ) :   1.2220 B(  8-C ,  9-C ) :   1.4429 B(  8-C , 84-H ) :   0.9898
B(  9-C , 10-C ) :   1.2172 B(  9-C , 15-C ) :   0.9949 B( 10-C , 11-C ) :   1.4699
B( 10-C , 12-C ) :   0.9477 B( 11-C , 85-H ) :   1.0158 B( 12-C , 13-O ) :   2.1978
B( 12-C , 14-C ) :   0.9400 B( 14-C , 15-C ) :   1.0637 B( 14-C , 21-C ) :   1.6532
B( 15-C , 16-C ) :   1.6528 B( 16-C , 17-C ) :   1.1426 B( 16-C , 19-C ) :   1.1381
B( 17-C , 18-N ) :   2.9637 B( 19-C , 20-N ) :   2.9791 B( 21-C , 22-C ) :   1.1244
B( 21-C , 86-H ) :   0.9280 B( 22-C , 23-S ) :   1.0895 B( 22-C , 24-C ) :   0.1149
B( 22-C , 26-C ) :   1.4900 B( 23-S , 24-C ) :   1.1295 B( 24-C , 25-C ) :   1.5193
B( 24-C , 33-C ) :   1.1097 B( 25-C , 26-C ) :   1.2665 B( 25-C , 32-S ) :   1.0176
B( 26-C , 27-O ) :   1.0988 B( 27-O , 28-C ) :   1.0544 B( 28-C , 29-O ) :   2.2420
B( 28-C , 30-C ) :   0.7942 B( 30-C , 31-O ) :   2.1670 B( 30-C , 32-S ) :   1.0447
B( 31-O , 32-S ) :   0.1328 B( 33-C , 34-N ) :   1.2057 B( 33-C , 40-C ) :   1.3880
B( 34-N , 35-C ) :   0.9392 B( 34-N , 37-C ) :   1.0170 B( 35-C , 36-C ) :   1.1147
B( 35-C , 87-H ) :   0.9469 B( 35-C , 88-H ) :   0.9234 B( 36-C , 89-H ) :   0.9678
B( 36-C , 90-H ) :   0.9669 B( 36-C , 91-H ) :   0.9639 B( 37-C , 38-O ) :   2.1334
B( 37-C , 39-C ) :   0.9860 B( 39-C , 40-C ) :   1.2305 B( 39-C , 46-C ) :   1.3495
B( 40-C , 41-C ) :   0.9718 B( 41-C , 42-O ) :   2.0937 B( 41-C , 43-N ) :   1.0472
B( 43-N , 44-C ) :   0.9365 B( 43-N , 46-C ) :   1.1695 B( 44-C , 45-C ) :   1.1178
B( 44-C , 92-H ) :   0.9253 B( 44-C , 93-H ) :   0.9510 B( 45-C , 94-H ) :   0.9605
B( 45-C , 95-H ) :   0.9681 B( 45-C , 96-H ) :   0.9679 B( 46-C , 47-C ) :   1.1936
B( 47-C , 48-C ) :   1.5457 B( 47-C , 97-H ) :   0.9486 B( 48-C , 49-C ) :   1.1771
B( 48-C , 98-H ) :   0.9737 B( 49-C , 50-S ) :   1.1183 B( 49-C , 51-C ) :   0.1065
B( 49-C , 53-C ) :   1.4627 B( 50-S , 51-C ) :   1.1345 B( 51-C , 52-C ) :   1.4637
B( 51-C , 60-C ) :   1.1451 B( 52-C , 53-C ) :   1.2832 B( 52-C , 59-S ) :   0.9901
B( 53-C , 54-O ) :   1.0801 B( 54-O , 55-C ) :   1.0798 B( 55-C , 56-O ) :   2.2466
B( 55-C , 57-C ) :   0.7988 B( 57-C , 58-O ) :   2.1889 B( 57-C , 59-S ) :   1.0194
B( 58-O , 59-S ) :   0.1289 B( 60-C , 61-C ) :   1.6645 B( 60-C , 99-H ) :   0.9230
B( 61-C , 62-C ) :   0.9296 B( 61-C , 76-C ) :   1.0505 B( 62-C , 63-O ) :   2.2767
B( 62-C , 64-C ) :   0.9212 B( 64-C , 65-C ) :   1.4725 B( 64-C , 75-C ) :   1.2167
B( 65-C , 66-C ) :   1.1959 B( 65-C ,100-H ) :   1.0160 B( 66-C , 67-C ) :   1.2511
B( 66-C , 71-C ) :   1.1946 B( 67-C , 68-C ) :   1.1919 B( 67-C , 74-C ) :   1.2166
B( 68-C , 69-C ) :   1.4421 B( 68-C , 71-C ) :   0.1079 B( 68-C ,101-H ) :   1.0060
B( 69-C , 70-C ) :   1.1908 B( 69-C , 73-F ) :   1.1379 B( 70-C , 71-C ) :   1.4440
B( 70-C , 72-F ) :   1.1358 B( 71-C ,102-H ) :   1.0059 B( 74-C , 75-C ) :   1.4593
B( 74-C ,103-H ) :   0.9927 B( 75-C , 76-C ) :   1.0000 B( 76-C , 77-C ) :   1.6283
B( 77-C , 78-C ) :   1.1679 B( 77-C , 80-C ) :   1.1347 B( 78-C , 79-N ) :   3.0038
B( 80-C , 81-N ) :   2.9884

-----------------------------------------------------------------------------
         ABSORPTION SPECTRUM VIA TRANSITION ELECTRIC DIPOLE MOMENTS
-----------------------------------------------------------------------------
State   Energy  Wavelength   fosc         T2         TX        TY        TZ
        (cm-1)    (nm)                  (au**2)     (au)      (au)      (au)
-----------------------------------------------------------------------------
   0   14077.1    710.4   1.503840367  35.16921   3.36062   4.85593  -0.54344
   1   18877.0    529.7   0.048975162   0.85412   0.61402  -0.58637   0.36506
   2   23250.2    430.1   0.141433597   2.00263  -1.00030  -0.21288  -0.97811
   3   23415.1    427.1   0.319956056   4.49852  -1.90694  -0.56691  -0.73534
   4   24194.3    413.3   0.161803069   2.20165  -0.33528  -1.43366  -0.18404
   5   24794.1    403.3   0.198343409   2.63357  -1.04507  -1.22547   0.19902
   6   24841.1    402.6   0.066175281   0.87700   0.31980   0.65044   0.59300
   7   25833.3    387.1   0.148544105   1.89301   1.08183   0.84903  -0.04243
   8   26416.0    378.6   0.002236003   0.02787   0.08252  -0.13443  -0.05464
   9   27225.2    367.3   0.036761922   0.44453   0.41286   0.47060  -0.22938
  10   27242.5    367.1   0.039130740   0.47288  -0.08932   0.35334  -0.58314
  11   27427.2    364.6   0.101804752   1.22197  -0.47032  -0.94559  -0.32654
  12   28118.4    355.6   0.126836472   1.48501   0.46668   0.57727   0.96643
  13   28203.0    354.6   0.042835346   0.50002   0.50125  -0.49539   0.05787
  14   28475.3    351.2   0.028451568   0.32894  -0.44840   0.12243   0.33599
  15   28721.3    348.2   0.080965209   0.92805   0.32049   0.86063  -0.29096
  16   28891.9    346.1   0.186724156   2.12765   1.20290   0.78976  -0.23866
  17   29226.2    342.2   0.053621621   0.60401   0.11691   0.75034  -0.16532
  18   29429.7    339.8   0.118983210   1.33099   0.81687  -0.18995   0.79223
  19   29879.5    334.7   0.096319270   1.06125  -0.66791  -0.78227  -0.05653
  20   30441.0    328.5   0.036069990   0.39009  -0.09616  -0.52316  -0.32733
  21   31230.9    320.2   0.056704657   0.59774  -0.44664   0.62681  -0.07317
  22   31608.4    316.4   0.003364977   0.03505  -0.04009  -0.07717  -0.16578
  23   32244.3    310.1   0.211036990   2.15467   0.78660   1.11483   0.54138
  24   32360.7    309.0   0.099847348   1.01577  -0.77685  -0.63623  -0.08651
  25   32692.5    305.9   0.011677634   0.11759   0.03269  -0.30809  -0.14698
  26   32845.1    304.5   0.147233126   1.47574  -0.37364   0.94133   0.67084
  27   33133.2    301.8   0.543628571   5.40150   2.26809   0.34308  -0.37355
  28   33450.0    299.0   0.261794999   2.57656   0.49272   1.39631   0.61977
  29   33647.5    297.2   0.006617368   0.06475  -0.25256   0.02145  -0.02233
  30   34331.3    291.3   0.004815148   0.04617   0.17617  -0.12295   0.00464
  31   34469.1    290.1   0.097847946   0.93454  -0.74803  -0.59842  -0.12993
  32   34602.7    289.0   0.071071916   0.67618   0.74758  -0.06796   0.33569
  33   34816.5    287.2   0.038627467   0.36525  -0.10745   0.59390   0.03132
  34   35181.6    284.2   0.043585369   0.40785   0.33005   0.28352   0.46748
  35   35563.3    281.2   0.017695197   0.16381   0.28072   0.13457   0.25864
  36   35695.3    280.1   0.026391859   0.24341   0.38227  -0.22460   0.21641
  37   35723.1    279.9   0.019570721   0.18036  -0.35381  -0.05506  -0.22835
  38   36032.2    277.5   0.133567782   1.22035  -0.66587  -0.55939  -0.68122
  39   36237.2    276.0   0.116190308   1.05558  -1.00460  -0.20809  -0.05529
  40   36361.3    275.0   0.018394075   0.16654  -0.36768   0.06300   0.16548
  41   36537.3    273.7   0.076042815   0.68517  -0.60590   0.53677   0.17303
  42   36831.9    271.5   0.024126284   0.21565  -0.20159  -0.14063   0.39399
  43   37097.1    269.6   0.136899555   1.21489  -0.75285   0.80128   0.07789
  44   37162.3    269.1   0.117798783   1.04355  -0.24893   0.60431   0.78511
  45   37503.9    266.6   0.025680067   0.22542  -0.11757  -0.45136  -0.08872
  46   37529.1    266.5   0.017070221   0.14974  -0.11906   0.35049  -0.11279
  47   38035.5    262.9   0.011293602   0.09775  -0.30533   0.06602  -0.01280
  48   38222.2    261.6   0.172413726   1.48502  -0.17581  -0.12209  -1.19967
  49   38318.2    261.0   0.033750449   0.28997  -0.07602  -0.29664   0.44294
  50   38709.3    258.3   0.104418570   0.88805  -0.48770   0.80370  -0.06527
  51   38761.9    258.0   0.030796595   0.26156   0.26850  -0.36801   0.23246
  52   38921.6    256.9   0.016052189   0.13577  -0.13599  -0.32049   0.12068
  53   39002.2    256.4   0.070547177   0.59548   0.14026   0.68935   0.31718
  54   39248.6    254.8   0.060673839   0.50892   0.07672  -0.69360  -0.14820
  55   39510.7    253.1   0.027238131   0.22695  -0.15979  -0.44745   0.03482
  56   39699.0    251.9   0.108546688   0.90015  -0.53912  -0.71369  -0.31646
  57   40024.6    249.8   0.101415579   0.83417  -0.08362  -0.90938  -0.01411
  58   40251.2    248.4   0.077924466   0.63734  -0.18063   0.12483   0.76755

FINAL SINGLE POINT ENERGY     -5291.255810056327

DIPOLE MOMENT
-------------
                                X             Y             Z
Electronic contribution:     -0.61466      -9.42334       1.68071
Nuclear contribution   :      0.62195       7.71675      -4.55769
                        -----------------------------------------
Total Dipole Moment    :      0.00729      -1.70659      -2.87698
                        -----------------------------------------
Magnitude (a.u.)       :      3.34507
Magnitude (Debye)      :      8.50249

Rotational constants in cm-1:     0.002406     0.000160     0.000158
Rotational constants in MHz :    72.141032     4.798095     4.726086

                             ****ORCA TERMINATED NORMALLY****
TOTAL RUN TIME: 0 days 0 hours 12 minutes 8 seconds 800 msec
