                         Program Version 4.2.0 -  RELEASE  -
|  1> # ORCA input file
|  2> # SCF done       -216.204796890589          0.000977317449
|  3> ! CAM-B3LYP def2-SVP def2/J RIJCOSX Grid4 TightSCF
|  4> %maxcore 5000
|  5> %tddft
|  6>     Mode sTDDFT
|  7>     Ethresh 5.0
|  8>     maxcore 5000
|  9> end
| 10>
| 11> %pal
| 12>   nprocs 6
| 13>   end
| 14> * xyz 0 1
| 15>    C       -9.21629         2.34546         3.29612
| 16>    C      -10.53437         2.51905         3.61221
| 17>    F      -10.98725         3.72609         3.97126
| 18>    C      -11.43274         1.43304         3.56586
| 19>    F      -12.71818         1.63273         3.88204
| 20>    C      -10.99977         0.18819         3.20428
| 21>    C       -9.64662        -0.02356         2.87489
| 22>    C       -8.73766         1.07397         2.91959
| 23>    C       -7.37591         0.88544         2.59365
| 24>    C       -6.93606        -0.36318         2.23724
| 25>    C       -7.84803        -1.45495         2.20351
| 26>    C       -9.17043        -1.30158         2.50868
| 27>    C       -7.13603        -2.68984         1.81996
| 28>    O       -7.62259        -3.78868         1.68204
| 29>    C       -5.70056        -2.29708         1.71401
| 30>    C       -5.61369        -0.85042         1.86730
| 31>    C       -4.51006        -0.07983         1.62706
| 32>    C       -4.48827         1.32598         1.75516
| 33>    N       -4.41617         2.46673         1.85396
| 34>    C       -3.26500        -0.57825         1.18407
| 35>    N       -2.23649        -0.91643         0.80359
| 36>    C       -4.65480        -3.15887         1.72094
| 37>    C       -4.72840        -4.59103         1.58218
| 38>    C       -3.94937        -5.40292         2.42629
| 39>    N       -3.97420        -6.70833         2.40544
| 40>    C       -4.74959        -7.34083         1.51163
| 41>    C       -5.54481        -6.62439         0.60620
| 42>    C       -5.53334        -5.24693         0.64393
| 43>    C       -4.68419        -8.77916         1.59175
| 44>    C       -5.21418        -9.64130         0.69606
| 45>    C       -5.18451       -11.06313         0.70075
| 46>    N       -4.79366       -11.94303         1.68082
| 47>    C       -4.40725       -11.67393         3.04638
| 48>    C       -5.57892       -11.17376         3.88608
| 49>    C       -4.91923       -13.28320         1.25373
| 50>    O       -4.64505       -14.23347         1.95929
| 51>    C       -5.40787       -13.19467        -0.10365
| 52>    C       -5.56974       -11.82767        -0.40259
| 53>    C       -6.05298       -11.71138        -1.76415
| 54>    O       -6.34334       -10.74988        -2.44109
| 55>    N       -6.15274       -13.04519        -2.20330
| 56>    C       -6.56433       -13.36045        -3.55132
| 57>    C       -5.37398       -13.68752        -4.44910
| 58>    C       -5.77097       -13.94209        -1.23355
| 59>    C       -5.77772       -15.34053        -1.40348
| 60>    C       -5.41346       -16.20153        -0.40672
| 61>    C       -5.40195       -17.60710        -0.53407
| 62>    C       -5.69009       -18.39486        -1.63457
| 63>    C       -5.54357       -19.76036        -1.28304
| 64>    C       -5.13628       -19.78144         0.13915
| 65>    C       -5.04709       -18.49768         0.56643
| 66>    C       -4.84631       -20.91800         0.90204
| 67>    N       -4.60882       -21.84485         1.53899
| 68>    C       -5.69057       -20.86469        -2.09341
| 69>    C       -5.54060       -22.22421        -1.70316
| 70>    C       -5.60127       -23.02968        -2.81982
| 71>    C       -5.85753       -22.17469        -3.96751
| 72>    C       -5.91248       -20.88168        -3.54748
| 73>    C       -6.12489       -19.76321        -4.35970
| 74>    N       -6.31359       -18.85132        -5.03305
| 75>    C       -5.48471       -24.44141        -2.87314
| 76>    C       -4.95143       -25.27492        -1.93863
| 77>    C       -5.30339       -26.72550        -1.98203
| 78>    O       -5.81308       -27.31486        -2.90574
| 79>    C       -4.95583       -27.24806        -0.64617
| 80>    C       -5.20968       -28.47780        -0.10943
| 81>    C       -4.82643       -28.73522         1.22587
| 82>    C       -4.19881       -27.70523         1.98614
| 83>    C       -3.83790       -27.96355         3.32392
| 84>    C       -4.08206       -29.18820         3.87878
| 85>    C       -4.69768       -30.20775         3.12464
| 86>    C       -5.06300       -29.98747         1.82638
| 87>    F       -4.92449       -31.39908         3.69467
| 88>    F       -3.73789       -29.43316         5.14981
| 89>    C       -3.93960       -26.44499         1.40089
| 90>    C       -4.30025       -26.22685         0.09855
| 91>    C       -4.13954       -25.05326        -0.75677
| 92>    C       -3.19601       -24.08096        -0.56279
| 93>    C       -2.91229       -23.04882        -1.47864
| 94>    N       -2.62207       -22.20284        -2.19850
| 95>    C       -2.32220       -24.05094         0.54644
| 96>    N       -1.57383       -23.98918         1.41344
| 97>    H       -8.54267         3.18724         3.33528
| 98>    H      -11.69943        -0.63235         3.17447
| 99>    H       -6.71066         1.73231         2.64373
|100>    H       -9.84195        -2.14599         2.47412
|101>    H       -3.66378        -2.76908         1.92346
|102>    H       -3.30646        -4.95568         3.17407
|103>    H       -6.16087        -7.14059        -0.11173
|104>    H       -6.11297        -4.67662        -0.06425
|105>    H       -4.12342        -9.12168         2.44699
|106>    H       -5.70302        -9.25363        -0.18886
|107>    H       -3.57150       -10.97066         3.06715
|108>    H       -4.05781       -12.63256         3.44257
|109>    H       -5.98121       -10.24429         3.49048
|110>    H       -5.24913       -11.00460         4.90717
|111>    H       -6.37154       -11.91818         3.89687
|112>    H       -7.07301       -12.46834        -3.92708
|113>    H       -7.27631       -14.18992        -3.53162
|114>    H       -4.69733       -12.83765        -4.49460
|115>    H       -5.72372       -13.90799        -5.45350
|116>    H       -4.82464       -14.54867        -4.07561
|117>    H       -6.09047       -15.73421        -2.35927
|118>    H       -5.11037       -15.79852         0.55087
|119>    H       -5.98053       -18.05432        -2.60838
|120>    H       -4.76103       -18.16163         1.54599
|121>    H       -5.45023       -22.55654        -0.68881
|122>    H       -5.95610       -22.52410        -4.97868
|123>    H       -5.93310       -24.93549        -3.73014
|124>    H       -5.70025       -29.24203        -0.69286
|125>    H       -3.36267       -27.19480         3.91292
|126>    H       -5.53446       -30.77784         1.26351
|127>    H       -3.47799       -25.67605         1.99948
|128> *
|129>
|130>                          ****END OF INPUT****

CARTESIAN COORDINATES (ANGSTROEM)
---------------------------------
  C     -9.216290    2.345460    3.296120
  C    -10.534370    2.519050    3.612210
  F    -10.987250    3.726090    3.971260
  C    -11.432740    1.433040    3.565860
  F    -12.718180    1.632730    3.882040
  C    -10.999770    0.188190    3.204280
  C     -9.646620   -0.023560    2.874890
  C     -8.737660    1.073970    2.919590
  C     -7.375910    0.885440    2.593650
  C     -6.936060   -0.363180    2.237240
  C     -7.848030   -1.454950    2.203510
  C     -9.170430   -1.301580    2.508680
  C     -7.136030   -2.689840    1.819960
  O     -7.622590   -3.788680    1.682040
  C     -5.700560   -2.297080    1.714010
  C     -5.613690   -0.850420    1.867300
  C     -4.510060   -0.079830    1.627060
  C     -4.488270    1.325980    1.755160
  N     -4.416170    2.466730    1.853960
  C     -3.265000   -0.578250    1.184070
  N     -2.236490   -0.916430    0.803590
  C     -4.654800   -3.158870    1.720940
  C     -4.728400   -4.591030    1.582180
  C     -3.949370   -5.402920    2.426290
  N     -3.974200   -6.708330    2.405440
  C     -4.749590   -7.340830    1.511630
  C     -5.544810   -6.624390    0.606200
  C     -5.533340   -5.246930    0.643930
  C     -4.684190   -8.779160    1.591750
  C     -5.214180   -9.641300    0.696060
  C     -5.184510  -11.063130    0.700750
  N     -4.793660  -11.943030    1.680820
  C     -4.407250  -11.673930    3.046380
  C     -5.578920  -11.173760    3.886080
  C     -4.919230  -13.283200    1.253730
  O     -4.645050  -14.233470    1.959290
  C     -5.407870  -13.194670   -0.103650
  C     -5.569740  -11.827670   -0.402590
  C     -6.052980  -11.711380   -1.764150
  O     -6.343340  -10.749880   -2.441090
  N     -6.152740  -13.045190   -2.203300
  C     -6.564330  -13.360450   -3.551320
  C     -5.373980  -13.687520   -4.449100
  C     -5.770970  -13.942090   -1.233550
  C     -5.777720  -15.340530   -1.403480
  C     -5.413460  -16.201530   -0.406720
  C     -5.401950  -17.607100   -0.534070
  C     -5.690090  -18.394860   -1.634570
  C     -5.543570  -19.760360   -1.283040
  C     -5.136280  -19.781440    0.139150
  C     -5.047090  -18.497680    0.566430
  C     -4.846310  -20.918000    0.902040
  N     -4.608820  -21.844850    1.538990
  C     -5.690570  -20.864690   -2.093410
  C     -5.540600  -22.224210   -1.703160
  C     -5.601270  -23.029680   -2.819820
  C     -5.857530  -22.174690   -3.967510
  C     -5.912480  -20.881680   -3.547480
  C     -6.124890  -19.763210   -4.359700
  N     -6.313590  -18.851320   -5.033050
  C     -5.484710  -24.441410   -2.873140
  C     -4.951430  -25.274920   -1.938630
  C     -5.303390  -26.725500   -1.982030
  O     -5.813080  -27.314860   -2.905740
  C     -4.955830  -27.248060   -0.646170
  C     -5.209680  -28.477800   -0.109430
  C     -4.826430  -28.735220    1.225870
  C     -4.198810  -27.705230    1.986140
  C     -3.837900  -27.963550    3.323920
  C     -4.082060  -29.188200    3.878780
  C     -4.697680  -30.207750    3.124640
  C     -5.063000  -29.987470    1.826380
  F     -4.924490  -31.399080    3.694670
  F     -3.737890  -29.433160    5.149810
  C     -3.939600  -26.444990    1.400890
  C     -4.300250  -26.226850    0.098550
  C     -4.139540  -25.053260   -0.756770
  C     -3.196010  -24.080960   -0.562790
  C     -2.912290  -23.048820   -1.478640
  N     -2.622070  -22.202840   -2.198500
  C     -2.322200  -24.050940    0.546440
  N     -1.573830  -23.989180    1.413440
  H     -8.542670    3.187240    3.335280
  H    -11.699430   -0.632350    3.174470
  H     -6.710660    1.732310    2.643730
  H     -9.841950   -2.145990    2.474120
  H     -3.663780   -2.769080    1.923460
  H     -3.306460   -4.955680    3.174070
  H     -6.160870   -7.140590   -0.111730
  H     -6.112970   -4.676620   -0.064250
  H     -4.123420   -9.121680    2.446990
  H     -5.703020   -9.253630   -0.188860
  H     -3.571500  -10.970660    3.067150
  H     -4.057810  -12.632560    3.442570
  H     -5.981210  -10.244290    3.490480
  H     -5.249130  -11.004600    4.907170
  H     -6.371540  -11.918180    3.896870
  H     -7.073010  -12.468340   -3.927080
  H     -7.276310  -14.189920   -3.531620
  H     -4.697330  -12.837650   -4.494600
  H     -5.723720  -13.907990   -5.453500
  H     -4.824640  -14.548670   -4.075610
  H     -6.090470  -15.734210   -2.359270
  H     -5.110370  -15.798520    0.550870
  H     -5.980530  -18.054320   -2.608380
  H     -4.761030  -18.161630    1.545990
  H     -5.450230  -22.556540   -0.688810
  H     -5.956100  -22.524100   -4.978680
  H     -5.933100  -24.935490   -3.730140
  H     -5.700250  -29.242030   -0.692860
  H     -3.362670  -27.194800    3.912920
  H     -5.534460  -30.777840    1.263510
  H     -3.477990  -25.676050    1.999480

 Total Charge           Charge          ....    0
 Multiplicity           Mult            ....    1
 Number of Electrons    NEL             ....  552
 Basis Dimension        Dim             .... 1303

ORBITAL ENERGIES
----------------

  NO   OCC          E(Eh)            E(eV)
   0   2.0000     -24.805673      -674.9967
   1   2.0000     -24.804762      -674.9719
   2   2.0000     -24.798589      -674.8039
   3   2.0000     -24.797600      -674.7770
   4   2.0000     -19.230428      -523.2865
   5   2.0000     -19.221514      -523.0440
   6   2.0000     -19.205365      -522.6046
   7   2.0000     -19.197994      -522.4040
   8   2.0000     -14.464351      -393.5950
   9   2.0000     -14.461590      -393.5199
  10   2.0000     -14.426457      -392.5639
  11   2.0000     -14.425886      -392.5483
  12   2.0000     -14.421881      -392.4393
  13   2.0000     -14.418869      -392.3574
  14   2.0000     -14.416203      -392.2848
  15   2.0000     -14.414529      -392.2393
  16   2.0000     -14.413275      -392.2052
  17   2.0000     -10.389601      -282.7154
  18   2.0000     -10.388901      -282.6964
  19   2.0000     -10.386276      -282.6249
  20   2.0000     -10.382469      -282.5213
  21   2.0000     -10.382409      -282.5197
  22   2.0000     -10.381853      -282.5046
  23   2.0000     -10.381275      -282.4889
  24   2.0000     -10.372493      -282.2499
  25   2.0000     -10.355886      -281.7980
  26   2.0000     -10.352648      -281.7099
  27   2.0000     -10.351670      -281.6833
  28   2.0000     -10.349259      -281.6177
  29   2.0000     -10.348730      -281.6033
  30   2.0000     -10.345536      -281.5164
  31   2.0000     -10.333495      -281.1887
  32   2.0000     -10.330648      -281.1112
  33   2.0000     -10.330419      -281.1050
  34   2.0000     -10.328582      -281.0550
  35   2.0000     -10.327909      -281.0367
  36   2.0000     -10.327889      -281.0361
  37   2.0000     -10.323899      -280.9276
  38   2.0000     -10.323636      -280.9204
  39   2.0000     -10.322832      -280.8985
  40   2.0000     -10.322495      -280.8894
  41   2.0000     -10.321295      -280.8567
  42   2.0000     -10.319672      -280.8126
  43   2.0000     -10.319418      -280.8056
  44   2.0000     -10.319328      -280.8032
  45   2.0000     -10.317593      -280.7560
  46   2.0000     -10.316727      -280.7324
  47   2.0000     -10.316558      -280.7278
  48   2.0000     -10.315780      -280.7067
  49   2.0000     -10.314334      -280.6673
  50   2.0000     -10.314248      -280.6650
  51   2.0000     -10.313453      -280.6433
  52   2.0000     -10.312968      -280.6301
  53   2.0000     -10.312404      -280.6148
  54   2.0000     -10.312214      -280.6096
  55   2.0000     -10.311562      -280.5919
  56   2.0000     -10.311515      -280.5906
  57   2.0000     -10.311259      -280.5836
  58   2.0000     -10.309132      -280.5258
  59   2.0000     -10.309115      -280.5253
  60   2.0000     -10.308694      -280.5138
  61   2.0000     -10.308524      -280.5092
  62   2.0000     -10.308348      -280.5044
  63   2.0000     -10.307838      -280.4905
  64   2.0000     -10.306291      -280.4484
  65   2.0000     -10.304897      -280.4105
  66   2.0000     -10.304795      -280.4077
  67   2.0000     -10.303616      -280.3756
  68   2.0000     -10.303452      -280.3712
  69   2.0000     -10.302633      -280.3489
  70   2.0000     -10.302628      -280.3488
  71   2.0000     -10.301786      -280.3258
  72   2.0000     -10.300673      -280.2956
  73   2.0000     -10.300406      -280.2883
  74   2.0000     -10.298615      -280.2396
  75   2.0000     -10.296180      -280.1733
  76   2.0000     -10.293445      -280.0989
  77   2.0000     -10.292185      -280.0646
  78   2.0000     -10.275076      -279.5990
  79   2.0000     -10.272637      -279.5327
  80   2.0000     -10.267948      -279.4051
  81   2.0000     -10.266248      -279.3588
  82   2.0000      -1.328550       -36.1517
  83   2.0000      -1.321015       -35.9466
  84   2.0000      -1.313642       -35.7460
  85   2.0000      -1.306137       -35.5418
  86   2.0000      -1.146497       -31.1978
  87   2.0000      -1.144695       -31.1487
  88   2.0000      -1.136856       -30.9354
  89   2.0000      -1.136555       -30.9272
  90   2.0000      -1.073523       -29.2120
  91   2.0000      -1.064569       -28.9684
  92   2.0000      -1.055751       -28.7284
  93   2.0000      -1.030385       -28.0382
  94   2.0000      -1.026619       -27.9357
  95   2.0000      -1.020641       -27.7730
  96   2.0000      -1.013865       -27.5887
  97   2.0000      -1.007745       -27.4221
  98   2.0000      -1.006295       -27.3827
  99   2.0000      -1.004666       -27.3384
 100   2.0000      -0.995416       -27.0866
 101   2.0000      -0.993619       -27.0378
 102   2.0000      -0.991441       -26.9785
 103   2.0000      -0.989089       -26.9145
 104   2.0000      -0.982306       -26.7299
 105   2.0000      -0.947271       -25.7766
 106   2.0000      -0.938369       -25.5343
 107   2.0000      -0.934510       -25.4293
 108   2.0000      -0.932287       -25.3688
 109   2.0000      -0.924052       -25.1447
 110   2.0000      -0.917734       -24.9728
 111   2.0000      -0.910672       -24.7806
 112   2.0000      -0.906562       -24.6688
 113   2.0000      -0.900159       -24.4946
 114   2.0000      -0.894607       -24.3435
 115   2.0000      -0.888866       -24.1873
 116   2.0000      -0.884885       -24.0789
 117   2.0000      -0.878339       -23.9008
 118   2.0000      -0.869444       -23.6588
 119   2.0000      -0.858699       -23.3664
 120   2.0000      -0.856460       -23.3055
 121   2.0000      -0.849658       -23.1204
 122   2.0000      -0.844743       -22.9866
 123   2.0000      -0.841826       -22.9073
 124   2.0000      -0.827231       -22.5101
 125   2.0000      -0.822428       -22.3794
 126   2.0000      -0.816787       -22.2259
 127   2.0000      -0.798266       -21.7219
 128   2.0000      -0.788831       -21.4652
 129   2.0000      -0.777593       -21.1594
 130   2.0000      -0.773994       -21.0615
 131   2.0000      -0.768717       -20.9179
 132   2.0000      -0.766721       -20.8635
 133   2.0000      -0.753069       -20.4920
 134   2.0000      -0.741625       -20.1806
 135   2.0000      -0.738212       -20.0878
 136   2.0000      -0.732453       -19.9311
 137   2.0000      -0.727460       -19.7952
 138   2.0000      -0.723794       -19.6954
 139   2.0000      -0.719677       -19.5834
 140   2.0000      -0.717788       -19.5320
 141   2.0000      -0.715559       -19.4713
 142   2.0000      -0.713089       -19.4041
 143   2.0000      -0.703880       -19.1536
 144   2.0000      -0.696352       -18.9487
 145   2.0000      -0.691525       -18.8173
 146   2.0000      -0.687248       -18.7010
 147   2.0000      -0.681947       -18.5567
 148   2.0000      -0.680135       -18.5074
 149   2.0000      -0.673987       -18.3401
 150   2.0000      -0.666631       -18.1400
 151   2.0000      -0.657469       -17.8906
 152   2.0000      -0.655860       -17.8469
 153   2.0000      -0.653236       -17.7755
 154   2.0000      -0.649412       -17.6714
 155   2.0000      -0.649196       -17.6655
 156   2.0000      -0.644223       -17.5302
 157   2.0000      -0.638940       -17.3864
 158   2.0000      -0.627983       -17.0883
 159   2.0000      -0.621945       -16.9240
 160   2.0000      -0.618059       -16.8182
 161   2.0000      -0.617359       -16.7992
 162   2.0000      -0.614557       -16.7229
 163   2.0000      -0.606917       -16.5150
 164   2.0000      -0.599953       -16.3256
 165   2.0000      -0.597229       -16.2514
 166   2.0000      -0.593042       -16.1375
 167   2.0000      -0.592912       -16.1340
 168   2.0000      -0.588214       -16.0061
 169   2.0000      -0.586284       -15.9536
 170   2.0000      -0.585511       -15.9326
 171   2.0000      -0.584016       -15.8919
 172   2.0000      -0.579528       -15.7698
 173   2.0000      -0.576188       -15.6789
 174   2.0000      -0.572585       -15.5808
 175   2.0000      -0.565714       -15.3939
 176   2.0000      -0.562958       -15.3189
 177   2.0000      -0.560037       -15.2394
 178   2.0000      -0.554930       -15.1004
 179   2.0000      -0.554543       -15.0899
 180   2.0000      -0.554278       -15.0827
 181   2.0000      -0.549865       -14.9626
 182   2.0000      -0.548920       -14.9369
 183   2.0000      -0.547119       -14.8879
 184   2.0000      -0.544617       -14.8198
 185   2.0000      -0.541924       -14.7465
 186   2.0000      -0.540628       -14.7112
 187   2.0000      -0.538885       -14.6638
 188   2.0000      -0.537671       -14.6308
 189   2.0000      -0.536018       -14.5858
 190   2.0000      -0.535145       -14.5620
 191   2.0000      -0.532456       -14.4889
 192   2.0000      -0.531415       -14.4605
 193   2.0000      -0.531009       -14.4495
 194   2.0000      -0.530821       -14.4444
 195   2.0000      -0.527267       -14.3477
 196   2.0000      -0.525758       -14.3066
 197   2.0000      -0.523630       -14.2487
 198   2.0000      -0.520485       -14.1631
 199   2.0000      -0.518654       -14.1133
 200   2.0000      -0.517649       -14.0860
 201   2.0000      -0.516288       -14.0489
 202   2.0000      -0.511817       -13.9273
 203   2.0000      -0.510939       -13.9034
 204   2.0000      -0.509921       -13.8757
 205   2.0000      -0.507801       -13.8180
 206   2.0000      -0.505854       -13.7650
 207   2.0000      -0.502519       -13.6742
 208   2.0000      -0.500209       -13.6114
 209   2.0000      -0.497177       -13.5289
 210   2.0000      -0.496841       -13.5197
 211   2.0000      -0.493536       -13.4298
 212   2.0000      -0.491748       -13.3811
 213   2.0000      -0.487614       -13.2687
 214   2.0000      -0.485384       -13.2080
 215   2.0000      -0.481720       -13.1083
 216   2.0000      -0.478648       -13.0247
 217   2.0000      -0.477486       -12.9930
 218   2.0000      -0.475112       -12.9285
 219   2.0000      -0.473653       -12.8888
 220   2.0000      -0.470256       -12.7963
 221   2.0000      -0.467455       -12.7201
 222   2.0000      -0.464897       -12.6505
 223   2.0000      -0.463222       -12.6049
 224   2.0000      -0.461345       -12.5538
 225   2.0000      -0.459723       -12.5097
 226   2.0000      -0.459443       -12.5021
 227   2.0000      -0.457451       -12.4479
 228   2.0000      -0.454711       -12.3733
 229   2.0000      -0.454384       -12.3644
 230   2.0000      -0.453971       -12.3532
 231   2.0000      -0.453375       -12.3370
 232   2.0000      -0.451957       -12.2984
 233   2.0000      -0.451588       -12.2883
 234   2.0000      -0.449765       -12.2387
 235   2.0000      -0.444874       -12.1056
 236   2.0000      -0.444520       -12.0960
 237   2.0000      -0.444221       -12.0879
 238   2.0000      -0.441951       -12.0261
 239   2.0000      -0.440427       -11.9846
 240   2.0000      -0.437868       -11.9150
 241   2.0000      -0.437570       -11.9069
 242   2.0000      -0.433812       -11.8046
 243   2.0000      -0.431031       -11.7290
 244   2.0000      -0.428915       -11.6714
 245   2.0000      -0.427016       -11.6197
 246   2.0000      -0.424936       -11.5631
 247   2.0000      -0.423631       -11.5276
 248   2.0000      -0.422695       -11.5021
 249   2.0000      -0.420939       -11.4543
 250   2.0000      -0.416389       -11.3305
 251   2.0000      -0.410767       -11.1775
 252   2.0000      -0.404359       -11.0032
 253   2.0000      -0.401404       -10.9228
 254   2.0000      -0.397745       -10.8232
 255   2.0000      -0.388970       -10.5844
 256   2.0000      -0.386986       -10.5304
 257   2.0000      -0.378367       -10.2959
 258   2.0000      -0.375165       -10.2088
 259   2.0000      -0.359244        -9.7755
 260   2.0000      -0.358818        -9.7639
 261   2.0000      -0.356021        -9.6878
 262   2.0000      -0.346488        -9.4284
 263   2.0000      -0.342030        -9.3071
 264   2.0000      -0.341623        -9.2960
 265   2.0000      -0.340965        -9.2781
 266   2.0000      -0.330910        -9.0045
 267   2.0000      -0.326891        -8.8952
 268   2.0000      -0.326250        -8.8777
 269   2.0000      -0.318459        -8.6657
 270   2.0000      -0.315274        -8.5790
 271   2.0000      -0.309205        -8.4139
 272   2.0000      -0.304691        -8.2911
 273   2.0000      -0.303417        -8.2564
 274   2.0000      -0.292515        -7.9597
 275   2.0000      -0.244186        -6.6446
 276   0.0000      -0.143071        -3.8932
 277   0.0000      -0.105426        -2.8688
 278   0.0000      -0.087941        -2.3930
 279   0.0000      -0.078058        -2.1241
 280   0.0000      -0.067626        -1.8402

MULLIKEN ATOMIC CHARGES
-----------------------
   0 C :   -0.109663
   1 C :    0.243527
   2 F :   -0.168162
   3 C :    0.241914
   4 F :   -0.169100
   5 C :   -0.106454
   6 C :    0.118172
   7 C :    0.116028
   8 C :   -0.084466
   9 C :    0.055501
  10 C :   -0.009748
  11 C :   -0.078600
  12 C :    0.148877
  13 O :   -0.136641
  14 C :   -0.085461
  15 C :    0.291081
  16 C :   -0.328956
  17 C :   -0.182644
  18 N :    0.153548
  19 C :   -0.202574
  20 N :    0.170934
  21 C :   -0.013378
  22 C :    0.000827
  23 C :    0.013989
  24 N :   -0.055252
  25 C :   -0.012072
  26 C :   -0.022911
  27 C :    0.125917
  28 C :    0.060967
  29 C :   -0.010109
  30 C :    0.115879
  31 N :   -0.265421
  32 C :    0.094694
  33 C :   -0.001698
  34 C :    0.168744
  35 O :   -0.206421
  36 C :   -0.061667
  37 C :   -0.047201
  38 C :    0.154096
  39 O :   -0.190014
  40 N :   -0.265159
  41 C :    0.094336
  42 C :    0.003451
  43 C :    0.156465
  44 C :   -0.007799
  45 C :    0.004190
  46 C :    0.115483
  47 C :   -0.118807
  48 C :    0.135642
  49 C :   -0.091058
  50 C :    0.008886
  51 C :   -0.161878
  52 N :    0.128964
  53 C :    0.102540
  54 C :   -0.106321
  55 C :    0.087339
  56 C :    0.015395
  57 C :   -0.083059
  58 C :   -0.173598
  59 N :    0.125920
  60 C :    0.038421
  61 C :   -0.113154
  62 C :    0.135100
  63 O :   -0.137698
  64 C :    0.022147
  65 C :   -0.085914
  66 C :    0.113191
  67 C :    0.109219
  68 C :   -0.103547
  69 C :    0.241345
  70 C :    0.238771
  71 C :   -0.103491
  72 F :   -0.171707
  73 F :   -0.170060
  74 C :   -0.074575
  75 C :    0.024358
  76 C :    0.268656
  77 C :   -0.322741
  78 C :   -0.197611
  79 N :    0.174945
  80 C :   -0.165986
  81 N :    0.166140
  82 H :    0.010543
  83 H :    0.002363
  84 H :   -0.003299
  85 H :   -0.007355
  86 H :    0.042131
  87 H :    0.004643
  88 H :    0.001485
  89 H :   -0.001577
  90 H :   -0.015349
  91 H :    0.010264
  92 H :    0.034680
  93 H :    0.046517
  94 H :    0.025180
  95 H :    0.026417
  96 H :    0.025041
  97 H :    0.044422
  98 H :    0.029769
  99 H :    0.029719
 100 H :    0.031648
 101 H :    0.018980
 102 H :   -0.012048
 103 H :    0.005630
 104 H :    0.003276
 105 H :    0.014370
 106 H :    0.020146
 107 H :    0.001048
 108 H :    0.018704
 109 H :   -0.008233
 110 H :    0.008075
 111 H :    0.000315
 112 H :    0.009672
Sum of atomic charges:   -0.0000000

LOEWDIN ATOMIC CHARGES
----------------------
   0 C :   -0.028795
   1 C :    0.068418
   2 F :   -0.046024
   3 C :    0.069327
   4 F :   -0.046699
   5 C :   -0.032497
   6 C :   -0.007836
   7 C :   -0.005392
   8 C :    0.019482
   9 C :   -0.024114
  10 C :   -0.054284
  11 C :    0.032753
  12 C :    0.084305
  13 O :   -0.129102
  14 C :   -0.083403
  15 C :    0.073526
  16 C :   -0.129771
  17 C :   -0.017417
  18 N :   -0.045458
  19 C :   -0.025504
  20 N :   -0.040943
  21 C :    0.079618
  22 C :   -0.061196
  23 C :    0.039692
  24 N :   -0.070304
  25 C :    0.018414
  26 C :   -0.022833
  27 C :    0.050656
  28 C :    0.000393
  29 C :   -0.020975
  30 C :    0.075621
  31 N :    0.000378
  32 C :    0.035588
  33 C :   -0.061609
  34 C :    0.084841
  35 O :   -0.192053
  36 C :   -0.113343
  37 C :   -0.108946
  38 C :    0.079038
  39 O :   -0.192985
  40 N :   -0.002137
  41 C :    0.036550
  42 C :   -0.059414
  43 C :    0.076981
  44 C :   -0.013178
  45 C :    0.022633
  46 C :   -0.010146
  47 C :   -0.021875
  48 C :    0.053766
  49 C :   -0.080269
  50 C :    0.068986
  51 C :   -0.021934
  52 N :   -0.065587
  53 C :    0.033139
  54 C :    0.019604
  55 C :   -0.038429
  56 C :    0.061449
  57 C :   -0.082669
  58 C :   -0.025944
  59 N :   -0.069769
  60 C :    0.062207
  61 C :   -0.068951
  62 C :    0.083942
  63 O :   -0.137367
  64 C :   -0.055820
  65 C :    0.031432
  66 C :   -0.009352
  67 C :   -0.004417
  68 C :   -0.028450
  69 C :    0.067714
  70 C :    0.067412
  71 C :   -0.033014
  72 F :   -0.049439
  73 F :   -0.048238
  74 C :    0.019872
  75 C :   -0.019256
  76 C :    0.062609
  77 C :   -0.120932
  78 C :   -0.013482
  79 N :   -0.039301
  80 C :   -0.016378
  81 N :   -0.041217
  82 H :    0.048643
  83 H :    0.045719
  84 H :    0.040677
  85 H :    0.041238
  86 H :    0.049017
  87 H :    0.025088
  88 H :    0.037659
  89 H :    0.037326
  90 H :    0.034724
  91 H :    0.044756
  92 H :    0.023767
  93 H :    0.037882
  94 H :    0.023612
  95 H :    0.032955
  96 H :    0.030748
  97 H :    0.038563
  98 H :    0.025202
  99 H :    0.032211
 100 H :    0.034605
 101 H :    0.023369
 102 H :    0.035837
 103 H :    0.038275
 104 H :    0.032537
 105 H :    0.044227
 106 H :    0.034428
 107 H :    0.039307
 108 H :    0.047806
 109 H :    0.040814
 110 H :    0.048436
 111 H :    0.044912
 112 H :    0.043771

  Mayer bond orders larger than 0.100000
B(  0-C ,  1-C ) :   1.4424 B(  0-C ,  5-C ) :   0.1081 B(  0-C ,  7-C ) :   1.1863
B(  0-C , 82-H ) :   1.0076 B(  1-C ,  2-F ) :   1.1374 B(  1-C ,  3-C ) :   1.1873
B(  3-C ,  4-F ) :   1.1360 B(  3-C ,  5-C ) :   1.4442 B(  5-C ,  6-C ) :   1.1906
B(  5-C , 83-H ) :   1.0078 B(  6-C ,  7-C ) :   1.2535 B(  6-C , 11-C ) :   1.1935
B(  7-C ,  8-C ) :   1.2207 B(  8-C ,  9-C ) :   1.4433 B(  8-C , 84-H ) :   0.9923
B(  9-C , 10-C ) :   1.2180 B(  9-C , 15-C ) :   0.9981 B( 10-C , 11-C ) :   1.4678
B( 10-C , 12-C ) :   0.9437 B( 11-C , 85-H ) :   1.0171 B( 12-C , 13-O ) :   2.2338
B( 12-C , 14-C ) :   0.9257 B( 14-C , 15-C ) :   1.0351 B( 14-C , 21-C ) :   1.6958
B( 15-C , 16-C ) :   1.6694 B( 16-C , 17-C ) :   1.1383 B( 16-C , 19-C ) :   1.1355
B( 17-C , 18-N ) :   2.9714 B( 19-C , 20-N ) :   3.0004 B( 21-C , 22-C ) :   1.0538
B( 21-C , 86-H ) :   0.9476 B( 22-C , 23-C ) :   1.2846 B( 22-C , 27-C ) :   1.3666
B( 23-C , 24-N ) :   1.5985 B( 23-C , 87-H ) :   0.9870 B( 24-N , 25-C ) :   1.4861
B( 25-C , 26-C ) :   1.3398 B( 25-C , 28-C ) :   1.0638 B( 26-C , 27-C ) :   1.4431
B( 26-C , 88-H ) :   0.9731 B( 27-C , 89-H ) :   0.9739 B( 28-C , 29-C ) :   1.5790
B( 28-C , 90-H ) :   0.9785 B( 29-C , 30-C ) :   1.1847 B( 29-C , 91-H ) :   0.9407
B( 30-C , 31-N ) :   1.1729 B( 30-C , 37-C ) :   1.3363 B( 31-N , 32-C ) :   0.9377
B( 31-N , 34-C ) :   1.0610 B( 32-C , 33-C ) :   1.1174 B( 32-C , 92-H ) :   0.9514
B( 32-C , 93-H ) :   0.9233 B( 33-C , 94-H ) :   0.9681 B( 33-C , 95-H ) :   0.9675
B( 33-C , 96-H ) :   0.9623 B( 34-C , 35-O ) :   2.0151 B( 34-C , 36-C ) :   0.9884
B( 35-O ,103-H ) :   0.1138 B( 36-C , 37-C ) :   1.2644 B( 36-C , 43-C ) :   1.3076
B( 37-C , 38-C ) :   0.9711 B( 38-C , 39-O ) :   2.1328 B( 38-C , 40-N ) :   1.0402
B( 40-N , 41-C ) :   0.9390 B( 40-N , 43-C ) :   1.1635 B( 41-C , 42-C ) :   1.1212
B( 41-C , 97-H ) :   0.9277 B( 41-C , 98-H ) :   0.9502 B( 42-C , 99-H ) :   0.9638
B( 42-C ,100-H ) :   0.9677 B( 42-C ,101-H ) :   0.9688 B( 43-C , 44-C ) :   1.1753
B( 44-C , 45-C ) :   1.5505 B( 44-C ,102-H ) :   0.9680 B( 45-C , 46-C ) :   1.1271
B( 45-C ,103-H ) :   0.9542 B( 46-C , 47-C ) :   1.5074 B( 46-C , 50-C ) :   1.0248
B( 47-C , 48-C ) :   1.1505 B( 47-C ,104-H ) :   0.9961 B( 48-C , 49-C ) :   1.0947
B( 48-C , 53-C ) :   1.3975 B( 49-C , 50-C ) :   1.6707 B( 49-C , 51-C ) :   1.0951
B( 50-C ,105-H ) :   1.0277 B( 51-C , 52-N ) :   2.9385 B( 53-C , 54-C ) :   1.1350
B( 53-C , 57-C ) :   1.1277 B( 54-C , 55-C ) :   1.5110 B( 54-C ,106-H ) :   0.9908
B( 55-C , 56-C ) :   1.0559 B( 55-C , 60-C ) :   1.0689 B( 56-C , 57-C ) :   1.6510
B( 56-C ,107-H ) :   1.0230 B( 57-C , 58-C ) :   1.0878 B( 58-C , 59-N ) :   2.9618
B( 60-C , 61-C ) :   1.6788 B( 60-C ,108-H ) :   0.9461 B( 61-C , 62-C ) :   0.9342
B( 61-C , 76-C ) :   1.0242 B( 62-C , 63-O ) :   2.2730 B( 62-C , 64-C ) :   0.9184
B( 64-C , 65-C ) :   1.4685 B( 64-C , 75-C ) :   1.2212 B( 65-C , 66-C ) :   1.1993
B( 65-C ,109-H ) :   1.0157 B( 66-C , 67-C ) :   1.2551 B( 66-C , 71-C ) :   1.1918
B( 67-C , 68-C ) :   1.1916 B( 67-C , 74-C ) :   1.2150 B( 68-C , 69-C ) :   1.4421
B( 68-C , 71-C ) :   0.1086 B( 68-C ,110-H ) :   1.0063 B( 69-C , 70-C ) :   1.1904
B( 69-C , 73-F ) :   1.1351 B( 70-C , 71-C ) :   1.4458 B( 70-C , 72-F ) :   1.1335
B( 71-C ,111-H ) :   1.0059 B( 74-C , 75-C ) :   1.4630 B( 74-C ,112-H ) :   0.9938
B( 75-C , 76-C ) :   0.9912 B( 76-C , 77-C ) :   1.6744 B( 77-C , 78-C ) :   1.1747
B( 77-C , 80-C ) :   1.1262 B( 78-C , 79-N ) :   2.9865 B( 80-C , 81-N ) :   2.9958

-----------------------------------------------------------------------------
         ABSORPTION SPECTRUM VIA TRANSITION ELECTRIC DIPOLE MOMENTS
-----------------------------------------------------------------------------
State   Energy  Wavelength   fosc         T2         TX        TY        TZ
        (cm-1)    (nm)                  (au**2)     (au)      (au)      (au)
-----------------------------------------------------------------------------
   0    8536.5   1171.4   0.729879297  28.14803   0.04219   5.11785   1.39780
   1   15324.6    652.5   0.017750346   0.38132   0.37998  -0.48485   0.04305
   2   17243.3    579.9   0.253883337   4.84720  -0.11359  -2.05888  -0.77157
   3   18103.3    552.4   0.321099558   5.83926   0.08505   2.24071   0.90068
   4   20252.6    493.8   0.009791959   0.15917  -0.34031   0.14613   0.14834
   5   22372.9    447.0   0.148594932   2.18654  -0.73906   0.86240  -0.94689
   6   23207.0    430.9   0.236279571   3.35184   0.37924  -1.79107   0.00969
   7   23729.3    421.4   0.011666269   0.16185   0.05849  -0.38746   0.09116
   8   23930.3    417.9   0.039318420   0.54091   0.12222  -0.70896  -0.15279
   9   25171.1    397.3   0.648171783   8.47742   0.07572  -2.91032  -0.04178
  10   25397.8    393.7   0.093162667   1.20760   0.02438  -1.09125   0.12716
  11   25940.1    385.5   0.005123438   0.06502  -0.02894  -0.24819   0.05088
  12   26372.8    379.2   0.031955091   0.39890   0.01774  -0.54432  -0.31985
  13   26941.6    371.2   0.051145289   0.62497   0.61751   0.03860   0.49210
  14   27081.7    369.3   0.010393727   0.12635   0.01963   0.34393   0.08762
  15   27796.6    359.8   0.004894089   0.05796   0.20959  -0.07419   0.09236
  16   27945.3    357.8   0.128359452   1.51215  -0.91902   0.75600   0.30986
  17   29365.1    340.5   0.054010053   0.60551  -0.56231   0.50497   0.18525
  18   29669.5    337.0   0.006294928   0.06985  -0.13032   0.19396   0.12347
  19   29746.3    336.2   0.015567692   0.17229   0.13131   0.26933   0.28725
  20   29854.1    335.0   0.056292808   0.62076  -0.23384  -0.49447  -0.56708
  21   30339.8    329.6   0.080798354   0.87673  -0.04185  -0.93434  -0.04467
  22   30544.4    327.4   0.367668167   3.96278   0.33585   1.81035  -0.75672
  23   30766.2    325.0   0.127708780   1.36654  -0.26352   0.81223  -0.79836
  24   30906.2    323.6   0.022624773   0.24100  -0.14261   0.41989   0.21060
  25   31137.4    321.2   0.262517979   2.77557   0.44114  -1.55505   0.40345
  26   31368.1    318.8   0.061030745   0.64053  -0.41437  -0.23740   0.64223
  27   31884.8    313.6   0.034186747   0.35298  -0.13234  -0.57766   0.04213
  28   32169.9    310.8   0.012704616   0.13001  -0.30497   0.01172  -0.19201
  29   32885.5    304.1   0.410725166   4.11171   1.68215  -1.02991  -0.47050
  30   33420.3    299.2   0.012043826   0.11864  -0.30572   0.05915  -0.14722
  31   33733.0    296.4   0.083372392   0.81366   0.87113  -0.10953  -0.20687
  32   34325.8    291.3   0.145813010   1.39846   0.65853   0.77551  -0.60282
  33   34401.3    290.7   0.177880490   1.70227   0.01196  -1.23110   0.43189
  34   34527.7    289.6   0.193025806   1.84045   1.21951  -0.52496  -0.27867
  35   34664.3    288.5   0.033352784   0.31676   0.54662  -0.00877  -0.13374
  36   34729.1    287.9   0.017053408   0.16166   0.00727  -0.26696  -0.30056
  37   35109.3    284.8   0.309335590   2.90057   1.62141  -0.19498  -0.48332
  38   35254.9    283.6   0.198178569   1.85060  -0.19831  -1.27556   0.42920
  39   35526.3    281.5   0.004629070   0.04290  -0.04089   0.16880   0.11283
  40   35617.3    280.8   0.029756126   0.27504   0.30926  -0.10716  -0.40977
  41   35730.7    279.9   0.088906872   0.81916   0.83470   0.34172  -0.07532
  42   35900.5    278.5   0.163424417   1.49862  -0.17329   1.02172  -0.65167
  43   36099.3    277.0   0.497514665   4.53714  -0.75195  -1.80092   0.85347
  44   36301.6    275.5   0.097789222   0.88683   0.60911   0.66541   0.27026
  45   36445.2    274.4   0.005308720   0.04795   0.07035  -0.18245   0.09858
  46   36890.8    271.1   0.055022739   0.49102   0.57215   0.36098  -0.18264
  47   37293.6    268.1   0.097552664   0.86115   0.08375   0.87522  -0.29686
  48   37370.0    267.6   0.013395334   0.11801   0.03306  -0.31597  -0.13067
  49   37566.1    266.2   0.038954085   0.34138   0.47821  -0.24661  -0.22775
  50   37681.5    265.4   0.034370199   0.30028  -0.05126  -0.47179  -0.27399
  51   37951.2    263.5   0.025937255   0.22500   0.45635   0.05115   0.11883
  52   38410.7    260.3   0.000701345   0.00601  -0.02226   0.05469  -0.05024
  53   38837.3    257.5   0.029282463   0.24822   0.27878   0.26056   0.32032
  54   38989.1    256.5   0.028579577   0.24132   0.13630   0.18834   0.43274
  55   39110.5    255.7   0.162357579   1.36664  -0.18338  -1.07155   0.42987
  56   39303.5    254.4   0.011535970   0.09663   0.03699  -0.29885   0.07713
  57   39473.6    253.3   0.078003897   0.65056   0.39158  -0.31991   0.62839
  58   39831.3    251.1   0.074054331   0.61207  -0.06741  -0.64093  -0.44354
  59   40184.2    248.9   0.038613685   0.31635  -0.19236  -0.37586  -0.37158

FINAL SINGLE POINT ENERGY     -3683.888170854239

DIPOLE MOMENT
-------------
                                X             Y             Z
Electronic contribution:     -9.66824     -15.81141      22.82057
Nuclear contribution   :      6.91168      16.10397     -22.08311
                        -----------------------------------------
Total Dipole Moment    :     -2.75656       0.29256       0.73745
                        -----------------------------------------
Magnitude (a.u.)       :      2.86846
Magnitude (Debye)      :      7.29104

Rotational constants in cm-1:     0.001932     0.000131     0.000129
Rotational constants in MHz :    57.914088     3.913548     3.854758

                             ****ORCA TERMINATED NORMALLY****
TOTAL RUN TIME: 0 days 0 hours 13 minutes 1 seconds 322 msec
