                         Program Version 4.2.0 -  RELEASE  -
|  1> # ORCA input file
|  2> # SCF done       -212.917535000660          0.000513947131
|  3> ! CAM-B3LYP def2-SVP def2/J RIJCOSX Grid4 TightSCF
|  4> %maxcore 5000
|  5> %tddft
|  6>     Mode sTDDFT
|  7>     Ethresh 5.0
|  8>     maxcore 5000
|  9> end
| 10>
| 11> %pal
| 12>   nprocs 6
| 13>   end
| 14> * xyz 0 1
| 15>    C      -10.72974        -7.88991         5.72291
| 16>    C      -11.04396        -7.87231         7.05258
| 17>    F      -11.87159        -8.79437         7.55945
| 18>    C      -10.50388        -6.88849         7.90697
| 19>    F      -10.83208        -6.90052         9.20377
| 20>    C       -9.65587        -5.93421         7.41853
| 21>    C       -9.31568        -5.92447         6.05152
| 22>    C       -9.86064        -6.91799         5.18664
| 23>    C       -9.52698        -6.92713         3.81385
| 24>    C       -8.68529        -5.96442         3.31851
| 25>    C       -8.15296        -4.97077         4.18673
| 26>    C       -8.44464        -4.94830         5.52058
| 27>    C       -7.28801        -4.05643         3.41681
| 28>    O       -6.77544        -3.03780         3.81758
| 29>    C       -7.21505        -4.64031         2.04667
| 30>    C       -8.18330        -5.72596         1.97181
| 31>    C       -8.65406        -6.31704         0.83130
| 32>    C       -9.68971        -7.27641         0.81232
| 33>    N      -10.54036        -8.04183         0.72406
| 34>    C       -8.26754        -5.98983        -0.48544
| 35>    N       -8.04147        -5.76443        -1.58914
| 36>    C       -6.46134        -4.16147         1.03583
| 37>    C       -5.65547        -2.95965         1.08807
| 38>    C       -4.60177        -2.63720         1.91694
| 39>    C       -3.83451        -3.38661         2.91298
| 40>    O       -2.99060        -2.81777         3.56983
| 41>    C       -4.08199        -4.86985         3.03753
| 42>    S       -3.99818        -1.04592         1.58396
| 43>    C       -5.10386        -0.84032         0.31238
| 44>    C       -5.93090        -1.92441         0.14129
| 45>    C       -7.00197        -2.06011        -0.82476
| 46>    N       -6.84919        -1.77962        -2.15196
| 47>    C       -5.64679        -1.35769        -2.83067
| 48>    C       -4.58779        -2.45604        -2.84834
| 49>    C       -7.98708        -2.15881        -2.90279
| 50>    O       -8.04606        -2.05639        -4.10915
| 51>    C       -8.90901        -2.66202        -1.91777
| 52>    C       -8.27977        -2.57215        -0.63536
| 53>    C       -9.23905        -3.03370         0.33924
| 54>    O       -9.22506        -3.09205         1.56029
| 55>    N      -10.34572        -3.45285        -0.41633
| 56>    C      -11.43148        -4.17861         0.20143
| 57>    C      -12.65864        -3.32100         0.49210
| 58>    C      -10.16495        -3.22058        -1.76568
| 59>    C      -11.16084        -3.47195        -2.75575
| 60>    C      -10.94000        -3.24608        -4.06444
| 61>    C      -11.93975        -3.38602        -5.10419
| 62>    C      -11.68236        -4.02767        -6.28301
| 63>    S      -13.04775        -4.11089        -7.31796
| 64>    C      -13.99524        -3.24901        -6.19584
| 65>    C      -13.29613        -2.91170        -5.06602
| 66>    C      -13.91115        -2.06566        -4.04192
| 67>    O      -15.09180        -1.90112        -3.87982
| 68>    O      -12.96277        -1.45205        -3.27261
| 69>    C      -13.34100        -0.72891        -2.19998
| 70>    C      -12.42824        -0.39576        -1.26922
| 71>    C      -12.80253         0.22477        -0.04854
| 72>    C      -12.06795         0.34207         1.08683
| 73>    C      -12.78964         0.62599         2.36750
| 74>    O      -13.90921         1.06598         2.47404
| 75>    C      -11.87576         0.18153         3.43629
| 76>    C      -12.11549         0.04012         4.77338
| 77>    C      -11.10837        -0.51785         5.59259
| 78>    C       -9.87274        -0.92177         5.00730
| 79>    C       -8.88551        -1.51633         5.81846
| 80>    C       -9.12528        -1.71179         7.14872
| 81>    C      -10.34167        -1.30519         7.73188
| 82>    C      -11.31220        -0.71440         6.97279
| 83>    F      -10.54178        -1.51459         9.04095
| 84>    F       -8.20763        -2.32016         7.91974
| 85>    C       -9.64397        -0.74544         3.62473
| 86>    C      -10.63053        -0.18960         2.85526
| 87>    C      -10.68202         0.07211         1.42000
| 88>    C       -9.56537         0.22612         0.64679
| 89>    C       -9.51548         0.53603        -0.72673
| 90>    N       -9.36550         0.78289        -1.83798
| 91>    C       -8.26433         0.23430         1.19418
| 92>    N       -7.18455         0.33343         1.56986
| 93>    H      -11.15263        -8.64986         5.08452
| 94>    H       -9.24753        -5.18993         8.08447
| 95>    H       -9.93903        -7.70295         3.18833
| 96>    H       -8.00617        -4.20801         6.17014
| 97>    H       -6.53094        -4.61888         0.05629
| 98>    H       -4.35505        -5.31421         2.08457
| 99>    H       -4.88719        -5.03636         3.75029
|100>    H       -3.18305        -5.33978         3.42959
|101>    H       -5.13194         0.08894        -0.22070
|102>    H       -5.25607        -0.44852        -2.37126
|103>    H       -5.95892        -1.12870        -3.85366
|104>    H       -4.25246        -2.69225        -1.84095
|105>    H       -3.73167        -2.12759        -3.43042
|106>    H       -4.99326        -3.35675        -3.30319
|107>    H      -11.04133        -4.55907         1.15121
|108>    H      -11.69661        -5.02904        -0.43375
|109>    H      -12.39427        -2.50147         1.15583
|110>    H      -13.41462        -3.93040         0.97964
|111>    H      -13.07957        -2.90638        -0.41976
|112>    H      -12.12222        -3.83192        -2.41623
|113>    H       -9.95196        -2.95609        -4.39641
|114>    H      -10.75958        -4.48668        -6.57732
|115>    H      -15.01377        -2.99429        -6.41319
|116>    H      -14.39935        -0.50155        -2.11961
|117>    H      -11.40496        -0.69426        -1.43422
|118>    H      -13.84171         0.52280         0.04613
|119>    H      -13.06460         0.33151         5.19663
|120>    H       -7.94757        -1.82010         5.37707
|121>    H      -12.23835        -0.40902         7.43390
|122>    H       -8.71541        -1.09710         3.20506
|123> *
|124>
|125>                          ****END OF INPUT****

CARTESIAN COORDINATES (ANGSTROEM)
---------------------------------
  C    -10.729740   -7.889910    5.722910
  C    -11.043960   -7.872310    7.052580
  F    -11.871590   -8.794370    7.559450
  C    -10.503880   -6.888490    7.906970
  F    -10.832080   -6.900520    9.203770
  C     -9.655870   -5.934210    7.418530
  C     -9.315680   -5.924470    6.051520
  C     -9.860640   -6.917990    5.186640
  C     -9.526980   -6.927130    3.813850
  C     -8.685290   -5.964420    3.318510
  C     -8.152960   -4.970770    4.186730
  C     -8.444640   -4.948300    5.520580
  C     -7.288010   -4.056430    3.416810
  O     -6.775440   -3.037800    3.817580
  C     -7.215050   -4.640310    2.046670
  C     -8.183300   -5.725960    1.971810
  C     -8.654060   -6.317040    0.831300
  C     -9.689710   -7.276410    0.812320
  N    -10.540360   -8.041830    0.724060
  C     -8.267540   -5.989830   -0.485440
  N     -8.041470   -5.764430   -1.589140
  C     -6.461340   -4.161470    1.035830
  C     -5.655470   -2.959650    1.088070
  C     -4.601770   -2.637200    1.916940
  C     -3.834510   -3.386610    2.912980
  O     -2.990600   -2.817770    3.569830
  C     -4.081990   -4.869850    3.037530
  S     -3.998180   -1.045920    1.583960
  C     -5.103860   -0.840320    0.312380
  C     -5.930900   -1.924410    0.141290
  C     -7.001970   -2.060110   -0.824760
  N     -6.849190   -1.779620   -2.151960
  C     -5.646790   -1.357690   -2.830670
  C     -4.587790   -2.456040   -2.848340
  C     -7.987080   -2.158810   -2.902790
  O     -8.046060   -2.056390   -4.109150
  C     -8.909010   -2.662020   -1.917770
  C     -8.279770   -2.572150   -0.635360
  C     -9.239050   -3.033700    0.339240
  O     -9.225060   -3.092050    1.560290
  N    -10.345720   -3.452850   -0.416330
  C    -11.431480   -4.178610    0.201430
  C    -12.658640   -3.321000    0.492100
  C    -10.164950   -3.220580   -1.765680
  C    -11.160840   -3.471950   -2.755750
  C    -10.940000   -3.246080   -4.064440
  C    -11.939750   -3.386020   -5.104190
  C    -11.682360   -4.027670   -6.283010
  S    -13.047750   -4.110890   -7.317960
  C    -13.995240   -3.249010   -6.195840
  C    -13.296130   -2.911700   -5.066020
  C    -13.911150   -2.065660   -4.041920
  O    -15.091800   -1.901120   -3.879820
  O    -12.962770   -1.452050   -3.272610
  C    -13.341000   -0.728910   -2.199980
  C    -12.428240   -0.395760   -1.269220
  C    -12.802530    0.224770   -0.048540
  C    -12.067950    0.342070    1.086830
  C    -12.789640    0.625990    2.367500
  O    -13.909210    1.065980    2.474040
  C    -11.875760    0.181530    3.436290
  C    -12.115490    0.040120    4.773380
  C    -11.108370   -0.517850    5.592590
  C     -9.872740   -0.921770    5.007300
  C     -8.885510   -1.516330    5.818460
  C     -9.125280   -1.711790    7.148720
  C    -10.341670   -1.305190    7.731880
  C    -11.312200   -0.714400    6.972790
  F    -10.541780   -1.514590    9.040950
  F     -8.207630   -2.320160    7.919740
  C     -9.643970   -0.745440    3.624730
  C    -10.630530   -0.189600    2.855260
  C    -10.682020    0.072110    1.420000
  C     -9.565370    0.226120    0.646790
  C     -9.515480    0.536030   -0.726730
  N     -9.365500    0.782890   -1.837980
  C     -8.264330    0.234300    1.194180
  N     -7.184550    0.333430    1.569860
  H    -11.152630   -8.649860    5.084520
  H     -9.247530   -5.189930    8.084470
  H     -9.939030   -7.702950    3.188330
  H     -8.006170   -4.208010    6.170140
  H     -6.530940   -4.618880    0.056290
  H     -4.355050   -5.314210    2.084570
  H     -4.887190   -5.036360    3.750290
  H     -3.183050   -5.339780    3.429590
  H     -5.131940    0.088940   -0.220700
  H     -5.256070   -0.448520   -2.371260
  H     -5.958920   -1.128700   -3.853660
  H     -4.252460   -2.692250   -1.840950
  H     -3.731670   -2.127590   -3.430420
  H     -4.993260   -3.356750   -3.303190
  H    -11.041330   -4.559070    1.151210
  H    -11.696610   -5.029040   -0.433750
  H    -12.394270   -2.501470    1.155830
  H    -13.414620   -3.930400    0.979640
  H    -13.079570   -2.906380   -0.419760
  H    -12.122220   -3.831920   -2.416230
  H     -9.951960   -2.956090   -4.396410
  H    -10.759580   -4.486680   -6.577320
  H    -15.013770   -2.994290   -6.413190
  H    -14.399350   -0.501550   -2.119610
  H    -11.404960   -0.694260   -1.434220
  H    -13.841710    0.522800    0.046130
  H    -13.064600    0.331510    5.196630
  H     -7.947570   -1.820100    5.377070
  H    -12.238350   -0.409020    7.433900
  H     -8.715410   -1.097100    3.205060

 Total Charge           Charge          ....    0
 Multiplicity           Mult            ....    1
 Number of Electrons    NEL             ....  550
 Basis Dimension        Dim             .... 1250

ORBITAL ENERGIES
----------------

  NO   OCC          E(Eh)            E(eV)
   0   2.0000     -88.980496     -2421.2824
   1   2.0000     -88.969195     -2420.9749
   2   2.0000     -24.802771      -674.9177
   3   2.0000     -24.802028      -674.8975
   4   2.0000     -24.801779      -674.8907
   5   2.0000     -24.797535      -674.7752
   6   2.0000     -19.299791      -525.1740
   7   2.0000     -19.230281      -523.2826
   8   2.0000     -19.228023      -523.2211
   9   2.0000     -19.215420      -522.8782
  10   2.0000     -19.202835      -522.5357
  11   2.0000     -19.202265      -522.5202
  12   2.0000     -19.197782      -522.3982
  13   2.0000     -14.462419      -393.5424
  14   2.0000     -14.462014      -393.5314
  15   2.0000     -14.426467      -392.5641
  16   2.0000     -14.426273      -392.5588
  17   2.0000     -14.418540      -392.3484
  18   2.0000     -14.416000      -392.2793
  19   2.0000     -10.429736      -283.8076
  20   2.0000     -10.385901      -282.6147
  21   2.0000     -10.385582      -282.6061
  22   2.0000     -10.384801      -282.5848
  23   2.0000     -10.379351      -282.4365
  24   2.0000     -10.378453      -282.4121
  25   2.0000     -10.378123      -282.4031
  26   2.0000     -10.377148      -282.3765
  27   2.0000     -10.366851      -282.0964
  28   2.0000     -10.366840      -282.0961
  29   2.0000     -10.362317      -281.9730
  30   2.0000     -10.354533      -281.7612
  31   2.0000     -10.352109      -281.6952
  32   2.0000     -10.350114      -281.6409
  33   2.0000     -10.344689      -281.4933
  34   2.0000     -10.342118      -281.4233
  35   2.0000     -10.341924      -281.4181
  36   2.0000     -10.329064      -281.0681
  37   2.0000     -10.328981      -281.0659
  38   2.0000     -10.320886      -280.8456
  39   2.0000     -10.320616      -280.8382
  40   2.0000     -10.319774      -280.8153
  41   2.0000     -10.319321      -280.8030
  42   2.0000     -10.318999      -280.7942
  43   2.0000     -10.316142      -280.7165
  44   2.0000     -10.315452      -280.6977
  45   2.0000     -10.315371      -280.6955
  46   2.0000     -10.313764      -280.6518
  47   2.0000     -10.313693      -280.6499
  48   2.0000     -10.309567      -280.5376
  49   2.0000     -10.308945      -280.5207
  50   2.0000     -10.308463      -280.5075
  51   2.0000     -10.308005      -280.4951
  52   2.0000     -10.307645      -280.4853
  53   2.0000     -10.306994      -280.4676
  54   2.0000     -10.306986      -280.4674
  55   2.0000     -10.305147      -280.4173
  56   2.0000     -10.304699      -280.4051
  57   2.0000     -10.304382      -280.3965
  58   2.0000     -10.303717      -280.3784
  59   2.0000     -10.303618      -280.3757
  60   2.0000     -10.302334      -280.3408
  61   2.0000     -10.301431      -280.3162
  62   2.0000     -10.300136      -280.2810
  63   2.0000     -10.299093      -280.2526
  64   2.0000     -10.298992      -280.2498
  65   2.0000     -10.298986      -280.2497
  66   2.0000     -10.298097      -280.2255
  67   2.0000     -10.294991      -280.1409
  68   2.0000     -10.293339      -280.0960
  69   2.0000     -10.293140      -280.0906
  70   2.0000     -10.292950      -280.0854
  71   2.0000     -10.291095      -280.0349
  72   2.0000     -10.290652      -280.0229
  73   2.0000     -10.272113      -279.5184
  74   2.0000     -10.269801      -279.4555
  75   2.0000     -10.268543      -279.4213
  76   2.0000     -10.263376      -279.2807
  77   2.0000     -10.263293      -279.2784
  78   2.0000      -8.076720      -219.7787
  79   2.0000      -8.064482      -219.4457
  80   2.0000      -6.045755      -164.5134
  81   2.0000      -6.041312      -164.3925
  82   2.0000      -6.039566      -164.3450
  83   2.0000      -6.033550      -164.1812
  84   2.0000      -6.029062      -164.0591
  85   2.0000      -6.027347      -164.0124
  86   2.0000      -1.325379       -36.0654
  87   2.0000      -1.321747       -35.9666
  88   2.0000      -1.310413       -35.6582
  89   2.0000      -1.306551       -35.5531
  90   2.0000      -1.230354       -33.4796
  91   2.0000      -1.144924       -31.1550
  92   2.0000      -1.141867       -31.0718
  93   2.0000      -1.135246       -30.8916
  94   2.0000      -1.132406       -30.8143
  95   2.0000      -1.131623       -30.7930
  96   2.0000      -1.123058       -30.5600
  97   2.0000      -1.071766       -29.1642
  98   2.0000      -1.063013       -28.9261
  99   2.0000      -1.029007       -28.0007
 100   2.0000      -1.020834       -27.7783
 101   2.0000      -1.011523       -27.5249
 102   2.0000      -1.005957       -27.3735
 103   2.0000      -1.005044       -27.3486
 104   2.0000      -1.002885       -27.2899
 105   2.0000      -1.000576       -27.2271
 106   2.0000      -0.995526       -27.0896
 107   2.0000      -0.986586       -26.8464
 108   2.0000      -0.979575       -26.6556
 109   2.0000      -0.938621       -25.5412
 110   2.0000      -0.935690       -25.4614
 111   2.0000      -0.934112       -25.4185
 112   2.0000      -0.921993       -25.0887
 113   2.0000      -0.914894       -24.8955
 114   2.0000      -0.913025       -24.8447
 115   2.0000      -0.898864       -24.4593
 116   2.0000      -0.896188       -24.3865
 117   2.0000      -0.891750       -24.2657
 118   2.0000      -0.888494       -24.1772
 119   2.0000      -0.882118       -24.0037
 120   2.0000      -0.873896       -23.7799
 121   2.0000      -0.870260       -23.6810
 122   2.0000      -0.850389       -23.1403
 123   2.0000      -0.847748       -23.0684
 124   2.0000      -0.845889       -23.0178
 125   2.0000      -0.845155       -22.9978
 126   2.0000      -0.837000       -22.7759
 127   2.0000      -0.825574       -22.4650
 128   2.0000      -0.823177       -22.3998
 129   2.0000      -0.804088       -21.8803
 130   2.0000      -0.795501       -21.6467
 131   2.0000      -0.791413       -21.5354
 132   2.0000      -0.774630       -21.0787
 133   2.0000      -0.771061       -20.9816
 134   2.0000      -0.767991       -20.8981
 135   2.0000      -0.765620       -20.8336
 136   2.0000      -0.759300       -20.6616
 137   2.0000      -0.742703       -20.2100
 138   2.0000      -0.729632       -19.8543
 139   2.0000      -0.723930       -19.6991
 140   2.0000      -0.717927       -19.5358
 141   2.0000      -0.715254       -19.4631
 142   2.0000      -0.714247       -19.4356
 143   2.0000      -0.706397       -19.2221
 144   2.0000      -0.697667       -18.9845
 145   2.0000      -0.692895       -18.8546
 146   2.0000      -0.688766       -18.7423
 147   2.0000      -0.685936       -18.6653
 148   2.0000      -0.681585       -18.5469
 149   2.0000      -0.673957       -18.3393
 150   2.0000      -0.670676       -18.2500
 151   2.0000      -0.669252       -18.2113
 152   2.0000      -0.664674       -18.0867
 153   2.0000      -0.663989       -18.0681
 154   2.0000      -0.655523       -17.8377
 155   2.0000      -0.653827       -17.7915
 156   2.0000      -0.652776       -17.7629
 157   2.0000      -0.647962       -17.6319
 158   2.0000      -0.642978       -17.4963
 159   2.0000      -0.627958       -17.0876
 160   2.0000      -0.627032       -17.0624
 161   2.0000      -0.616701       -16.7813
 162   2.0000      -0.614494       -16.7212
 163   2.0000      -0.610199       -16.6044
 164   2.0000      -0.600722       -16.3465
 165   2.0000      -0.598856       -16.2957
 166   2.0000      -0.596963       -16.2442
 167   2.0000      -0.590064       -16.0565
 168   2.0000      -0.589653       -16.0453
 169   2.0000      -0.588318       -16.0089
 170   2.0000      -0.586295       -15.9539
 171   2.0000      -0.583800       -15.8860
 172   2.0000      -0.581043       -15.8110
 173   2.0000      -0.578591       -15.7443
 174   2.0000      -0.575990       -15.6735
 175   2.0000      -0.575114       -15.6497
 176   2.0000      -0.570740       -15.5306
 177   2.0000      -0.568791       -15.4776
 178   2.0000      -0.566706       -15.4209
 179   2.0000      -0.560454       -15.2507
 180   2.0000      -0.559001       -15.2112
 181   2.0000      -0.554270       -15.0825
 182   2.0000      -0.551193       -14.9987
 183   2.0000      -0.551087       -14.9958
 184   2.0000      -0.547838       -14.9074
 185   2.0000      -0.546622       -14.8743
 186   2.0000      -0.542381       -14.7589
 187   2.0000      -0.539984       -14.6937
 188   2.0000      -0.537409       -14.6236
 189   2.0000      -0.537011       -14.6128
 190   2.0000      -0.535234       -14.5644
 191   2.0000      -0.533129       -14.5072
 192   2.0000      -0.531407       -14.4603
 193   2.0000      -0.528126       -14.3710
 194   2.0000      -0.526865       -14.3367
 195   2.0000      -0.524404       -14.2698
 196   2.0000      -0.523294       -14.2395
 197   2.0000      -0.522222       -14.2104
 198   2.0000      -0.521218       -14.1831
 199   2.0000      -0.519696       -14.1416
 200   2.0000      -0.516220       -14.0471
 201   2.0000      -0.516138       -14.0448
 202   2.0000      -0.513486       -13.9727
 203   2.0000      -0.511588       -13.9210
 204   2.0000      -0.509992       -13.8776
 205   2.0000      -0.508305       -13.8317
 206   2.0000      -0.503978       -13.7139
 207   2.0000      -0.501813       -13.6550
 208   2.0000      -0.499469       -13.5912
 209   2.0000      -0.497392       -13.5347
 210   2.0000      -0.496831       -13.5194
 211   2.0000      -0.492644       -13.4055
 212   2.0000      -0.487802       -13.2738
 213   2.0000      -0.484553       -13.1854
 214   2.0000      -0.483268       -13.1504
 215   2.0000      -0.482566       -13.1313
 216   2.0000      -0.481098       -13.0913
 217   2.0000      -0.476279       -12.9602
 218   2.0000      -0.475472       -12.9382
 219   2.0000      -0.474025       -12.8989
 220   2.0000      -0.471712       -12.8359
 221   2.0000      -0.470394       -12.8001
 222   2.0000      -0.467225       -12.7138
 223   2.0000      -0.465119       -12.6565
 224   2.0000      -0.463344       -12.6082
 225   2.0000      -0.462002       -12.5717
 226   2.0000      -0.460784       -12.5386
 227   2.0000      -0.459466       -12.5027
 228   2.0000      -0.457069       -12.4375
 229   2.0000      -0.455964       -12.4074
 230   2.0000      -0.453367       -12.3367
 231   2.0000      -0.452060       -12.3012
 232   2.0000      -0.451110       -12.2753
 233   2.0000      -0.448626       -12.2077
 234   2.0000      -0.446287       -12.1441
 235   2.0000      -0.444891       -12.1061
 236   2.0000      -0.442300       -12.0356
 237   2.0000      -0.441969       -12.0266
 238   2.0000      -0.438165       -11.9231
 239   2.0000      -0.434978       -11.8363
 240   2.0000      -0.434295       -11.8178
 241   2.0000      -0.432283       -11.7630
 242   2.0000      -0.430202       -11.7064
 243   2.0000      -0.429422       -11.6852
 244   2.0000      -0.427173       -11.6240
 245   2.0000      -0.425517       -11.5789
 246   2.0000      -0.424309       -11.5460
 247   2.0000      -0.420462       -11.4414
 248   2.0000      -0.417831       -11.3697
 249   2.0000      -0.414040       -11.2666
 250   2.0000      -0.408682       -11.1208
 251   2.0000      -0.406887       -11.0720
 252   2.0000      -0.398697       -10.8491
 253   2.0000      -0.388693       -10.5769
 254   2.0000      -0.384082       -10.4514
 255   2.0000      -0.383300       -10.4301
 256   2.0000      -0.368466       -10.0265
 257   2.0000      -0.366802        -9.9812
 258   2.0000      -0.362346        -9.8599
 259   2.0000      -0.357090        -9.7169
 260   2.0000      -0.343702        -9.3526
 261   2.0000      -0.340243        -9.2585
 262   2.0000      -0.338883        -9.2215
 263   2.0000      -0.336658        -9.1609
 264   2.0000      -0.329880        -8.9765
 265   2.0000      -0.324217        -8.8224
 266   2.0000      -0.322181        -8.7670
 267   2.0000      -0.318443        -8.6653
 268   2.0000      -0.316289        -8.6067
 269   2.0000      -0.315651        -8.5893
 270   2.0000      -0.307677        -8.3723
 271   2.0000      -0.302401        -8.2288
 272   2.0000      -0.301202        -8.1961
 273   2.0000      -0.292717        -7.9652
 274   2.0000      -0.252984        -6.8840
 275   0.0000      -0.097194        -2.6448
 276   0.0000      -0.089557        -2.4370
 277   0.0000      -0.072433        -1.9710
 278   0.0000      -0.066220        -1.8019
 279   0.0000      -0.055695        -1.5155

MULLIKEN ATOMIC CHARGES
-----------------------
   0 C :   -0.109415
   1 C :    0.242057
   2 F :   -0.169585
   3 C :    0.239339
   4 F :   -0.167842
   5 C :   -0.106226
   6 C :    0.110264
   7 C :    0.117881
   8 C :   -0.096542
   9 C :    0.052700
  10 C :    0.011974
  11 C :   -0.085585
  12 C :    0.168613
  13 O :   -0.145895
  14 C :    0.000139
  15 C :    0.335414
  16 C :   -0.373104
  17 C :   -0.204179
  18 N :    0.162384
  19 C :   -0.202856
  20 N :    0.170201
  21 C :   -0.164635
  22 C :    0.184967
  23 C :   -0.207548
  24 C :    0.023764
  25 O :   -0.185252
  26 C :    0.045536
  27 S :    0.217082
  28 C :   -0.055230
  29 C :   -0.039854
  30 C :    0.075935
  31 N :   -0.246014
  32 C :    0.111187
  33 C :   -0.005060
  34 C :    0.186744
  35 O :   -0.193058
  36 C :   -0.060531
  37 C :   -0.019708
  38 C :    0.153674
  39 O :   -0.238120
  40 N :   -0.268546
  41 C :    0.084064
  42 C :    0.026839
  43 C :    0.108320
  44 C :    0.010253
  45 C :    0.003341
  46 C :    0.105046
  47 C :   -0.113400
  48 S :    0.161129
  49 C :   -0.092868
  50 C :    0.000958
  51 C :    0.176248
  52 O :   -0.175802
  53 O :   -0.234578
  54 C :    0.170290
  55 C :   -0.008412
  56 C :    0.021845
  57 C :   -0.131213
  58 C :    0.137994
  59 O :   -0.139098
  60 C :    0.016075
  61 C :   -0.092309
  62 C :    0.115861
  63 C :    0.098068
  64 C :   -0.105024
  65 C :    0.220949
  66 C :    0.250094
  67 C :   -0.112060
  68 F :   -0.174269
  69 F :   -0.179152
  70 C :   -0.049582
  71 C :    0.022757
  72 C :    0.301027
  73 C :   -0.320071
  74 C :   -0.208750
  75 N :    0.180072
  76 C :   -0.186654
  77 N :    0.147062
  78 H :    0.007117
  79 H :    0.003453
  80 H :   -0.004633
  81 H :   -0.015933
  82 H :    0.050172
  83 H :    0.031025
  84 H :    0.046747
  85 H :    0.033965
  86 H :    0.040306
  87 H :    0.016476
  88 H :    0.050065
  89 H :    0.028993
  90 H :    0.023715
  91 H :    0.030257
  92 H :    0.042321
  93 H :    0.037147
  94 H :    0.024557
  95 H :    0.024364
  96 H :    0.010454
  97 H :   -0.026281
  98 H :    0.041063
  99 H :    0.037964
 100 H :    0.046179
 101 H :    0.043421
 102 H :    0.045031
 103 H :    0.016372
 104 H :   -0.011869
 105 H :    0.016311
 106 H :   -0.002938
 107 H :    0.014062
Sum of atomic charges:   -0.0000000

LOEWDIN ATOMIC CHARGES
----------------------
   0 C :   -0.031159
   1 C :    0.068250
   2 F :   -0.047352
   3 C :    0.068183
   4 F :   -0.045803
   5 C :   -0.030991
   6 C :   -0.007384
   7 C :   -0.005499
   8 C :    0.015151
   9 C :   -0.018975
  10 C :   -0.050778
  11 C :    0.032325
  12 C :    0.095353
  13 O :   -0.130215
  14 C :   -0.065646
  15 C :    0.082358
  16 C :   -0.140280
  17 C :   -0.018817
  18 N :   -0.054570
  19 C :   -0.025647
  20 N :   -0.048712
  21 C :    0.055248
  22 C :   -0.030009
  23 C :   -0.206815
  24 C :    0.062417
  25 O :   -0.154155
  26 C :   -0.075459
  27 S :    0.541128
  28 C :   -0.138221
  29 C :   -0.083009
  30 C :    0.094944
  31 N :    0.017165
  32 C :    0.038952
  33 C :   -0.061412
  34 C :    0.093414
  35 O :   -0.179497
  36 C :   -0.118406
  37 C :   -0.130844
  38 C :    0.076644
  39 O :   -0.213602
  40 N :    0.004943
  41 C :    0.035729
  42 C :   -0.061811
  43 C :    0.079412
  44 C :   -0.045624
  45 C :    0.042566
  46 C :   -0.049219
  47 C :   -0.168728
  48 S :    0.487741
  49 C :   -0.139466
  50 C :   -0.113100
  51 C :    0.106474
  52 O :   -0.153990
  53 O :   -0.024982
  54 C :    0.110850
  55 C :   -0.062470
  56 C :    0.069738
  57 C :   -0.093222
  58 C :    0.083562
  59 O :   -0.141098
  60 C :   -0.053959
  61 C :    0.025095
  62 C :   -0.007796
  63 C :   -0.005983
  64 C :   -0.023630
  65 C :    0.054437
  66 C :    0.065744
  67 C :   -0.036228
  68 F :   -0.052295
  69 F :   -0.055417
  70 C :    0.035967
  71 C :   -0.023411
  72 C :    0.072314
  73 C :   -0.134373
  74 C :   -0.023984
  75 N :   -0.048419
  76 C :   -0.008846
  77 N :   -0.050355
  78 H :    0.047329
  79 H :    0.046168
  80 H :    0.039425
  81 H :    0.036758
  82 H :    0.045965
  83 H :    0.032769
  84 H :    0.045850
  85 H :    0.043487
  86 H :    0.028196
  87 H :    0.022304
  88 H :    0.039590
  89 H :    0.023671
  90 H :    0.032059
  91 H :    0.031805
  92 H :    0.033090
  93 H :    0.028230
  94 H :    0.028121
  95 H :    0.033594
  96 H :    0.017961
  97 H :    0.025250
  98 H :    0.042588
  99 H :    0.031706
 100 H :    0.035842
 101 H :    0.030927
 102 H :    0.039747
 103 H :    0.044474
 104 H :    0.039191
 105 H :    0.044163
 106 H :    0.043856
 107 H :    0.041439

  Mayer bond orders larger than 0.100000
B(  0-C ,  1-C ) :   1.4433 B(  0-C ,  5-C ) :   0.1086 B(  0-C ,  7-C ) :   1.1857
B(  0-C , 78-H ) :   1.0066 B(  1-C ,  2-F ) :   1.1361 B(  1-C ,  3-C ) :   1.1897
B(  3-C ,  4-F ) :   1.1378 B(  3-C ,  5-C ) :   1.4416 B(  5-C ,  6-C ) :   1.1904
B(  5-C , 79-H ) :   1.0065 B(  6-C ,  7-C ) :   1.2511 B(  6-C , 11-C ) :   1.2050
B(  7-C ,  8-C ) :   1.2193 B(  8-C ,  9-C ) :   1.4342 B(  8-C , 80-H ) :   0.9923
B(  9-C , 10-C ) :   1.2209 B(  9-C , 15-C ) :   0.9918 B( 10-C , 11-C ) :   1.4608
B( 10-C , 12-C ) :   0.9365 B( 11-C , 81-H ) :   1.0083 B( 12-C , 13-O ) :   2.1380
B( 12-C , 14-C ) :   0.9235 B( 14-C , 15-C ) :   1.0432 B( 14-C , 21-C ) :   1.7302
B( 15-C , 16-C ) :   1.6522 B( 16-C , 17-C ) :   1.1478 B( 16-C , 19-C ) :   1.1587
B( 17-C , 18-N ) :   2.9689 B( 19-C , 20-N ) :   2.9414 B( 21-C , 22-C ) :   1.0158
B( 21-C , 82-H ) :   0.9124 B( 22-C , 23-C ) :   1.4636 B( 22-C , 29-C ) :   1.3122
B( 23-C , 24-C ) :   0.9555 B( 23-C , 27-S ) :   1.1627 B( 24-C , 25-O ) :   2.1958
B( 24-C , 26-C ) :   1.0788 B( 26-C , 83-H ) :   0.9465 B( 26-C , 84-H ) :   0.9358
B( 26-C , 85-H ) :   0.9383 B( 27-S , 28-C ) :   1.2228 B( 28-C , 29-C ) :   1.4876
B( 28-C , 86-H ) :   0.9626 B( 29-C , 30-C ) :   1.0043 B( 30-C , 31-N ) :   1.2600
B( 30-C , 37-C ) :   1.3596 B( 31-N , 32-C ) :   0.9440 B( 31-N , 34-C ) :   1.0185
B( 32-C , 33-C ) :   1.1180 B( 32-C , 87-H ) :   0.9502 B( 32-C , 88-H ) :   0.9253
B( 33-C , 89-H ) :   0.9685 B( 33-C , 90-H ) :   0.9659 B( 33-C , 91-H ) :   0.9637
B( 34-C , 35-O ) :   2.0439 B( 34-C , 36-C ) :   0.9909 B( 35-O , 98-H ) :   0.1063
B( 36-C , 37-C ) :   1.2081 B( 36-C , 43-C ) :   1.3855 B( 37-C , 38-C ) :   0.9862
B( 38-C , 39-O ) :   1.9717 B( 38-C , 40-N ) :   1.0749 B( 40-N , 41-C ) :   0.9377
B( 40-N , 43-C ) :   1.1272 B( 41-C , 42-C ) :   1.1265 B( 41-C , 92-H ) :   0.9273
B( 41-C , 93-H ) :   0.9488 B( 42-C , 94-H ) :   0.9598 B( 42-C , 95-H ) :   0.9584
B( 42-C , 96-H ) :   0.9628 B( 43-C , 44-C ) :   1.1602 B( 44-C , 45-C ) :   1.7018
B( 44-C , 97-H ) :   0.9572 B( 45-C , 46-C ) :   1.0319 B( 45-C , 98-H ) :   0.9338
B( 46-C , 47-C ) :   1.5552 B( 46-C , 50-C ) :   1.2193 B( 47-C , 48-S ) :   1.1695
B( 47-C , 99-H ) :   0.9686 B( 48-S , 49-C ) :   1.2262 B( 49-C , 50-C ) :   1.5293
B( 49-C ,100-H ) :   0.9670 B( 50-C , 51-C ) :   0.9622 B( 51-C , 52-O ) :   2.1647
B( 51-C , 53-O ) :   1.0867 B( 53-O , 54-C ) :   1.0625 B( 54-C , 55-C ) :   1.6800
B( 54-C ,101-H ) :   0.9763 B( 55-C , 56-C ) :   1.1251 B( 55-C ,102-H ) :   0.9442
B( 56-C , 57-C ) :   1.6687 B( 56-C ,103-H ) :   0.9444 B( 57-C , 58-C ) :   0.9346
B( 57-C , 72-C ) :   1.0175 B( 58-C , 59-O ) :   2.2679 B( 58-C , 60-C ) :   0.9212
B( 60-C , 61-C ) :   1.4694 B( 60-C , 71-C ) :   1.2158 B( 61-C , 62-C ) :   1.1957
B( 61-C ,104-H ) :   1.0170 B( 62-C , 63-C ) :   1.2498 B( 62-C , 67-C ) :   1.1902
B( 63-C , 64-C ) :   1.1955 B( 63-C , 70-C ) :   1.2314 B( 64-C , 65-C ) :   1.4332
B( 64-C , 67-C ) :   0.1108 B( 64-C ,105-H ) :   0.9909 B( 65-C , 66-C ) :   1.1963
B( 65-C , 69-F ) :   1.0897 B( 66-C , 67-C ) :   1.4447 B( 66-C , 68-F ) :   1.1332
B( 67-C ,106-H ) :   1.0073 B( 70-C , 71-C ) :   1.4512 B( 70-C ,107-H ) :   0.9832
B( 71-C , 72-C ) :   0.9907 B( 72-C , 73-C ) :   1.6512 B( 73-C , 74-C ) :   1.1645
B( 73-C , 76-C ) :   1.1415 B( 74-C , 75-N ) :   2.9535 B( 76-C , 77-N ) :   2.9390

-----------------------------------------------------------------------------
         ABSORPTION SPECTRUM VIA TRANSITION ELECTRIC DIPOLE MOMENTS
-----------------------------------------------------------------------------
State   Energy  Wavelength   fosc         T2         TX        TY        TZ
        (cm-1)    (nm)                  (au**2)     (au)      (au)      (au)
-----------------------------------------------------------------------------
   0   16286.3    614.0   0.123578978   2.49803  -0.28937   1.15754  -1.03653
   1   17863.2    559.8   0.031303063   0.57690  -0.28626   0.08034   0.69893
   2   21985.2    454.9   0.274738901   4.11401  -1.90067  -0.47282  -0.52716
   3   23721.0    421.6   0.004267684   0.05923  -0.00036  -0.12291   0.21005
   4   25212.4    396.6   0.148990726   1.94545   1.11338   0.82661  -0.15018
   5   26942.0    371.2   0.090158028   1.10167   1.01508   0.18926   0.18830
   6   27263.9    366.8   0.084549417   1.02094   0.77797   0.36374   0.53235
   7   27748.3    360.4   0.094628705   1.12269   0.66309   0.55741   0.61016
   8   27927.1    358.1   0.082183239   0.96880   0.79438   0.54452   0.20313
   9   28332.4    353.0   0.384219055   4.46448   1.15184  -0.07902   1.76960
  10   28697.1    348.5   0.032290751   0.37044  -0.11879  -0.03822   0.59571
  11   29352.4    340.7   0.033252051   0.37295   0.37643   0.45652   0.15113
  12   29532.8    338.6   0.037893423   0.42241  -0.49038  -0.37233   0.20810
  13   29681.6    336.9   0.054895173   0.60887   0.23709   0.01581   0.74324
  14   29937.6    334.0   0.019492673   0.21435   0.15590   0.27332  -0.33962
  15   30074.0    332.5   0.006325071   0.06924   0.14971   0.19600  -0.09172
  16   30249.3    330.6   0.009613328   0.10462  -0.29444  -0.04199   0.12716
  17   30344.7    329.5   0.019520199   0.21178   0.41338   0.08562   0.18320
  18   30447.6    328.4   0.026837623   0.29018   0.18166   0.14267   0.48664
  19   30514.7    327.7   0.045987430   0.49614   0.59920   0.36309   0.07259
  20   31309.5    319.4   0.039244260   0.41264   0.41529   0.45727   0.17630
  21   31436.4    318.1   0.014048885   0.14712  -0.16721   0.19592  -0.28422
  22   31799.0    314.5   0.027069636   0.28025   0.25595  -0.15809  -0.43560
  23   31874.7    313.7   0.022176026   0.22904   0.24351   0.34271  -0.22868
  24   32161.4    310.9   0.032510401   0.33278   0.00501  -0.14991   0.55703
  25   32525.5    307.5   0.040509384   0.41002   0.48603  -0.02665  -0.41603
  26   32674.7    306.0   0.024514127   0.24699   0.46450   0.04291   0.17142
  27   33051.9    302.6   0.036782120   0.36637   0.56145   0.21835   0.05892
  28   33138.5    301.8   0.024756246   0.24594   0.20024   0.42920  -0.14708
  29   33194.2    301.3   0.057973643   0.57497   0.47820   0.44358  -0.38668
  30   33526.4    298.3   0.024733205   0.24287   0.10619  -0.20095   0.43727
  31   33625.0    297.4   0.013686488   0.13400  -0.21897   0.07173  -0.28444
  32   33774.5    296.1   0.043725091   0.42620  -0.33384  -0.35152  -0.43726
  33   33890.0    295.1   0.021614258   0.20996   0.16192   0.16512  -0.39558
  34   33905.8    294.9   0.123936783   1.20338   1.06049   0.10035  -0.26206
  35   34411.0    290.6   1.021101460   9.76892  -0.17383  -0.02786   3.12057
  36   34630.7    288.8   0.039987453   0.38014  -0.51822  -0.31668  -0.10631
  37   34659.3    288.5   0.086257560   0.81932   0.09056  -0.01636  -0.90047
  38   34811.5    287.3   0.014374091   0.13594  -0.04808  -0.14707  -0.33466
  39   34886.3    286.6   0.089657757   0.84608  -0.32065  -0.33743   0.79335
  40   35245.8    283.7   0.043872786   0.40979   0.10884  -0.06107  -0.62787
  41   35344.9    282.9   1.394160815  12.98559  -0.43025  -0.49096   3.54393
  42   35838.5    279.0   0.018143958   0.16667   0.01946  -0.13042   0.38637
  43   36032.9    277.5   0.078399650   0.71629   0.40120   0.06764   0.74213
  44   36602.1    273.2   0.006169879   0.05549  -0.01646  -0.23113  -0.04247
  45   36663.8    272.7   0.058699396   0.52707  -0.09851  -0.20765   0.68866
  46   36978.8    270.4   0.050064340   0.44571  -0.04685   0.04742  -0.66428
  47   37249.0    268.5   0.043948274   0.38842  -0.16617   0.12298  -0.58795
  48   37459.9    267.0   0.054809743   0.48169  -0.34530   0.10860  -0.59217
  49   37680.2    265.4   0.026401756   0.23067   0.07976  -0.12985  -0.45547
  50   37866.1    264.1   0.016373792   0.14236   0.08094   0.22801   0.28951
  51   37980.9    263.3   0.016390402   0.14207   0.23160   0.15460   0.25403
  52   38234.6    261.5   0.019238542   0.16565   0.24271   0.31881   0.07146
  53   38515.6    259.6   0.017210625   0.14711   0.06055  -0.37871  -0.00428
  54   38722.5    258.2   0.013649409   0.11605   0.15259   0.22458  -0.20573
  55   38920.3    256.9   0.050127679   0.42401   0.39034   0.50331  -0.13539
  56   39207.4    255.1   0.051599353   0.43326  -0.02177  -0.65205   0.08731
  57   39255.8    254.7   0.028335049   0.23763  -0.21495   0.00561  -0.43748
  58   39316.8    254.3   0.006708557   0.05617  -0.07082  -0.15855  -0.16130
  59   39401.9    253.8   0.071088418   0.59396   0.44967   0.16608   0.60347
  60   39714.3    251.8   0.109622636   0.90872  -0.81895   0.48789  -0.00221
  61   39924.0    250.5   0.005733888   0.04728   0.18411  -0.09358  -0.06802
  62   40048.8    249.7   0.001511630   0.01243   0.04111   0.10354   0.00409
  63   40321.4    248.0   0.005758434   0.04702   0.15928  -0.09317   0.11386

FINAL SINGLE POINT ENERGY     -4312.549021905554

DIPOLE MOMENT
-------------
                                X             Y             Z
Electronic contribution:     -9.81211      -4.88474      46.87531
Nuclear contribution   :      9.17564       3.86712     -47.81841
                        -----------------------------------------
Total Dipole Moment    :     -0.63647      -1.01762      -0.94310
                        -----------------------------------------
Magnitude (a.u.)       :      1.52646
Magnitude (Debye)      :      3.87995

Rotational constants in cm-1:     0.001184     0.000671     0.000623
Rotational constants in MHz :    35.501938    20.120184    18.691064

                             ****ORCA TERMINATED NORMALLY****
TOTAL RUN TIME: 0 days 0 hours 15 minutes 42 seconds 630 msec
