                         Program Version 4.2.0 -  RELEASE  -
|  1> # ORCA input file
|  2> # SCF done       -227.406438843566          0.000573134000
|  3> ! CAM-B3LYP def2-SVP def2/J RIJCOSX Grid4 TightSCF
|  4> %maxcore 5000
|  5> %tddft
|  6>     Mode sTDDFT
|  7>     Ethresh 5.0
|  8>     maxcore 5000
|  9> end
| 10>
| 11> %pal
| 12>   nprocs 6
| 13>   end
| 14> * xyz 0 1
| 15>    C       -3.97819         1.04579        -4.79263
| 16>    C       -4.04227         1.02238        -6.15786
| 17>    F       -3.84604         2.14317        -6.85970
| 18>    C       -4.31477        -0.17980        -6.84370
| 19>    F       -4.37033        -0.17226        -8.17996
| 20>    C       -4.52009        -1.34181        -6.15389
| 21>    C       -4.46026        -1.34966        -4.74651
| 22>    C       -4.18399        -0.13551        -4.05184
| 23>    C       -4.11503        -0.11881        -2.64016
| 24>    C       -4.31514        -1.28058        -1.94065
| 25>    C       -4.59364        -2.48635        -2.64442
| 26>    C       -4.66669        -2.53462        -4.00821
| 27>    C       -4.76624        -3.57934        -1.68127
| 28>    O       -5.00145        -4.74573        -1.93991
| 29>    C       -4.58480        -2.98794        -0.34342
| 30>    C       -4.29469        -1.56735        -0.50840
| 31>    C       -4.04154        -0.65276         0.47502
| 32>    C       -3.98910        -0.90106         1.86641
| 33>    N       -3.91197        -0.99756         3.00680
| 34>    C       -3.77762         0.71397         0.22732
| 35>    N       -3.55879         1.83207         0.09473
| 36>    C       -4.67221        -3.64888         0.84673
| 37>    C       -4.93729        -5.01592         1.10680
| 38>    S       -5.19581        -6.25340        -0.08299
| 39>    C       -5.29953        -7.48399         1.12784
| 40>    C       -5.09796        -6.96571         2.40441
| 41>    C       -4.95912        -5.57073         2.39365
| 42>    C       -4.93153        -4.70716         3.62790
| 43>    F       -3.70741        -4.23384         3.89759
| 44>    F       -5.73626        -3.63548         3.48120
| 45>    F       -5.37536        -5.32967         4.71651
| 46>    C       -4.86444        -7.82692         3.61747
| 47>    F       -4.37922        -9.03424         3.27563
| 48>    F       -3.93773        -7.30214         4.42808
| 49>    F       -5.96607        -8.04492         4.33980
| 50>    C       -5.63300        -8.81149         0.72059
| 51>    C       -6.27365        -9.80000         1.42340
| 52>    C       -6.44496       -10.93977         0.57022
| 53>    C       -5.86409       -10.56613        -0.73186
| 54>    C       -5.39906        -9.29453        -0.63423
| 55>    C       -5.78982       -11.36682        -1.87804
| 56>    N       -5.71671       -12.00384        -2.83063
| 57>    C       -7.02346       -12.13923         0.89416
| 58>    C       -7.18558       -13.28112         0.04819
| 59>    C       -7.78973       -14.28635         0.76260
| 60>    C       -8.04008       -13.79880         2.11868
| 61>    C       -7.59307       -12.52254         2.20375
| 62>    C       -7.67998       -11.72138         3.35112
| 63>    N       -7.77962       -11.08871         4.30318
| 64>    C       -8.12449       -15.57776         0.28091
| 65>    S       -7.81590       -15.99274        -1.39164
| 66>    C       -8.45675       -17.60734        -1.21664
| 67>    C       -8.87484       -17.79346         0.08815
| 68>    C       -8.69435       -16.66466         0.91848
| 69>    C       -9.19102       -17.00158         2.26915
| 70>    O       -9.23963       -16.35225         3.28024
| 71>    N       -9.62422       -18.31384         2.15389
| 72>    C       -9.47191       -18.87358         0.89541
| 73>    O       -9.76677       -20.00451         0.60681
| 74>    C       -8.52675       -18.44273        -2.36265
| 75>    C       -9.04491       -19.69433        -2.36732
| 76>    C       -9.15273       -20.52437        -3.51701
| 77>    C       -9.31097       -20.20624        -4.82840
| 78>    C       -9.05499       -21.27522        -5.84473
| 79>    O       -8.92608       -22.45480        -5.62382
| 80>    C       -8.94332       -20.56995        -7.13367
| 81>    C       -8.59276       -21.06880        -8.35558
| 82>    C       -8.51896       -20.19080        -9.45932
| 83>    C       -8.79947       -18.80587        -9.27019
| 84>    C       -8.71243       -17.93222       -10.37293
| 85>    C       -8.36817       -18.41164       -11.60552
| 86>    C       -8.09402       -19.78236       -11.79200
| 87>    C       -8.16733       -20.65439       -10.74217
| 88>    F       -7.75864       -20.22283       -13.01043
| 89>    F       -8.28707       -17.58152       -12.65169
| 90>    C       -9.16499       -18.31993        -7.99433
| 91>    C       -9.24830       -19.19240        -6.94137
| 92>    C       -9.62566       -18.98368        -5.54387
| 93>    C      -10.34451       -17.91107        -5.08863
| 94>    C      -10.86882       -17.77556        -3.78768
| 95>    N      -11.32896       -17.59505        -2.75189
| 96>    C      -10.70995       -16.81330        -5.89887
| 97>    N      -11.02717       -15.89289        -6.50569
| 98>    H       -3.76833         1.97396        -4.28441
| 99>    H       -4.72749        -2.25286        -6.69292
|100>    H       -3.90349         0.81674        -2.14920
|101>    H       -4.87819        -3.46467        -4.51337
|102>    H       -4.49319        -3.05247         1.73096
|103>    H       -6.62784        -9.74915         2.43361
|104>    H       -4.91868        -8.72283        -1.40663
|105>    H       -6.87772       -13.33436        -0.97790
|106>    H       -8.50243       -14.37544         2.89755
|107>    H      -10.02318       -18.82219         2.93089
|108>    H       -8.12121       -18.01735        -3.27272
|109>    H       -9.35336       -20.13993        -1.43015
|110>    H       -9.06791       -21.59225        -3.33078
|111>    H       -8.37413       -22.11869        -8.47709
|112>    H       -8.92290       -16.88146       -10.24886
|113>    H       -7.95424       -21.69986       -10.90093
|114>    H       -9.36035       -17.26577        -7.88052
|115> *
|116>
|117>                          ****END OF INPUT****

CARTESIAN COORDINATES (ANGSTROEM)
---------------------------------
  C     -3.978190    1.045790   -4.792630
  C     -4.042270    1.022380   -6.157860
  F     -3.846040    2.143170   -6.859700
  C     -4.314770   -0.179800   -6.843700
  F     -4.370330   -0.172260   -8.179960
  C     -4.520090   -1.341810   -6.153890
  C     -4.460260   -1.349660   -4.746510
  C     -4.183990   -0.135510   -4.051840
  C     -4.115030   -0.118810   -2.640160
  C     -4.315140   -1.280580   -1.940650
  C     -4.593640   -2.486350   -2.644420
  C     -4.666690   -2.534620   -4.008210
  C     -4.766240   -3.579340   -1.681270
  O     -5.001450   -4.745730   -1.939910
  C     -4.584800   -2.987940   -0.343420
  C     -4.294690   -1.567350   -0.508400
  C     -4.041540   -0.652760    0.475020
  C     -3.989100   -0.901060    1.866410
  N     -3.911970   -0.997560    3.006800
  C     -3.777620    0.713970    0.227320
  N     -3.558790    1.832070    0.094730
  C     -4.672210   -3.648880    0.846730
  C     -4.937290   -5.015920    1.106800
  S     -5.195810   -6.253400   -0.082990
  C     -5.299530   -7.483990    1.127840
  C     -5.097960   -6.965710    2.404410
  C     -4.959120   -5.570730    2.393650
  C     -4.931530   -4.707160    3.627900
  F     -3.707410   -4.233840    3.897590
  F     -5.736260   -3.635480    3.481200
  F     -5.375360   -5.329670    4.716510
  C     -4.864440   -7.826920    3.617470
  F     -4.379220   -9.034240    3.275630
  F     -3.937730   -7.302140    4.428080
  F     -5.966070   -8.044920    4.339800
  C     -5.633000   -8.811490    0.720590
  C     -6.273650   -9.800000    1.423400
  C     -6.444960  -10.939770    0.570220
  C     -5.864090  -10.566130   -0.731860
  C     -5.399060   -9.294530   -0.634230
  C     -5.789820  -11.366820   -1.878040
  N     -5.716710  -12.003840   -2.830630
  C     -7.023460  -12.139230    0.894160
  C     -7.185580  -13.281120    0.048190
  C     -7.789730  -14.286350    0.762600
  C     -8.040080  -13.798800    2.118680
  C     -7.593070  -12.522540    2.203750
  C     -7.679980  -11.721380    3.351120
  N     -7.779620  -11.088710    4.303180
  C     -8.124490  -15.577760    0.280910
  S     -7.815900  -15.992740   -1.391640
  C     -8.456750  -17.607340   -1.216640
  C     -8.874840  -17.793460    0.088150
  C     -8.694350  -16.664660    0.918480
  C     -9.191020  -17.001580    2.269150
  O     -9.239630  -16.352250    3.280240
  N     -9.624220  -18.313840    2.153890
  C     -9.471910  -18.873580    0.895410
  O     -9.766770  -20.004510    0.606810
  C     -8.526750  -18.442730   -2.362650
  C     -9.044910  -19.694330   -2.367320
  C     -9.152730  -20.524370   -3.517010
  C     -9.310970  -20.206240   -4.828400
  C     -9.054990  -21.275220   -5.844730
  O     -8.926080  -22.454800   -5.623820
  C     -8.943320  -20.569950   -7.133670
  C     -8.592760  -21.068800   -8.355580
  C     -8.518960  -20.190800   -9.459320
  C     -8.799470  -18.805870   -9.270190
  C     -8.712430  -17.932220  -10.372930
  C     -8.368170  -18.411640  -11.605520
  C     -8.094020  -19.782360  -11.792000
  C     -8.167330  -20.654390  -10.742170
  F     -7.758640  -20.222830  -13.010430
  F     -8.287070  -17.581520  -12.651690
  C     -9.164990  -18.319930   -7.994330
  C     -9.248300  -19.192400   -6.941370
  C     -9.625660  -18.983680   -5.543870
  C    -10.344510  -17.911070   -5.088630
  C    -10.868820  -17.775560   -3.787680
  N    -11.328960  -17.595050   -2.751890
  C    -10.709950  -16.813300   -5.898870
  N    -11.027170  -15.892890   -6.505690
  H     -3.768330    1.973960   -4.284410
  H     -4.727490   -2.252860   -6.692920
  H     -3.903490    0.816740   -2.149200
  H     -4.878190   -3.464670   -4.513370
  H     -4.493190   -3.052470    1.730960
  H     -6.627840   -9.749150    2.433610
  H     -4.918680   -8.722830   -1.406630
  H     -6.877720  -13.334360   -0.977900
  H     -8.502430  -14.375440    2.897550
  H    -10.023180  -18.822190    2.930890
  H     -8.121210  -18.017350   -3.272720
  H     -9.353360  -20.139930   -1.430150
  H     -9.067910  -21.592250   -3.330780
  H     -8.374130  -22.118690   -8.477090
  H     -8.922900  -16.881460  -10.248860
  H     -7.954240  -21.699860  -10.900930
  H     -9.360350  -17.265770   -7.880520

 Total Charge           Charge          ....    0
 Multiplicity           Mult            ....    1
 Number of Electrons    NEL             ....  580
 Basis Dimension        Dim             .... 1255

ORBITAL ENERGIES
----------------

  NO   OCC          E(Eh)            E(eV)
   0   2.0000     -88.998362     -2421.7686
   1   2.0000     -88.996723     -2421.7239
   2   2.0000     -24.810287      -675.1222
   3   2.0000     -24.808187      -675.0651
   4   2.0000     -24.807355      -675.0424
   5   2.0000     -24.807179      -675.0377
   6   2.0000     -24.807161      -675.0372
   7   2.0000     -24.805272      -674.9858
   8   2.0000     -24.805232      -674.9847
   9   2.0000     -24.804773      -674.9722
  10   2.0000     -24.804647      -674.9688
  11   2.0000     -24.804320      -674.9599
  12   2.0000     -19.243782      -523.6499
  13   2.0000     -19.233253      -523.3634
  14   2.0000     -19.231915      -523.3270
  15   2.0000     -19.227585      -523.2092
  16   2.0000     -14.473597      -393.8466
  17   2.0000     -14.429400      -392.6439
  18   2.0000     -14.428394      -392.6166
  19   2.0000     -14.428205      -392.6114
  20   2.0000     -14.427846      -392.6017
  21   2.0000     -14.420731      -392.4080
  22   2.0000     -14.413355      -392.2073
  23   2.0000     -10.534943      -286.6704
  24   2.0000     -10.531293      -286.5710
  25   2.0000     -10.419912      -283.5402
  26   2.0000     -10.417634      -283.4782
  27   2.0000     -10.392070      -282.7826
  28   2.0000     -10.391492      -282.7669
  29   2.0000     -10.390962      -282.7525
  30   2.0000     -10.389044      -282.7003
  31   2.0000     -10.388571      -282.6874
  32   2.0000     -10.377893      -282.3968
  33   2.0000     -10.359761      -281.9034
  34   2.0000     -10.358282      -281.8632
  35   2.0000     -10.356750      -281.8215
  36   2.0000     -10.356508      -281.8149
  37   2.0000     -10.353916      -281.7444
  38   2.0000     -10.352389      -281.7028
  39   2.0000     -10.350434      -281.6496
  40   2.0000     -10.346232      -281.5353
  41   2.0000     -10.343551      -281.4623
  42   2.0000     -10.340404      -281.3767
  43   2.0000     -10.338410      -281.3224
  44   2.0000     -10.336589      -281.2729
  45   2.0000     -10.330380      -281.1039
  46   2.0000     -10.330327      -281.1025
  47   2.0000     -10.330064      -281.0953
  48   2.0000     -10.329751      -281.0868
  49   2.0000     -10.329056      -281.0679
  50   2.0000     -10.328663      -281.0572
  51   2.0000     -10.326953      -281.0107
  52   2.0000     -10.326404      -280.9957
  53   2.0000     -10.325382      -280.9679
  54   2.0000     -10.323396      -280.9139
  55   2.0000     -10.323100      -280.9058
  56   2.0000     -10.322885      -280.9000
  57   2.0000     -10.322439      -280.8879
  58   2.0000     -10.322294      -280.8839
  59   2.0000     -10.322186      -280.8810
  60   2.0000     -10.322042      -280.8770
  61   2.0000     -10.321182      -280.8536
  62   2.0000     -10.320254      -280.8284
  63   2.0000     -10.319380      -280.8046
  64   2.0000     -10.318972      -280.7935
  65   2.0000     -10.318379      -280.7774
  66   2.0000     -10.316995      -280.7397
  67   2.0000     -10.315184      -280.6904
  68   2.0000     -10.315064      -280.6872
  69   2.0000     -10.314600      -280.6745
  70   2.0000     -10.314494      -280.6716
  71   2.0000     -10.313946      -280.6567
  72   2.0000     -10.312264      -280.6110
  73   2.0000     -10.312101      -280.6065
  74   2.0000     -10.311719      -280.5961
  75   2.0000     -10.310528      -280.5637
  76   2.0000     -10.308666      -280.5131
  77   2.0000     -10.307984      -280.4945
  78   2.0000     -10.307833      -280.4904
  79   2.0000     -10.305713      -280.4327
  80   2.0000     -10.304627      -280.4032
  81   2.0000     -10.303544      -280.3737
  82   2.0000     -10.303465      -280.3715
  83   2.0000      -8.091920      -220.1923
  84   2.0000      -8.091444      -220.1794
  85   2.0000      -6.061175      -164.9330
  86   2.0000      -6.060712      -164.9204
  87   2.0000      -6.056925      -164.8173
  88   2.0000      -6.056135      -164.7958
  89   2.0000      -6.054137      -164.7414
  90   2.0000      -6.053968      -164.7368
  91   2.0000      -1.402700       -38.1694
  92   2.0000      -1.396589       -38.0031
  93   2.0000      -1.331448       -36.2305
  94   2.0000      -1.328435       -36.1485
  95   2.0000      -1.316479       -35.8232
  96   2.0000      -1.313526       -35.7428
  97   2.0000      -1.305473       -35.5237
  98   2.0000      -1.300369       -35.3848
  99   2.0000      -1.299095       -35.3502
 100   2.0000      -1.295280       -35.2464
 101   2.0000      -1.178559       -32.0702
 102   2.0000      -1.159939       -31.5635
 103   2.0000      -1.157500       -31.4972
 104   2.0000      -1.143698       -31.1216
 105   2.0000      -1.066496       -29.0208
 106   2.0000      -1.038122       -28.2487
 107   2.0000      -1.033699       -28.1284
 108   2.0000      -1.032373       -28.0923
 109   2.0000      -1.029283       -28.0082
 110   2.0000      -1.019711       -27.7477
 111   2.0000      -1.017187       -27.6791
 112   2.0000      -1.014737       -27.6124
 113   2.0000      -1.008675       -27.4474
 114   2.0000      -1.006660       -27.3926
 115   2.0000      -1.006606       -27.3911
 116   2.0000      -0.996555       -27.1176
 117   2.0000      -0.994378       -27.0584
 118   2.0000      -0.991534       -26.9810
 119   2.0000      -0.989693       -26.9309
 120   2.0000      -0.948410       -25.8075
 121   2.0000      -0.947691       -25.7880
 122   2.0000      -0.935139       -25.4464
 123   2.0000      -0.930173       -25.3113
 124   2.0000      -0.915112       -24.9015
 125   2.0000      -0.910839       -24.7852
 126   2.0000      -0.908259       -24.7150
 127   2.0000      -0.902815       -24.5669
 128   2.0000      -0.902003       -24.5447
 129   2.0000      -0.898624       -24.4528
 130   2.0000      -0.891595       -24.2615
 131   2.0000      -0.879314       -23.9274
 132   2.0000      -0.871668       -23.7193
 133   2.0000      -0.860961       -23.4279
 134   2.0000      -0.855015       -23.2661
 135   2.0000      -0.852925       -23.2093
 136   2.0000      -0.849750       -23.1229
 137   2.0000      -0.839065       -22.8321
 138   2.0000      -0.822776       -22.3889
 139   2.0000      -0.813322       -22.1316
 140   2.0000      -0.800745       -21.7894
 141   2.0000      -0.784546       -21.3486
 142   2.0000      -0.782685       -21.2979
 143   2.0000      -0.780465       -21.2375
 144   2.0000      -0.778580       -21.1862
 145   2.0000      -0.769471       -20.9384
 146   2.0000      -0.759499       -20.6670
 147   2.0000      -0.755402       -20.5555
 148   2.0000      -0.752591       -20.4791
 149   2.0000      -0.737908       -20.0795
 150   2.0000      -0.734935       -19.9986
 151   2.0000      -0.732666       -19.9369
 152   2.0000      -0.730119       -19.8675
 153   2.0000      -0.727272       -19.7901
 154   2.0000      -0.719588       -19.5810
 155   2.0000      -0.716646       -19.5009
 156   2.0000      -0.713652       -19.4195
 157   2.0000      -0.702388       -19.1129
 158   2.0000      -0.695171       -18.9166
 159   2.0000      -0.694366       -18.8947
 160   2.0000      -0.688316       -18.7300
 161   2.0000      -0.686411       -18.6782
 162   2.0000      -0.682609       -18.5747
 163   2.0000      -0.679388       -18.4871
 164   2.0000      -0.678927       -18.4745
 165   2.0000      -0.677117       -18.4253
 166   2.0000      -0.672162       -18.2905
 167   2.0000      -0.665803       -18.1174
 168   2.0000      -0.660401       -17.9704
 169   2.0000      -0.657968       -17.9042
 170   2.0000      -0.653864       -17.7925
 171   2.0000      -0.652148       -17.7458
 172   2.0000      -0.650745       -17.7077
 173   2.0000      -0.637641       -17.3511
 174   2.0000      -0.634582       -17.2679
 175   2.0000      -0.626830       -17.0569
 176   2.0000      -0.623936       -16.9782
 177   2.0000      -0.621818       -16.9205
 178   2.0000      -0.613801       -16.7024
 179   2.0000      -0.606086       -16.4924
 180   2.0000      -0.603878       -16.4324
 181   2.0000      -0.600496       -16.3403
 182   2.0000      -0.595677       -16.2092
 183   2.0000      -0.595508       -16.2046
 184   2.0000      -0.592708       -16.1284
 185   2.0000      -0.592106       -16.1120
 186   2.0000      -0.587480       -15.9861
 187   2.0000      -0.585276       -15.9262
 188   2.0000      -0.583535       -15.8788
 189   2.0000      -0.578408       -15.7393
 190   2.0000      -0.575377       -15.6568
 191   2.0000      -0.572219       -15.5709
 192   2.0000      -0.565568       -15.3899
 193   2.0000      -0.565235       -15.3808
 194   2.0000      -0.562823       -15.3152
 195   2.0000      -0.562523       -15.3070
 196   2.0000      -0.561377       -15.2758
 197   2.0000      -0.558984       -15.2107
 198   2.0000      -0.556861       -15.1529
 199   2.0000      -0.556322       -15.1383
 200   2.0000      -0.554097       -15.0778
 201   2.0000      -0.552572       -15.0363
 202   2.0000      -0.550527       -14.9806
 203   2.0000      -0.549808       -14.9610
 204   2.0000      -0.547277       -14.8922
 205   2.0000      -0.546130       -14.8609
 206   2.0000      -0.543140       -14.7796
 207   2.0000      -0.542120       -14.7518
 208   2.0000      -0.539434       -14.6787
 209   2.0000      -0.538142       -14.6436
 210   2.0000      -0.535640       -14.5755
 211   2.0000      -0.534155       -14.5351
 212   2.0000      -0.531823       -14.4716
 213   2.0000      -0.529705       -14.4140
 214   2.0000      -0.528110       -14.3706
 215   2.0000      -0.527962       -14.3666
 216   2.0000      -0.524508       -14.2726
 217   2.0000      -0.521563       -14.1924
 218   2.0000      -0.519042       -14.1239
 219   2.0000      -0.516894       -14.0654
 220   2.0000      -0.515817       -14.0361
 221   2.0000      -0.513318       -13.9681
 222   2.0000      -0.513153       -13.9636
 223   2.0000      -0.512290       -13.9401
 224   2.0000      -0.510308       -13.8862
 225   2.0000      -0.509214       -13.8564
 226   2.0000      -0.505684       -13.7604
 227   2.0000      -0.504300       -13.7227
 228   2.0000      -0.503541       -13.7020
 229   2.0000      -0.500892       -13.6300
 230   2.0000      -0.497684       -13.5427
 231   2.0000      -0.496518       -13.5109
 232   2.0000      -0.495411       -13.4808
 233   2.0000      -0.493980       -13.4419
 234   2.0000      -0.490097       -13.3362
 235   2.0000      -0.489352       -13.3160
 236   2.0000      -0.486445       -13.2368
 237   2.0000      -0.485847       -13.2206
 238   2.0000      -0.483173       -13.1478
 239   2.0000      -0.482495       -13.1294
 240   2.0000      -0.477980       -13.0065
 241   2.0000      -0.475945       -12.9511
 242   2.0000      -0.473812       -12.8931
 243   2.0000      -0.471497       -12.8301
 244   2.0000      -0.469200       -12.7676
 245   2.0000      -0.463522       -12.6131
 246   2.0000      -0.461003       -12.5445
 247   2.0000      -0.460683       -12.5358
 248   2.0000      -0.457825       -12.4581
 249   2.0000      -0.456738       -12.4285
 250   2.0000      -0.454663       -12.3720
 251   2.0000      -0.453814       -12.3489
 252   2.0000      -0.452320       -12.3083
 253   2.0000      -0.451012       -12.2726
 254   2.0000      -0.449120       -12.2212
 255   2.0000      -0.444814       -12.1040
 256   2.0000      -0.443113       -12.0577
 257   2.0000      -0.441252       -12.0071
 258   2.0000      -0.439825       -11.9683
 259   2.0000      -0.439204       -11.9514
 260   2.0000      -0.438104       -11.9214
 261   2.0000      -0.437305       -11.8997
 262   2.0000      -0.429160       -11.6780
 263   2.0000      -0.428769       -11.6674
 264   2.0000      -0.425681       -11.5834
 265   2.0000      -0.422270       -11.4905
 266   2.0000      -0.418553       -11.3894
 267   2.0000      -0.414067       -11.2673
 268   2.0000      -0.407133       -11.0787
 269   2.0000      -0.401847       -10.9348
 270   2.0000      -0.398774       -10.8512
 271   2.0000      -0.392481       -10.6799
 272   2.0000      -0.385165       -10.4809
 273   2.0000      -0.384747       -10.4695
 274   2.0000      -0.380835       -10.3631
 275   2.0000      -0.370419       -10.0796
 276   2.0000      -0.365505        -9.9459
 277   2.0000      -0.364516        -9.9190
 278   2.0000      -0.360472        -9.8089
 279   2.0000      -0.356823        -9.7096
 280   2.0000      -0.349368        -9.5068
 281   2.0000      -0.344127        -9.3642
 282   2.0000      -0.333926        -9.0866
 283   2.0000      -0.330317        -8.9884
 284   2.0000      -0.327093        -8.9006
 285   2.0000      -0.324130        -8.8200
 286   2.0000      -0.313026        -8.5179
 287   2.0000      -0.310407        -8.4466
 288   2.0000      -0.298123        -8.1123
 289   2.0000      -0.281686        -7.6651
 290   0.0000      -0.141358        -3.8465
 291   0.0000      -0.111712        -3.0399
 292   0.0000      -0.107037        -2.9126
 293   0.0000      -0.077107        -2.0982
 294   0.0000      -0.072466        -1.9719

MULLIKEN ATOMIC CHARGES
-----------------------
   0 C :   -0.106362
   1 C :    0.243952
   2 F :   -0.165721
   3 C :    0.239534
   4 F :   -0.167351
   5 C :   -0.102148
   6 C :    0.116263
   7 C :    0.113435
   8 C :   -0.081698
   9 C :    0.051827
  10 C :   -0.007457
  11 C :   -0.075030
  12 C :    0.172142
  13 O :   -0.177410
  14 C :   -0.090773
  15 C :    0.324950
  16 C :   -0.337656
  17 C :   -0.200241
  18 N :    0.174244
  19 C :   -0.183625
  20 N :    0.158394
  21 C :   -0.023769
  22 C :   -0.078916
  23 S :    0.221839
  24 C :   -0.093878
  25 C :   -0.056642
  26 C :   -0.088655
  27 C :    0.541948
  28 F :   -0.151424
  29 F :   -0.166987
  30 F :   -0.135052
  31 C :    0.533759
  32 F :   -0.159128
  33 F :   -0.152856
  34 F :   -0.142390
  35 C :    0.088636
  36 C :   -0.085604
  37 C :    0.080622
  38 C :   -0.087661
  39 C :   -0.011744
  40 C :   -0.171777
  41 N :    0.133883
  42 C :    0.123097
  43 C :   -0.135479
  44 C :    0.110421
  45 C :    0.000791
  46 C :   -0.093292
  47 C :   -0.175825
  48 N :    0.150804
  49 C :   -0.126165
  50 S :    0.193884
  51 C :   -0.134039
  52 C :   -0.014241
  53 C :   -0.026936
  54 C :    0.188878
  55 O :   -0.145879
  56 N :   -0.143098
  57 C :    0.200499
  58 O :   -0.147642
  59 C :    0.062317
  60 C :    0.018153
  61 C :    0.032140
  62 C :   -0.113682
  63 C :    0.133429
  64 O :   -0.132446
  65 C :    0.017513
  66 C :   -0.079351
  67 C :    0.111397
  68 C :    0.110900
  69 C :   -0.106382
  70 C :    0.243093
  71 C :    0.239583
  72 C :   -0.101857
  73 F :   -0.168845
  74 F :   -0.168196
  75 C :   -0.079045
  76 C :    0.030970
  77 C :    0.276899
  78 C :   -0.336029
  79 C :   -0.191493
  80 N :    0.174991
  81 C :   -0.180229
  82 N :    0.160145
  83 H :    0.011092
  84 H :    0.001406
  85 H :   -0.003871
  86 H :   -0.007293
  87 H :    0.032702
  88 H :    0.015562
  89 H :    0.014103
  90 H :    0.011960
  91 H :    0.020435
  92 H :    0.145826
  93 H :    0.001707
  94 H :    0.037953
  95 H :    0.040605
  96 H :   -0.005879
  97 H :    0.008085
  98 H :    0.003026
  99 H :   -0.000643
Sum of atomic charges:   -0.0000000

LOEWDIN ATOMIC CHARGES
----------------------
   0 C :   -0.028160
   1 C :    0.069256
   2 F :   -0.043892
   3 C :    0.069344
   4 F :   -0.044919
   5 C :   -0.031611
   6 C :   -0.008566
   7 C :   -0.004027
   8 C :    0.020419
   9 C :   -0.021798
  10 C :   -0.056137
  11 C :    0.035444
  12 C :    0.087642
  13 O :   -0.164141
  14 C :   -0.087285
  15 C :    0.071061
  16 C :   -0.123455
  17 C :   -0.030178
  18 N :   -0.026334
  19 C :   -0.015800
  20 N :   -0.043135
  21 C :    0.055683
  22 C :   -0.170064
  23 S :    0.558934
  24 C :   -0.141502
  25 C :   -0.103629
  26 C :   -0.069239
  27 C :    0.162128
  28 F :   -0.048349
  29 F :   -0.055969
  30 F :   -0.033508
  31 C :    0.160302
  32 F :   -0.052298
  33 F :   -0.048902
  34 F :   -0.041965
  35 C :   -0.047999
  36 C :    0.007552
  37 C :    0.033437
  38 C :   -0.081671
  39 C :    0.048396
  40 C :   -0.029233
  41 N :   -0.061675
  42 C :    0.050600
  43 C :   -0.024167
  44 C :   -0.026516
  45 C :    0.067475
  46 C :   -0.079639
  47 C :   -0.032653
  48 N :   -0.047856
  49 C :   -0.130133
  50 S :    0.493202
  51 C :   -0.121943
  52 C :   -0.086417
  53 C :   -0.082164
  54 C :    0.094177
  55 O :   -0.147817
  56 N :    0.008162
  57 C :    0.095655
  58 O :   -0.146619
  59 C :   -0.008967
  60 C :   -0.001102
  61 C :    0.066412
  62 C :   -0.079077
  63 C :    0.083915
  64 O :   -0.132094
  65 C :   -0.055683
  66 C :    0.033632
  67 C :   -0.008469
  68 C :   -0.004974
  69 C :   -0.029300
  70 C :    0.068449
  71 C :    0.068591
  72 C :   -0.032109
  73 F :   -0.046474
  74 F :   -0.045964
  75 C :    0.016443
  76 C :   -0.022085
  77 C :    0.064688
  78 C :   -0.132911
  79 C :   -0.016838
  80 N :   -0.037880
  81 C :   -0.019884
  82 N :   -0.044574
  83 H :    0.049111
  84 H :    0.045756
  85 H :    0.041061
  86 H :    0.041510
  87 H :    0.046960
  88 H :    0.033850
  89 H :    0.035931
  90 H :    0.031083
  91 H :    0.039228
  92 H :    0.100764
  93 H :    0.032634
  94 H :    0.041689
  95 H :    0.052735
  96 H :    0.042001
  97 H :    0.048111
  98 H :    0.045929
  99 H :    0.040402

  Mayer bond orders larger than 0.100000
B(  0-C ,  1-C ) :   1.4415 B(  0-C ,  5-C ) :   0.1074 B(  0-C ,  7-C ) :   1.1884
B(  0-C , 83-H ) :   1.0066 B(  1-C ,  2-F ) :   1.1406 B(  1-C ,  3-C ) :   1.1878
B(  3-C ,  4-F ) :   1.1379 B(  3-C ,  5-C ) :   1.4442 B(  5-C ,  6-C ) :   1.1910
B(  5-C , 84-H ) :   1.0072 B(  6-C ,  7-C ) :   1.2518 B(  6-C , 11-C ) :   1.1928
B(  7-C ,  8-C ) :   1.2202 B(  8-C ,  9-C ) :   1.4473 B(  8-C , 85-H ) :   0.9890
B(  9-C , 10-C ) :   1.2194 B(  9-C , 15-C ) :   0.9876 B( 10-C , 11-C ) :   1.4611
B( 10-C , 12-C ) :   0.9677 B( 11-C , 86-H ) :   1.0171 B( 12-C , 13-O ) :   2.1242
B( 12-C , 14-C ) :   0.9608 B( 14-C , 15-C ) :   1.0528 B( 14-C , 21-C ) :   1.6053
B( 15-C , 16-C ) :   1.6525 B( 16-C , 17-C ) :   1.1332 B( 16-C , 19-C ) :   1.1479
B( 17-C , 18-N ) :   2.9783 B( 19-C , 20-N ) :   2.9612 B( 21-C , 22-C ) :   1.1967
B( 21-C , 87-H ) :   0.9158 B( 22-C , 23-S ) :   1.1236 B( 22-C , 24-C ) :   0.1030
B( 22-C , 26-C ) :   1.4327 B( 23-S , 24-C ) :   1.1622 B( 24-C , 25-C ) :   1.4641
B( 24-C , 35-C ) :   1.0659 B( 25-C , 26-C ) :   1.3870 B( 25-C , 31-C ) :   0.9373
B( 26-C , 27-C ) :   0.9387 B( 27-C , 28-F ) :   1.1515 B( 27-C , 29-F ) :   1.1227
B( 27-C , 30-F ) :   1.1702 B( 31-C , 32-F ) :   1.1463 B( 31-C , 33-F ) :   1.1561
B( 31-C , 34-F ) :   1.1585 B( 35-C , 36-C ) :   1.5831 B( 35-C , 39-C ) :   1.0497
B( 36-C , 37-C ) :   1.1141 B( 36-C , 88-H ) :   0.9857 B( 37-C , 38-C ) :   1.1109
B( 37-C , 42-C ) :   1.4304 B( 38-C , 39-C ) :   1.6723 B( 38-C , 40-C ) :   1.0850
B( 39-C , 89-H ) :   1.0134 B( 40-C , 41-N ) :   2.9600 B( 42-C , 43-C ) :   1.1153
B( 42-C , 46-C ) :   1.0985 B( 43-C , 44-C ) :   1.5529 B( 43-C , 90-H ) :   0.9928
B( 44-C , 45-C ) :   1.0576 B( 44-C , 49-C ) :   1.1071 B( 45-C , 46-C ) :   1.6756
B( 45-C , 91-H ) :   0.9996 B( 46-C , 47-C ) :   1.0866 B( 47-C , 48-N ) :   2.9746
B( 49-C , 50-S ) :   1.1487 B( 49-C , 53-C ) :   1.5095 B( 50-S , 51-C ) :   1.1394
B( 51-C , 52-C ) :   1.4958 B( 51-C , 59-C ) :   1.1565 B( 52-C , 53-C ) :   1.2776
B( 52-C , 57-C ) :   0.8876 B( 53-C , 54-C ) :   0.8759 B( 54-C , 55-O ) :   2.1697
B( 54-C , 56-N ) :   1.1052 B( 56-N , 57-C ) :   1.1011 B( 56-N , 92-H ) :   0.9133
B( 57-C , 58-O ) :   2.1554 B( 59-C , 60-C ) :   1.6749 B( 59-C , 93-H ) :   0.9486
B( 60-C , 61-C ) :   1.1297 B( 60-C , 94-H ) :   0.9249 B( 61-C , 62-C ) :   1.6969
B( 61-C , 95-H ) :   0.9262 B( 62-C , 63-C ) :   0.9314 B( 62-C , 77-C ) :   1.0238
B( 63-C , 64-O ) :   2.2738 B( 63-C , 65-C ) :   0.9200 B( 65-C , 66-C ) :   1.4691
B( 65-C , 76-C ) :   1.2203 B( 66-C , 67-C ) :   1.1976 B( 66-C , 96-H ) :   1.0165
B( 67-C , 68-C ) :   1.2529 B( 67-C , 72-C ) :   1.1923 B( 68-C , 69-C ) :   1.1899
B( 68-C , 75-C ) :   1.2214 B( 69-C , 70-C ) :   1.4437 B( 69-C , 72-C ) :   0.1079
B( 69-C , 97-H ) :   1.0067 B( 70-C , 71-C ) :   1.1879 B( 70-C , 74-F ) :   1.1370
B( 71-C , 72-C ) :   1.4445 B( 71-C , 73-F ) :   1.1359 B( 72-C , 98-H ) :   1.0069
B( 75-C , 76-C ) :   1.4525 B( 75-C , 99-H ) :   0.9926 B( 76-C , 77-C ) :   0.9948
B( 77-C , 78-C ) :   1.6582 B( 78-C , 79-C ) :   1.1724 B( 78-C , 81-C ) :   1.1256
B( 79-C , 80-N ) :   2.9823 B( 81-C , 82-N ) :   2.9871

-----------------------------------------------------------------------------
         ABSORPTION SPECTRUM VIA TRANSITION ELECTRIC DIPOLE MOMENTS
-----------------------------------------------------------------------------
State   Energy  Wavelength   fosc         T2         TX        TY        TZ
        (cm-1)    (nm)                  (au**2)     (au)      (au)      (au)
-----------------------------------------------------------------------------
   0   14632.1    683.4   0.813799995  18.30995   1.44888   4.00973   0.36438
   1   17671.1    565.9   0.049694082   0.92580   0.15863   0.73739  -0.59741
   2   21111.1    473.7   0.581189091   9.06321   0.84490   1.74997   2.29934
   3   22540.8    443.6   0.742078969  10.83816  -0.58409  -2.98292   1.26459
   4   23524.5    425.1   0.188516812   2.63818  -0.12775  -1.54448   0.48625
   5   24716.9    404.6   0.010826047   0.14420  -0.07284  -0.16011  -0.33653
   6   25454.4    392.9   0.053058005   0.68622  -0.12420   0.80630   0.14378
   7   26056.6    383.8   0.243812318   3.08045   0.37405   1.22807  -1.19683
   8   27394.6    365.0   0.001348682   0.01621  -0.11333   0.05765   0.00635
   9   27458.4    364.2   0.007991964   0.09582   0.15405  -0.26777   0.01964
  10   28161.6    355.1   0.008259243   0.09655  -0.04490  -0.11119   0.28666
  11   28502.7    350.8   0.001055998   0.01220   0.10366  -0.00797   0.03724
  12   29210.1    342.3   0.097334197   1.09701  -0.43616  -0.88185   0.35933
  13   29444.0    339.6   0.022928732   0.25636  -0.01105  -0.50536  -0.02930
  14   29830.9    335.2   0.112850155   1.24541  -0.30144   0.89999   0.58700
  15   30001.7    333.3   0.195383559   2.14396  -0.38457   0.64094   1.25907
  16   30278.0    330.3   0.165066942   1.79477  -0.15726   0.02480  -1.33020
  17   30630.8    326.5   0.028870808   0.31030   0.03633   0.55535  -0.02365
  18   31161.3    320.9   0.367649139   3.88413  -0.20537   0.09104   1.95797
  19   31279.0    319.7   0.009562699   0.10065   0.17841   0.26210   0.01113
  20   31599.4    316.5   0.036438313   0.37962  -0.14537  -0.25584   0.54133
  21   31966.8    312.8   0.082355849   0.84815   0.30381   0.59134  -0.63731
  22   31989.7    312.6   0.121144459   1.24672  -0.15555  -0.29831   1.06468
  23   32463.2    308.0   0.020744165   0.21037  -0.25163  -0.18650  -0.33507
  24   32934.5    303.6   0.199649953   1.99569   0.07770  -0.41863   1.34700
  25   33536.4    298.2   0.059216753   0.58131  -0.15887  -0.61538   0.42117
  26   33685.9    296.9   0.060573683   0.59199   0.20151   0.17221   0.72231
  27   33796.2    295.9   0.315660604   3.07488  -0.75336   0.40256   1.53143
  28   34036.9    293.8   0.271439014   2.62541   0.25132   0.94414   1.29262
  29   34085.0    293.4   0.139602916   1.34836   0.25922   0.99315   0.54297
  30   34456.8    290.2   0.410818373   3.92510  -0.06555   0.44767  -1.92883
  31   34716.9    288.0   0.169893342   1.61106  -0.26163   0.35490   1.19023
  32   34941.0    286.2   0.170208453   1.60369   0.69027   0.03853  -1.06101
  33   35050.5    285.3   0.042937489   0.40329   0.30335   0.16046  -0.53434
  34   35570.3    281.1   0.034472284   0.31905  -0.14942   0.27222   0.47183
  35   36031.6    277.5   0.008435961   0.07708   0.05958  -0.19783  -0.18545
  36   36217.0    276.1   0.020457462   0.18596  -0.16187  -0.33697   0.21497
  37   36895.5    271.0   0.064006663   0.57112   0.29448   0.68551  -0.12030
  38   37057.3    269.9   0.028416044   0.25244  -0.11624   0.12147   0.47348
  39   37287.6    268.2   0.012691399   0.11205   0.10824   0.31616  -0.01951
  40   37456.6    267.0   0.002695720   0.02369  -0.13000  -0.07976   0.02077
  41   37472.8    266.9   0.020667444   0.18157  -0.10810   0.36877   0.18411
  42   37637.0    265.7   0.006334725   0.05541  -0.10693  -0.20699  -0.03366
  43   37722.0    265.1   0.102831750   0.89745   0.26124   0.90528  -0.09831
  44   37785.1    264.7   0.012504698   0.10895  -0.09111   0.11765  -0.29463
  45   37980.3    263.3   0.045176801   0.39159  -0.23540  -0.23339  -0.53076
  46   38100.6    262.5   0.069784976   0.60298  -0.26937  -0.68618  -0.24408
  47   38306.2    261.1   0.408793147   3.51326  -0.19025  -1.85345  -0.20444
  48   38544.2    259.4   0.079766207   0.68130   0.00715  -0.68291  -0.46355
  49   38840.5    257.5   0.077216266   0.65448  -0.21105   0.08742  -0.77608
  50   39825.4    251.1   0.057696253   0.47694  -0.41075   0.25525   0.49303
  51   40288.8    248.2   0.031284579   0.25564  -0.10803  -0.20653   0.44868

FINAL SINGLE POINT ENERGY     -4770.474149497682

DIPOLE MOMENT
-------------
                                X             Y             Z
Electronic contribution:     18.96680      54.41417      20.20569
Nuclear contribution   :    -18.28330     -56.38400     -23.35955
                        -----------------------------------------
Total Dipole Moment    :      0.68350      -1.96983      -3.15385
                        -----------------------------------------
Magnitude (a.u.)       :      3.78077
Magnitude (Debye)      :      9.60995

Rotational constants in cm-1:     0.000773     0.000227     0.000178
Rotational constants in MHz :    23.166529     6.796639     5.347464

                             ****ORCA TERMINATED NORMALLY****
TOTAL RUN TIME: 0 days 0 hours 10 minutes 38 seconds 933 msec
