                         Program Version 4.2.0 -  RELEASE  -
|  1> # ORCA input file
|  2> # SCF done       -226.197460292747          0.000759763917
|  3> ! CAM-B3LYP def2-SVP def2/J RIJCOSX Grid4 TightSCF
|  4> %maxcore 5000
|  5> %tddft
|  6>     Mode sTDDFT
|  7>     Ethresh 5.0
|  8>     maxcore 5000
|  9> end
| 10>
| 11> %pal
| 12>   nprocs 6
| 13>   end
| 14> * xyz 0 1
| 15>    C       -7.76362        -1.57177        -7.81535
| 16>    C       -7.24088        -2.15158        -8.93730
| 17>    F       -6.94714        -1.40434       -10.00663
| 18>    C       -7.00421        -3.54129        -8.98312
| 19>    F       -6.49156        -4.08157       -10.09473
| 20>    C       -7.29337        -4.33126        -7.90592
| 21>    C       -7.83199        -3.76348        -6.73457
| 22>    C       -8.07140        -2.35847        -6.68702
| 23>    C       -8.60965        -1.76663        -5.52228
| 24>    C       -8.89600        -2.55453        -4.43809
| 25>    C       -8.65825        -3.95872        -4.49469
| 26>    C       -8.14116        -4.55769        -5.60873
| 27>    C       -9.06938        -4.58109        -3.22651
| 28>    O       -9.01610        -5.75390        -2.92518
| 29>    C       -9.62535        -3.47049        -2.40562
| 30>    C       -9.43292        -2.22207        -3.12518
| 31>    C       -9.63022        -0.96961        -2.61635
| 32>    C      -10.00871        -0.72541        -1.27765
| 33>    N      -10.26418        -0.48253        -0.18595
| 34>    C       -9.41756         0.22201        -3.34276
| 35>    N       -9.26045         1.21574        -3.89353
| 36>    C      -10.34950        -3.68408        -1.28278
| 37>    C      -10.44529        -4.96421        -0.64489
| 38>    C      -11.59929        -5.67954        -0.43084
| 39>    N      -12.89197        -5.23233        -0.77994
| 40>    O      -13.83911        -5.89675        -0.41735
| 41>    O      -12.96617        -4.19041        -1.41132
| 42>    C      -11.28229        -6.96722         0.13915
| 43>    C       -9.93627        -7.06621         0.22744
| 44>    C       -9.33686        -5.83146        -0.23409
| 45>    C       -8.02037        -5.44615        -0.15776
| 46>    C       -7.54426        -4.10885         0.03468
| 47>    C       -6.22597        -4.15903         0.36488
| 48>    C       -5.77878        -5.52398         0.30150
| 49>    N       -4.43875        -5.89693         0.50935
| 50>    O       -3.64588        -5.01019         0.76848
| 51>    O       -4.14351        -7.07923         0.42766
| 52>    C       -6.84367        -6.33894        -0.06234
| 53>    C       -6.80027        -7.69750        -0.43379
| 54>    C       -7.71611        -8.29415        -1.25041
| 55>    C       -7.71175        -9.66749        -1.57042
| 56>    C       -8.70402       -10.32567        -2.30261
| 57>    C       -9.82264        -9.62321        -2.78318
| 58>    N      -10.72594        -9.00881        -3.12988
| 59>    C       -8.46673       -11.71460        -2.41170
| 60>    C       -7.28338       -12.07454        -1.75795
| 61>    S       -6.46300       -10.76385        -1.01235
| 62>    S       -6.90691       -13.76200        -1.79540
| 63>    C       -8.37145       -14.01397        -2.69462
| 64>    C       -9.10272       -12.86435        -2.96750
| 65>    C      -10.28526       -13.16441        -3.69961
| 66>    C      -11.17832       -12.19567        -4.18260
| 67>    N      -11.89527       -11.41045        -4.61313
| 68>    C      -10.42720       -14.52540        -3.93622
| 69>    S       -9.09632       -15.45342        -3.29062
| 70>    C      -11.50827       -15.20497        -4.57247
| 71>    S      -11.42108       -16.91623        -4.86746
| 72>    C      -13.05159       -16.95323        -5.44466
| 73>    C      -13.60922       -15.67601        -5.47136
| 74>    C      -12.71984       -14.70086        -4.97592
| 75>    C      -14.92865       -15.34325        -6.04745
| 76>    O      -15.74026       -16.18658        -6.36981
| 77>    C      -15.20996       -13.87608        -6.22285
| 78>    C      -13.57773       -18.22432        -5.83660
| 79>    C      -14.81602       -18.72114        -5.63528
| 80>    C      -15.27050       -19.91472        -6.41335
| 81>    O      -14.56874       -20.68697        -7.01933
| 82>    C      -16.74152       -19.88941        -6.31675
| 83>    C      -17.65471       -20.67623        -6.95949
| 84>    C      -19.03140       -20.44994        -6.73972
| 85>    C      -19.43792       -19.39981        -5.86468
| 86>    C      -20.81418       -19.17338        -5.65929
| 87>    C      -21.74238       -19.95514        -6.28746
| 88>    C      -21.33914       -20.99559        -7.14966
| 89>    C      -20.01282       -21.23830        -7.37240
| 90>    F      -22.27092       -21.74618        -7.75079
| 91>    F      -23.04871       -19.74096        -6.08912
| 92>    C      -18.47121       -18.60431        -5.20985
| 93>    C      -17.14149       -18.85271        -5.42425
| 94>    C      -15.94875       -18.22519        -4.87008
| 95>    C      -15.89186       -17.50574        -3.70962
| 96>    C      -14.69384       -17.10075        -3.08770
| 97>    N      -13.75199       -16.77876        -2.51514
| 98>    C      -17.03166       -17.12652        -2.96847
| 99>    N      -17.92494       -16.78474        -2.33514
|100>    H       -7.93792        -0.50729        -7.79677
|101>    H       -7.10784        -5.39263        -7.95775
|102>    H       -8.78935        -0.70350        -5.51725
|103>    H       -7.97394        -5.62384        -5.63030
|104>    H      -10.96065        -2.89124        -0.86678
|105>    H      -12.02327        -7.69086         0.41884
|106>    H       -9.38271        -7.87025         0.67146
|107>    H       -8.16972        -3.23688         0.05101
|108>    H       -5.58614        -3.33953         0.63380
|109>    H       -5.93896        -8.26189        -0.09432
|110>    H       -8.49379        -7.70529        -1.71939
|111>    H      -12.96864       -13.66162        -4.88495
|112>    H      -15.28132       -13.39716        -5.24776
|113>    H      -16.15546       -13.75650        -6.74563
|114>    H      -14.41591       -13.39082        -6.78485
|115>    H      -12.89306       -18.87625        -6.37224
|116>    H      -17.33108       -21.45944        -7.62810
|117>    H      -21.13963       -18.38350        -5.00052
|118>    H      -19.72111       -22.03742        -8.03576
|119>    H      -18.80347       -17.80717        -4.56430
|120> *
|121>
|122>                          ****END OF INPUT****

CARTESIAN COORDINATES (ANGSTROEM)
---------------------------------
  C     -7.763620   -1.571770   -7.815350
  C     -7.240880   -2.151580   -8.937300
  F     -6.947140   -1.404340  -10.006630
  C     -7.004210   -3.541290   -8.983120
  F     -6.491560   -4.081570  -10.094730
  C     -7.293370   -4.331260   -7.905920
  C     -7.831990   -3.763480   -6.734570
  C     -8.071400   -2.358470   -6.687020
  C     -8.609650   -1.766630   -5.522280
  C     -8.896000   -2.554530   -4.438090
  C     -8.658250   -3.958720   -4.494690
  C     -8.141160   -4.557690   -5.608730
  C     -9.069380   -4.581090   -3.226510
  O     -9.016100   -5.753900   -2.925180
  C     -9.625350   -3.470490   -2.405620
  C     -9.432920   -2.222070   -3.125180
  C     -9.630220   -0.969610   -2.616350
  C    -10.008710   -0.725410   -1.277650
  N    -10.264180   -0.482530   -0.185950
  C     -9.417560    0.222010   -3.342760
  N     -9.260450    1.215740   -3.893530
  C    -10.349500   -3.684080   -1.282780
  C    -10.445290   -4.964210   -0.644890
  C    -11.599290   -5.679540   -0.430840
  N    -12.891970   -5.232330   -0.779940
  O    -13.839110   -5.896750   -0.417350
  O    -12.966170   -4.190410   -1.411320
  C    -11.282290   -6.967220    0.139150
  C     -9.936270   -7.066210    0.227440
  C     -9.336860   -5.831460   -0.234090
  C     -8.020370   -5.446150   -0.157760
  C     -7.544260   -4.108850    0.034680
  C     -6.225970   -4.159030    0.364880
  C     -5.778780   -5.523980    0.301500
  N     -4.438750   -5.896930    0.509350
  O     -3.645880   -5.010190    0.768480
  O     -4.143510   -7.079230    0.427660
  C     -6.843670   -6.338940   -0.062340
  C     -6.800270   -7.697500   -0.433790
  C     -7.716110   -8.294150   -1.250410
  C     -7.711750   -9.667490   -1.570420
  C     -8.704020  -10.325670   -2.302610
  C     -9.822640   -9.623210   -2.783180
  N    -10.725940   -9.008810   -3.129880
  C     -8.466730  -11.714600   -2.411700
  C     -7.283380  -12.074540   -1.757950
  S     -6.463000  -10.763850   -1.012350
  S     -6.906910  -13.762000   -1.795400
  C     -8.371450  -14.013970   -2.694620
  C     -9.102720  -12.864350   -2.967500
  C    -10.285260  -13.164410   -3.699610
  C    -11.178320  -12.195670   -4.182600
  N    -11.895270  -11.410450   -4.613130
  C    -10.427200  -14.525400   -3.936220
  S     -9.096320  -15.453420   -3.290620
  C    -11.508270  -15.204970   -4.572470
  S    -11.421080  -16.916230   -4.867460
  C    -13.051590  -16.953230   -5.444660
  C    -13.609220  -15.676010   -5.471360
  C    -12.719840  -14.700860   -4.975920
  C    -14.928650  -15.343250   -6.047450
  O    -15.740260  -16.186580   -6.369810
  C    -15.209960  -13.876080   -6.222850
  C    -13.577730  -18.224320   -5.836600
  C    -14.816020  -18.721140   -5.635280
  C    -15.270500  -19.914720   -6.413350
  O    -14.568740  -20.686970   -7.019330
  C    -16.741520  -19.889410   -6.316750
  C    -17.654710  -20.676230   -6.959490
  C    -19.031400  -20.449940   -6.739720
  C    -19.437920  -19.399810   -5.864680
  C    -20.814180  -19.173380   -5.659290
  C    -21.742380  -19.955140   -6.287460
  C    -21.339140  -20.995590   -7.149660
  C    -20.012820  -21.238300   -7.372400
  F    -22.270920  -21.746180   -7.750790
  F    -23.048710  -19.740960   -6.089120
  C    -18.471210  -18.604310   -5.209850
  C    -17.141490  -18.852710   -5.424250
  C    -15.948750  -18.225190   -4.870080
  C    -15.891860  -17.505740   -3.709620
  C    -14.693840  -17.100750   -3.087700
  N    -13.751990  -16.778760   -2.515140
  C    -17.031660  -17.126520   -2.968470
  N    -17.924940  -16.784740   -2.335140
  H     -7.937920   -0.507290   -7.796770
  H     -7.107840   -5.392630   -7.957750
  H     -8.789350   -0.703500   -5.517250
  H     -7.973940   -5.623840   -5.630300
  H    -10.960650   -2.891240   -0.866780
  H    -12.023270   -7.690860    0.418840
  H     -9.382710   -7.870250    0.671460
  H     -8.169720   -3.236880    0.051010
  H     -5.586140   -3.339530    0.633800
  H     -5.938960   -8.261890   -0.094320
  H     -8.493790   -7.705290   -1.719390
  H    -12.968640  -13.661620   -4.884950
  H    -15.281320  -13.397160   -5.247760
  H    -16.155460  -13.756500   -6.745630
  H    -14.415910  -13.390820   -6.784850
  H    -12.893060  -18.876250   -6.372240
  H    -17.331080  -21.459440   -7.628100
  H    -21.139630  -18.383500   -5.000520
  H    -19.721110  -22.037420   -8.035760
  H    -18.803470  -17.807170   -4.564300

 Total Charge           Charge          ....    0
 Multiplicity           Mult            ....    1
 Number of Electrons    NEL             ....  604
 Basis Dimension        Dim             .... 1306

ORBITAL ENERGIES
----------------

  NO   OCC          E(Eh)            E(eV)
   0   2.0000     -89.005094     -2421.9517
   1   2.0000     -89.003915     -2421.9197
   2   2.0000     -89.002564     -2421.8829
   3   2.0000     -88.989705     -2421.5330
   4   2.0000     -24.806814      -675.0277
   5   2.0000     -24.806285      -675.0133
   6   2.0000     -24.800794      -674.8639
   7   2.0000     -24.799974      -674.8416
   8   2.0000     -19.253129      -523.9043
   9   2.0000     -19.251261      -523.8534
  10   2.0000     -19.242162      -523.6059
  11   2.0000     -19.241215      -523.5801
  12   2.0000     -19.238292      -523.5005
  13   2.0000     -19.224771      -523.1326
  14   2.0000     -19.223150      -523.0885
  15   2.0000     -14.659554      -398.9067
  16   2.0000     -14.651181      -398.6789
  17   2.0000     -14.429349      -392.6426
  18   2.0000     -14.428954      -392.6318
  19   2.0000     -14.423408      -392.4809
  20   2.0000     -14.421459      -392.4279
  21   2.0000     -14.421168      -392.4199
  22   2.0000     -14.419737      -392.3810
  23   2.0000     -10.391007      -282.7537
  24   2.0000     -10.390631      -282.7434
  25   2.0000     -10.387824      -282.6671
  26   2.0000     -10.384152      -282.5672
  27   2.0000     -10.383631      -282.5530
  28   2.0000     -10.377572      -282.3881
  29   2.0000     -10.375305      -282.3264
  30   2.0000     -10.359407      -281.8938
  31   2.0000     -10.358596      -281.8717
  32   2.0000     -10.357837      -281.8511
  33   2.0000     -10.355306      -281.7822
  34   2.0000     -10.355021      -281.7744
  35   2.0000     -10.349057      -281.6122
  36   2.0000     -10.349039      -281.6117
  37   2.0000     -10.348302      -281.5916
  38   2.0000     -10.347716      -281.5757
  39   2.0000     -10.343847      -281.4704
  40   2.0000     -10.342770      -281.4411
  41   2.0000     -10.340495      -281.3792
  42   2.0000     -10.339458      -281.3510
  43   2.0000     -10.339315      -281.3471
  44   2.0000     -10.338316      -281.3199
  45   2.0000     -10.336871      -281.2806
  46   2.0000     -10.333758      -281.1959
  47   2.0000     -10.331022      -281.1214
  48   2.0000     -10.330612      -281.1102
  49   2.0000     -10.330186      -281.0987
  50   2.0000     -10.329065      -281.0681
  51   2.0000     -10.328744      -281.0594
  52   2.0000     -10.327758      -281.0326
  53   2.0000     -10.326973      -281.0112
  54   2.0000     -10.324081      -280.9325
  55   2.0000     -10.323386      -280.9136
  56   2.0000     -10.323250      -280.9099
  57   2.0000     -10.321657      -280.8666
  58   2.0000     -10.321345      -280.8581
  59   2.0000     -10.320316      -280.8301
  60   2.0000     -10.318535      -280.7816
  61   2.0000     -10.318290      -280.7749
  62   2.0000     -10.317638      -280.7572
  63   2.0000     -10.315593      -280.7016
  64   2.0000     -10.314293      -280.6662
  65   2.0000     -10.313865      -280.6545
  66   2.0000     -10.313599      -280.6473
  67   2.0000     -10.311471      -280.5894
  68   2.0000     -10.311094      -280.5791
  69   2.0000     -10.310628      -280.5664
  70   2.0000     -10.309949      -280.5480
  71   2.0000     -10.309668      -280.5403
  72   2.0000     -10.307888      -280.4919
  73   2.0000     -10.307331      -280.4767
  74   2.0000     -10.306947      -280.4663
  75   2.0000     -10.306707      -280.4598
  76   2.0000     -10.305135      -280.4170
  77   2.0000     -10.305115      -280.4164
  78   2.0000     -10.304419      -280.3975
  79   2.0000     -10.303806      -280.3808
  80   2.0000     -10.302708      -280.3509
  81   2.0000     -10.300699      -280.2963
  82   2.0000     -10.298533      -280.2373
  83   2.0000     -10.294057      -280.1155
  84   2.0000     -10.276938      -279.6497
  85   2.0000      -8.100247      -220.4189
  86   2.0000      -8.099274      -220.3925
  87   2.0000      -8.097605      -220.3470
  88   2.0000      -8.085565      -220.0194
  89   2.0000      -6.070225      -165.1792
  90   2.0000      -6.068882      -165.1427
  91   2.0000      -6.067080      -165.0936
  92   2.0000      -6.065942      -165.0627
  93   2.0000      -6.064609      -165.0264
  94   2.0000      -6.062931      -164.9807
  95   2.0000      -6.061049      -164.9295
  96   2.0000      -6.060802      -164.9228
  97   2.0000      -6.059308      -164.8821
  98   2.0000      -6.054840      -164.7606
  99   2.0000      -6.050580      -164.6447
 100   2.0000      -6.047691      -164.5660
 101   2.0000      -1.331830       -36.2409
 102   2.0000      -1.330177       -36.1959
 103   2.0000      -1.323647       -36.0183
 104   2.0000      -1.321236       -35.9527
 105   2.0000      -1.315265       -35.7902
 106   2.0000      -1.308763       -35.6132
 107   2.0000      -1.153623       -31.3917
 108   2.0000      -1.150720       -31.3127
 109   2.0000      -1.141448       -31.0604
 110   2.0000      -1.140147       -31.0250
 111   2.0000      -1.138698       -30.9855
 112   2.0000      -1.060036       -28.8450
 113   2.0000      -1.033911       -28.1341
 114   2.0000      -1.032897       -28.1065
 115   2.0000      -1.028115       -27.9764
 116   2.0000      -1.025375       -27.9019
 117   2.0000      -1.016328       -27.6557
 118   2.0000      -1.013770       -27.5861
 119   2.0000      -1.008814       -27.4512
 120   2.0000      -1.008171       -27.4337
 121   2.0000      -1.008014       -27.4295
 122   2.0000      -1.007236       -27.4083
 123   2.0000      -0.999396       -27.1949
 124   2.0000      -0.997101       -27.1325
 125   2.0000      -0.993293       -27.0289
 126   2.0000      -0.985602       -26.8196
 127   2.0000      -0.968018       -26.3411
 128   2.0000      -0.944962       -25.7137
 129   2.0000      -0.937014       -25.4975
 130   2.0000      -0.925811       -25.1926
 131   2.0000      -0.921606       -25.0782
 132   2.0000      -0.918578       -24.9958
 133   2.0000      -0.917088       -24.9552
 134   2.0000      -0.909792       -24.7567
 135   2.0000      -0.904261       -24.6062
 136   2.0000      -0.897341       -24.4179
 137   2.0000      -0.895368       -24.3642
 138   2.0000      -0.893159       -24.3041
 139   2.0000      -0.888035       -24.1647
 140   2.0000      -0.887661       -24.1545
 141   2.0000      -0.886275       -24.1168
 142   2.0000      -0.858261       -23.3545
 143   2.0000      -0.855326       -23.2746
 144   2.0000      -0.852113       -23.1872
 145   2.0000      -0.844045       -22.9676
 146   2.0000      -0.843166       -22.9437
 147   2.0000      -0.830780       -22.6067
 148   2.0000      -0.828161       -22.5354
 149   2.0000      -0.819292       -22.2941
 150   2.0000      -0.803643       -21.8682
 151   2.0000      -0.789386       -21.4803
 152   2.0000      -0.785764       -21.3817
 153   2.0000      -0.780673       -21.2432
 154   2.0000      -0.771527       -20.9943
 155   2.0000      -0.752370       -20.4730
 156   2.0000      -0.746713       -20.3191
 157   2.0000      -0.744435       -20.2571
 158   2.0000      -0.738527       -20.0963
 159   2.0000      -0.732348       -19.9282
 160   2.0000      -0.729325       -19.8459
 161   2.0000      -0.722760       -19.6673
 162   2.0000      -0.720115       -19.5953
 163   2.0000      -0.716118       -19.4866
 164   2.0000      -0.711694       -19.3662
 165   2.0000      -0.702566       -19.1178
 166   2.0000      -0.697999       -18.9935
 167   2.0000      -0.688560       -18.7367
 168   2.0000      -0.685553       -18.6548
 169   2.0000      -0.683485       -18.5986
 170   2.0000      -0.674731       -18.3604
 171   2.0000      -0.670772       -18.2526
 172   2.0000      -0.666321       -18.1315
 173   2.0000      -0.662932       -18.0393
 174   2.0000      -0.659989       -17.9592
 175   2.0000      -0.658525       -17.9194
 176   2.0000      -0.653599       -17.7853
 177   2.0000      -0.653507       -17.7828
 178   2.0000      -0.646974       -17.6051
 179   2.0000      -0.645228       -17.5575
 180   2.0000      -0.640859       -17.4387
 181   2.0000      -0.637813       -17.3558
 182   2.0000      -0.636706       -17.3257
 183   2.0000      -0.632646       -17.2152
 184   2.0000      -0.624994       -17.0069
 185   2.0000      -0.622719       -16.9450
 186   2.0000      -0.620916       -16.8960
 187   2.0000      -0.619283       -16.8516
 188   2.0000      -0.612107       -16.6563
 189   2.0000      -0.604444       -16.4477
 190   2.0000      -0.602138       -16.3850
 191   2.0000      -0.595280       -16.1984
 192   2.0000      -0.594339       -16.1728
 193   2.0000      -0.592704       -16.1283
 194   2.0000      -0.589042       -16.0287
 195   2.0000      -0.588330       -16.0093
 196   2.0000      -0.587836       -15.9958
 197   2.0000      -0.584966       -15.9177
 198   2.0000      -0.577199       -15.7064
 199   2.0000      -0.570174       -15.5152
 200   2.0000      -0.567510       -15.4427
 201   2.0000      -0.563809       -15.3420
 202   2.0000      -0.562688       -15.3115
 203   2.0000      -0.559561       -15.2264
 204   2.0000      -0.557187       -15.1618
 205   2.0000      -0.555705       -15.1215
 206   2.0000      -0.555249       -15.1091
 207   2.0000      -0.552452       -15.0330
 208   2.0000      -0.551211       -14.9992
 209   2.0000      -0.550326       -14.9751
 210   2.0000      -0.549480       -14.9521
 211   2.0000      -0.548309       -14.9203
 212   2.0000      -0.543692       -14.7946
 213   2.0000      -0.542647       -14.7662
 214   2.0000      -0.542084       -14.7508
 215   2.0000      -0.540146       -14.6981
 216   2.0000      -0.537519       -14.6266
 217   2.0000      -0.534229       -14.5371
 218   2.0000      -0.533160       -14.5080
 219   2.0000      -0.531783       -14.4706
 220   2.0000      -0.529248       -14.4016
 221   2.0000      -0.526298       -14.3213
 222   2.0000      -0.525098       -14.2886
 223   2.0000      -0.522580       -14.2201
 224   2.0000      -0.520968       -14.1762
 225   2.0000      -0.516606       -14.0576
 226   2.0000      -0.514319       -13.9953
 227   2.0000      -0.511019       -13.9055
 228   2.0000      -0.509331       -13.8596
 229   2.0000      -0.507508       -13.8100
 230   2.0000      -0.504927       -13.7398
 231   2.0000      -0.503334       -13.6964
 232   2.0000      -0.502690       -13.6789
 233   2.0000      -0.501801       -13.6547
 234   2.0000      -0.498994       -13.5783
 235   2.0000      -0.494165       -13.4469
 236   2.0000      -0.491995       -13.3879
 237   2.0000      -0.491159       -13.3651
 238   2.0000      -0.488373       -13.2893
 239   2.0000      -0.487492       -13.2653
 240   2.0000      -0.486130       -13.2283
 241   2.0000      -0.482474       -13.1288
 242   2.0000      -0.480361       -13.0713
 243   2.0000      -0.477767       -13.0007
 244   2.0000      -0.474711       -12.9175
 245   2.0000      -0.472624       -12.8608
 246   2.0000      -0.470702       -12.8085
 247   2.0000      -0.470026       -12.7901
 248   2.0000      -0.466447       -12.6927
 249   2.0000      -0.465306       -12.6616
 250   2.0000      -0.461284       -12.5522
 251   2.0000      -0.457286       -12.4434
 252   2.0000      -0.457000       -12.4356
 253   2.0000      -0.455970       -12.4076
 254   2.0000      -0.454136       -12.3577
 255   2.0000      -0.453000       -12.3268
 256   2.0000      -0.451530       -12.2868
 257   2.0000      -0.450479       -12.2582
 258   2.0000      -0.449535       -12.2325
 259   2.0000      -0.448082       -12.1929
 260   2.0000      -0.447718       -12.1830
 261   2.0000      -0.444098       -12.0845
 262   2.0000      -0.442581       -12.0433
 263   2.0000      -0.439997       -11.9729
 264   2.0000      -0.438640       -11.9360
 265   2.0000      -0.436671       -11.8824
 266   2.0000      -0.433875       -11.8063
 267   2.0000      -0.432830       -11.7779
 268   2.0000      -0.429549       -11.6886
 269   2.0000      -0.426072       -11.5940
 270   2.0000      -0.424379       -11.5479
 271   2.0000      -0.419291       -11.4095
 272   2.0000      -0.411532       -11.1983
 273   2.0000      -0.407598       -11.0913
 274   2.0000      -0.403460       -10.9787
 275   2.0000      -0.399576       -10.8730
 276   2.0000      -0.398243       -10.8368
 277   2.0000      -0.393012       -10.6944
 278   2.0000      -0.391517       -10.6537
 279   2.0000      -0.389630       -10.6024
 280   2.0000      -0.388978       -10.5846
 281   2.0000      -0.387344       -10.5402
 282   2.0000      -0.381265       -10.3747
 283   2.0000      -0.380196       -10.3457
 284   2.0000      -0.369940       -10.0666
 285   2.0000      -0.368769       -10.0347
 286   2.0000      -0.364917        -9.9299
 287   2.0000      -0.355033        -9.6609
 288   2.0000      -0.352296        -9.5865
 289   2.0000      -0.350825        -9.5464
 290   2.0000      -0.343072        -9.3355
 291   2.0000      -0.341887        -9.3032
 292   2.0000      -0.340255        -9.2588
 293   2.0000      -0.331159        -9.0113
 294   2.0000      -0.328738        -8.9454
 295   2.0000      -0.327144        -8.9020
 296   2.0000      -0.319357        -8.6902
 297   2.0000      -0.315975        -8.5981
 298   2.0000      -0.307423        -8.3654
 299   2.0000      -0.303337        -8.2542
 300   2.0000      -0.284768        -7.7489
 301   2.0000      -0.276776        -7.5315
 302   0.0000      -0.139570        -3.7979
 303   0.0000      -0.104130        -2.8335
 304   0.0000      -0.101814        -2.7705
 305   0.0000      -0.078286        -2.1303
 306   0.0000      -0.068957        -1.8764

MULLIKEN ATOMIC CHARGES
-----------------------
   0 C :   -0.109756
   1 C :    0.245101
   2 F :   -0.165944
   3 C :    0.242601
   4 F :   -0.168151
   5 C :   -0.105087
   6 C :    0.116925
   7 C :    0.118187
   8 C :   -0.086888
   9 C :    0.058371
  10 C :   -0.008403
  11 C :   -0.072168
  12 C :    0.179425
  13 O :   -0.140425
  14 C :   -0.095763
  15 C :    0.306982
  16 C :   -0.320779
  17 C :   -0.197982
  18 N :    0.168486
  19 C :   -0.182576
  20 N :    0.158953
  21 C :   -0.031966
  22 C :    0.005133
  23 C :    0.114663
  24 N :    0.271165
  25 O :   -0.223905
  26 O :   -0.243866
  27 C :    0.033879
  28 C :    0.008591
  29 C :    0.055505
  30 C :    0.017720
  31 C :    0.008683
  32 C :    0.022857
  33 C :    0.086230
  34 N :    0.272555
  35 O :   -0.245478
  36 O :   -0.259316
  37 C :    0.042847
  38 C :   -0.055591
  39 C :   -0.040118
  40 C :   -0.092237
  41 C :   -0.019893
  42 C :   -0.316806
  43 N :    0.224691
  44 C :    0.156122
  45 C :   -0.226822
  46 S :    0.188828
  47 S :    0.207245
  48 C :   -0.234027
  49 C :    0.140308
  50 C :   -0.021290
  51 C :   -0.309401
  52 N :    0.197678
  53 C :   -0.035002
  54 S :    0.189844
  55 C :   -0.051832
  56 S :    0.181814
  57 C :   -0.171704
  58 C :    0.105251
  59 C :   -0.073737
  60 C :   -0.007912
  61 O :   -0.189541
  62 C :    0.057930
  63 C :    0.048420
  64 C :   -0.092892
  65 C :    0.131121
  66 O :   -0.131643
  67 C :    0.018838
  68 C :   -0.083914
  69 C :    0.112273
  70 C :    0.108913
  71 C :   -0.105756
  72 C :    0.241776
  73 C :    0.239834
  74 C :   -0.101835
  75 F :   -0.170506
  76 F :   -0.169622
  77 C :   -0.073937
  78 C :    0.041252
  79 C :    0.332386
  80 C :   -0.343582
  81 C :   -0.189292
  82 N :    0.163912
  83 C :   -0.186474
  84 N :    0.161377
  85 H :    0.010909
  86 H :    0.003366
  87 H :   -0.001939
  88 H :   -0.005741
  89 H :    0.058846
  90 H :    0.007291
  91 H :    0.006793
  92 H :   -0.001391
  93 H :    0.010041
  94 H :    0.026503
  95 H :    0.074992
  96 H :    0.007730
  97 H :    0.056668
  98 H :    0.035007
  99 H :    0.049095
 100 H :    0.031924
 101 H :   -0.007700
 102 H :    0.008373
 103 H :   -0.000045
 104 H :   -0.001571
Sum of atomic charges:   -0.0000000

LOEWDIN ATOMIC CHARGES
----------------------
   0 C :   -0.028439
   1 C :    0.069801
   2 F :   -0.044138
   3 C :    0.069908
   4 F :   -0.045660
   5 C :   -0.031009
   6 C :   -0.007550
   7 C :   -0.003564
   8 C :    0.021066
   9 C :   -0.021184
  10 C :   -0.054150
  11 C :    0.037670
  12 C :    0.096997
  13 O :   -0.133831
  14 C :   -0.076689
  15 C :    0.075223
  16 C :   -0.123780
  17 C :   -0.022380
  18 N :   -0.040690
  19 C :   -0.017859
  20 N :   -0.040596
  21 C :    0.079629
  22 C :   -0.004484
  23 C :   -0.005264
  24 N :    0.285445
  25 O :   -0.187562
  26 O :   -0.202483
  27 C :    0.007910
  28 C :   -0.017146
  29 C :    0.047783
  30 C :    0.050637
  31 C :   -0.045822
  32 C :    0.025312
  33 C :   -0.053679
  34 N :    0.285064
  35 O :   -0.209567
  36 O :   -0.222757
  37 C :    0.016581
  38 C :   -0.022200
  39 C :    0.000627
  40 C :   -0.137409
  41 C :   -0.081337
  42 C :   -0.041501
  43 N :   -0.023163
  44 C :   -0.063843
  45 C :   -0.324252
  46 S :    0.469669
  47 S :    0.438271
  48 C :   -0.332033
  49 C :   -0.059888
  50 C :   -0.097855
  51 C :   -0.033064
  52 N :   -0.034696
  53 C :   -0.138955
  54 S :    0.461518
  55 C :   -0.180405
  56 S :    0.479559
  57 C :   -0.138041
  58 C :   -0.091886
  59 C :   -0.020838
  60 C :    0.090149
  61 O :   -0.139816
  62 C :   -0.070915
  63 C :    0.026967
  64 C :   -0.051940
  65 C :    0.086610
  66 O :   -0.133075
  67 C :   -0.052310
  68 C :    0.032086
  69 C :   -0.008176
  70 C :   -0.003872
  71 C :   -0.029401
  72 C :    0.067836
  73 C :    0.067707
  74 C :   -0.032672
  75 F :   -0.048148
  76 F :   -0.047235
  77 C :    0.021210
  78 C :   -0.012091
  79 C :    0.084285
  80 C :   -0.131352
  81 C :   -0.018096
  82 N :   -0.054770
  83 C :   -0.018339
  84 N :   -0.047647
  85 H :    0.049024
  86 H :    0.046247
  87 H :    0.041416
  88 H :    0.042425
  89 H :    0.054868
  90 H :    0.042386
  91 H :    0.033915
  92 H :    0.031330
  93 H :    0.041095
  94 H :    0.031457
  95 H :    0.048304
  96 H :    0.039013
  97 H :    0.051889
  98 H :    0.042342
  99 H :    0.046783
 100 H :    0.048440
 101 H :    0.041075
 102 H :    0.048015
 103 H :    0.045035
 104 H :    0.040926

  Mayer bond orders larger than 0.100000
B(  0-C ,  1-C ) :   1.4423 B(  0-C ,  5-C ) :   0.1077 B(  0-C ,  7-C ) :   1.1868
B(  0-C , 85-H ) :   1.0072 B(  1-C ,  2-F ) :   1.1400 B(  1-C ,  3-C ) :   1.1876
B(  3-C ,  4-F ) :   1.1359 B(  3-C ,  5-C ) :   1.4442 B(  5-C ,  6-C ) :   1.1904
B(  5-C , 86-H ) :   1.0071 B(  6-C ,  7-C ) :   1.2516 B(  6-C , 11-C ) :   1.1934
B(  7-C ,  8-C ) :   1.2207 B(  8-C ,  9-C ) :   1.4442 B(  8-C , 87-H ) :   0.9917
B(  9-C , 10-C ) :   1.2173 B(  9-C , 15-C ) :   1.0018 B( 10-C , 11-C ) :   1.4658
B( 10-C , 12-C ) :   0.9545 B( 11-C , 88-H ) :   1.0167 B( 12-C , 13-O ) :   2.1430
B( 12-C , 14-C ) :   0.9452 B( 14-C , 15-C ) :   1.0220 B( 14-C , 21-C ) :   1.6983
B( 15-C , 16-C ) :   1.6804 B( 16-C , 17-C ) :   1.1480 B( 16-C , 19-C ) :   1.1352
B( 17-C , 18-N ) :   2.9723 B( 19-C , 20-N ) :   2.9718 B( 21-C , 22-C ) :   1.0655
B( 21-C , 89-H ) :   0.9180 B( 22-C , 23-C ) :   1.6007 B( 22-C , 29-C ) :   1.0460
B( 23-C , 24-N ) :   0.9246 B( 23-C , 27-C ) :   1.1223 B( 24-N , 25-O ) :   1.5455
B( 24-N , 26-O ) :   1.4972 B( 25-O , 26-O ) :   0.2732 B( 27-C , 28-C ) :   1.5958
B( 27-C , 90-H ) :   1.0144 B( 28-C , 29-C ) :   1.1186 B( 28-C , 91-H ) :   0.9947
B( 29-C , 30-C ) :   1.4913 B( 30-C , 31-C ) :   1.1582 B( 30-C , 37-C ) :   1.0074
B( 31-C , 32-C ) :   1.5541 B( 31-C , 92-H ) :   1.0001 B( 32-C , 33-C ) :   1.1352
B( 32-C , 93-H ) :   1.0111 B( 33-C , 34-N ) :   0.9511 B( 33-C , 37-C ) :   1.4937
B( 34-N , 35-O ) :   1.5370 B( 34-N , 36-O ) :   1.4917 B( 35-O , 36-O ) :   0.2583
B( 37-C , 38-C ) :   1.2132 B( 38-C , 39-C ) :   1.5323 B( 38-C , 94-H ) :   0.9506
B( 39-C , 40-C ) :   1.2353 B( 39-C , 95-H ) :   0.9364 B( 40-C , 41-C ) :   1.4569
B( 40-C , 46-S ) :   1.1129 B( 41-C , 42-C ) :   1.1803 B( 41-C , 44-C ) :   1.2659
B( 42-C , 43-N ) :   2.9713 B( 44-C , 45-C ) :   1.3832 B( 44-C , 49-C ) :   1.0619
B( 45-C , 46-S ) :   1.1072 B( 45-C , 47-S ) :   1.0992 B( 47-S , 48-C ) :   1.0784
B( 48-C , 49-C ) :   1.4214 B( 48-C , 54-S ) :   1.0934 B( 49-C , 50-C ) :   1.2640
B( 50-C , 51-C ) :   1.1794 B( 50-C , 53-C ) :   1.5368 B( 51-C , 52-N ) :   2.9235
B( 53-C , 54-S ) :   1.1373 B( 53-C , 55-C ) :   1.1310 B( 55-C , 56-S ) :   1.1111
B( 55-C , 57-C ) :   0.1007 B( 55-C , 59-C ) :   1.5290 B( 56-S , 57-C ) :   1.1736
B( 57-C , 58-C ) :   1.4736 B( 57-C , 63-C ) :   1.0351 B( 58-C , 59-C ) :   1.2223
B( 58-C , 60-C ) :   0.9276 B( 59-C , 96-H ) :   0.9731 B( 60-C , 61-O ) :   2.1089
B( 60-C , 62-C ) :   1.0963 B( 62-C , 97-H ) :   0.9314 B( 62-C , 98-H ) :   0.9436
B( 62-C , 99-H ) :   0.9417 B( 63-C , 64-C ) :   1.7899 B( 63-C ,100-H ) :   0.9291
B( 64-C , 65-C ) :   0.9340 B( 64-C , 79-C ) :   0.9868 B( 65-C , 66-O ) :   2.2830
B( 65-C , 67-C ) :   0.9199 B( 67-C , 68-C ) :   1.4619 B( 67-C , 78-C ) :   1.2233
B( 68-C , 69-C ) :   1.2028 B( 68-C ,101-H ) :   1.0160 B( 69-C , 70-C ) :   1.2536
B( 69-C , 74-C ) :   1.1904 B( 70-C , 71-C ) :   1.1887 B( 70-C , 77-C ) :   1.2180
B( 71-C , 72-C ) :   1.4441 B( 71-C , 74-C ) :   0.1080 B( 71-C ,102-H ) :   1.0066
B( 72-C , 73-C ) :   1.1867 B( 72-C , 76-F ) :   1.1362 B( 73-C , 74-C ) :   1.4467
B( 73-C , 75-F ) :   1.1354 B( 74-C ,103-H ) :   1.0068 B( 77-C , 78-C ) :   1.4558
B( 77-C ,104-H ) :   0.9940 B( 78-C , 79-C ) :   1.0068 B( 79-C , 80-C ) :   1.6767
B( 80-C , 81-C ) :   1.1666 B( 80-C , 83-C ) :   1.1341 B( 81-C , 82-N ) :   3.0035
B( 83-C , 84-N ) :   2.9928

-----------------------------------------------------------------------------
         ABSORPTION SPECTRUM VIA TRANSITION ELECTRIC DIPOLE MOMENTS
-----------------------------------------------------------------------------
State   Energy  Wavelength   fosc         T2         TX        TY        TZ
        (cm-1)    (nm)                  (au**2)     (au)      (au)      (au)
-----------------------------------------------------------------------------
   0   11210.7    892.0   0.156680892   4.60108  -0.12469   2.12069   0.29701
   1   17702.7    564.9   0.033986870   0.63204   0.14696   0.07557   0.77765
   2   20018.4    499.5   0.009648231   0.15867  -0.34909  -0.12023  -0.14951
   3   21549.7    464.0   0.400188398   6.11363  -1.52240  -1.61000  -1.09720
   4   21870.9    457.2   0.285724635   4.30088   1.49668   1.40620  -0.28885
   5   22294.0    448.6   0.006918841   0.10217   0.30824   0.04842   0.06938
   6   23786.8    420.4   0.172213641   2.38346   0.40667  -1.47972  -0.16884
   7   24402.7    409.8   0.053533909   0.72222   0.66124   0.43514   0.30924
   8   25040.6    399.4   0.070427000   0.92591   0.01896  -0.92483  -0.26503
   9   25607.5    390.5   0.034243750   0.44024   0.29391   0.01014   0.59477
  10   26038.0    384.1   0.233423437   2.95129   0.58651   1.54794   0.45955
  11   26564.0    376.4   0.072693609   0.90090   0.37112   0.83678  -0.25096
  12   26925.0    371.4   0.049721605   0.60795   0.55376   0.40490   0.37061
  13   27243.4    367.1   0.028932444   0.34962  -0.04597  -0.23823  -0.53922
  14   27436.3    364.5   0.018266838   0.21919   0.00019  -0.08289   0.46078
  15   27528.4    363.3   0.039758369   0.47547  -0.00344   0.17846  -0.66604
  16   27628.7    361.9   0.001123012   0.01338   0.01961   0.08158   0.07963
  17   27759.5    360.2   0.017166896   0.20359   0.07560   0.22350  -0.38461
  18   27986.1    357.3   0.009718377   0.11432  -0.24283   0.08516   0.21932
  19   29070.4    344.0   0.088038679   0.99701  -0.63319  -0.11329   0.76370
  20   29125.0    343.3   0.035071628   0.39643  -0.19084   0.07281   0.59557
  21   29374.8    340.4   0.008795429   0.09857  -0.19999  -0.21072   0.11904
  22   29567.7    338.2   0.061289710   0.68241  -0.72002  -0.31001  -0.26054
  23   29678.7    336.9   0.030741004   0.34100   0.39194   0.20956   0.37877
  24   30063.7    332.6   0.184963286   2.02544   1.12648   0.58289   0.64553
  25   30350.8    329.5   1.163762431  12.62320  -2.80439  -1.66258  -1.41224
  26   30729.9    325.4   0.189839947   2.03377   0.74433   1.13142   0.44681
  27   31515.7    317.3   0.228691774   2.38891  -0.95205  -0.89475   0.82579
  28   32082.6    311.7   0.125217724   1.28491   0.99495   0.54271   0.02100
  29   32443.4    308.2   0.199144466   2.02077   0.53689  -0.26235  -1.28984
  30   32811.9    304.8   0.000620594   0.00623   0.04547  -0.01480  -0.06277
  31   33039.9    302.7   0.019776229   0.19705  -0.17819   0.03406   0.40514
  32   33168.4    301.5   0.011237670   0.11154   0.24896  -0.02874  -0.22075
  33   33266.7    300.6   0.070246749   0.69517  -0.56921   0.08890   0.60272
  34   33482.3    298.7   0.002215952   0.02179   0.13132   0.05510   0.03884
  35   33580.0    297.8   0.137218485   1.34526  -0.40565  -0.76986  -0.76683
  36   33893.7    295.0   0.028079383   0.27274   0.47144   0.18414   0.12874
  37   34045.3    293.7   0.015520446   0.15008   0.13832  -0.35936   0.04249
  38   34091.5    293.3   0.047394136   0.45767   0.53233   0.11376   0.40169
  39   34300.5    291.5   0.659113226   6.32608   1.90842   1.19226   1.12363
  40   34471.2    290.1   0.625009581   5.96906  -0.94918   1.12298   1.95116
  41   34865.6    286.8   0.100862084   0.95237   0.22765   0.17658   0.93240
  42   35157.3    284.4   0.044891098   0.42036  -0.44560  -0.34798   0.31736
  43   35366.7    282.8   0.009378812   0.08730  -0.10397   0.07534   0.26611
  44   35604.8    280.9   0.011612812   0.10738   0.30722   0.03746   0.10764
  45   35637.9    280.6   0.007055105   0.06517  -0.22293   0.03132   0.12040
  46   35670.9    280.3   0.037850847   0.34933   0.30357   0.44319  -0.24649
  47   35822.6    279.2   0.077427384   0.71156   0.15622   0.81695   0.14056
  48   35866.6    278.8   0.023307687   0.21394   0.45514   0.05405  -0.06215
  49   36008.8    277.7   0.136319467   1.24631   0.79864  -0.74084   0.24422
  50   36426.8    274.5   0.000863191   0.00780  -0.03196   0.01123  -0.08157
  51   36500.3    274.0   0.000073009   0.00066   0.00380   0.02371  -0.00904
  52   36577.0    273.4   0.016917287   0.15226   0.22493  -0.26919  -0.17090
  53   36866.3    271.3   0.223180654   1.99298  -1.35331   0.21185   0.34155
  54   37171.3    269.0   0.138967161   1.23078  -0.83881   0.44928   0.57037
  55   37548.2    266.3   0.021786890   0.19102  -0.11626  -0.21982  -0.35942
  56   37633.1    265.7   0.020048775   0.17539   0.31075  -0.27660   0.04809
  57   37946.6    263.5   0.049587868   0.43021  -0.15730   0.02667  -0.63620
  58   38105.9    262.4   0.001580595   0.01366  -0.03667   0.01990  -0.10915
  59   38177.4    261.9   0.009034532   0.07791  -0.14628  -0.08569  -0.22173
  60   38331.2    260.9   0.034743322   0.29840  -0.05117   0.20670   0.50305
  61   38410.4    260.3   0.045237833   0.38773   0.36983   0.48748  -0.11544
  62   38706.4    258.4   0.227664511   1.93637  -0.49544  -0.99663   0.83524
  63   38847.6    257.4   0.130099076   1.10252  -0.25503  -0.87389   0.52325
  64   38859.0    257.3   0.053728849   0.45519   0.67335  -0.02499   0.03404
  65   39001.2    256.4   0.019190061   0.16198  -0.22988  -0.23063   0.23654
  66   39440.3    253.5   0.015922787   0.13291  -0.03033  -0.32751   0.15724
  67   39570.3    252.7   0.098469262   0.81923  -0.75382   0.31444   0.39002
  68   39786.1    251.3   0.061962496   0.51271   0.70724  -0.10698  -0.03274
  69   40109.8    249.3   0.027850747   0.22859  -0.07855  -0.13453  -0.45202
  70   40130.2    249.2   0.011308954   0.09277   0.06361   0.04036   0.29513

FINAL SINGLE POINT ENERGY     -5325.896908123434

DIPOLE MOMENT
-------------
                                X             Y             Z
Electronic contribution:      2.51379     -14.53849     -12.03056
Nuclear contribution   :     -0.85284      11.74835      10.50230
                        -----------------------------------------
Total Dipole Moment    :      1.66095      -2.79015      -1.52827
                        -----------------------------------------
Magnitude (a.u.)       :      3.58877
Magnitude (Debye)      :      9.12193

Rotational constants in cm-1:     0.000999     0.000218     0.000208
Rotational constants in MHz :    29.946185     6.527331     6.229624

                             ****ORCA TERMINATED NORMALLY****
TOTAL RUN TIME: 0 days 0 hours 12 minutes 43 seconds 885 msec
