                         Program Version 4.2.0 -  RELEASE  -
|  1> # ORCA input file
|  2> # SCF done       -217.636537718732          0.000826274739
|  3> ! CAM-B3LYP def2-SVP def2/J RIJCOSX Grid4 TightSCF
|  4> %maxcore 5000
|  5> %tddft
|  6>     Mode sTDDFT
|  7>     Ethresh 5.0
|  8>     maxcore 5000
|  9> end
| 10>
| 11> %pal
| 12>   nprocs 6
| 13>   end
| 14> * xyz 0 1
| 15>    C       -0.68313         2.63666        -3.34823
| 16>    C        0.55145         2.76694        -3.92033
| 17>    F        0.91678         3.92868        -4.47551
| 18>    C        1.45369         1.68396        -3.93375
| 19>    F        2.65608         1.83969        -4.50175
| 20>    C        1.10879         0.48540        -3.37413
| 21>    C       -0.15589         0.32017        -2.77707
| 22>    C       -1.06912         1.41421        -2.76292
| 23>    C       -2.34460         1.27229        -2.16937
| 24>    C       -2.69636         0.07319        -1.60803
| 25>    C       -1.77839        -1.01445        -1.62995
| 26>    C       -0.53971        -0.90782        -2.19366
| 27>    C       -2.39506        -2.18047        -0.97557
| 28>    O       -1.87708        -3.26978        -0.80389
| 29>    C       -3.75153        -1.76596        -0.59593
| 30>    C       -3.91746        -0.36361        -0.93611
| 31>    C       -4.99224         0.43743        -0.64846
| 32>    C       -5.07592         1.80159        -1.00104
| 33>    N       -5.20640         2.91167        -1.26102
| 34>    C       -6.14850         0.03657         0.05296
| 35>    N       -7.11082        -0.21729         0.62719
| 36>    C       -4.73647        -2.57289        -0.08746
| 37>    C       -4.71130        -3.92567         0.28666
| 38>    S       -3.29476        -4.93502         0.27715
| 39>    C       -4.21511        -6.28455         0.84055
| 40>    C       -5.57056        -5.97798         0.99683
| 41>    C       -5.84930        -4.63945         0.70749
| 42>    C       -7.20488        -3.99550         0.75808
| 43>    C       -8.24359        -4.82987         1.47809
| 44>    S       -8.19605        -6.46649         0.70139
| 45>    O       -9.22277        -7.31686         1.23042
| 46>    O       -8.12780        -6.30557        -0.72553
| 47>    C       -6.58233        -7.01376         1.31758
| 48>    C       -3.59873        -7.53560         1.14401
| 49>    N       -2.54265        -8.07061         0.44897
| 50>    C       -1.97578        -7.59821        -0.79326
| 51>    C       -2.96511        -7.71385        -1.94846
| 52>    C       -2.13068        -9.30892         0.99077
| 53>    O       -1.23379        -9.98092         0.52962
| 54>    C       -2.99621        -9.49566         2.12872
| 55>    C       -3.89245        -8.39977         2.19809
| 56>    C       -4.68673        -8.58052         3.39346
| 57>    O       -5.54928        -7.89442         3.91060
| 58>    N       -4.26017        -9.80823         3.93147
| 59>    C       -4.83177       -10.28548         5.16786
| 60>    C       -3.89657       -10.06287         6.35365
| 61>    C       -3.23674       -10.35931         3.19179
| 62>    C       -2.51563       -11.56855         3.35417
| 63>    C       -2.66621       -12.58502         4.23906
| 64>    C       -1.86112       -13.75423         4.20083
| 65>    S       -0.56818       -13.96209         3.05443
| 66>    C       -0.20218       -15.54716         3.65539
| 67>    C       -1.05967       -15.88043         4.71089
| 68>    C       -1.98065       -14.86732         5.01081
| 69>    C       -1.02830       -17.08702         5.43108
| 70>    N       -1.02988       -18.04847         6.05751
| 71>    C        0.82328       -16.29536         3.03034
| 72>    C        1.11483       -17.59587         3.29158
| 73>    C        2.10109       -18.31738         2.58026
| 74>    C        2.24189       -19.67192         2.55936
| 75>    C        3.51387       -20.29061         2.09628
| 76>    O        4.41234       -19.74052         1.50349
| 77>    C        3.45620       -21.68832         2.57004
| 78>    C        4.41765       -22.65512         2.50232
| 79>    C        4.14790       -23.93138         3.04470
| 80>    C        2.88526       -24.17729         3.65873
| 81>    C        2.62404       -25.45139         4.20202
| 82>    C        3.56980       -26.43566         4.13517
| 83>    C        4.81794       -26.19143         3.52711
| 84>    C        5.10250       -24.96583         2.99322
| 85>    F        5.72647       -27.17464         3.47725
| 86>    F        3.31891       -27.64675         4.64881
| 87>    C        1.90824       -23.15699         3.71306
| 88>    C        2.18570       -21.93208         3.16743
| 89>    C        1.37101       -20.72541         3.03717
| 90>    C        0.00454       -20.67993         3.12790
| 91>    C       -0.79094       -19.58835         2.71873
| 92>    N       -1.49156       -18.75890         2.34648
| 93>    C       -0.78696       -21.77960         3.52422
| 94>    N       -1.47119       -22.64462         3.83992
| 95>    H       -1.36131         3.47566        -3.34611
| 96>    H        1.81069        -0.33353        -3.39294
| 97>    H       -3.01239         2.11821        -2.17898
| 98>    H        0.13733        -1.74841        -2.19492
| 99>    H       -5.70579        -2.10986         0.02998
|100>    H       -7.54761        -3.85714        -0.27307
|101>    H       -7.14050        -3.00913         1.22662
|102>    H       -9.23956        -4.41050         1.37060
|103>    H       -8.01683        -4.98507         2.52877
|104>    H       -6.33961        -7.96565         0.84880
|105>    H       -6.69030        -7.17367         2.39274
|106>    H       -1.11223        -8.24406        -0.97821
|107>    H       -1.62617        -6.56903        -0.68276
|108>    H       -3.28279        -8.74696        -2.06982
|109>    H       -2.48928        -7.38654        -2.86805
|110>    H       -3.84503        -7.09802        -1.77615
|111>    H       -5.10388       -11.33858         5.06252
|112>    H       -5.74776        -9.70537         5.31464
|113>    H       -2.94134       -10.56052         6.20196
|114>    H       -4.35432       -10.44806         7.26059
|115>    H       -3.71366        -8.99913         6.48340
|116>    H       -1.74018       -11.67294         2.60240
|117>    H       -3.42102       -12.57497         5.01033
|118>    H       -2.71608       -14.95475         5.79137
|119>    H        1.35592       -15.78825         2.23548
|120>    H        0.57248       -18.11592         4.06660
|121>    H        2.85177       -17.75404         2.03614
|122>    H        5.37062       -22.44959         2.03896
|123>    H        1.67277       -25.65590         4.66805
|124>    H        6.06234       -24.79479         2.53150
|125>    H        0.96563       -23.36754         4.19240
|126> *
|127>
|128>                          ****END OF INPUT****

CARTESIAN COORDINATES (ANGSTROEM)
---------------------------------
  C     -0.683130    2.636660   -3.348230
  C      0.551450    2.766940   -3.920330
  F      0.916780    3.928680   -4.475510
  C      1.453690    1.683960   -3.933750
  F      2.656080    1.839690   -4.501750
  C      1.108790    0.485400   -3.374130
  C     -0.155890    0.320170   -2.777070
  C     -1.069120    1.414210   -2.762920
  C     -2.344600    1.272290   -2.169370
  C     -2.696360    0.073190   -1.608030
  C     -1.778390   -1.014450   -1.629950
  C     -0.539710   -0.907820   -2.193660
  C     -2.395060   -2.180470   -0.975570
  O     -1.877080   -3.269780   -0.803890
  C     -3.751530   -1.765960   -0.595930
  C     -3.917460   -0.363610   -0.936110
  C     -4.992240    0.437430   -0.648460
  C     -5.075920    1.801590   -1.001040
  N     -5.206400    2.911670   -1.261020
  C     -6.148500    0.036570    0.052960
  N     -7.110820   -0.217290    0.627190
  C     -4.736470   -2.572890   -0.087460
  C     -4.711300   -3.925670    0.286660
  S     -3.294760   -4.935020    0.277150
  C     -4.215110   -6.284550    0.840550
  C     -5.570560   -5.977980    0.996830
  C     -5.849300   -4.639450    0.707490
  C     -7.204880   -3.995500    0.758080
  C     -8.243590   -4.829870    1.478090
  S     -8.196050   -6.466490    0.701390
  O     -9.222770   -7.316860    1.230420
  O     -8.127800   -6.305570   -0.725530
  C     -6.582330   -7.013760    1.317580
  C     -3.598730   -7.535600    1.144010
  N     -2.542650   -8.070610    0.448970
  C     -1.975780   -7.598210   -0.793260
  C     -2.965110   -7.713850   -1.948460
  C     -2.130680   -9.308920    0.990770
  O     -1.233790   -9.980920    0.529620
  C     -2.996210   -9.495660    2.128720
  C     -3.892450   -8.399770    2.198090
  C     -4.686730   -8.580520    3.393460
  O     -5.549280   -7.894420    3.910600
  N     -4.260170   -9.808230    3.931470
  C     -4.831770  -10.285480    5.167860
  C     -3.896570  -10.062870    6.353650
  C     -3.236740  -10.359310    3.191790
  C     -2.515630  -11.568550    3.354170
  C     -2.666210  -12.585020    4.239060
  C     -1.861120  -13.754230    4.200830
  S     -0.568180  -13.962090    3.054430
  C     -0.202180  -15.547160    3.655390
  C     -1.059670  -15.880430    4.710890
  C     -1.980650  -14.867320    5.010810
  C     -1.028300  -17.087020    5.431080
  N     -1.029880  -18.048470    6.057510
  C      0.823280  -16.295360    3.030340
  C      1.114830  -17.595870    3.291580
  C      2.101090  -18.317380    2.580260
  C      2.241890  -19.671920    2.559360
  C      3.513870  -20.290610    2.096280
  O      4.412340  -19.740520    1.503490
  C      3.456200  -21.688320    2.570040
  C      4.417650  -22.655120    2.502320
  C      4.147900  -23.931380    3.044700
  C      2.885260  -24.177290    3.658730
  C      2.624040  -25.451390    4.202020
  C      3.569800  -26.435660    4.135170
  C      4.817940  -26.191430    3.527110
  C      5.102500  -24.965830    2.993220
  F      5.726470  -27.174640    3.477250
  F      3.318910  -27.646750    4.648810
  C      1.908240  -23.156990    3.713060
  C      2.185700  -21.932080    3.167430
  C      1.371010  -20.725410    3.037170
  C      0.004540  -20.679930    3.127900
  C     -0.790940  -19.588350    2.718730
  N     -1.491560  -18.758900    2.346480
  C     -0.786960  -21.779600    3.524220
  N     -1.471190  -22.644620    3.839920
  H     -1.361310    3.475660   -3.346110
  H      1.810690   -0.333530   -3.392940
  H     -3.012390    2.118210   -2.178980
  H      0.137330   -1.748410   -2.194920
  H     -5.705790   -2.109860    0.029980
  H     -7.547610   -3.857140   -0.273070
  H     -7.140500   -3.009130    1.226620
  H     -9.239560   -4.410500    1.370600
  H     -8.016830   -4.985070    2.528770
  H     -6.339610   -7.965650    0.848800
  H     -6.690300   -7.173670    2.392740
  H     -1.112230   -8.244060   -0.978210
  H     -1.626170   -6.569030   -0.682760
  H     -3.282790   -8.746960   -2.069820
  H     -2.489280   -7.386540   -2.868050
  H     -3.845030   -7.098020   -1.776150
  H     -5.103880  -11.338580    5.062520
  H     -5.747760   -9.705370    5.314640
  H     -2.941340  -10.560520    6.201960
  H     -4.354320  -10.448060    7.260590
  H     -3.713660   -8.999130    6.483400
  H     -1.740180  -11.672940    2.602400
  H     -3.421020  -12.574970    5.010330
  H     -2.716080  -14.954750    5.791370
  H      1.355920  -15.788250    2.235480
  H      0.572480  -18.115920    4.066600
  H      2.851770  -17.754040    2.036140
  H      5.370620  -22.449590    2.038960
  H      1.672770  -25.655900    4.668050
  H      6.062340  -24.794790    2.531500
  H      0.965630  -23.367540    4.192400

 Total Charge           Charge          ....    0
 Multiplicity           Mult            ....    1
 Number of Electrons    NEL             ....  572
 Basis Dimension        Dim             .... 1287

ORBITAL ENERGIES
----------------

  NO   OCC          E(Eh)            E(eV)
   0   2.0000     -89.132164     -2425.4095
   1   2.0000     -88.990523     -2421.5553
   2   2.0000     -88.982786     -2421.3447
   3   2.0000     -24.805460      -674.9909
   4   2.0000     -24.804280      -674.9588
   5   2.0000     -24.799927      -674.8403
   6   2.0000     -24.799218      -674.8210
   7   2.0000     -19.235573      -523.4265
   8   2.0000     -19.221219      -523.0360
   9   2.0000     -19.209590      -522.7195
  10   2.0000     -19.204179      -522.5723
  11   2.0000     -19.188719      -522.1516
  12   2.0000     -19.185898      -522.0748
  13   2.0000     -14.470821      -393.7711
  14   2.0000     -14.468501      -393.7079
  15   2.0000     -14.431112      -392.6905
  16   2.0000     -14.424690      -392.5158
  17   2.0000     -14.421757      -392.4360
  18   2.0000     -14.419865      -392.3845
  19   2.0000     -14.419301      -392.3691
  20   2.0000     -10.393155      -282.8121
  21   2.0000     -10.389169      -282.7037
  22   2.0000     -10.388414      -282.6831
  23   2.0000     -10.387284      -282.6524
  24   2.0000     -10.383825      -282.5582
  25   2.0000     -10.383433      -282.5476
  26   2.0000     -10.382866      -282.5322
  27   2.0000     -10.372065      -282.2382
  28   2.0000     -10.364098      -282.0214
  29   2.0000     -10.355982      -281.8006
  30   2.0000     -10.354074      -281.7487
  31   2.0000     -10.353466      -281.7321
  32   2.0000     -10.351197      -281.6704
  33   2.0000     -10.346942      -281.5546
  34   2.0000     -10.345533      -281.5163
  35   2.0000     -10.336807      -281.2788
  36   2.0000     -10.336347      -281.2663
  37   2.0000     -10.334046      -281.2037
  38   2.0000     -10.333675      -281.1936
  39   2.0000     -10.331488      -281.1341
  40   2.0000     -10.330141      -281.0974
  41   2.0000     -10.327557      -281.0271
  42   2.0000     -10.322304      -280.8842
  43   2.0000     -10.322168      -280.8805
  44   2.0000     -10.321761      -280.8694
  45   2.0000     -10.321727      -280.8685
  46   2.0000     -10.321433      -280.8605
  47   2.0000     -10.321347      -280.8581
  48   2.0000     -10.321298      -280.8568
  49   2.0000     -10.319106      -280.7971
  50   2.0000     -10.318771      -280.7880
  51   2.0000     -10.318347      -280.7765
  52   2.0000     -10.316874      -280.7364
  53   2.0000     -10.315066      -280.6872
  54   2.0000     -10.314908      -280.6829
  55   2.0000     -10.313129      -280.6345
  56   2.0000     -10.312834      -280.6265
  57   2.0000     -10.312819      -280.6261
  58   2.0000     -10.312582      -280.6196
  59   2.0000     -10.312576      -280.6195
  60   2.0000     -10.311593      -280.5927
  61   2.0000     -10.311350      -280.5861
  62   2.0000     -10.311337      -280.5857
  63   2.0000     -10.308945      -280.5207
  64   2.0000     -10.308025      -280.4956
  65   2.0000     -10.307884      -280.4918
  66   2.0000     -10.306081      -280.4427
  67   2.0000     -10.305787      -280.4347
  68   2.0000     -10.305718      -280.4328
  69   2.0000     -10.304917      -280.4110
  70   2.0000     -10.303503      -280.3726
  71   2.0000     -10.303192      -280.3641
  72   2.0000     -10.302206      -280.3373
  73   2.0000     -10.302076      -280.3337
  74   2.0000     -10.301126      -280.3079
  75   2.0000     -10.297185      -280.2007
  76   2.0000     -10.283366      -279.8246
  77   2.0000     -10.277555      -279.6665
  78   2.0000     -10.276048      -279.6255
  79   2.0000     -10.267359      -279.3890
  80   2.0000      -8.198709      -223.0982
  81   2.0000      -8.085908      -220.0287
  82   2.0000      -8.075862      -219.7554
  83   2.0000      -6.167627      -167.8297
  84   2.0000      -6.167133      -167.8162
  85   2.0000      -6.166855      -167.8087
  86   2.0000      -6.054971      -164.7641
  87   2.0000      -6.050995      -164.6559
  88   2.0000      -6.048267      -164.5817
  89   2.0000      -6.045305      -164.5011
  90   2.0000      -6.040638      -164.3741
  91   2.0000      -6.038138      -164.3061
  92   2.0000      -1.328118       -36.1399
  93   2.0000      -1.322576       -35.9891
  94   2.0000      -1.313205       -35.7341
  95   2.0000      -1.307689       -35.5840
  96   2.0000      -1.195029       -32.5184
  97   2.0000      -1.150903       -31.3177
  98   2.0000      -1.150235       -31.2995
  99   2.0000      -1.142227       -31.0816
 100   2.0000      -1.136307       -30.9205
 101   2.0000      -1.080095       -29.3909
 102   2.0000      -1.074048       -29.2263
 103   2.0000      -1.071507       -29.1572
 104   2.0000      -1.031952       -28.0808
 105   2.0000      -1.028699       -27.9923
 106   2.0000      -1.023831       -27.8599
 107   2.0000      -1.017036       -27.6749
 108   2.0000      -1.015289       -27.6274
 109   2.0000      -1.007256       -27.4088
 110   2.0000      -1.005895       -27.3718
 111   2.0000      -1.001261       -27.2457
 112   2.0000      -0.997966       -27.1560
 113   2.0000      -0.991504       -26.9802
 114   2.0000      -0.985159       -26.8075
 115   2.0000      -0.948242       -25.8030
 116   2.0000      -0.945387       -25.7253
 117   2.0000      -0.943044       -25.6615
 118   2.0000      -0.935143       -25.4465
 119   2.0000      -0.933500       -25.4018
 120   2.0000      -0.925629       -25.1877
 121   2.0000      -0.922467       -25.1016
 122   2.0000      -0.906333       -24.6626
 123   2.0000      -0.902213       -24.5505
 124   2.0000      -0.900187       -24.4953
 125   2.0000      -0.894819       -24.3493
 126   2.0000      -0.888452       -24.1760
 127   2.0000      -0.881962       -23.9994
 128   2.0000      -0.875555       -23.8251
 129   2.0000      -0.874462       -23.7953
 130   2.0000      -0.861237       -23.4355
 131   2.0000      -0.849754       -23.1230
 132   2.0000      -0.847426       -23.0596
 133   2.0000      -0.843265       -22.9464
 134   2.0000      -0.835576       -22.7372
 135   2.0000      -0.831968       -22.6390
 136   2.0000      -0.823650       -22.4127
 137   2.0000      -0.811960       -22.0945
 138   2.0000      -0.792111       -21.5544
 139   2.0000      -0.779415       -21.2090
 140   2.0000      -0.775197       -21.0942
 141   2.0000      -0.772341       -21.0165
 142   2.0000      -0.770956       -20.9788
 143   2.0000      -0.753305       -20.4985
 144   2.0000      -0.751130       -20.4393
 145   2.0000      -0.743205       -20.2236
 146   2.0000      -0.732222       -19.9248
 147   2.0000      -0.727877       -19.8065
 148   2.0000      -0.727236       -19.7891
 149   2.0000      -0.721212       -19.6252
 150   2.0000      -0.720874       -19.6160
 151   2.0000      -0.713891       -19.4260
 152   2.0000      -0.707664       -19.2565
 153   2.0000      -0.700241       -19.0545
 154   2.0000      -0.698750       -19.0140
 155   2.0000      -0.691366       -18.8130
 156   2.0000      -0.685310       -18.6482
 157   2.0000      -0.683309       -18.5938
 158   2.0000      -0.676511       -18.4088
 159   2.0000      -0.666567       -18.1382
 160   2.0000      -0.662795       -18.0356
 161   2.0000      -0.661763       -18.0075
 162   2.0000      -0.656289       -17.8585
 163   2.0000      -0.651682       -17.7332
 164   2.0000      -0.645827       -17.5739
 165   2.0000      -0.644267       -17.5314
 166   2.0000      -0.640540       -17.4300
 167   2.0000      -0.633846       -17.2478
 168   2.0000      -0.629856       -17.1392
 169   2.0000      -0.623494       -16.9661
 170   2.0000      -0.619671       -16.8621
 171   2.0000      -0.617508       -16.8033
 172   2.0000      -0.609258       -16.5787
 173   2.0000      -0.603145       -16.4124
 174   2.0000      -0.600389       -16.3374
 175   2.0000      -0.595166       -16.1953
 176   2.0000      -0.592600       -16.1255
 177   2.0000      -0.590315       -16.0633
 178   2.0000      -0.587688       -15.9918
 179   2.0000      -0.587099       -15.9758
 180   2.0000      -0.585478       -15.9317
 181   2.0000      -0.584405       -15.9025
 182   2.0000      -0.581146       -15.8138
 183   2.0000      -0.576663       -15.6918
 184   2.0000      -0.575619       -15.6634
 185   2.0000      -0.565912       -15.3992
 186   2.0000      -0.562192       -15.2980
 187   2.0000      -0.560047       -15.2396
 188   2.0000      -0.557825       -15.1792
 189   2.0000      -0.557287       -15.1645
 190   2.0000      -0.554024       -15.0757
 191   2.0000      -0.553670       -15.0661
 192   2.0000      -0.552665       -15.0388
 193   2.0000      -0.550443       -14.9783
 194   2.0000      -0.548644       -14.9294
 195   2.0000      -0.546262       -14.8645
 196   2.0000      -0.545550       -14.8452
 197   2.0000      -0.542209       -14.7542
 198   2.0000      -0.540691       -14.7129
 199   2.0000      -0.539953       -14.6929
 200   2.0000      -0.539391       -14.6776
 201   2.0000      -0.538241       -14.6463
 202   2.0000      -0.534935       -14.5563
 203   2.0000      -0.531627       -14.4663
 204   2.0000      -0.529050       -14.3962
 205   2.0000      -0.528109       -14.3706
 206   2.0000      -0.526001       -14.3132
 207   2.0000      -0.525315       -14.2945
 208   2.0000      -0.522164       -14.2088
 209   2.0000      -0.520158       -14.1542
 210   2.0000      -0.518445       -14.1076
 211   2.0000      -0.515420       -14.0253
 212   2.0000      -0.512713       -13.9516
 213   2.0000      -0.512508       -13.9461
 214   2.0000      -0.509855       -13.8739
 215   2.0000      -0.507302       -13.8044
 216   2.0000      -0.504960       -13.7407
 217   2.0000      -0.503919       -13.7123
 218   2.0000      -0.502424       -13.6717
 219   2.0000      -0.499530       -13.5929
 220   2.0000      -0.498661       -13.5693
 221   2.0000      -0.488693       -13.2980
 222   2.0000      -0.488358       -13.2889
 223   2.0000      -0.485841       -13.2204
 224   2.0000      -0.483566       -13.1585
 225   2.0000      -0.482547       -13.1308
 226   2.0000      -0.481310       -13.0971
 227   2.0000      -0.480952       -13.0874
 228   2.0000      -0.477378       -12.9901
 229   2.0000      -0.473539       -12.8856
 230   2.0000      -0.471735       -12.8366
 231   2.0000      -0.468930       -12.7602
 232   2.0000      -0.468592       -12.7510
 233   2.0000      -0.466729       -12.7004
 234   2.0000      -0.464893       -12.6504
 235   2.0000      -0.463278       -12.6064
 236   2.0000      -0.461538       -12.5591
 237   2.0000      -0.459422       -12.5015
 238   2.0000      -0.456879       -12.4323
 239   2.0000      -0.456263       -12.4156
 240   2.0000      -0.455701       -12.4003
 241   2.0000      -0.453469       -12.3395
 242   2.0000      -0.452637       -12.3169
 243   2.0000      -0.451064       -12.2741
 244   2.0000      -0.447681       -12.1820
 245   2.0000      -0.447187       -12.1686
 246   2.0000      -0.445397       -12.1199
 247   2.0000      -0.444330       -12.0908
 248   2.0000      -0.442775       -12.0485
 249   2.0000      -0.441937       -12.0257
 250   2.0000      -0.439339       -11.9550
 251   2.0000      -0.436940       -11.8897
 252   2.0000      -0.434353       -11.8194
 253   2.0000      -0.431020       -11.7287
 254   2.0000      -0.429011       -11.6740
 255   2.0000      -0.428431       -11.6582
 256   2.0000      -0.423877       -11.5343
 257   2.0000      -0.420859       -11.4522
 258   2.0000      -0.417476       -11.3601
 259   2.0000      -0.415164       -11.2972
 260   2.0000      -0.411512       -11.1978
 261   2.0000      -0.407667       -11.0932
 262   2.0000      -0.402113       -10.9420
 263   2.0000      -0.397483       -10.8161
 264   2.0000      -0.395500       -10.7621
 265   2.0000      -0.389102       -10.5880
 266   2.0000      -0.385737       -10.4964
 267   2.0000      -0.373061       -10.1515
 268   2.0000      -0.369015       -10.0414
 269   2.0000      -0.365464        -9.9448
 270   2.0000      -0.362552        -9.8655
 271   2.0000      -0.352647        -9.5960
 272   2.0000      -0.351687        -9.5699
 273   2.0000      -0.348710        -9.4889
 274   2.0000      -0.347694        -9.4612
 275   2.0000      -0.345615        -9.4047
 276   2.0000      -0.337450        -9.1825
 277   2.0000      -0.333411        -9.0726
 278   2.0000      -0.329130        -8.9561
 279   2.0000      -0.325478        -8.8567
 280   2.0000      -0.320076        -8.7097
 281   2.0000      -0.314480        -8.5574
 282   2.0000      -0.305113        -8.3026
 283   2.0000      -0.301733        -8.2106
 284   2.0000      -0.290892        -7.9156
 285   2.0000      -0.253503        -6.8982
 286   0.0000      -0.122343        -3.3291
 287   0.0000      -0.107670        -2.9299
 288   0.0000      -0.082614        -2.2481
 289   0.0000      -0.071561        -1.9473
 290   0.0000      -0.063503        -1.7280

MULLIKEN ATOMIC CHARGES
-----------------------
   0 C :   -0.111312
   1 C :    0.243731
   2 F :   -0.168101
   3 C :    0.241114
   4 F :   -0.168795
   5 C :   -0.108767
   6 C :    0.121571
   7 C :    0.118543
   8 C :   -0.089586
   9 C :    0.050691
  10 C :    0.000701
  11 C :   -0.086767
  12 C :    0.165203
  13 O :   -0.176513
  14 C :   -0.084005
  15 C :    0.323817
  16 C :   -0.354944
  17 C :   -0.180826
  18 N :    0.152824
  19 C :   -0.180100
  20 N :    0.145623
  21 C :   -0.046292
  22 C :   -0.072514
  23 S :    0.205663
  24 C :   -0.177503
  25 C :   -0.023615
  26 C :   -0.090969
  27 C :    0.099001
  28 C :   -0.035315
  29 S :    0.679635
  30 O :   -0.447667
  31 O :   -0.460424
  32 C :    0.056659
  33 C :    0.100882
  34 N :   -0.261094
  35 C :    0.079777
  36 C :    0.002403
  37 C :    0.157499
  38 O :   -0.187578
  39 C :   -0.061523
  40 C :   -0.030046
  41 C :    0.147972
  42 O :   -0.214790
  43 N :   -0.262035
  44 C :    0.099568
  45 C :   -0.001798
  46 C :    0.135039
  47 C :   -0.054829
  48 C :    0.046592
  49 C :   -0.046843
  50 S :    0.168766
  51 C :   -0.050862
  52 C :   -0.036553
  53 C :    0.012525
  54 C :   -0.169868
  55 N :    0.120993
  56 C :    0.055050
  57 C :   -0.001325
  58 C :    0.027652
  59 C :   -0.108085
  60 C :    0.144075
  61 O :   -0.135724
  62 C :    0.005406
  63 C :   -0.079555
  64 C :    0.111963
  65 C :    0.110648
  66 C :   -0.104041
  67 C :    0.241821
  68 C :    0.238721
  69 C :   -0.101463
  70 F :   -0.171619
  71 F :   -0.170091
  72 C :   -0.078696
  73 C :    0.040848
  74 C :    0.277953
  75 C :   -0.310166
  76 C :   -0.206324
  77 N :    0.161400
  78 C :   -0.175112
  79 N :    0.154606
  80 H :    0.010503
  81 H :    0.001631
  82 H :   -0.003552
  83 H :   -0.008930
  84 H :    0.002916
  85 H :    0.061953
  86 H :    0.061166
  87 H :    0.070887
  88 H :    0.062751
  89 H :    0.066878
  90 H :    0.097819
  91 H :    0.047229
  92 H :    0.047887
  93 H :    0.025754
  94 H :    0.026512
  95 H :    0.030886
  96 H :    0.027422
  97 H :    0.048141
  98 H :    0.020629
  99 H :    0.026473
 100 H :    0.031006
 101 H :    0.020243
 102 H :   -0.005459
 103 H :    0.003678
 104 H :    0.004334
 105 H :    0.041434
 106 H :    0.020602
 107 H :   -0.008730
 108 H :    0.007626
 109 H :   -0.000964
 110 H :   -0.001630
Sum of atomic charges:   -0.0000000

LOEWDIN ATOMIC CHARGES
----------------------
   0 C :   -0.028367
   1 C :    0.068108
   2 F :   -0.046314
   3 C :    0.069011
   4 F :   -0.047050
   5 C :   -0.032747
   6 C :   -0.008233
   7 C :   -0.005717
   8 C :    0.020038
   9 C :   -0.023130
  10 C :   -0.052805
  11 C :    0.031523
  12 C :    0.085086
  13 O :   -0.166583
  14 C :   -0.101187
  15 C :    0.077874
  16 C :   -0.140346
  17 C :   -0.017965
  18 N :   -0.049230
  19 C :   -0.017512
  20 N :   -0.054173
  21 C :    0.058575
  22 C :   -0.184056
  23 S :    0.543618
  24 C :   -0.177042
  25 C :   -0.059245
  26 C :   -0.016877
  27 C :   -0.045790
  28 C :   -0.135249
  29 S :    1.164002
  30 O :   -0.511605
  31 O :   -0.519079
  32 C :   -0.147438
  33 C :    0.060465
  34 N :   -0.000133
  35 C :    0.026966
  36 C :   -0.061105
  37 C :    0.080032
  38 O :   -0.188255
  39 C :   -0.112004
  40 C :   -0.119336
  41 C :    0.088659
  42 O :   -0.194574
  43 N :   -0.000514
  44 C :    0.035972
  45 C :   -0.062465
  46 C :    0.074160
  47 C :   -0.035008
  48 C :   -0.015161
  49 C :   -0.161385
  50 S :    0.489668
  51 C :   -0.135465
  52 C :   -0.089992
  53 C :   -0.012734
  54 C :   -0.023405
  55 N :   -0.049956
  56 C :   -0.002291
  57 C :   -0.008306
  58 C :    0.064292
  59 C :   -0.079242
  60 C :    0.082046
  61 O :   -0.138311
  62 C :   -0.054804
  63 C :    0.031459
  64 C :   -0.009102
  65 C :   -0.005168
  66 C :   -0.029152
  67 C :    0.067620
  68 C :    0.067822
  69 C :   -0.032586
  70 F :   -0.048829
  71 F :   -0.047994
  72 C :    0.016541
  73 C :   -0.020005
  74 C :    0.067987
  75 C :   -0.124662
  76 C :   -0.018813
  77 N :   -0.047802
  78 C :   -0.015720
  79 N :   -0.043983
  80 H :    0.048668
  81 H :    0.045351
  82 H :    0.040787
  83 H :    0.040591
  84 H :    0.048346
  85 H :    0.050938
  86 H :    0.046246
  87 H :    0.046300
  88 H :    0.037377
  89 H :    0.047113
  90 H :    0.043305
  91 H :    0.038388
  92 H :    0.015885
  93 H :    0.030377
  94 H :    0.033613
  95 H :    0.022830
  96 H :    0.021986
  97 H :    0.039781
  98 H :    0.021794
  99 H :    0.032533
 100 H :    0.033761
 101 H :    0.039514
 102 H :    0.037462
 103 H :    0.042857
 104 H :    0.037898
 105 H :    0.039510
 106 H :    0.046735
 107 H :    0.040928
 108 H :    0.048036
 109 H :    0.044917
 110 H :    0.040653

  Mayer bond orders larger than 0.100000
B(  0-C ,  1-C ) :   1.4402 B(  0-C ,  5-C ) :   0.1081 B(  0-C ,  7-C ) :   1.1891
B(  0-C , 80-H ) :   1.0067 B(  1-C ,  2-F ) :   1.1378 B(  1-C ,  3-C ) :   1.1907
B(  3-C ,  4-F ) :   1.1368 B(  3-C ,  5-C ) :   1.4423 B(  5-C ,  6-C ) :   1.1927
B(  5-C , 81-H ) :   1.0070 B(  6-C ,  7-C ) :   1.2555 B(  6-C , 11-C ) :   1.1868
B(  7-C ,  8-C ) :   1.2147 B(  8-C ,  9-C ) :   1.4516 B(  8-C , 82-H ) :   0.9900
B(  9-C , 10-C ) :   1.2210 B(  9-C , 15-C ) :   0.9845 B( 10-C , 11-C ) :   1.4674
B( 10-C , 12-C ) :   0.9588 B( 11-C , 83-H ) :   1.0173 B( 12-C , 13-O ) :   2.1358
B( 12-C , 14-C ) :   0.9684 B( 14-C , 15-C ) :   1.0754 B( 14-C , 21-C ) :   1.5260
B( 15-C , 16-C ) :   1.6257 B( 16-C , 17-C ) :   1.1485 B( 16-C , 19-C ) :   1.1500
B( 17-C , 18-N ) :   2.9621 B( 19-C , 20-N ) :   2.9574 B( 21-C , 22-C ) :   1.2529
B( 21-C , 84-H ) :   0.9269 B( 22-C , 23-S ) :   1.0966 B( 22-C , 24-C ) :   0.1095
B( 22-C , 26-C ) :   1.3977 B( 23-S , 24-C ) :   1.1333 B( 24-C , 25-C ) :   1.4596
B( 24-C , 33-C ) :   1.0688 B( 25-C , 26-C ) :   1.3756 B( 25-C , 32-C ) :   1.0161
B( 26-C , 27-C ) :   1.0601 B( 27-C , 28-C ) :   1.0314 B( 27-C , 85-H ) :   0.8983
B( 27-C , 86-H ) :   0.8941 B( 28-C , 29-S ) :   0.8644 B( 28-C , 87-H ) :   0.9269
B( 28-C , 88-H ) :   0.9386 B( 29-S , 30-O ) :   1.7532 B( 29-S , 31-O ) :   1.6916
B( 29-S , 32-C ) :   0.8502 B( 32-C , 89-H ) :   0.8976 B( 32-C , 90-H ) :   0.8662
B( 33-C , 34-N ) :   1.2176 B( 33-C , 40-C ) :   1.3897 B( 34-N , 35-C ) :   0.9364
B( 34-N , 37-C ) :   1.0246 B( 35-C , 36-C ) :   1.1152 B( 35-C , 91-H ) :   0.9231
B( 35-C , 92-H ) :   0.9453 B( 36-C , 93-H ) :   0.9641 B( 36-C , 94-H ) :   0.9669
B( 36-C , 95-H ) :   0.9674 B( 37-C , 38-O ) :   2.1234 B( 37-C , 39-C ) :   0.9866
B( 39-C , 40-C ) :   1.2144 B( 39-C , 46-C ) :   1.3648 B( 40-C , 41-C ) :   0.9789
B( 41-C , 42-O ) :   2.0251 B( 41-C , 43-N ) :   1.0598 B( 43-N , 44-C ) :   0.9409
B( 43-N , 46-C ) :   1.1573 B( 44-C , 45-C ) :   1.1164 B( 44-C , 96-H ) :   0.9509
B( 44-C , 97-H ) :   0.9240 B( 45-C , 98-H ) :   0.9685 B( 45-C , 99-H ) :   0.9686
B( 45-C ,100-H ) :   0.9619 B( 46-C , 47-C ) :   1.1977 B( 47-C , 48-C ) :   1.5645
B( 47-C ,101-H ) :   0.9390 B( 48-C , 49-C ) :   1.1616 B( 48-C ,102-H ) :   0.9810
B( 49-C , 50-S ) :   1.1217 B( 49-C , 53-C ) :   1.4343 B( 50-S , 51-C ) :   1.1394
B( 51-C , 52-C ) :   1.4331 B( 51-C , 56-C ) :   1.1473 B( 52-C , 53-C ) :   1.3033
B( 52-C , 54-C ) :   1.1148 B( 53-C ,103-H ) :   1.0088 B( 54-C , 55-N ) :   2.9579
B( 56-C , 57-C ) :   1.6645 B( 56-C ,104-H ) :   0.9567 B( 57-C , 58-C ) :   1.1275
B( 57-C ,105-H ) :   0.9409 B( 58-C , 59-C ) :   1.6266 B( 58-C ,106-H ) :   0.9615
B( 59-C , 60-C ) :   0.9339 B( 59-C , 74-C ) :   1.0364 B( 60-C , 61-O ) :   2.2802
B( 60-C , 62-C ) :   0.9200 B( 62-C , 63-C ) :   1.4745 B( 62-C , 73-C ) :   1.2205
B( 63-C , 64-C ) :   1.1952 B( 63-C ,107-H ) :   1.0152 B( 64-C , 65-C ) :   1.2575
B( 64-C , 69-C ) :   1.1936 B( 65-C , 66-C ) :   1.1892 B( 65-C , 72-C ) :   1.2164
B( 66-C , 67-C ) :   1.4423 B( 66-C , 69-C ) :   0.1085 B( 66-C ,108-H ) :   1.0062
B( 67-C , 68-C ) :   1.1913 B( 67-C , 71-F ) :   1.1356 B( 68-C , 69-C ) :   1.4435
B( 68-C , 70-F ) :   1.1332 B( 69-C ,109-H ) :   1.0063 B( 72-C , 73-C ) :   1.4556
B( 72-C ,110-H ) :   0.9921 B( 73-C , 74-C ) :   0.9978 B( 74-C , 75-C ) :   1.6532
B( 75-C , 76-C ) :   1.1571 B( 75-C , 78-C ) :   1.1361 B( 76-C , 77-N ) :   2.9917
B( 78-C , 79-N ) :   2.9811

-----------------------------------------------------------------------------
         ABSORPTION SPECTRUM VIA TRANSITION ELECTRIC DIPOLE MOMENTS
-----------------------------------------------------------------------------
State   Energy  Wavelength   fosc         T2         TX        TY        TZ
        (cm-1)    (nm)                  (au**2)     (au)      (au)      (au)
-----------------------------------------------------------------------------
   0   14310.6    698.8   1.625530855  37.39507  -0.91498   5.72640  -1.94066
   1   18743.8    533.5   0.170931965   3.00222   1.16420  -0.90214  -0.91269
   2   22803.5    438.5   0.244466798   3.52934   0.70355  -1.41205  -1.02003
   3   24028.6    416.2   0.174019574   2.38421   0.32136  -1.28258   0.79746
   4   24179.5    413.6   0.409718636   5.57846  -0.02920   2.35761  -0.13882
   5   25520.1    391.8   0.158031608   2.03862  -0.79125   1.15849  -0.26540
   6   26232.7    381.2   0.095544158   1.19905  -0.24940   1.00913  -0.34425
   7   26362.0    379.3   0.005272151   0.06584  -0.23093   0.01728   0.11051
   8   27203.7    367.6   0.019631377   0.23757  -0.44907   0.03277   0.18664
   9   27335.2    365.8   0.014210524   0.17114   0.40314  -0.00329  -0.09280
  10   27373.3    365.3   0.225552707   2.71266  -1.10936  -1.03382   0.64280
  11   28091.0    356.0   0.077001065   0.90241   0.80458  -0.44684  -0.23537
  12   28433.9    351.7   0.035349572   0.40928  -0.36635  -0.26668   0.45161
  13   28617.0    349.4   0.037392464   0.43017  -0.57196   0.31535  -0.05980
  14   28837.3    346.8   0.011319763   0.12923   0.29978   0.16556  -0.10932
  15   29534.1    338.6   0.247325585   2.75690  -1.03160   1.21210   0.47279
  16   29878.7    334.7   0.041938121   0.46209   0.58590  -0.34325  -0.03143
  17   31078.0    321.8   0.000965141   0.01022   0.09558   0.02707  -0.01888
  18   32012.2    312.4   0.052771553   0.54270   0.67696   0.24388  -0.15796
  19   32313.1    309.5   0.212851104   2.16857   1.16566   0.46802  -0.76861
  20   32791.8    305.0   0.296483085   2.97653   1.57322  -0.02644  -0.70767
  21   33140.0    301.8   0.341863699   3.39607   0.88971  -1.58548   0.30124
  22   33240.2    300.8   0.328368731   3.25218  -1.74159   0.17322   0.43477
  23   33500.4    298.5   0.147575146   1.45023  -0.18888  -1.04507   0.56780
  24   33719.7    296.6   0.207524894   2.02610  -1.16578   0.80463   0.14014
  25   34009.5    294.0   0.040645904   0.39345   0.45302   0.33321  -0.27785
  26   34339.2    291.2   0.009996145   0.09583  -0.23144   0.19859  -0.05320
  27   34425.1    290.5   0.011299823   0.10806   0.01317  -0.30185   0.12953
  28   34544.2    289.5   0.019646475   0.18723   0.01289   0.41268  -0.12947
  29   34762.6    287.7   0.019430344   0.18401   0.01324   0.35397  -0.24196
  30   34999.2    285.7   0.048829783   0.45931  -0.25006  -0.56966   0.26881
  31   35397.9    282.5   0.040622755   0.37781   0.26492  -0.24408  -0.49805
  32   35876.6    278.7   0.003238933   0.02972  -0.03191   0.13886   0.09706
  33   35996.4    277.8   0.160732441   1.47001   1.10377  -0.03984  -0.50012
  34   36157.7    276.6   0.010305267   0.09383   0.23964  -0.17952  -0.06462
  35   36607.9    273.2   0.006776114   0.06094   0.19634   0.05526  -0.13905
  36   36979.8    270.4   0.089158481   0.79373   0.71579  -0.49635   0.18712
  37   37035.5    270.0   0.007644216   0.06795  -0.22614   0.06075  -0.11454
  38   37667.3    265.5   0.074233748   0.64880   0.26410  -0.75962  -0.04498
  39   37797.2    264.6   0.426761228   3.71707  -1.58505   1.06295   0.27351
  40   38169.6    262.0   0.159701175   1.37742  -0.60676   0.97540  -0.24054
  41   38486.2    259.8   0.032267716   0.27602  -0.27484   0.44727  -0.02076
  42   38992.0    256.5   0.039485211   0.33338   0.27891  -0.50213  -0.05873
  43   39029.2    256.2   0.019397847   0.16362   0.33807   0.15438  -0.15967
  44   39232.4    254.9   0.087614426   0.73520  -0.43503  -0.61717   0.40627
  45   39669.3    252.1   0.005503664   0.04567  -0.11210  -0.17404   0.05307
  46   39739.0    251.6   0.064141377   0.53137  -0.63040   0.13078   0.34185
  47   39817.0    251.1   0.165253460   1.36634  -0.80434  -0.72197   0.44512
  48   40101.7    249.4   0.013366963   0.10974  -0.29069   0.14432   0.06638

FINAL SINGLE POINT ENERGY     -4728.746950556785

DIPOLE MOMENT
-------------
                                X             Y             Z
Electronic contribution:     44.18249     -21.44065     -16.41894
Nuclear contribution   :    -41.17078      22.34261      17.08643
                        -----------------------------------------
Total Dipole Moment    :      3.01172       0.90196       0.66749
                        -----------------------------------------
Magnitude (a.u.)       :      3.21396
Magnitude (Debye)      :      8.16923

Rotational constants in cm-1:     0.001382     0.000163     0.000149
Rotational constants in MHz :    41.438165     4.881858     4.467167

                             ****ORCA TERMINATED NORMALLY****
TOTAL RUN TIME: 0 days 0 hours 11 minutes 8 seconds 943 msec
