                         Program Version 4.2.0 -  RELEASE  -
|  1> # ORCA input file
|  2> # SCF done       -222.242118424437          0.000580783298
|  3> ! CAM-B3LYP def2-SVP def2/J RIJCOSX Grid4 TightSCF
|  4> %maxcore 5000
|  5> %tddft
|  6>     Mode sTDDFT
|  7>     Ethresh 5.0
|  8>     maxcore 5000
|  9> end
| 10>
| 11> %pal
| 12>   nprocs 6
| 13>   end
| 14> * xyz 0 1
| 15>    C       -9.57273       -13.60455         0.61637
| 16>    C       -9.88577       -14.48307         1.61531
| 17>    F      -10.89773       -15.34350         1.46169
| 18>    C       -9.14900       -14.49476         2.81831
| 19>    F       -9.47931       -15.36546         3.77817
| 20>    C       -8.10854       -13.62810         3.00455
| 21>    C       -7.76073       -12.71098         1.99325
| 22>    C       -8.50641       -12.69668         0.77784
| 23>    C       -8.17934       -11.78274        -0.24830
| 24>    C       -7.13757       -10.90960        -0.06740
| 25>    C       -6.38980       -10.93823         1.14514
| 26>    C       -6.68709       -11.80867         2.15610
| 27>    C       -5.31902        -9.93122         1.08494
| 28>    O       -4.51212        -9.66005         1.95004
| 29>    C       -5.41187        -9.32645        -0.27199
| 30>    C       -6.59337        -9.87246        -0.93495
| 31>    C       -7.12781        -9.45051        -2.11789
| 32>    C       -8.28774       -10.00524        -2.70386
| 33>    N       -9.22123       -10.41993        -3.22543
| 34>    C       -6.62344        -8.38386        -2.89591
| 35>    N       -6.28177        -7.51580        -3.56326
| 36>    C       -4.47616        -8.50695        -0.78980
| 37>    C       -3.31542        -8.01503        -0.02495
| 38>    O       -2.36350        -7.28758        -0.79370
| 39>    C       -2.44712        -6.14975         0.06234
| 40>    C       -3.59695        -6.77123         0.87882
| 41>    C       -3.39202        -6.97974         2.32455
| 42>    C       -4.26363        -6.57271         3.25660
| 43>    C       -4.14628        -6.70772         4.67687
| 44>    N       -3.42593        -7.62606         5.38536
| 45>    C       -2.71562        -8.78516         4.89508
| 46>    C       -1.21262        -8.52959         4.80511
| 47>    C       -3.52253        -7.40054         6.78064
| 48>    O       -2.97524        -8.10247         7.60229
| 49>    C       -4.38227        -6.24154         6.90178
| 50>    C       -4.76770        -5.86426         5.59654
| 51>    C       -5.64002        -4.71223         5.69133
| 52>    O       -6.20968        -4.05254         4.84942
| 53>    N       -5.72225        -4.46484         7.07403
| 54>    C       -6.54515        -3.40090         7.59749
| 55>    C       -7.85592        -3.92665         8.17681
| 56>    C       -4.97621        -5.35770         7.81061
| 57>    C       -4.84913        -5.29713         9.21250
| 58>    C       -4.05854        -6.15889         9.91789
| 59>    C       -3.85446        -6.09909        11.31629
| 60>    C       -2.93754        -7.00625        11.92132
| 61>    C       -2.68031        -7.01331        13.33594
| 62>    N       -1.71012        -7.80076        13.82497
| 63>    C       -1.10526        -8.65184        13.03276
| 64>    C       -1.45313        -8.73056        11.64660
| 65>    N       -2.30912        -7.88306        11.13208
| 66>    C       -0.82839        -9.68988        10.81079
| 67>    N       -0.28912       -10.47700        10.17740
| 68>    C       -0.10916        -9.48518        13.60079
| 69>    N        0.66448       -10.17713        14.08506
| 70>    C       -3.38716        -6.17456        14.23045
| 71>    C       -4.26557        -5.24922        13.63017
| 72>    C       -4.50142        -5.20636        12.20511
| 73>    N       -5.39450        -4.26492        11.89150
| 74>    S       -5.88163        -3.52662        13.23249
| 75>    N       -4.99654        -4.34591        14.28380
| 76>    C       -3.19714        -6.17847        15.63959
| 77>    C       -2.71692        -7.17146        16.43497
| 78>    C       -2.14571        -6.82888        17.77095
| 79>    O       -2.29365        -5.79603        18.37926
| 80>    C       -1.31435        -7.99370        18.13742
| 81>    C       -0.44358        -8.13448        19.17929
| 82>    C        0.30029        -9.33051        19.29454
| 83>    C        0.13528       -10.35642        18.31829
| 84>    C        0.90002       -11.53519        18.42602
| 85>    C        1.78008       -11.69247        19.45974
| 86>    C        1.93650       -10.68115        20.42916
| 87>    C        1.21391        -9.52389        20.34903
| 88>    F        2.80515       -10.86317        21.43334
| 89>    F        2.50485       -12.81364        19.56476
| 90>    C       -0.78581       -10.19010        17.25898
| 91>    C       -1.50651        -9.02928        17.17784
| 92>    C       -2.50922        -8.58717        16.21555
| 93>    C       -3.27098        -9.41227        15.42959
| 94>    C       -4.32789        -8.94906        14.62363
| 95>    N       -5.18076        -8.59797        13.93902
| 96>    C       -3.08249       -10.80632        15.34230
| 97>    N       -2.96663       -11.94146        15.22053
| 98>    H      -10.14724       -13.60777        -0.29675
| 99>    H       -7.55496       -13.65073         3.93013
|100>    H       -8.75847       -11.79938        -1.15735
|101>    H       -6.10796       -11.80957         3.06703
|102>    H       -4.53515        -8.15192        -1.80931
|103>    H       -2.84181        -8.82860         0.54012
|104>    H       -2.69741        -5.24075        -0.48734
|105>    H       -1.52063        -6.00193         0.62514
|106>    H       -4.56422        -6.31339         0.67098
|107>    H       -2.47002        -7.47261         2.59023
|108>    H       -5.13807        -6.00802         2.95672
|109>    H       -3.14185        -9.07848         3.93419
|110>    H       -2.88596        -9.58616         5.62123
|111>    H       -0.99137        -7.66090         4.18815
|112>    H       -0.71737        -9.39896         4.38212
|113>    H       -0.81234        -8.35336         5.80032
|114>    H       -6.75519        -2.74081         6.75112
|115>    H       -5.98474        -2.84206         8.35215
|116>    H       -8.41587        -4.45506         7.40914
|117>    H       -8.45738        -3.09587         8.53478
|118>    H       -7.67182        -4.60787         9.00416
|119>    H       -5.38084        -4.52294         9.74525
|120>    H       -3.51646        -6.94169         9.40336
|121>    H       -3.40672        -5.23594        16.13570
|122>    H       -0.31690        -7.34226        19.90151
|123>    H        0.79216       -12.31681        17.69060
|124>    H        1.34822        -8.75831        21.09716
|125>    H       -0.88069       -10.97342        16.52397
|126> *
|127>
|128>                          ****END OF INPUT****

CARTESIAN COORDINATES (ANGSTROEM)
---------------------------------
  C     -9.572730  -13.604550    0.616370
  C     -9.885770  -14.483070    1.615310
  F    -10.897730  -15.343500    1.461690
  C     -9.149000  -14.494760    2.818310
  F     -9.479310  -15.365460    3.778170
  C     -8.108540  -13.628100    3.004550
  C     -7.760730  -12.710980    1.993250
  C     -8.506410  -12.696680    0.777840
  C     -8.179340  -11.782740   -0.248300
  C     -7.137570  -10.909600   -0.067400
  C     -6.389800  -10.938230    1.145140
  C     -6.687090  -11.808670    2.156100
  C     -5.319020   -9.931220    1.084940
  O     -4.512120   -9.660050    1.950040
  C     -5.411870   -9.326450   -0.271990
  C     -6.593370   -9.872460   -0.934950
  C     -7.127810   -9.450510   -2.117890
  C     -8.287740  -10.005240   -2.703860
  N     -9.221230  -10.419930   -3.225430
  C     -6.623440   -8.383860   -2.895910
  N     -6.281770   -7.515800   -3.563260
  C     -4.476160   -8.506950   -0.789800
  C     -3.315420   -8.015030   -0.024950
  O     -2.363500   -7.287580   -0.793700
  C     -2.447120   -6.149750    0.062340
  C     -3.596950   -6.771230    0.878820
  C     -3.392020   -6.979740    2.324550
  C     -4.263630   -6.572710    3.256600
  C     -4.146280   -6.707720    4.676870
  N     -3.425930   -7.626060    5.385360
  C     -2.715620   -8.785160    4.895080
  C     -1.212620   -8.529590    4.805110
  C     -3.522530   -7.400540    6.780640
  O     -2.975240   -8.102470    7.602290
  C     -4.382270   -6.241540    6.901780
  C     -4.767700   -5.864260    5.596540
  C     -5.640020   -4.712230    5.691330
  O     -6.209680   -4.052540    4.849420
  N     -5.722250   -4.464840    7.074030
  C     -6.545150   -3.400900    7.597490
  C     -7.855920   -3.926650    8.176810
  C     -4.976210   -5.357700    7.810610
  C     -4.849130   -5.297130    9.212500
  C     -4.058540   -6.158890    9.917890
  C     -3.854460   -6.099090   11.316290
  C     -2.937540   -7.006250   11.921320
  C     -2.680310   -7.013310   13.335940
  N     -1.710120   -7.800760   13.824970
  C     -1.105260   -8.651840   13.032760
  C     -1.453130   -8.730560   11.646600
  N     -2.309120   -7.883060   11.132080
  C     -0.828390   -9.689880   10.810790
  N     -0.289120  -10.477000   10.177400
  C     -0.109160   -9.485180   13.600790
  N      0.664480  -10.177130   14.085060
  C     -3.387160   -6.174560   14.230450
  C     -4.265570   -5.249220   13.630170
  C     -4.501420   -5.206360   12.205110
  N     -5.394500   -4.264920   11.891500
  S     -5.881630   -3.526620   13.232490
  N     -4.996540   -4.345910   14.283800
  C     -3.197140   -6.178470   15.639590
  C     -2.716920   -7.171460   16.434970
  C     -2.145710   -6.828880   17.770950
  O     -2.293650   -5.796030   18.379260
  C     -1.314350   -7.993700   18.137420
  C     -0.443580   -8.134480   19.179290
  C      0.300290   -9.330510   19.294540
  C      0.135280  -10.356420   18.318290
  C      0.900020  -11.535190   18.426020
  C      1.780080  -11.692470   19.459740
  C      1.936500  -10.681150   20.429160
  C      1.213910   -9.523890   20.349030
  F      2.805150  -10.863170   21.433340
  F      2.504850  -12.813640   19.564760
  C     -0.785810  -10.190100   17.258980
  C     -1.506510   -9.029280   17.177840
  C     -2.509220   -8.587170   16.215550
  C     -3.270980   -9.412270   15.429590
  C     -4.327890   -8.949060   14.623630
  N     -5.180760   -8.597970   13.939020
  C     -3.082490  -10.806320   15.342300
  N     -2.966630  -11.941460   15.220530
  H    -10.147240  -13.607770   -0.296750
  H     -7.554960  -13.650730    3.930130
  H     -8.758470  -11.799380   -1.157350
  H     -6.107960  -11.809570    3.067030
  H     -4.535150   -8.151920   -1.809310
  H     -2.841810   -8.828600    0.540120
  H     -2.697410   -5.240750   -0.487340
  H     -1.520630   -6.001930    0.625140
  H     -4.564220   -6.313390    0.670980
  H     -2.470020   -7.472610    2.590230
  H     -5.138070   -6.008020    2.956720
  H     -3.141850   -9.078480    3.934190
  H     -2.885960   -9.586160    5.621230
  H     -0.991370   -7.660900    4.188150
  H     -0.717370   -9.398960    4.382120
  H     -0.812340   -8.353360    5.800320
  H     -6.755190   -2.740810    6.751120
  H     -5.984740   -2.842060    8.352150
  H     -8.415870   -4.455060    7.409140
  H     -8.457380   -3.095870    8.534780
  H     -7.671820   -4.607870    9.004160
  H     -5.380840   -4.522940    9.745250
  H     -3.516460   -6.941690    9.403360
  H     -3.406720   -5.235940   16.135700
  H     -0.316900   -7.342260   19.901510
  H      0.792160  -12.316810   17.690600
  H      1.348220   -8.758310   21.097160
  H     -0.880690  -10.973420   16.523970

 Total Charge           Charge          ....    0
 Multiplicity           Mult            ....    1
 Number of Electrons    NEL             ....  570
 Basis Dimension        Dim             .... 1306

ORBITAL ENERGIES
----------------

  NO   OCC          E(Eh)            E(eV)
   0   2.0000     -89.054344     -2423.2919
   1   2.0000     -24.808966      -675.0863
   2   2.0000     -24.808406      -675.0710
   3   2.0000     -24.794917      -674.7040
   4   2.0000     -24.793285      -674.6596
   5   2.0000     -19.244228      -523.6621
   6   2.0000     -19.226530      -523.1805
   7   2.0000     -19.216872      -522.9177
   8   2.0000     -19.208840      -522.6991
   9   2.0000     -19.191519      -522.2278
  10   2.0000     -14.465955      -393.6386
  11   2.0000     -14.465448      -393.6249
  12   2.0000     -14.465200      -393.6181
  13   2.0000     -14.463930      -393.5836
  14   2.0000     -14.460704      -393.4958
  15   2.0000     -14.457657      -393.4128
  16   2.0000     -14.438546      -392.8928
  17   2.0000     -14.431540      -392.7022
  18   2.0000     -14.431439      -392.6994
  19   2.0000     -14.427188      -392.5837
  20   2.0000     -14.421540      -392.4301
  21   2.0000     -14.415267      -392.2594
  22   2.0000     -10.393622      -282.8248
  23   2.0000     -10.393218      -282.8138
  24   2.0000     -10.392372      -282.7908
  25   2.0000     -10.389296      -282.7071
  26   2.0000     -10.387562      -282.6599
  27   2.0000     -10.382529      -282.5230
  28   2.0000     -10.378099      -282.4024
  29   2.0000     -10.377937      -282.3980
  30   2.0000     -10.376764      -282.3661
  31   2.0000     -10.368144      -282.1315
  32   2.0000     -10.362288      -281.9722
  33   2.0000     -10.358829      -281.8781
  34   2.0000     -10.356489      -281.8144
  35   2.0000     -10.354299      -281.7548
  36   2.0000     -10.353423      -281.7310
  37   2.0000     -10.352234      -281.6986
  38   2.0000     -10.351269      -281.6723
  39   2.0000     -10.349191      -281.6158
  40   2.0000     -10.345526      -281.5161
  41   2.0000     -10.343320      -281.4560
  42   2.0000     -10.341722      -281.4126
  43   2.0000     -10.334524      -281.2167
  44   2.0000     -10.333279      -281.1828
  45   2.0000     -10.332868      -281.1716
  46   2.0000     -10.331865      -281.1443
  47   2.0000     -10.331742      -281.1410
  48   2.0000     -10.330662      -281.1116
  49   2.0000     -10.324646      -280.9479
  50   2.0000     -10.324392      -280.9410
  51   2.0000     -10.323494      -280.9166
  52   2.0000     -10.323168      -280.9077
  53   2.0000     -10.320945      -280.8472
  54   2.0000     -10.319754      -280.8148
  55   2.0000     -10.319267      -280.8015
  56   2.0000     -10.318483      -280.7802
  57   2.0000     -10.317859      -280.7632
  58   2.0000     -10.317347      -280.7493
  59   2.0000     -10.316707      -280.7319
  60   2.0000     -10.313119      -280.6342
  61   2.0000     -10.312742      -280.6240
  62   2.0000     -10.312287      -280.6116
  63   2.0000     -10.310720      -280.5689
  64   2.0000     -10.310436      -280.5612
  65   2.0000     -10.307541      -280.4824
  66   2.0000     -10.307478      -280.4807
  67   2.0000     -10.307120      -280.4710
  68   2.0000     -10.306818      -280.4628
  69   2.0000     -10.304795      -280.4077
  70   2.0000     -10.302935      -280.3571
  71   2.0000     -10.302928      -280.3569
  72   2.0000     -10.300456      -280.2897
  73   2.0000     -10.299089      -280.2524
  74   2.0000     -10.298549      -280.2378
  75   2.0000     -10.297714      -280.2150
  76   2.0000     -10.296909      -280.1931
  77   2.0000     -10.295849      -280.1643
  78   2.0000     -10.292269      -280.0669
  79   2.0000     -10.277821      -279.6737
  80   2.0000     -10.269518      -279.4478
  81   2.0000     -10.268351      -279.4160
  82   2.0000     -10.265853      -279.3481
  83   2.0000      -8.145603      -221.6531
  84   2.0000      -6.116659      -166.4428
  85   2.0000      -6.108813      -166.2293
  86   2.0000      -6.108501      -166.2208
  87   2.0000      -1.332430       -36.2573
  88   2.0000      -1.317461       -35.8499
  89   2.0000      -1.317039       -35.8385
  90   2.0000      -1.302104       -35.4321
  91   2.0000      -1.158788       -31.5322
  92   2.0000      -1.155112       -31.4322
  93   2.0000      -1.151250       -31.3271
  94   2.0000      -1.146524       -31.1985
  95   2.0000      -1.132548       -30.8182
  96   2.0000      -1.132432       -30.8150
  97   2.0000      -1.126707       -30.6593
  98   2.0000      -1.074450       -29.2373
  99   2.0000      -1.062539       -28.9131
 100   2.0000      -1.053116       -28.6567
 101   2.0000      -1.035819       -28.1861
 102   2.0000      -1.021810       -27.8049
 103   2.0000      -1.019229       -27.7346
 104   2.0000      -1.017899       -27.6984
 105   2.0000      -1.009834       -27.4790
 106   2.0000      -1.007220       -27.4078
 107   2.0000      -1.004084       -27.3225
 108   2.0000      -1.003884       -27.3171
 109   2.0000      -0.996547       -27.1174
 110   2.0000      -0.996317       -27.1112
 111   2.0000      -0.986097       -26.8331
 112   2.0000      -0.978606       -26.6292
 113   2.0000      -0.947878       -25.7931
 114   2.0000      -0.937225       -25.5032
 115   2.0000      -0.932471       -25.3738
 116   2.0000      -0.928574       -25.2678
 117   2.0000      -0.924211       -25.1491
 118   2.0000      -0.921074       -25.0637
 119   2.0000      -0.914692       -24.8900
 120   2.0000      -0.906932       -24.6789
 121   2.0000      -0.902784       -24.5660
 122   2.0000      -0.894514       -24.3410
 123   2.0000      -0.890892       -24.2424
 124   2.0000      -0.887447       -24.1487
 125   2.0000      -0.878154       -23.8958
 126   2.0000      -0.858898       -23.3718
 127   2.0000      -0.856264       -23.3001
 128   2.0000      -0.854865       -23.2621
 129   2.0000      -0.838469       -22.8159
 130   2.0000      -0.837630       -22.7931
 131   2.0000      -0.832135       -22.6435
 132   2.0000      -0.826661       -22.4946
 133   2.0000      -0.813767       -22.1437
 134   2.0000      -0.810587       -22.0572
 135   2.0000      -0.789365       -21.4797
 136   2.0000      -0.784218       -21.3397
 137   2.0000      -0.782128       -21.2828
 138   2.0000      -0.774651       -21.0793
 139   2.0000      -0.766220       -20.8499
 140   2.0000      -0.764660       -20.8075
 141   2.0000      -0.747952       -20.3528
 142   2.0000      -0.745532       -20.2870
 143   2.0000      -0.735567       -20.0158
 144   2.0000      -0.730912       -19.8891
 145   2.0000      -0.725288       -19.7361
 146   2.0000      -0.717705       -19.5297
 147   2.0000      -0.716441       -19.4954
 148   2.0000      -0.714015       -19.4293
 149   2.0000      -0.710703       -19.3392
 150   2.0000      -0.701741       -19.0953
 151   2.0000      -0.700968       -19.0743
 152   2.0000      -0.696604       -18.9555
 153   2.0000      -0.690510       -18.7897
 154   2.0000      -0.683505       -18.5991
 155   2.0000      -0.680907       -18.5284
 156   2.0000      -0.674591       -18.3566
 157   2.0000      -0.667754       -18.1705
 158   2.0000      -0.663555       -18.0562
 159   2.0000      -0.660244       -17.9661
 160   2.0000      -0.658107       -17.9080
 161   2.0000      -0.655386       -17.8339
 162   2.0000      -0.655014       -17.8238
 163   2.0000      -0.649868       -17.6838
 164   2.0000      -0.639851       -17.4112
 165   2.0000      -0.634995       -17.2791
 166   2.0000      -0.632572       -17.2132
 167   2.0000      -0.624723       -16.9996
 168   2.0000      -0.619558       -16.8590
 169   2.0000      -0.616884       -16.7863
 170   2.0000      -0.612085       -16.6557
 171   2.0000      -0.610665       -16.6170
 172   2.0000      -0.605078       -16.4650
 173   2.0000      -0.596646       -16.2356
 174   2.0000      -0.596226       -16.2241
 175   2.0000      -0.592967       -16.1355
 176   2.0000      -0.589388       -16.0381
 177   2.0000      -0.588740       -16.0204
 178   2.0000      -0.586714       -15.9653
 179   2.0000      -0.581564       -15.8252
 180   2.0000      -0.580858       -15.8060
 181   2.0000      -0.576019       -15.6743
 182   2.0000      -0.575332       -15.6556
 183   2.0000      -0.572155       -15.5691
 184   2.0000      -0.571747       -15.5580
 185   2.0000      -0.567265       -15.4361
 186   2.0000      -0.566093       -15.4042
 187   2.0000      -0.565493       -15.3878
 188   2.0000      -0.559621       -15.2281
 189   2.0000      -0.557817       -15.1790
 190   2.0000      -0.555073       -15.1043
 191   2.0000      -0.551286       -15.0013
 192   2.0000      -0.547713       -14.9040
 193   2.0000      -0.545765       -14.8510
 194   2.0000      -0.543231       -14.7821
 195   2.0000      -0.542797       -14.7702
 196   2.0000      -0.539926       -14.6921
 197   2.0000      -0.537221       -14.6185
 198   2.0000      -0.536430       -14.5970
 199   2.0000      -0.534917       -14.5558
 200   2.0000      -0.532631       -14.4936
 201   2.0000      -0.531125       -14.4527
 202   2.0000      -0.528869       -14.3913
 203   2.0000      -0.528047       -14.3689
 204   2.0000      -0.525944       -14.3117
 205   2.0000      -0.521667       -14.1953
 206   2.0000      -0.518868       -14.1191
 207   2.0000      -0.518092       -14.0980
 208   2.0000      -0.516322       -14.0498
 209   2.0000      -0.514650       -14.0043
 210   2.0000      -0.514060       -13.9883
 211   2.0000      -0.508047       -13.8247
 212   2.0000      -0.507835       -13.8189
 213   2.0000      -0.506481       -13.7820
 214   2.0000      -0.503764       -13.7081
 215   2.0000      -0.501103       -13.6357
 216   2.0000      -0.499319       -13.5872
 217   2.0000      -0.494797       -13.4641
 218   2.0000      -0.491691       -13.3796
 219   2.0000      -0.489376       -13.3166
 220   2.0000      -0.485207       -13.2031
 221   2.0000      -0.483951       -13.1690
 222   2.0000      -0.482053       -13.1173
 223   2.0000      -0.476682       -12.9712
 224   2.0000      -0.476539       -12.9673
 225   2.0000      -0.474638       -12.9155
 226   2.0000      -0.473759       -12.8916
 227   2.0000      -0.468051       -12.7363
 228   2.0000      -0.465118       -12.6565
 229   2.0000      -0.464559       -12.6413
 230   2.0000      -0.464283       -12.6338
 231   2.0000      -0.463368       -12.6089
 232   2.0000      -0.460646       -12.5348
 233   2.0000      -0.459892       -12.5143
 234   2.0000      -0.459792       -12.5116
 235   2.0000      -0.458469       -12.4756
 236   2.0000      -0.456326       -12.4173
 237   2.0000      -0.455629       -12.3983
 238   2.0000      -0.454451       -12.3662
 239   2.0000      -0.452921       -12.3246
 240   2.0000      -0.452544       -12.3143
 241   2.0000      -0.449565       -12.2333
 242   2.0000      -0.447271       -12.1709
 243   2.0000      -0.446595       -12.1525
 244   2.0000      -0.442506       -12.0412
 245   2.0000      -0.442425       -12.0390
 246   2.0000      -0.441682       -12.0188
 247   2.0000      -0.439839       -11.9686
 248   2.0000      -0.439706       -11.9650
 249   2.0000      -0.435108       -11.8399
 250   2.0000      -0.433284       -11.7903
 251   2.0000      -0.430018       -11.7014
 252   2.0000      -0.427969       -11.6456
 253   2.0000      -0.427232       -11.6256
 254   2.0000      -0.425304       -11.5731
 255   2.0000      -0.424160       -11.5420
 256   2.0000      -0.422833       -11.5059
 257   2.0000      -0.419889       -11.4258
 258   2.0000      -0.417993       -11.3742
 259   2.0000      -0.412093       -11.2136
 260   2.0000      -0.411883       -11.2079
 261   2.0000      -0.411524       -11.1981
 262   2.0000      -0.404719       -11.0130
 263   2.0000      -0.397562       -10.8182
 264   2.0000      -0.391524       -10.6539
 265   2.0000      -0.390592       -10.6286
 266   2.0000      -0.381073       -10.3695
 267   2.0000      -0.370664       -10.0863
 268   2.0000      -0.366891        -9.9836
 269   2.0000      -0.360713        -9.8155
 270   2.0000      -0.357768        -9.7354
 271   2.0000      -0.357724        -9.7342
 272   2.0000      -0.353519        -9.6197
 273   2.0000      -0.349064        -9.4985
 274   2.0000      -0.346733        -9.4351
 275   2.0000      -0.338689        -9.2162
 276   2.0000      -0.335620        -9.1327
 277   2.0000      -0.333513        -9.0753
 278   2.0000      -0.331416        -9.0183
 279   2.0000      -0.324845        -8.8395
 280   2.0000      -0.313281        -8.5248
 281   2.0000      -0.312744        -8.5102
 282   2.0000      -0.297332        -8.0908
 283   2.0000      -0.293504        -7.9867
 284   2.0000      -0.243711        -6.6317
 285   0.0000      -0.142142        -3.8679
 286   0.0000      -0.102417        -2.7869
 287   0.0000      -0.080959        -2.2030
 288   0.0000      -0.076801        -2.0898
 289   0.0000      -0.075367        -2.0508

MULLIKEN ATOMIC CHARGES
-----------------------
   0 C :   -0.105658
   1 C :    0.243422
   2 F :   -0.165804
   3 C :    0.241371
   4 F :   -0.165738
   5 C :   -0.101142
   6 C :    0.113808
   7 C :    0.114023
   8 C :   -0.079549
   9 C :    0.046959
  10 C :   -0.006745
  11 C :   -0.071957
  12 C :    0.158039
  13 O :   -0.149396
  14 C :   -0.035622
  15 C :    0.324281
  16 C :   -0.333750
  17 C :   -0.181052
  18 N :    0.162096
  19 C :   -0.204488
  20 N :    0.172753
  21 C :   -0.062559
  22 C :    0.161284
  23 O :   -0.360738
  24 C :    0.302513
  25 C :   -0.122994
  26 C :    0.081454
  27 C :   -0.020497
  28 C :    0.093453
  29 N :   -0.257334
  30 C :    0.096659
  31 C :   -0.000853
  32 C :    0.162117
  33 O :   -0.175929
  34 C :   -0.043268
  35 C :   -0.048795
  36 C :    0.143272
  37 O :   -0.194485
  38 N :   -0.265738
  39 C :    0.099890
  40 C :    0.002942
  41 C :    0.144500
  42 C :    0.008301
  43 C :   -0.099041
  44 C :    0.114210
  45 C :   -0.019135
  46 C :   -0.095621
  47 N :    0.023244
  48 C :   -0.112730
  49 C :   -0.124825
  50 N :    0.081433
  51 C :   -0.202621
  52 N :    0.234186
  53 C :   -0.199575
  54 N :    0.233079
  55 C :    0.096575
  56 C :    0.014798
  57 C :    0.025652
  58 N :   -0.292431
  59 S :    0.556885
  60 N :   -0.261393
  61 C :   -0.035088
  62 C :   -0.102681
  63 C :    0.132255
  64 O :   -0.134703
  65 C :    0.026007
  66 C :   -0.092254
  67 C :    0.116643
  68 C :    0.107148
  69 C :   -0.101312
  70 C :    0.241464
  71 C :    0.240032
  72 C :   -0.107308
  73 F :   -0.172892
  74 F :   -0.170845
  75 C :   -0.067833
  76 C :    0.026666
  77 C :    0.316132
  78 C :   -0.353826
  79 C :   -0.181920
  80 N :    0.151384
  81 C :   -0.193537
  82 N :    0.167261
  83 H :    0.011239
  84 H :    0.004598
  85 H :   -0.002088
  86 H :   -0.007121
  87 H :    0.040315
  88 H :    0.032083
  89 H :    0.026416
  90 H :    0.009365
  91 H :    0.017780
  92 H :   -0.006328
  93 H :    0.015168
  94 H :    0.039200
  95 H :    0.035212
  96 H :    0.014376
  97 H :    0.025020
  98 H :    0.038585
  99 H :    0.043994
 100 H :    0.024389
 101 H :    0.028426
 102 H :    0.022459
 103 H :    0.019423
 104 H :   -0.001066
 105 H :    0.029882
 106 H :    0.030644
 107 H :   -0.008766
 108 H :    0.011223
 109 H :   -0.001157
 110 H :    0.004197
Sum of atomic charges:    0.0000000

LOEWDIN ATOMIC CHARGES
----------------------
   0 C :   -0.028367
   1 C :    0.070537
   2 F :   -0.043520
   3 C :    0.070708
   4 F :   -0.043709
   5 C :   -0.030735
   6 C :   -0.007771
   7 C :   -0.003911
   8 C :    0.021628
   9 C :   -0.023520
  10 C :   -0.057493
  11 C :    0.036105
  12 C :    0.094955
  13 O :   -0.141091
  14 C :   -0.085539
  15 C :    0.073948
  16 C :   -0.123963
  17 C :   -0.017392
  18 N :   -0.040870
  19 C :   -0.022995
  20 N :   -0.035713
  21 C :    0.079530
  22 C :    0.076607
  23 O :   -0.186090
  24 C :    0.112946
  25 C :   -0.023096
  26 C :    0.025678
  27 C :   -0.039192
  28 C :    0.090642
  29 N :    0.006131
  30 C :    0.035046
  31 C :   -0.061954
  32 C :    0.085392
  33 O :   -0.166086
  34 C :   -0.097582
  35 C :   -0.124440
  36 C :    0.074557
  37 O :   -0.201601
  38 N :   -0.004205
  39 C :    0.036466
  40 C :   -0.060852
  41 C :    0.064183
  42 C :   -0.004734
  43 C :    0.015693
  44 C :    0.006514
  45 C :    0.001776
  46 C :    0.005695
  47 N :    0.002047
  48 C :   -0.016991
  49 C :   -0.030204
  50 N :    0.019663
  51 C :   -0.032957
  52 N :   -0.005553
  53 C :   -0.030178
  54 N :   -0.005589
  55 C :   -0.045259
  56 C :   -0.026678
  57 C :   -0.037002
  58 N :   -0.279908
  59 S :    0.685803
  60 N :   -0.277382
  61 C :    0.067159
  62 C :   -0.065908
  63 C :    0.084694
  64 O :   -0.136352
  65 C :   -0.053168
  66 C :    0.029266
  67 C :   -0.008093
  68 C :   -0.003566
  69 C :   -0.024958
  70 C :    0.066943
  71 C :    0.067987
  72 C :   -0.034395
  73 F :   -0.050205
  74 F :   -0.048598
  75 C :    0.024818
  76 C :   -0.020570
  77 C :    0.080387
  78 C :   -0.149235
  79 C :   -0.015369
  80 N :   -0.059084
  81 C :   -0.025773
  82 N :   -0.048143
  83 H :    0.049187
  84 H :    0.046879
  85 H :    0.041367
  86 H :    0.041597
  87 H :    0.050855
  88 H :    0.029476
  89 H :    0.020478
  90 H :    0.013837
  91 H :    0.034029
  92 H :    0.028443
  93 H :    0.046089
  94 H :    0.027211
  95 H :    0.036156
  96 H :    0.017495
  97 H :    0.032035
  98 H :    0.034847
  99 H :    0.037874
 100 H :    0.023709
 101 H :    0.031899
 102 H :    0.030558
 103 H :    0.023370
 104 H :    0.029557
 105 H :    0.039890
 106 H :    0.051553
 107 H :    0.040335
 108 H :    0.049893
 109 H :    0.044341
 110 H :    0.041077

  Mayer bond orders larger than 0.100000
B(  0-C ,  1-C ) :   1.4438 B(  0-C ,  5-C ) :   0.1074 B(  0-C ,  7-C ) :   1.1859
B(  0-C , 83-H ) :   1.0065 B(  1-C ,  2-F ) :   1.1402 B(  1-C ,  3-C ) :   1.1869
B(  3-C ,  4-F ) :   1.1392 B(  3-C ,  5-C ) :   1.4449 B(  5-C ,  6-C ) :   1.1923
B(  5-C , 84-H ) :   1.0066 B(  6-C ,  7-C ) :   1.2493 B(  6-C , 11-C ) :   1.1982
B(  7-C ,  8-C ) :   1.2255 B(  8-C ,  9-C ) :   1.4430 B(  8-C , 85-H ) :   0.9897
B(  9-C , 10-C ) :   1.2185 B(  9-C , 15-C ) :   1.0002 B( 10-C , 11-C ) :   1.4638
B( 10-C , 12-C ) :   0.9578 B( 11-C , 86-H ) :   1.0156 B( 12-C , 13-O ) :   2.1404
B( 12-C , 14-C ) :   0.9363 B( 14-C , 15-C ) :   1.0141 B( 14-C , 21-C ) :   1.6880
B( 15-C , 16-C ) :   1.6808 B( 16-C , 17-C ) :   1.1356 B( 16-C , 19-C ) :   1.1426
B( 17-C , 18-N ) :   2.9713 B( 19-C , 20-N ) :   2.9900 B( 21-C , 22-C ) :   1.0370
B( 21-C , 87-H ) :   0.9452 B( 22-C , 23-O ) :   1.0682 B( 22-C , 25-C ) :   1.0133
B( 22-C , 88-H ) :   0.8930 B( 23-O , 24-C ) :   1.0136 B( 24-C , 25-C ) :   1.0488
B( 24-C , 89-H ) :   0.9467 B( 24-C , 90-H ) :   0.9426 B( 25-C , 26-C ) :   1.0165
B( 25-C , 91-H ) :   0.9249 B( 26-C , 27-C ) :   1.7332 B( 26-C , 92-H ) :   0.9649
B( 27-C , 28-C ) :   1.1390 B( 27-C , 93-H ) :   0.9515 B( 28-C , 29-N ) :   1.2156
B( 28-C , 35-C ) :   1.3228 B( 29-N , 30-C ) :   0.9297 B( 29-N , 32-C ) :   1.0380
B( 30-C , 31-C ) :   1.1138 B( 30-C , 94-H ) :   0.9430 B( 30-C , 95-H ) :   0.9317
B( 31-C , 96-H ) :   0.9637 B( 31-C , 97-H ) :   0.9690 B( 31-C , 98-H ) :   0.9604
B( 32-C , 33-O ) :   2.0579 B( 32-C , 34-C ) :   0.9740 B( 34-C , 35-C ) :   1.2640
B( 34-C , 41-C ) :   1.3203 B( 35-C , 36-C ) :   0.9767 B( 36-C , 37-O ) :   2.1441
B( 36-C , 38-N ) :   1.0402 B( 38-N , 39-C ) :   0.9448 B( 38-N , 41-C ) :   1.1535
B( 39-C , 40-C ) :   1.1220 B( 39-C , 99-H ) :   0.9271 B( 39-C ,100-H ) :   0.9489
B( 40-C ,101-H ) :   0.9635 B( 40-C ,102-H ) :   0.9677 B( 40-C ,103-H ) :   0.9681
B( 41-C , 42-C ) :   1.1723 B( 42-C , 43-C ) :   1.4696 B( 42-C ,104-H ) :   0.9482
B( 43-C , 44-C ) :   1.2470 B( 43-C ,105-H ) :   0.9485 B( 44-C , 45-C ) :   1.1964
B( 44-C , 55-C ) :   0.1249 B( 44-C , 57-C ) :   1.1595 B( 45-C , 46-C ) :   1.1192
B( 45-C , 50-N ) :   1.4878 B( 46-C , 47-N ) :   1.4434 B( 46-C , 55-C ) :   1.2442
B( 47-N , 48-C ) :   1.6856 B( 48-C , 49-C ) :   1.2093 B( 48-C , 53-C ) :   1.1683
B( 49-C , 50-N ) :   1.7276 B( 49-C , 51-C ) :   1.1586 B( 51-C , 52-N ) :   3.0388
B( 53-C , 54-N ) :   3.0022 B( 55-C , 56-C ) :   1.2015 B( 55-C , 61-C ) :   1.1280
B( 56-C , 57-C ) :   1.1159 B( 56-C , 60-N ) :   1.5538 B( 57-C , 58-N ) :   1.5024
B( 58-N , 59-S ) :   1.2793 B( 58-N , 60-N ) :   0.1495 B( 59-S , 60-N ) :   1.2840
B( 61-C , 62-C ) :   1.6446 B( 61-C ,106-H ) :   0.9439 B( 62-C , 63-C ) :   0.9397
B( 62-C , 77-C ) :   1.0291 B( 63-C , 64-O ) :   2.2782 B( 63-C , 65-C ) :   0.9159
B( 65-C , 66-C ) :   1.4696 B( 65-C , 76-C ) :   1.2200 B( 66-C , 67-C ) :   1.1944
B( 66-C ,107-H ) :   1.0160 B( 67-C , 68-C ) :   1.2535 B( 67-C , 72-C ) :   1.1943
B( 68-C , 69-C ) :   1.1925 B( 68-C , 75-C ) :   1.2196 B( 69-C , 70-C ) :   1.4407
B( 69-C , 72-C ) :   0.1087 B( 69-C ,108-H ) :   1.0070 B( 70-C , 71-C ) :   1.1907
B( 70-C , 74-F ) :   1.1348 B( 71-C , 72-C ) :   1.4437 B( 71-C , 73-F ) :   1.1325
B( 72-C ,109-H ) :   1.0064 B( 75-C , 76-C ) :   1.4550 B( 75-C ,110-H ) :   0.9916
B( 76-C , 77-C ) :   1.0086 B( 77-C , 78-C ) :   1.6339 B( 78-C , 79-C ) :   1.1691
B( 78-C , 81-C ) :   1.1373 B( 79-C , 80-N ) :   2.9847 B( 81-C , 82-N ) :   2.9947

-----------------------------------------------------------------------------
         ABSORPTION SPECTRUM VIA TRANSITION ELECTRIC DIPOLE MOMENTS
-----------------------------------------------------------------------------
State   Energy  Wavelength   fosc         T2         TX        TY        TZ
        (cm-1)    (nm)                  (au**2)     (au)      (au)      (au)
-----------------------------------------------------------------------------
   0    7580.3   1319.2   0.432767586  18.79508   0.63136  -0.13106   4.28711
   1   16639.8    601.0   0.050581854   1.00074   0.31038  -0.79278   0.52526
   2   18710.6    534.5   0.137392836   2.41741  -0.58883   0.38392  -1.38683
   3   18790.7    532.2   0.059538967   1.04312   0.00437  -0.68343  -0.75896
   4   20704.0    483.0   0.195972197   3.11613   0.15914   0.19044  -1.74772
   5   21291.4    469.7   0.057722443   0.89252   0.35243  -0.84099  -0.24709
   6   22679.7    440.9   0.011709362   0.16997  -0.23429   0.10198  -0.32354
   7   22863.3    437.4   0.002426488   0.03494  -0.08508   0.08888   0.14071
   8   23299.8    429.2   0.001579771   0.02232   0.08637  -0.00015   0.12191
   9   23824.8    419.7   0.004577174   0.06325  -0.17354  -0.12961  -0.12780
  10   24415.4    409.6   0.001575008   0.02124  -0.01101   0.02891   0.14241
  11   25515.3    391.9   0.025049237   0.32320  -0.23299   0.49153   0.16526
  12   25656.9    389.8   0.030020085   0.38520   0.31788   0.12193   0.51892
  13   26952.2    371.0   0.037423066   0.45711   0.34132  -0.35406   0.46395
  14   27753.3    360.3   0.024510533   0.29075   0.33223  -0.41513   0.08967
  15   28028.6    356.8   0.077853337   0.91443   0.09781   0.32158  -0.89524
  16   28221.9    354.3   0.137507028   1.60404   0.54774  -0.78862  -0.82589
  17   28635.2    349.2   0.000889571   0.01023   0.08206   0.04936  -0.03250
  18   28984.0    345.0   0.029893372   0.33954   0.14156   0.54265  -0.15822
  19   29402.7    340.1   0.030111665   0.33715   0.13532   0.48624   0.28706
  20   29491.2    339.1   0.269790132   3.01168  -1.03973   1.36990  -0.23238
  21   29778.0    335.8   0.061717435   0.68232  -0.69141  -0.39432   0.22087
  22   29896.5    334.5   0.084768716   0.93345  -0.35466  -0.15478  -0.88527
  23   30270.2    330.4   0.235644209   2.56282   1.16563  -0.32572   1.04787
  24   30505.8    327.8   0.059210165   0.63898   0.26984  -0.44449   0.60712
  25   30663.6    326.1   0.145228143   1.55921  -0.97735   0.77716   0.00489
  26   30729.9    325.4   0.378570799   4.05566  -1.29069   1.19383  -0.98211
  27   30990.0    322.7   0.066319081   0.70452   0.22507   0.23159  -0.77475
  28   32045.5    312.1   0.021134439   0.21712  -0.05217   0.30496  -0.34842
  29   32621.1    306.6   0.003090156   0.03119   0.12971   0.08708  -0.08233
  30   32764.6    305.2   0.030323033   0.30468   0.43283   0.33904   0.04892
  31   32881.7    304.1   0.074166166   0.74255   0.42979  -0.20762   0.71745
  32   33217.0    301.1   0.011823900   0.11719  -0.08165   0.20598  -0.26094
  33   33405.1    299.4   0.029782222   0.29351  -0.49233   0.02919  -0.22419
  34   33557.8    298.0   0.091012918   0.89286   0.54690  -0.40610   0.65486
  35   33730.4    296.5   0.006915950   0.06750   0.15962  -0.09585   0.18121
  36   34111.2    293.2   0.041925736   0.40463  -0.12252  -0.32419  -0.53340
  37   34236.8    292.1   0.699847614   6.72955  -0.37828  -1.53994   2.05306
  38   34346.4    291.2   0.146494051   1.40415   0.67850   0.91021   0.33955
  39   34510.4    289.8   0.093514026   0.89208  -0.38710   0.53436  -0.67579
  40   34872.7    286.8   0.036926476   0.34860   0.22516   0.52904  -0.13423
  41   35253.9    283.7   0.628983449   5.87365  -1.87033  -0.02424  -1.54108
  42   35282.7    283.4   0.054778668   0.51112   0.50171   0.44580  -0.24631
  43   35462.3    282.0   0.217472377   2.01889   0.18394   0.72429  -1.20849
  44   35688.0    280.2   0.131590773   1.21389   0.49802   0.95730  -0.22236
  45   35937.4    278.3   0.099179238   0.90855   0.70735  -0.57339  -0.28184
  46   36118.2    276.9   0.168409461   1.53503  -0.51191   0.93510   0.63132
  47   36411.4    274.6   0.006593962   0.05962   0.12669   0.20781  -0.01962
  48   36452.7    274.3   0.050626325   0.45722   0.04508   0.06838  -0.67120
  49   36853.5    271.3   0.028832805   0.25756  -0.07602   0.15137   0.47841
  50   36940.9    270.7   0.011663548   0.10394   0.20081   0.25015   0.03232
  51   37521.8    266.5   0.089467306   0.78498   0.40974   0.76446  -0.18080
  52   37921.8    263.7   0.024148012   0.20964   0.21357  -0.36554  -0.17436
  53   37973.1    263.3   0.005914186   0.05127   0.18324   0.11110  -0.07315
  54   38174.8    262.0   0.021444001   0.18493   0.19536   0.05040   0.37977
  55   38364.8    260.7   0.205100294   1.75998  -0.63221   1.03309  -0.54131
  56   38455.9    260.0   0.120310768   1.02995  -0.98436   0.24477  -0.03271
  57   38466.9    260.0   0.000331318   0.00284  -0.03023   0.03291  -0.02896
  58   38801.5    257.7   0.025921288   0.21993   0.29575  -0.12010  -0.34356
  59   39010.4    256.3   0.012211574   0.10305   0.06290  -0.29570   0.10796
  60   39240.7    254.8   0.156087622   1.30951   0.86571   0.46673   0.58499
  61   39438.1    253.6   0.064982958   0.54245  -0.40756  -0.48222  -0.37922
  62   39608.3    252.5   0.021452626   0.17831  -0.39513  -0.12352   0.08318
  63   39738.0    251.6   0.038468131   0.31869   0.19031  -0.52884  -0.05292
  64   40063.3    249.6   0.133914384   1.10041   0.28699  -0.99891  -0.14225

FINAL SINGLE POINT ENERGY     -4167.126475696798

DIPOLE MOMENT
-------------
                                X             Y             Z
Electronic contribution:      2.34905     -39.41136      66.57774
Nuclear contribution   :     -2.90236      41.25154     -66.96453
                        -----------------------------------------
Total Dipole Moment    :     -0.55331       1.84018      -0.38679
                        -----------------------------------------
Magnitude (a.u.)       :      1.96011
Magnitude (Debye)      :      4.98220

Rotational constants in cm-1:     0.001178     0.000245     0.000229
Rotational constants in MHz :    35.325081     7.346231     6.872093

                             ****ORCA TERMINATED NORMALLY****
TOTAL RUN TIME: 0 days 0 hours 11 minutes 54 seconds 77 msec
