                         Program Version 4.2.0 -  RELEASE  -
|  1> # ORCA input file
|  2> # SCF done       -218.675386311103          0.000365673136
|  3> ! CAM-B3LYP def2-SVP def2/J RIJCOSX Grid4 TightSCF
|  4> %maxcore 5000
|  5> %tddft
|  6>     Mode sTDDFT
|  7>     Ethresh 5.0
|  8>     maxcore 5000
|  9> end
| 10>
| 11> %pal
| 12>   nprocs 6
| 13>   end
| 14> * xyz 0 1
| 15>    C       -2.96844        -3.89639         8.67722
| 16>    C       -3.99527        -3.51577         9.49509
| 17>    F       -3.73909        -2.89104        10.65130
| 18>    C       -5.33324        -3.77463         9.13504
| 19>    F       -6.31966        -3.39105         9.95627
| 20>    C       -5.62568        -4.41089         7.96138
| 21>    C       -4.58954        -4.81603         7.09765
| 22>    C       -3.23603        -4.55418         7.45985
| 23>    C       -2.17932        -4.94934         6.60732
| 24>    C       -2.46840        -5.59048         5.43203
| 25>    C       -3.82295        -5.85694         5.08354
| 26>    C       -4.86433        -5.48093         5.88221
| 27>    C       -3.86206        -6.57365         3.79651
| 28>    O       -4.85825        -6.90850         3.18383
| 29>    C       -2.45694        -6.81486         3.42852
| 30>    C       -1.61017        -6.09708         4.36479
| 31>    C       -0.27281        -5.84657         4.22161
| 32>    C        0.48913        -6.18608         3.08095
| 33>    N        1.15161        -6.37639         2.16389
| 34>    C        0.49425        -5.13366         5.16715
| 35>    N        1.15872        -4.56653         5.91131
| 36>    C       -2.02493        -7.70369         2.48371
| 37>    C       -2.77871        -8.45314         1.56186
| 38>    S       -4.47757        -8.29103         1.17226
| 39>    C       -4.40917        -9.54150        -0.04518
| 40>    C       -3.11775       -10.07151        -0.12480
| 41>    C       -2.22598        -9.45323         0.76650
| 42>    C       -0.88979       -10.05352         0.68691
| 43>    O        0.06735        -9.82235         1.38163
| 44>    C       -0.96945       -11.07083        -0.43954
| 45>    C       -2.42288       -11.10787        -0.89177
| 46>    O       -2.87310       -11.86638        -1.71835
| 47>    C       -5.60320        -9.86565        -0.72280
| 48>    C       -5.75109       -10.87687        -1.62117
| 49>    C       -6.97205       -11.19762        -2.24219
| 50>    S       -8.45078       -10.27953        -2.01850
| 51>    C       -9.39953       -11.34500        -3.01375
| 52>    C       -8.59215       -12.37113        -3.50422
| 53>    C       -7.24013       -12.26991        -3.07816
| 54>    S       -6.31458       -13.57064        -3.73697
| 55>    C       -7.79431       -14.12375        -4.51161
| 56>    N       -8.85021       -13.43572        -4.30995
| 57>    C      -10.77624       -11.10098        -3.21418
| 58>    C      -11.57392       -11.98050        -3.87235
| 59>    C      -12.97044       -11.88918        -4.11461
| 60>    S      -13.71002       -13.41746        -4.51181
| 61>    C      -13.91901       -10.86289        -4.11331
| 62>    C      -13.65029        -9.42203        -3.91230
| 63>    O      -12.56058        -8.94728        -3.63968
| 64>    C      -14.83495        -8.59463        -4.06881
| 65>    C      -14.94331        -7.22286        -3.98343
| 66>    N      -16.23800        -6.87778        -4.17694
| 67>    C      -16.73798        -5.52721        -4.23842
| 68>    C      -16.67734        -4.98653        -5.66544
| 69>    C      -16.97565        -7.99082        -4.39623
| 70>    C      -16.14289        -9.08759        -4.33435
| 71>    C      -16.43559       -10.49312        -4.52226
| 72>    O      -17.54222       -10.93909        -4.76688
| 73>    C      -15.22741       -11.34044        -4.40116
| 74>    C      -15.29043       -12.70809        -4.62545
| 75>    C      -16.45604       -13.49765        -4.81360
| 76>    C      -16.56695       -14.68401        -5.46432
| 77>    C      -17.70952       -15.59431        -5.16610
| 78>    O      -18.71932       -15.32305        -4.56354
| 79>    C      -17.29659       -16.91040        -5.69913
| 80>    C      -17.92333       -18.11684        -5.57721
| 81>    C      -17.32137       -19.26372        -6.14161
| 82>    C      -16.07374       -19.13763        -6.81940
| 83>    C      -15.47414       -20.28843        -7.36980
| 84>    C      -16.08509       -21.50534        -7.25559
| 85>    C      -17.32004       -21.62829        -6.58749
| 86>    C      -17.92652       -20.53175        -6.04216
| 87>    F      -17.89534       -22.83431        -6.48980
| 88>    F      -15.51307       -22.59769        -7.77885
| 89>    C      -15.45222       -17.87364        -6.93781
| 90>    C      -16.05880       -16.77471        -6.39059
| 91>    C      -15.67620       -15.36603        -6.38170
| 92>    C      -14.81351       -14.76905        -7.26132
| 93>    C      -14.67907       -13.37023        -7.39158
| 94>    N      -14.57245       -12.24020        -7.56081
| 95>    C      -14.03005       -15.48080        -8.19247
| 96>    N      -13.36214       -16.02099        -8.95354
| 97>    H       -1.95031        -3.68906         8.96748
| 98>    H       -6.65469        -4.60221         7.70011
| 99>    H       -1.16580        -4.74133         6.91018
|100>    H       -5.88260        -5.69090         5.59211
|101>    H       -0.96311        -7.92362         2.43846
|102>    H       -0.62577       -12.05604        -0.11869
|103>    H       -0.32341       -10.77019        -1.26793
|104>    H       -6.46452        -9.25854        -0.47090
|105>    H       -4.90663       -11.50374        -1.87936
|106>    H       -7.77541       -15.00616        -5.12077
|107>    H      -11.17192       -10.17951        -2.81651
|108>    H      -11.12020       -12.90473        -4.21120
|109>    H      -14.18034        -6.49378        -3.79541
|110>    H      -16.13428        -4.90272        -3.57517
|111>    H      -17.77058        -5.52223        -3.88024
|112>    H      -15.65201        -4.98543        -6.02704
|113>    H      -17.05900        -3.97003        -5.69383
|114>    H      -17.27689        -5.60368        -6.33001
|115>    H      -18.03170        -7.95098        -4.57532
|116>    H      -17.35481       -13.13829        -4.32051
|117>    H      -18.86500       -18.19572        -5.05576
|118>    H      -14.53096       -20.21150        -7.88768
|119>    H      -18.87140       -20.64226        -5.53364
|120>    H      -14.50509       -17.80561        -7.44896
|121> *
|122>
|123>                          ****END OF INPUT****

CARTESIAN COORDINATES (ANGSTROEM)
---------------------------------
  C     -2.968440   -3.896390    8.677220
  C     -3.995270   -3.515770    9.495090
  F     -3.739090   -2.891040   10.651300
  C     -5.333240   -3.774630    9.135040
  F     -6.319660   -3.391050    9.956270
  C     -5.625680   -4.410890    7.961380
  C     -4.589540   -4.816030    7.097650
  C     -3.236030   -4.554180    7.459850
  C     -2.179320   -4.949340    6.607320
  C     -2.468400   -5.590480    5.432030
  C     -3.822950   -5.856940    5.083540
  C     -4.864330   -5.480930    5.882210
  C     -3.862060   -6.573650    3.796510
  O     -4.858250   -6.908500    3.183830
  C     -2.456940   -6.814860    3.428520
  C     -1.610170   -6.097080    4.364790
  C     -0.272810   -5.846570    4.221610
  C      0.489130   -6.186080    3.080950
  N      1.151610   -6.376390    2.163890
  C      0.494250   -5.133660    5.167150
  N      1.158720   -4.566530    5.911310
  C     -2.024930   -7.703690    2.483710
  C     -2.778710   -8.453140    1.561860
  S     -4.477570   -8.291030    1.172260
  C     -4.409170   -9.541500   -0.045180
  C     -3.117750  -10.071510   -0.124800
  C     -2.225980   -9.453230    0.766500
  C     -0.889790  -10.053520    0.686910
  O      0.067350   -9.822350    1.381630
  C     -0.969450  -11.070830   -0.439540
  C     -2.422880  -11.107870   -0.891770
  O     -2.873100  -11.866380   -1.718350
  C     -5.603200   -9.865650   -0.722800
  C     -5.751090  -10.876870   -1.621170
  C     -6.972050  -11.197620   -2.242190
  S     -8.450780  -10.279530   -2.018500
  C     -9.399530  -11.345000   -3.013750
  C     -8.592150  -12.371130   -3.504220
  C     -7.240130  -12.269910   -3.078160
  S     -6.314580  -13.570640   -3.736970
  C     -7.794310  -14.123750   -4.511610
  N     -8.850210  -13.435720   -4.309950
  C    -10.776240  -11.100980   -3.214180
  C    -11.573920  -11.980500   -3.872350
  C    -12.970440  -11.889180   -4.114610
  S    -13.710020  -13.417460   -4.511810
  C    -13.919010  -10.862890   -4.113310
  C    -13.650290   -9.422030   -3.912300
  O    -12.560580   -8.947280   -3.639680
  C    -14.834950   -8.594630   -4.068810
  C    -14.943310   -7.222860   -3.983430
  N    -16.238000   -6.877780   -4.176940
  C    -16.737980   -5.527210   -4.238420
  C    -16.677340   -4.986530   -5.665440
  C    -16.975650   -7.990820   -4.396230
  C    -16.142890   -9.087590   -4.334350
  C    -16.435590  -10.493120   -4.522260
  O    -17.542220  -10.939090   -4.766880
  C    -15.227410  -11.340440   -4.401160
  C    -15.290430  -12.708090   -4.625450
  C    -16.456040  -13.497650   -4.813600
  C    -16.566950  -14.684010   -5.464320
  C    -17.709520  -15.594310   -5.166100
  O    -18.719320  -15.323050   -4.563540
  C    -17.296590  -16.910400   -5.699130
  C    -17.923330  -18.116840   -5.577210
  C    -17.321370  -19.263720   -6.141610
  C    -16.073740  -19.137630   -6.819400
  C    -15.474140  -20.288430   -7.369800
  C    -16.085090  -21.505340   -7.255590
  C    -17.320040  -21.628290   -6.587490
  C    -17.926520  -20.531750   -6.042160
  F    -17.895340  -22.834310   -6.489800
  F    -15.513070  -22.597690   -7.778850
  C    -15.452220  -17.873640   -6.937810
  C    -16.058800  -16.774710   -6.390590
  C    -15.676200  -15.366030   -6.381700
  C    -14.813510  -14.769050   -7.261320
  C    -14.679070  -13.370230   -7.391580
  N    -14.572450  -12.240200   -7.560810
  C    -14.030050  -15.480800   -8.192470
  N    -13.362140  -16.020990   -8.953540
  H     -1.950310   -3.689060    8.967480
  H     -6.654690   -4.602210    7.700110
  H     -1.165800   -4.741330    6.910180
  H     -5.882600   -5.690900    5.592110
  H     -0.963110   -7.923620    2.438460
  H     -0.625770  -12.056040   -0.118690
  H     -0.323410  -10.770190   -1.267930
  H     -6.464520   -9.258540   -0.470900
  H     -4.906630  -11.503740   -1.879360
  H     -7.775410  -15.006160   -5.120770
  H    -11.171920  -10.179510   -2.816510
  H    -11.120200  -12.904730   -4.211200
  H    -14.180340   -6.493780   -3.795410
  H    -16.134280   -4.902720   -3.575170
  H    -17.770580   -5.522230   -3.880240
  H    -15.652010   -4.985430   -6.027040
  H    -17.059000   -3.970030   -5.693830
  H    -17.276890   -5.603680   -6.330010
  H    -18.031700   -7.950980   -4.575320
  H    -17.354810  -13.138290   -4.320510
  H    -18.865000  -18.195720   -5.055760
  H    -14.530960  -20.211500   -7.887680
  H    -18.871400  -20.642260   -5.533640
  H    -14.505090  -17.805610   -7.448960

 Total Charge           Charge          ....    0
 Multiplicity           Mult            ....    1
 Number of Electrons    NEL             ....  586
 Basis Dimension        Dim             .... 1284

ORBITAL ENERGIES
----------------

  NO   OCC          E(Eh)            E(eV)
   0   2.0000     -88.981705     -2421.3153
   1   2.0000     -88.975961     -2421.1590
   2   2.0000     -88.975493     -2421.1463
   3   2.0000     -88.974022     -2421.1062
   4   2.0000     -24.801125      -674.8729
   5   2.0000     -24.800035      -674.8433
   6   2.0000     -24.798093      -674.7904
   7   2.0000     -24.797437      -674.7726
   8   2.0000     -19.229414      -523.2589
   9   2.0000     -19.225184      -523.1439
  10   2.0000     -19.223320      -523.0931
  11   2.0000     -19.214353      -522.8491
  12   2.0000     -19.206148      -522.6259
  13   2.0000     -19.203801      -522.5620
  14   2.0000     -14.490555      -394.3081
  15   2.0000     -14.429225      -392.6392
  16   2.0000     -14.417549      -392.3215
  17   2.0000     -14.417369      -392.3166
  18   2.0000     -14.413890      -392.2219
  19   2.0000     -14.413344      -392.2070
  20   2.0000     -10.384249      -282.5698
  21   2.0000     -10.383646      -282.5534
  22   2.0000     -10.381084      -282.4836
  23   2.0000     -10.380686      -282.4728
  24   2.0000     -10.377538      -282.3872
  25   2.0000     -10.377483      -282.3857
  26   2.0000     -10.377018      -282.3730
  27   2.0000     -10.365790      -282.0675
  28   2.0000     -10.364853      -282.0420
  29   2.0000     -10.364146      -282.0227
  30   2.0000     -10.351031      -281.6659
  31   2.0000     -10.345848      -281.5248
  32   2.0000     -10.344860      -281.4980
  33   2.0000     -10.343438      -281.4593
  34   2.0000     -10.342025      -281.4208
  35   2.0000     -10.335535      -281.2442
  36   2.0000     -10.335506      -281.2434
  37   2.0000     -10.331642      -281.1383
  38   2.0000     -10.330574      -281.1092
  39   2.0000     -10.326886      -281.0089
  40   2.0000     -10.323875      -280.9269
  41   2.0000     -10.323353      -280.9127
  42   2.0000     -10.322336      -280.8850
  43   2.0000     -10.320576      -280.8372
  44   2.0000     -10.320155      -280.8257
  45   2.0000     -10.319915      -280.8192
  46   2.0000     -10.319660      -280.8122
  47   2.0000     -10.316364      -280.7225
  48   2.0000     -10.315518      -280.6995
  49   2.0000     -10.315170      -280.6900
  50   2.0000     -10.315149      -280.6895
  51   2.0000     -10.314225      -280.6643
  52   2.0000     -10.313718      -280.6505
  53   2.0000     -10.313462      -280.6436
  54   2.0000     -10.310868      -280.5730
  55   2.0000     -10.310494      -280.5628
  56   2.0000     -10.310054      -280.5508
  57   2.0000     -10.307884      -280.4918
  58   2.0000     -10.306981      -280.4672
  59   2.0000     -10.305187      -280.4184
  60   2.0000     -10.304813      -280.4082
  61   2.0000     -10.304502      -280.3998
  62   2.0000     -10.304229      -280.3923
  63   2.0000     -10.303636      -280.3762
  64   2.0000     -10.303086      -280.3612
  65   2.0000     -10.302294      -280.3397
  66   2.0000     -10.302032      -280.3325
  67   2.0000     -10.300794      -280.2989
  68   2.0000     -10.300186      -280.2823
  69   2.0000     -10.299137      -280.2538
  70   2.0000     -10.297861      -280.2190
  71   2.0000     -10.297831      -280.2182
  72   2.0000     -10.296813      -280.1905
  73   2.0000     -10.296262      -280.1755
  74   2.0000     -10.295010      -280.1415
  75   2.0000     -10.293249      -280.0936
  76   2.0000     -10.291636      -280.0497
  77   2.0000     -10.289727      -279.9977
  78   2.0000     -10.287960      -279.9496
  79   2.0000     -10.282924      -279.8126
  80   2.0000     -10.271323      -279.4969
  81   2.0000     -10.271076      -279.4902
  82   2.0000      -8.074955      -219.7307
  83   2.0000      -8.070853      -219.6191
  84   2.0000      -8.070801      -219.6177
  85   2.0000      -8.070165      -219.6004
  86   2.0000      -6.044247      -164.4723
  87   2.0000      -6.040094      -164.3593
  88   2.0000      -6.039954      -164.3555
  89   2.0000      -6.039638      -164.3469
  90   2.0000      -6.039592      -164.3457
  91   2.0000      -6.037498      -164.2887
  92   2.0000      -6.036070      -164.2498
  93   2.0000      -6.035817      -164.2429
  94   2.0000      -6.035510      -164.2346
  95   2.0000      -6.033098      -164.1689
  96   2.0000      -6.033036      -164.1673
  97   2.0000      -6.031690      -164.1306
  98   2.0000      -1.323629       -36.0178
  99   2.0000      -1.320718       -35.9386
 100   2.0000      -1.308738       -35.6126
 101   2.0000      -1.305867       -35.5344
 102   2.0000      -1.144995       -31.1569
 103   2.0000      -1.142821       -31.0977
 104   2.0000      -1.137796       -30.9610
 105   2.0000      -1.130315       -30.7574
 106   2.0000      -1.124810       -30.6076
 107   2.0000      -1.120520       -30.4909
 108   2.0000      -1.110408       -30.2157
 109   2.0000      -1.083010       -29.4702
 110   2.0000      -1.022156       -27.8143
 111   2.0000      -1.021166       -27.7873
 112   2.0000      -1.014314       -27.6009
 113   2.0000      -1.006240       -27.3812
 114   2.0000      -1.005281       -27.3551
 115   2.0000      -1.003381       -27.3034
 116   2.0000      -0.994127       -27.0516
 117   2.0000      -0.993032       -27.0218
 118   2.0000      -0.992164       -26.9982
 119   2.0000      -0.984518       -26.7901
 120   2.0000      -0.980745       -26.6874
 121   2.0000      -0.940817       -25.6009
 122   2.0000      -0.938296       -25.5323
 123   2.0000      -0.936080       -25.4720
 124   2.0000      -0.932206       -25.3666
 125   2.0000      -0.927248       -25.2317
 126   2.0000      -0.918097       -24.9827
 127   2.0000      -0.908761       -24.7286
 128   2.0000      -0.901872       -24.5412
 129   2.0000      -0.896828       -24.4039
 130   2.0000      -0.894564       -24.3423
 131   2.0000      -0.892269       -24.2799
 132   2.0000      -0.887396       -24.1473
 133   2.0000      -0.883220       -24.0336
 134   2.0000      -0.868903       -23.6441
 135   2.0000      -0.848880       -23.0992
 136   2.0000      -0.843884       -22.9633
 137   2.0000      -0.843366       -22.9492
 138   2.0000      -0.840684       -22.8762
 139   2.0000      -0.839888       -22.8545
 140   2.0000      -0.836192       -22.7539
 141   2.0000      -0.832927       -22.6651
 142   2.0000      -0.827845       -22.5268
 143   2.0000      -0.810773       -22.0623
 144   2.0000      -0.795539       -21.6477
 145   2.0000      -0.785733       -21.3809
 146   2.0000      -0.770971       -20.9792
 147   2.0000      -0.768636       -20.9156
 148   2.0000      -0.766281       -20.8516
 149   2.0000      -0.763618       -20.7791
 150   2.0000      -0.747947       -20.3527
 151   2.0000      -0.744264       -20.2525
 152   2.0000      -0.732486       -19.9320
 153   2.0000      -0.725395       -19.7390
 154   2.0000      -0.721963       -19.6456
 155   2.0000      -0.717029       -19.5114
 156   2.0000      -0.715493       -19.4695
 157   2.0000      -0.707565       -19.2538
 158   2.0000      -0.707098       -19.2411
 159   2.0000      -0.702054       -19.1039
 160   2.0000      -0.701145       -19.0791
 161   2.0000      -0.691561       -18.8183
 162   2.0000      -0.683190       -18.5905
 163   2.0000      -0.678230       -18.4556
 164   2.0000      -0.671174       -18.2636
 165   2.0000      -0.663413       -18.0524
 166   2.0000      -0.659475       -17.9452
 167   2.0000      -0.654908       -17.8210
 168   2.0000      -0.653445       -17.7811
 169   2.0000      -0.652845       -17.7648
 170   2.0000      -0.645150       -17.5554
 171   2.0000      -0.642953       -17.4956
 172   2.0000      -0.640754       -17.4358
 173   2.0000      -0.632542       -17.2123
 174   2.0000      -0.625119       -17.0103
 175   2.0000      -0.622254       -16.9324
 176   2.0000      -0.616533       -16.7767
 177   2.0000      -0.615048       -16.7363
 178   2.0000      -0.611935       -16.6516
 179   2.0000      -0.606289       -16.4980
 180   2.0000      -0.599057       -16.3012
 181   2.0000      -0.591583       -16.0978
 182   2.0000      -0.588166       -16.0048
 183   2.0000      -0.585499       -15.9322
 184   2.0000      -0.585108       -15.9216
 185   2.0000      -0.581715       -15.8293
 186   2.0000      -0.579148       -15.7594
 187   2.0000      -0.576655       -15.6916
 188   2.0000      -0.572764       -15.5857
 189   2.0000      -0.571578       -15.5534
 190   2.0000      -0.570414       -15.5218
 191   2.0000      -0.568558       -15.4713
 192   2.0000      -0.561808       -15.2876
 193   2.0000      -0.561314       -15.2741
 194   2.0000      -0.558466       -15.1966
 195   2.0000      -0.555573       -15.1179
 196   2.0000      -0.553872       -15.0716
 197   2.0000      -0.550887       -14.9904
 198   2.0000      -0.549775       -14.9601
 199   2.0000      -0.547151       -14.8887
 200   2.0000      -0.546900       -14.8819
 201   2.0000      -0.544873       -14.8268
 202   2.0000      -0.544147       -14.8070
 203   2.0000      -0.543011       -14.7761
 204   2.0000      -0.538926       -14.6649
 205   2.0000      -0.537262       -14.6196
 206   2.0000      -0.535633       -14.5753
 207   2.0000      -0.534456       -14.5433
 208   2.0000      -0.532089       -14.4789
 209   2.0000      -0.529499       -14.4084
 210   2.0000      -0.528438       -14.3795
 211   2.0000      -0.526071       -14.3151
 212   2.0000      -0.523656       -14.2494
 213   2.0000      -0.520424       -14.1615
 214   2.0000      -0.519576       -14.1384
 215   2.0000      -0.518929       -14.1208
 216   2.0000      -0.517143       -14.0722
 217   2.0000      -0.515707       -14.0331
 218   2.0000      -0.514596       -14.0029
 219   2.0000      -0.511611       -13.9217
 220   2.0000      -0.508516       -13.8374
 221   2.0000      -0.504977       -13.7411
 222   2.0000      -0.503322       -13.6961
 223   2.0000      -0.501819       -13.6552
 224   2.0000      -0.499220       -13.5845
 225   2.0000      -0.498429       -13.5629
 226   2.0000      -0.497826       -13.5465
 227   2.0000      -0.490900       -13.3581
 228   2.0000      -0.489256       -13.3133
 229   2.0000      -0.486612       -13.2414
 230   2.0000      -0.485698       -13.2165
 231   2.0000      -0.483066       -13.1449
 232   2.0000      -0.482094       -13.1185
 233   2.0000      -0.479848       -13.0573
 234   2.0000      -0.476322       -12.9614
 235   2.0000      -0.474200       -12.9036
 236   2.0000      -0.472256       -12.8507
 237   2.0000      -0.470311       -12.7978
 238   2.0000      -0.468250       -12.7417
 239   2.0000      -0.466544       -12.6953
 240   2.0000      -0.464421       -12.6375
 241   2.0000      -0.462561       -12.5869
 242   2.0000      -0.460621       -12.5341
 243   2.0000      -0.456273       -12.4158
 244   2.0000      -0.452573       -12.3151
 245   2.0000      -0.452242       -12.3061
 246   2.0000      -0.450811       -12.2672
 247   2.0000      -0.449035       -12.2189
 248   2.0000      -0.448182       -12.1957
 249   2.0000      -0.445548       -12.1240
 250   2.0000      -0.442949       -12.0533
 251   2.0000      -0.442581       -12.0433
 252   2.0000      -0.441878       -12.0241
 253   2.0000      -0.439535       -11.9604
 254   2.0000      -0.437680       -11.9099
 255   2.0000      -0.436696       -11.8831
 256   2.0000      -0.434350       -11.8193
 257   2.0000      -0.432755       -11.7759
 258   2.0000      -0.427547       -11.6341
 259   2.0000      -0.426937       -11.6175
 260   2.0000      -0.425948       -11.5906
 261   2.0000      -0.424057       -11.5392
 262   2.0000      -0.422345       -11.4926
 263   2.0000      -0.420880       -11.4527
 264   2.0000      -0.417290       -11.3550
 265   2.0000      -0.411999       -11.2111
 266   2.0000      -0.408448       -11.1144
 267   2.0000      -0.398527       -10.8445
 268   2.0000      -0.393017       -10.6945
 269   2.0000      -0.386201       -10.5091
 270   2.0000      -0.382570       -10.4103
 271   2.0000      -0.373242       -10.1564
 272   2.0000      -0.363699        -9.8968
 273   2.0000      -0.358251        -9.7485
 274   2.0000      -0.356605        -9.7037
 275   2.0000      -0.351143        -9.5551
 276   2.0000      -0.350060        -9.5256
 277   2.0000      -0.341467        -9.2918
 278   2.0000      -0.339062        -9.2263
 279   2.0000      -0.335111        -9.1188
 280   2.0000      -0.332337        -9.0433
 281   2.0000      -0.329709        -8.9718
 282   2.0000      -0.329125        -8.9559
 283   2.0000      -0.327725        -8.9179
 284   2.0000      -0.325189        -8.8489
 285   2.0000      -0.321206        -8.7405
 286   2.0000      -0.317520        -8.6402
 287   2.0000      -0.313375        -8.5274
 288   2.0000      -0.306374        -8.3368
 289   2.0000      -0.303041        -8.2462
 290   2.0000      -0.298788        -8.1304
 291   2.0000      -0.284549        -7.7430
 292   2.0000      -0.244182        -6.6445
 293   0.0000      -0.110819        -3.0155
 294   0.0000      -0.098332        -2.6758
 295   0.0000      -0.079111        -2.1527
 296   0.0000      -0.065271        -1.7761
 297   0.0000      -0.057944        -1.5767

MULLIKEN ATOMIC CHARGES
-----------------------
   0 C :   -0.112991
   1 C :    0.245753
   2 F :   -0.169774
   3 C :    0.241500
   4 F :   -0.170811
   5 C :   -0.110971
   6 C :    0.120429
   7 C :    0.119991
   8 C :   -0.090351
   9 C :    0.055772
  10 C :    0.001613
  11 C :   -0.087208
  12 C :    0.168358
  13 O :   -0.175563
  14 C :   -0.089751
  15 C :    0.296218
  16 C :   -0.325179
  17 C :   -0.210610
  18 N :    0.175967
  19 C :   -0.180899
  20 N :    0.148661
  21 C :   -0.046010
  22 C :   -0.117597
  23 S :    0.225605
  24 C :   -0.108784
  25 C :    0.023945
  26 C :    0.024473
  27 C :    0.033245
  28 O :   -0.133080
  29 C :    0.068251
  30 C :    0.035811
  31 O :   -0.161474
  32 C :    0.013860
  33 C :    0.029218
  34 C :   -0.172920
  35 S :    0.162414
  36 C :   -0.158311
  37 C :    0.089061
  38 C :   -0.003038
  39 S :    0.125200
  40 C :    0.021408
  41 N :   -0.049013
  42 C :    0.058385
  43 C :    0.021684
  44 C :   -0.117858
  45 S :    0.176943
  46 C :    0.018224
  47 C :    0.137912
  48 O :   -0.172709
  49 C :   -0.010455
  50 C :    0.011938
  51 N :   -0.135095
  52 C :    0.090135
  53 C :    0.002656
  54 C :    0.013642
  55 C :   -0.027650
  56 C :    0.146105
  57 O :   -0.158556
  58 C :    0.076160
  59 C :   -0.224355
  60 C :    0.076946
  61 C :   -0.133417
  62 C :    0.142647
  63 O :   -0.131733
  64 C :    0.006353
  65 C :   -0.079842
  66 C :    0.110462
  67 C :    0.109866
  68 C :   -0.104733
  69 C :    0.240503
  70 C :    0.238194
  71 C :   -0.101019
  72 F :   -0.172390
  73 F :   -0.171354
  74 C :   -0.079560
  75 C :    0.041467
  76 C :    0.257101
  77 C :   -0.324487
  78 C :   -0.198938
  79 N :    0.175904
  80 C :   -0.176399
  81 N :    0.153749
  82 H :    0.007836
  83 H :   -0.000848
  84 H :   -0.004190
  85 H :   -0.010350
  86 H :    0.045013
  87 H :    0.064393
  88 H :    0.076769
  89 H :   -0.010800
  90 H :    0.010728
  91 H :    0.051194
  92 H :    0.004562
  93 H :    0.005541
  94 H :    0.006538
  95 H :    0.033773
  96 H :    0.033695
  97 H :    0.032322
  98 H :    0.030584
  99 H :    0.033081
 100 H :    0.009300
 101 H :    0.052054
 102 H :   -0.009078
 103 H :    0.004220
 104 H :   -0.000406
 105 H :   -0.004777
Sum of atomic charges:   -0.0000000

LOEWDIN ATOMIC CHARGES
----------------------
   0 C :   -0.029044
   1 C :    0.067349
   2 F :   -0.047843
   3 C :    0.067370
   4 F :   -0.049008
   5 C :   -0.033260
   6 C :   -0.009349
   7 C :   -0.005367
   8 C :    0.017219
   9 C :   -0.020369
  10 C :   -0.052836
  11 C :    0.030375
  12 C :    0.085246
  13 O :   -0.163528
  14 C :   -0.097584
  15 C :    0.071932
  16 C :   -0.130522
  17 C :   -0.028467
  18 N :   -0.035788
  19 C :   -0.016580
  20 N :   -0.050815
  21 C :    0.060328
  22 C :   -0.172990
  23 S :    0.535271
  24 C :   -0.119614
  25 C :   -0.107857
  26 C :   -0.056400
  27 C :    0.080017
  28 O :   -0.117934
  29 C :   -0.065545
  30 C :    0.083511
  31 O :   -0.140329
  32 C :   -0.072384
  33 C :    0.008689
  34 C :   -0.198006
  35 S :    0.468770
  36 C :   -0.158842
  37 C :   -0.064814
  38 C :   -0.188780
  39 S :    0.402354
  40 C :   -0.087415
  41 N :   -0.083102
  42 C :   -0.005998
  43 C :   -0.043015
  44 C :   -0.103354
  45 S :    0.495401
  46 C :   -0.089275
  47 C :    0.085658
  48 O :   -0.162708
  49 C :   -0.099684
  50 C :    0.031906
  51 N :    0.091195
  52 C :    0.044249
  53 C :   -0.056651
  54 C :    0.034363
  55 C :   -0.102745
  56 C :    0.083344
  57 O :   -0.150959
  58 C :   -0.048910
  59 C :   -0.157898
  60 C :    0.063526
  61 C :   -0.092273
  62 C :    0.083372
  63 O :   -0.132949
  64 C :   -0.053295
  65 C :    0.030380
  66 C :   -0.009263
  67 C :   -0.005993
  68 C :   -0.030615
  69 C :    0.066581
  70 C :    0.066660
  71 C :   -0.032686
  72 F :   -0.049759
  73 F :   -0.049189
  74 C :    0.013695
  75 C :   -0.019974
  76 C :    0.060600
  77 C :   -0.137338
  78 C :   -0.031939
  79 N :   -0.043858
  80 C :   -0.017891
  81 N :   -0.051351
  82 H :    0.048034
  83 H :    0.044591
  84 H :    0.040406
  85 H :    0.040076
  86 H :    0.055477
  87 H :    0.061066
  88 H :    0.067271
  89 H :    0.022890
  90 H :    0.036306
  91 H :    0.024307
  92 H :    0.031769
  93 H :    0.030428
  94 H :    0.029465
  95 H :    0.033753
  96 H :    0.033902
  97 H :    0.031361
  98 H :    0.033388
  99 H :    0.031547
 100 H :    0.030777
 101 H :    0.055997
 102 H :    0.040752
 103 H :    0.046776
 104 H :    0.044916
 105 H :    0.039330

  Mayer bond orders larger than 0.100000
B(  0-C ,  1-C ) :   1.4394 B(  0-C ,  5-C ) :   0.1089 B(  0-C ,  7-C ) :   1.1874
B(  0-C , 82-H ) :   1.0082 B(  1-C ,  2-F ) :   1.1360 B(  1-C ,  3-C ) :   1.1908
B(  3-C ,  4-F ) :   1.1349 B(  3-C ,  5-C ) :   1.4426 B(  5-C ,  6-C ) :   1.1894
B(  5-C , 83-H ) :   1.0085 B(  6-C ,  7-C ) :   1.2571 B(  6-C , 11-C ) :   1.1894
B(  7-C ,  8-C ) :   1.2103 B(  8-C ,  9-C ) :   1.4540 B(  8-C , 84-H ) :   0.9930
B(  9-C , 10-C ) :   1.2213 B(  9-C , 15-C ) :   0.9874 B( 10-C , 11-C ) :   1.4657
B( 10-C , 12-C ) :   0.9538 B( 11-C , 85-H ) :   1.0180 B( 12-C , 13-O ) :   2.1424
B( 12-C , 14-C ) :   0.9717 B( 14-C , 15-C ) :   1.0569 B( 14-C , 21-C ) :   1.5278
B( 15-C , 16-C ) :   1.6589 B( 16-C , 17-C ) :   1.1342 B( 16-C , 19-C ) :   1.1420
B( 17-C , 18-N ) :   3.0091 B( 19-C , 20-N ) :   2.9686 B( 21-C , 22-C ) :   1.2478
B( 21-C , 86-H ) :   0.9405 B( 22-C , 23-S ) :   1.0954 B( 22-C , 26-C ) :   1.4052
B( 23-S , 24-C ) :   1.1566 B( 24-C , 25-C ) :   1.3378 B( 24-C , 32-C ) :   1.2038
B( 25-C , 26-C ) :   1.2763 B( 25-C , 30-C ) :   0.9551 B( 26-C , 27-C ) :   0.9351
B( 27-C , 28-O ) :   2.2019 B( 27-C , 29-C ) :   0.9987 B( 29-C , 30-C ) :   1.0045
B( 29-C , 87-H ) :   0.8981 B( 29-C , 88-H ) :   0.8943 B( 30-C , 31-O ) :   2.1318
B( 31-O , 90-H ) :   0.1172 B( 32-C , 33-C ) :   1.5945 B( 32-C , 89-H ) :   0.9529
B( 33-C , 34-C ) :   1.2115 B( 33-C , 90-H ) :   0.9413 B( 34-C , 35-S ) :   1.0970
B( 34-C , 36-C ) :   0.1049 B( 34-C , 38-C ) :   1.4580 B( 35-S , 36-C ) :   1.1457
B( 36-C , 37-C ) :   1.3776 B( 36-C , 42-C ) :   1.1623 B( 37-C , 38-C ) :   1.2654
B( 37-C , 41-N ) :   1.2904 B( 38-C , 39-S ) :   1.0662 B( 39-S , 40-C ) :   1.0918
B( 39-S , 41-N ) :   0.1048 B( 40-C , 41-N ) :   1.7739 B( 40-C , 91-H ) :   0.9632
B( 42-C , 43-C ) :   1.6674 B( 42-C , 92-H ) :   0.9368 B( 43-C , 44-C ) :   1.1395
B( 43-C , 93-H ) :   0.9276 B( 44-C , 45-S ) :   1.1655 B( 44-C , 46-C ) :   1.4376
B( 45-S , 59-C ) :   1.1253 B( 46-C , 47-C ) :   0.9387 B( 46-C , 58-C ) :   1.2138
B( 47-C , 48-O ) :   2.1781 B( 47-C , 49-C ) :   1.0007 B( 49-C , 50-C ) :   1.4296
B( 49-C , 55-C ) :   1.2895 B( 50-C , 51-N ) :   1.2325 B( 50-C , 94-H ) :   0.9924
B( 51-N , 52-C ) :   0.9509 B( 51-N , 54-C ) :   1.2392 B( 52-C , 53-C ) :   1.1105
B( 52-C , 95-H ) :   0.9510 B( 52-C , 96-H ) :   0.9508 B( 53-C , 97-H ) :   0.9673
B( 53-C , 98-H ) :   0.9683 B( 53-C , 99-H ) :   0.9675 B( 54-C , 55-C ) :   1.4223
B( 54-C ,100-H ) :   0.9934 B( 55-C , 56-C ) :   0.9994 B( 56-C , 57-O ) :   2.2035
B( 56-C , 58-C ) :   0.9282 B( 58-C , 59-C ) :   1.4835 B( 59-C , 60-C ) :   1.0980
B( 60-C , 61-C ) :   1.6598 B( 60-C ,101-H ) :   0.9298 B( 61-C , 62-C ) :   0.9329
B( 61-C , 76-C ) :   1.0279 B( 62-C , 63-O ) :   2.2842 B( 62-C , 64-C ) :   0.9140
B( 64-C , 65-C ) :   1.4775 B( 64-C , 75-C ) :   1.2206 B( 65-C , 66-C ) :   1.1944
B( 65-C ,102-H ) :   1.0152 B( 66-C , 67-C ) :   1.2564 B( 66-C , 71-C ) :   1.1945
B( 67-C , 68-C ) :   1.1883 B( 67-C , 74-C ) :   1.2169 B( 68-C , 69-C ) :   1.4433
B( 68-C , 71-C ) :   0.1091 B( 68-C ,103-H ) :   1.0062 B( 69-C , 70-C ) :   1.1919
B( 69-C , 73-F ) :   1.1342 B( 70-C , 71-C ) :   1.4432 B( 70-C , 72-F ) :   1.1320
B( 71-C ,104-H ) :   1.0062 B( 74-C , 75-C ) :   1.4554 B( 74-C ,105-H ) :   0.9930
B( 75-C , 76-C ) :   0.9998 B( 76-C , 77-C ) :   1.6657 B( 77-C , 78-C ) :   1.1554
B( 77-C , 80-C ) :   1.1345 B( 78-C , 79-N ) :   3.0184 B( 80-C , 81-N ) :   2.9864

-----------------------------------------------------------------------------
         ABSORPTION SPECTRUM VIA TRANSITION ELECTRIC DIPOLE MOMENTS
-----------------------------------------------------------------------------
State   Energy  Wavelength   fosc         T2         TX        TY        TZ
        (cm-1)    (nm)                  (au**2)     (au)      (au)      (au)
-----------------------------------------------------------------------------
   0   14809.9    675.2   1.925005658  42.79122   4.57217   2.92987   3.64725
   1   18241.9    548.2   0.025743083   0.46459  -0.36716  -0.16941   0.54871
   2   21651.4    461.9   0.457020735   6.94906  -2.33498   1.21270   0.16210
   3   24432.2    409.3   0.021579790   0.29078  -0.08114  -0.42731  -0.31875
   4   25740.4    388.5   0.034223544   0.43771   0.27073  -0.39443  -0.45699
   5   26131.3    382.7   0.068943122   0.86857  -0.40618  -0.50375  -0.67069
   6   26569.2    376.4   0.047011730   0.58251   0.43306   0.62560   0.05994
   7   26626.6    375.6   0.001629399   0.02015  -0.07538  -0.01571   0.11923
   8   26777.6    373.4   0.028025808   0.34456  -0.39598  -0.37549   0.21625
   9   27315.7    366.1   0.027183787   0.32762   0.05819  -0.56938  -0.00630
  10   27786.8    359.9   0.371231604   4.39828  -0.78808   1.18128   1.54330
  11   27970.1    357.5   0.060311273   0.70987   0.35736  -0.48905  -0.58565
  12   28100.7    355.9   0.084076263   0.98499   0.02366   0.95593   0.26577
  13   28327.6    353.0   0.170020037   1.97590   0.47878   1.29989   0.23864
  14   28750.2    347.8   0.002433404   0.02786   0.07916  -0.00010   0.14696
  15   29107.1    343.6   0.020855171   0.23588  -0.27255   0.13057   0.38019
  16   29387.9    340.3   0.059320996   0.66453   0.11243  -0.76381  -0.26169
  17   29586.1    338.0   0.083326748   0.92720   0.40744   0.86291  -0.12876
  18   30111.5    332.1   0.026480420   0.28951   0.24724   0.26546   0.39738
  19   31119.5    321.3   0.029075321   0.30759   0.20536  -0.39288  -0.33325
  20   31354.6    318.9   0.000441733   0.00464   0.00737  -0.04347   0.05191
  21   31936.9    313.1   0.144663059   1.49122   0.34909  -1.11764  -0.34673
  22   31966.4    312.8   0.140209538   1.44397  -0.34825   1.07981   0.39586
  23   32143.3    311.1   0.019756115   0.20234   0.24483   0.15878  -0.34232
  24   32389.8    308.7   0.012526798   0.12732  -0.09238   0.27505  -0.20769
  25   32671.3    306.1   0.049834855   0.50216   0.04453  -0.70309   0.07642
  26   32830.4    304.6   0.003930448   0.03941  -0.12182  -0.12201   0.09842
  27   33240.5    300.8   0.647390979   6.41171   1.75968  -0.39171  -1.77814
  28   33406.2    299.3   0.160915309   1.58579  -0.12004  -1.20455  -0.34704
  29   33763.5    296.2   0.120220602   1.17221   0.36891   1.00230  -0.17754
  30   34048.9    293.7   0.020503075   0.19824   0.28071   0.25037   0.23823
  31   34171.5    292.6   0.019743581   0.19021   0.40855   0.14466   0.04868
  32   34284.6    291.7   0.077391419   0.74314  -0.07198   0.66251   0.54684
  33   34574.4    289.2   0.541222774   5.15344  -0.72879  -2.13018   0.29096
  34   34794.4    287.4   0.057063564   0.53992   0.39389   0.54660  -0.29324
  35   34912.6    286.4   0.041279297   0.38925  -0.51140   0.24541   0.25978
  36   35127.6    284.7   0.084476920   0.79171  -0.23217  -0.82671  -0.23313
  37   35388.4    282.6   0.004399774   0.04093  -0.09450   0.04068   0.17420
  38   35459.2    282.0   0.035036782   0.32529  -0.49078   0.21987   0.18996
  39   35907.4    278.5   0.042674829   0.39126  -0.30782   0.49924   0.21742
  40   35986.1    277.9   0.078415931   0.71737   0.52859   0.63977  -0.16927
  41   36375.6    274.9   0.069124745   0.62560   0.27093  -0.72345  -0.16976
  42   36835.6    271.5   0.086002106   0.76863  -0.73977   0.18620   0.43208
  43   37092.4    269.6   0.064383698   0.57143  -0.42532   0.19616   0.59335
  44   37440.7    267.1   0.027034031   0.23771   0.18483  -0.44349   0.08285
  45   37600.1    266.0   0.106105287   0.92902   0.56908  -0.74214  -0.23322
  46   37774.6    264.7   0.052464407   0.45724  -0.53179  -0.17258   0.38033
  47   37891.0    263.9   0.006680085   0.05804   0.15955   0.13088  -0.12431
  48   38469.1    259.9   0.036339862   0.31099   0.55599  -0.03728   0.02170
  49   38541.6    259.5   0.073311304   0.62620   0.77110  -0.09722  -0.14883
  50   38765.7    258.0   0.046975186   0.39893   0.33416   0.31783   0.43157
  51   38950.9    256.7   0.009348119   0.07901  -0.15374  -0.23180   0.04055
  52   39052.7    256.1   0.264706186   2.23146   1.42769   0.43629   0.05313
  53   39329.1    254.3   0.019998768   0.16740  -0.08797   0.21069   0.33952
  54   39468.3    253.4   0.018524772   0.15452  -0.31843  -0.19671  -0.12011
  55   39659.6    252.1   0.046160662   0.38318  -0.03128  -0.55959  -0.26278
  56   39933.3    250.4   0.004291991   0.03538   0.02154   0.17990   0.05056
  57   40113.8    249.3   0.296103587   2.43011   0.22911   1.15128   1.02576
  58   40174.0    248.9   0.168417582   1.38012  -0.69912  -0.60511  -0.72470
  59   40233.3    248.6   0.096948702   0.79329   0.08755  -0.39477  -0.79359
  60   40286.6    248.2   0.358525511   2.92978   0.46951  -0.91154  -1.37056

FINAL SINGLE POINT ENERGY     -5144.125213074588

DIPOLE MOMENT
-------------
                                X             Y             Z
Electronic contribution:     21.40635     -29.75399      24.88040
Nuclear contribution   :    -24.28645      30.45475     -24.15730
                        -----------------------------------------
Total Dipole Moment    :     -2.88009       0.70077       0.72310
                        -----------------------------------------
Magnitude (a.u.)       :      3.05105
Magnitude (Debye)      :      7.75515

Rotational constants in cm-1:     0.000957     0.000186     0.000170
Rotational constants in MHz :    28.703678     5.577803     5.094329

                             ****ORCA TERMINATED NORMALLY****
TOTAL RUN TIME: 0 days 0 hours 10 minutes 59 seconds 842 msec
