                         Program Version 4.2.0 -  RELEASE  -
|  1> # ORCA input file
|  2> # SCF done       -227.222970295800          0.000649559395
|  3> ! CAM-B3LYP def2-SVP def2/J RIJCOSX Grid4 TightSCF
|  4> %maxcore 5000
|  5> %tddft
|  6>     Mode sTDDFT
|  7>     Ethresh 5.0
|  8>     maxcore 5000
|  9> end
| 10>
| 11> %pal
| 12>   nprocs 6
| 13>   end
| 14> * xyz 0 1
| 15>    C      -10.50038         0.10530        -5.01512
| 16>    C      -10.83175        -0.16051        -6.31394
| 17>    F      -11.58732         0.69950        -7.00488
| 18>    C      -10.38384        -1.34166        -6.94253
| 19>    F      -10.72412        -1.57336        -8.21488
| 20>    C       -9.61142        -2.24095        -6.26232
| 21>    C       -9.25442        -1.99642        -4.92154
| 22>    C       -9.70607        -0.80255        -4.28522
| 23>    C       -9.36331        -0.53716        -2.94116
| 24>    C       -8.59785        -1.44051        -2.24821
| 25>    C       -8.15192        -2.63034        -2.89168
| 26>    C       -8.46096        -2.90889        -4.19366
| 27>    C       -7.35388        -3.43275        -1.95369
| 28>    O       -6.74978        -4.45420        -2.18706
| 29>    C       -7.36303        -2.66652        -0.66420
| 30>    C       -8.11704        -1.43295        -0.87252
| 31>    C       -8.37148        -0.47183         0.06288
| 32>    C       -9.13005         0.69475        -0.18539
| 33>    N       -9.73220         1.66056        -0.32693
| 34>    C       -7.92829        -0.50531         1.40466
| 35>    N       -7.61174        -0.47004         2.50658
| 36>    C       -6.69095        -3.05676         0.43487
| 37>    C       -6.07810        -4.37520         0.55563
| 38>    C       -4.73548        -4.51092         0.91010
| 39>    F       -4.00871        -3.40921         1.11472
| 40>    C       -4.13919        -5.75900         0.99733
| 41>    F       -2.83819        -5.85917         1.28201
| 42>    C       -4.87045        -6.92231         0.75582
| 43>    C       -6.22262        -6.78859         0.43701
| 44>    C       -6.81500        -5.54203         0.33751
| 45>    F       -8.11983        -5.45366         0.06255
| 46>    F       -6.95389        -7.89369         0.23510
| 47>    C       -4.25185        -8.23828         0.86347
| 48>    C       -3.65970        -8.77165         1.97750
| 49>    N       -3.53355        -8.16067         3.25251
| 50>    O       -2.80689        -8.70529         4.05587
| 51>    O       -4.17916        -7.15171         3.46321
| 52>    C       -3.22016       -10.12278         1.69621
| 53>    C       -3.59525       -10.43489         0.43940
| 54>    C       -4.24616        -9.28008        -0.16160
| 55>    C       -4.65089        -9.13744        -1.46344
| 56>    C       -4.76533        -7.90924        -2.20165
| 57>    C       -4.82227        -8.20382        -3.52378
| 58>    C       -4.85559        -9.63834        -3.68742
| 59>    N       -4.95486       -10.26168        -4.94804
| 60>    O       -5.12074       -11.46841        -4.98955
| 61>    O       -4.87034        -9.54616        -5.92752
| 62>    C       -4.80389       -10.24199        -2.44991
| 63>    C       -4.94780       -11.62204        -2.16668
| 64>    C       -5.48652       -12.12510        -1.03091
| 65>    C       -5.61356       -13.53195        -0.76749
| 66>    C       -6.67200       -14.06465        -0.07331
| 67>    S       -6.65529       -15.77266        -0.02933
| 68>    C       -5.19936       -15.81682        -0.92290
| 69>    C       -4.73998       -14.56965        -1.24174
| 70>    C       -3.42801       -14.41719        -1.88541
| 71>    O       -2.93071       -15.20446        -2.64323
| 72>    O       -2.77691       -13.29472        -1.44771
| 73>    C       -1.53889       -13.05599        -1.94567
| 74>    C       -0.78333       -12.04014        -1.50614
| 75>    C        0.54961       -11.78276        -1.95372
| 76>    C        1.17544       -12.12259        -3.10640
| 77>    C        2.67194       -12.08661        -3.13454
| 78>    O        3.39137       -11.54352        -2.33221
| 79>    C        3.05575       -12.90239        -4.30114
| 80>    C        4.29976       -13.30905        -4.69060
| 81>    C        4.42615       -14.13469        -5.82953
| 82>    C        3.25546       -14.53012        -6.54101
| 83>    C        3.38823       -15.36814        -7.66664
| 84>    C        4.62424       -15.78991        -8.06908
| 85>    C        5.78168       -15.39425        -7.36741
| 86>    C        5.68615       -14.58369        -6.27125
| 87>    F        6.97911       -15.82306        -7.78471
| 88>    F        4.74904       -16.58675        -9.13679
| 89>    C        1.98173       -14.08400        -6.12143
| 90>    C        1.88430       -13.27358        -5.02145
| 91>    C        0.72750       -12.65206        -4.38269
| 92>    C       -0.46909       -12.40288        -4.99874
| 93>    C       -1.47899       -11.61102        -4.42326
| 94>    N       -2.30685       -10.95051        -3.98063
| 95>    C       -0.78302       -12.84468        -6.30276
| 96>    N       -1.06793       -13.19233        -7.35760
| 97>    H      -10.85174         1.01290        -4.54962
| 98>    H       -9.27711        -3.13928        -6.75719
| 99>    H       -9.71627         0.37644        -2.49108
|100>    H       -8.10864        -3.81776        -4.65714
|101>    H       -6.55817        -2.39723         1.28218
|102>    H       -2.69184       -10.72859         2.40682
|103>    H       -3.38453       -11.34436        -0.08487
|104>    H       -4.69680        -6.92467        -1.78390
|105>    H       -4.84447        -7.51448        -4.34678
|106>    H       -4.69169       -12.28801        -2.98153
|107>    H       -5.94043       -11.46132        -0.30654
|108>    H       -7.48373       -13.52509         0.37357
|109>    H       -4.72379       -16.75076        -1.14946
|110>    H       -1.19619       -13.77919        -2.67769
|111>    H       -1.15568       -11.41108        -0.71047
|112>    H        1.19107       -11.28967        -1.22880
|113>    H        5.17452       -13.00810        -4.13464
|114>    H        2.51347       -15.67668        -8.21739
|115>    H        6.58079       -14.29044        -5.74470
|116>    H        1.11188       -14.40530        -6.67177
|117> *
|118>
|119>                          ****END OF INPUT****

CARTESIAN COORDINATES (ANGSTROEM)
---------------------------------
  C    -10.500380    0.105300   -5.015120
  C    -10.831750   -0.160510   -6.313940
  F    -11.587320    0.699500   -7.004880
  C    -10.383840   -1.341660   -6.942530
  F    -10.724120   -1.573360   -8.214880
  C     -9.611420   -2.240950   -6.262320
  C     -9.254420   -1.996420   -4.921540
  C     -9.706070   -0.802550   -4.285220
  C     -9.363310   -0.537160   -2.941160
  C     -8.597850   -1.440510   -2.248210
  C     -8.151920   -2.630340   -2.891680
  C     -8.460960   -2.908890   -4.193660
  C     -7.353880   -3.432750   -1.953690
  O     -6.749780   -4.454200   -2.187060
  C     -7.363030   -2.666520   -0.664200
  C     -8.117040   -1.432950   -0.872520
  C     -8.371480   -0.471830    0.062880
  C     -9.130050    0.694750   -0.185390
  N     -9.732200    1.660560   -0.326930
  C     -7.928290   -0.505310    1.404660
  N     -7.611740   -0.470040    2.506580
  C     -6.690950   -3.056760    0.434870
  C     -6.078100   -4.375200    0.555630
  C     -4.735480   -4.510920    0.910100
  F     -4.008710   -3.409210    1.114720
  C     -4.139190   -5.759000    0.997330
  F     -2.838190   -5.859170    1.282010
  C     -4.870450   -6.922310    0.755820
  C     -6.222620   -6.788590    0.437010
  C     -6.815000   -5.542030    0.337510
  F     -8.119830   -5.453660    0.062550
  F     -6.953890   -7.893690    0.235100
  C     -4.251850   -8.238280    0.863470
  C     -3.659700   -8.771650    1.977500
  N     -3.533550   -8.160670    3.252510
  O     -2.806890   -8.705290    4.055870
  O     -4.179160   -7.151710    3.463210
  C     -3.220160  -10.122780    1.696210
  C     -3.595250  -10.434890    0.439400
  C     -4.246160   -9.280080   -0.161600
  C     -4.650890   -9.137440   -1.463440
  C     -4.765330   -7.909240   -2.201650
  C     -4.822270   -8.203820   -3.523780
  C     -4.855590   -9.638340   -3.687420
  N     -4.954860  -10.261680   -4.948040
  O     -5.120740  -11.468410   -4.989550
  O     -4.870340   -9.546160   -5.927520
  C     -4.803890  -10.241990   -2.449910
  C     -4.947800  -11.622040   -2.166680
  C     -5.486520  -12.125100   -1.030910
  C     -5.613560  -13.531950   -0.767490
  C     -6.672000  -14.064650   -0.073310
  S     -6.655290  -15.772660   -0.029330
  C     -5.199360  -15.816820   -0.922900
  C     -4.739980  -14.569650   -1.241740
  C     -3.428010  -14.417190   -1.885410
  O     -2.930710  -15.204460   -2.643230
  O     -2.776910  -13.294720   -1.447710
  C     -1.538890  -13.055990   -1.945670
  C     -0.783330  -12.040140   -1.506140
  C      0.549610  -11.782760   -1.953720
  C      1.175440  -12.122590   -3.106400
  C      2.671940  -12.086610   -3.134540
  O      3.391370  -11.543520   -2.332210
  C      3.055750  -12.902390   -4.301140
  C      4.299760  -13.309050   -4.690600
  C      4.426150  -14.134690   -5.829530
  C      3.255460  -14.530120   -6.541010
  C      3.388230  -15.368140   -7.666640
  C      4.624240  -15.789910   -8.069080
  C      5.781680  -15.394250   -7.367410
  C      5.686150  -14.583690   -6.271250
  F      6.979110  -15.823060   -7.784710
  F      4.749040  -16.586750   -9.136790
  C      1.981730  -14.084000   -6.121430
  C      1.884300  -13.273580   -5.021450
  C      0.727500  -12.652060   -4.382690
  C     -0.469090  -12.402880   -4.998740
  C     -1.478990  -11.611020   -4.423260
  N     -2.306850  -10.950510   -3.980630
  C     -0.783020  -12.844680   -6.302760
  N     -1.067930  -13.192330   -7.357600
  H    -10.851740    1.012900   -4.549620
  H     -9.277110   -3.139280   -6.757190
  H     -9.716270    0.376440   -2.491080
  H     -8.108640   -3.817760   -4.657140
  H     -6.558170   -2.397230    1.282180
  H     -2.691840  -10.728590    2.406820
  H     -3.384530  -11.344360   -0.084870
  H     -4.696800   -6.924670   -1.783900
  H     -4.844470   -7.514480   -4.346780
  H     -4.691690  -12.288010   -2.981530
  H     -5.940430  -11.461320   -0.306540
  H     -7.483730  -13.525090    0.373570
  H     -4.723790  -16.750760   -1.149460
  H     -1.196190  -13.779190   -2.677690
  H     -1.155680  -11.411080   -0.710470
  H      1.191070  -11.289670   -1.228800
  H      5.174520  -13.008100   -4.134640
  H      2.513470  -15.676680   -8.217390
  H      6.580790  -14.290440   -5.744700
  H      1.111880  -14.405300   -6.671770

 Total Charge           Charge          ....    0
 Multiplicity           Mult            ....    1
 Number of Electrons    NEL             ....  568
 Basis Dimension        Dim             .... 1252

ORBITAL ENERGIES
----------------

  NO   OCC          E(Eh)            E(eV)
   0   2.0000     -88.988252     -2421.4935
   1   2.0000     -24.809529      -675.1016
   2   2.0000     -24.809319      -675.0959
   3   2.0000     -24.809083      -675.0895
   4   2.0000     -24.806659      -675.0235
   5   2.0000     -24.806545      -675.0204
   6   2.0000     -24.805973      -675.0048
   7   2.0000     -24.802333      -674.9058
   8   2.0000     -24.801558      -674.8847
   9   2.0000     -19.311509      -525.4929
  10   2.0000     -19.250797      -523.8408
  11   2.0000     -19.247856      -523.7608
  12   2.0000     -19.240150      -523.5511
  13   2.0000     -19.235311      -523.4194
  14   2.0000     -19.232116      -523.3325
  15   2.0000     -19.231443      -523.3142
  16   2.0000     -19.222864      -523.0807
  17   2.0000     -14.657104      -398.8401
  18   2.0000     -14.639980      -398.3741
  19   2.0000     -14.430055      -392.6618
  20   2.0000     -14.429925      -392.6582
  21   2.0000     -14.429141      -392.6369
  22   2.0000     -14.421524      -392.4296
  23   2.0000     -10.438751      -284.0529
  24   2.0000     -10.390895      -282.7506
  25   2.0000     -10.390382      -282.7367
  26   2.0000     -10.389085      -282.7014
  27   2.0000     -10.389021      -282.6996
  28   2.0000     -10.386909      -282.6422
  29   2.0000     -10.386609      -282.6340
  30   2.0000     -10.385875      -282.6140
  31   2.0000     -10.385720      -282.6098
  32   2.0000     -10.385253      -282.5971
  33   2.0000     -10.373992      -282.2907
  34   2.0000     -10.370583      -282.1979
  35   2.0000     -10.361134      -281.9408
  36   2.0000     -10.356527      -281.8154
  37   2.0000     -10.352984      -281.7190
  38   2.0000     -10.352354      -281.7019
  39   2.0000     -10.342833      -281.4428
  40   2.0000     -10.336846      -281.2799
  41   2.0000     -10.336239      -281.2634
  42   2.0000     -10.332248      -281.1548
  43   2.0000     -10.331696      -281.1397
  44   2.0000     -10.331190      -281.1260
  45   2.0000     -10.329655      -281.0842
  46   2.0000     -10.328372      -281.0493
  47   2.0000     -10.327967      -281.0383
  48   2.0000     -10.327157      -281.0162
  49   2.0000     -10.326853      -281.0079
  50   2.0000     -10.324930      -280.9556
  51   2.0000     -10.323708      -280.9224
  52   2.0000     -10.323318      -280.9118
  53   2.0000     -10.321510      -280.8626
  54   2.0000     -10.321238      -280.8552
  55   2.0000     -10.320690      -280.8403
  56   2.0000     -10.320568      -280.8369
  57   2.0000     -10.320453      -280.8338
  58   2.0000     -10.318054      -280.7685
  59   2.0000     -10.315848      -280.7085
  60   2.0000     -10.315534      -280.7000
  61   2.0000     -10.314915      -280.6831
  62   2.0000     -10.314381      -280.6686
  63   2.0000     -10.314202      -280.6637
  64   2.0000     -10.312316      -280.6124
  65   2.0000     -10.311550      -280.5915
  66   2.0000     -10.310194      -280.5546
  67   2.0000     -10.309514      -280.5361
  68   2.0000     -10.308601      -280.5113
  69   2.0000     -10.308397      -280.5057
  70   2.0000     -10.306280      -280.4481
  71   2.0000     -10.306183      -280.4455
  72   2.0000     -10.306127      -280.4440
  73   2.0000     -10.305464      -280.4259
  74   2.0000     -10.304619      -280.4029
  75   2.0000     -10.301551      -280.3195
  76   2.0000     -10.300437      -280.2891
  77   2.0000     -10.299849      -280.2732
  78   2.0000     -10.298331      -280.2318
  79   2.0000     -10.295047      -280.1425
  80   2.0000     -10.293174      -280.0915
  81   2.0000     -10.284594      -279.8580
  82   2.0000      -8.084611      -219.9935
  83   2.0000      -6.053687      -164.7292
  84   2.0000      -6.049208      -164.6073
  85   2.0000      -6.047347      -164.5567
  86   2.0000      -1.332749       -36.2659
  87   2.0000      -1.331826       -36.2408
  88   2.0000      -1.330084       -36.1934
  89   2.0000      -1.329744       -36.1842
  90   2.0000      -1.325362       -36.0649
  91   2.0000      -1.317155       -35.8416
  92   2.0000      -1.316540       -35.8249
  93   2.0000      -1.315101       -35.7857
  94   2.0000      -1.311504       -35.6878
  95   2.0000      -1.310443       -35.6590
  96   2.0000      -1.238763       -33.7085
  97   2.0000      -1.150786       -31.3145
  98   2.0000      -1.149031       -31.2667
  99   2.0000      -1.141723       -31.0679
 100   2.0000      -1.139319       -31.0024
 101   2.0000      -1.129394       -30.7324
 102   2.0000      -1.033651       -28.1271
 103   2.0000      -1.029168       -28.0051
 104   2.0000      -1.023619       -27.8541
 105   2.0000      -1.016517       -27.6608
 106   2.0000      -1.014885       -27.6164
 107   2.0000      -1.012232       -27.5442
 108   2.0000      -1.008297       -27.4371
 109   2.0000      -1.003629       -27.3101
 110   2.0000      -1.002358       -27.2755
 111   2.0000      -0.996066       -27.1043
 112   2.0000      -0.990815       -26.9614
 113   2.0000      -0.987933       -26.8830
 114   2.0000      -0.946000       -25.7420
 115   2.0000      -0.943515       -25.6743
 116   2.0000      -0.929222       -25.2854
 117   2.0000      -0.928492       -25.2655
 118   2.0000      -0.920845       -25.0575
 119   2.0000      -0.911762       -24.8103
 120   2.0000      -0.907097       -24.6834
 121   2.0000      -0.903130       -24.5754
 122   2.0000      -0.901730       -24.5373
 123   2.0000      -0.897544       -24.4234
 124   2.0000      -0.883532       -24.0421
 125   2.0000      -0.880545       -23.9608
 126   2.0000      -0.873412       -23.7668
 127   2.0000      -0.861946       -23.4548
 128   2.0000      -0.858690       -23.3661
 129   2.0000      -0.852411       -23.1953
 130   2.0000      -0.851856       -23.1802
 131   2.0000      -0.846204       -23.0264
 132   2.0000      -0.837632       -22.7931
 133   2.0000      -0.818461       -22.2715
 134   2.0000      -0.812126       -22.0991
 135   2.0000      -0.797344       -21.6968
 136   2.0000      -0.785272       -21.3683
 137   2.0000      -0.781072       -21.2540
 138   2.0000      -0.775468       -21.1016
 139   2.0000      -0.766379       -20.8542
 140   2.0000      -0.759823       -20.6758
 141   2.0000      -0.742565       -20.2062
 142   2.0000      -0.740489       -20.1497
 143   2.0000      -0.739019       -20.1097
 144   2.0000      -0.730304       -19.8726
 145   2.0000      -0.727198       -19.7881
 146   2.0000      -0.724332       -19.7101
 147   2.0000      -0.715858       -19.4795
 148   2.0000      -0.710816       -19.3423
 149   2.0000      -0.704688       -19.1755
 150   2.0000      -0.695270       -18.9193
 151   2.0000      -0.694454       -18.8971
 152   2.0000      -0.686560       -18.6822
 153   2.0000      -0.684091       -18.6151
 154   2.0000      -0.681993       -18.5580
 155   2.0000      -0.679731       -18.4964
 156   2.0000      -0.677543       -18.4369
 157   2.0000      -0.673951       -18.3392
 158   2.0000      -0.669135       -18.2081
 159   2.0000      -0.661197       -17.9921
 160   2.0000      -0.660647       -17.9771
 161   2.0000      -0.655653       -17.8412
 162   2.0000      -0.654006       -17.7964
 163   2.0000      -0.648535       -17.6475
 164   2.0000      -0.647250       -17.6126
 165   2.0000      -0.642501       -17.4834
 166   2.0000      -0.638989       -17.3878
 167   2.0000      -0.636152       -17.3106
 168   2.0000      -0.628572       -17.1043
 169   2.0000      -0.627962       -17.0877
 170   2.0000      -0.625197       -17.0125
 171   2.0000      -0.623297       -16.9608
 172   2.0000      -0.621713       -16.9177
 173   2.0000      -0.618444       -16.8287
 174   2.0000      -0.616372       -16.7723
 175   2.0000      -0.612772       -16.6744
 176   2.0000      -0.611387       -16.6367
 177   2.0000      -0.602515       -16.3953
 178   2.0000      -0.599756       -16.3202
 179   2.0000      -0.595408       -16.2019
 180   2.0000      -0.595165       -16.1953
 181   2.0000      -0.594171       -16.1682
 182   2.0000      -0.592230       -16.1154
 183   2.0000      -0.589794       -16.0491
 184   2.0000      -0.589628       -16.0446
 185   2.0000      -0.585543       -15.9334
 186   2.0000      -0.585194       -15.9239
 187   2.0000      -0.583295       -15.8723
 188   2.0000      -0.580736       -15.8026
 189   2.0000      -0.580261       -15.7897
 190   2.0000      -0.573678       -15.6106
 191   2.0000      -0.565104       -15.3773
 192   2.0000      -0.561439       -15.2775
 193   2.0000      -0.559274       -15.2186
 194   2.0000      -0.556349       -15.1390
 195   2.0000      -0.556135       -15.1332
 196   2.0000      -0.555495       -15.1158
 197   2.0000      -0.553713       -15.0673
 198   2.0000      -0.551816       -15.0157
 199   2.0000      -0.551140       -14.9973
 200   2.0000      -0.548406       -14.9229
 201   2.0000      -0.545660       -14.8482
 202   2.0000      -0.543106       -14.7787
 203   2.0000      -0.542180       -14.7535
 204   2.0000      -0.540477       -14.7071
 205   2.0000      -0.536644       -14.6028
 206   2.0000      -0.536100       -14.5880
 207   2.0000      -0.535399       -14.5690
 208   2.0000      -0.531403       -14.4602
 209   2.0000      -0.529905       -14.4194
 210   2.0000      -0.528280       -14.3752
 211   2.0000      -0.527487       -14.3537
 212   2.0000      -0.523640       -14.2490
 213   2.0000      -0.522411       -14.2155
 214   2.0000      -0.517047       -14.0696
 215   2.0000      -0.514425       -13.9982
 216   2.0000      -0.512920       -13.9573
 217   2.0000      -0.510793       -13.8994
 218   2.0000      -0.510223       -13.8839
 219   2.0000      -0.508709       -13.8427
 220   2.0000      -0.506714       -13.7884
 221   2.0000      -0.505105       -13.7446
 222   2.0000      -0.500173       -13.6104
 223   2.0000      -0.496741       -13.5170
 224   2.0000      -0.496447       -13.5090
 225   2.0000      -0.495849       -13.4927
 226   2.0000      -0.494004       -13.4425
 227   2.0000      -0.490395       -13.3443
 228   2.0000      -0.485085       -13.1998
 229   2.0000      -0.482659       -13.1338
 230   2.0000      -0.479891       -13.0585
 231   2.0000      -0.478436       -13.0189
 232   2.0000      -0.476047       -12.9539
 233   2.0000      -0.474062       -12.8999
 234   2.0000      -0.472853       -12.8670
 235   2.0000      -0.470344       -12.7987
 236   2.0000      -0.467367       -12.7177
 237   2.0000      -0.467045       -12.7090
 238   2.0000      -0.463286       -12.6066
 239   2.0000      -0.461706       -12.5637
 240   2.0000      -0.457188       -12.4407
 241   2.0000      -0.456666       -12.4265
 242   2.0000      -0.456158       -12.4127
 243   2.0000      -0.454092       -12.3565
 244   2.0000      -0.452148       -12.3036
 245   2.0000      -0.450371       -12.2552
 246   2.0000      -0.449265       -12.2251
 247   2.0000      -0.443365       -12.0646
 248   2.0000      -0.441305       -12.0085
 249   2.0000      -0.439430       -11.9575
 250   2.0000      -0.438556       -11.9337
 251   2.0000      -0.437513       -11.9053
 252   2.0000      -0.436636       -11.8815
 253   2.0000      -0.432643       -11.7728
 254   2.0000      -0.423533       -11.5249
 255   2.0000      -0.422617       -11.5000
 256   2.0000      -0.412056       -11.2126
 257   2.0000      -0.410142       -11.1605
 258   2.0000      -0.399089       -10.8598
 259   2.0000      -0.397452       -10.8152
 260   2.0000      -0.394350       -10.7308
 261   2.0000      -0.393355       -10.7037
 262   2.0000      -0.391889       -10.6638
 263   2.0000      -0.387479       -10.5438
 264   2.0000      -0.380623       -10.3573
 265   2.0000      -0.377003       -10.2588
 266   2.0000      -0.372223       -10.1287
 267   2.0000      -0.370303       -10.0765
 268   2.0000      -0.366959        -9.9855
 269   2.0000      -0.359635        -9.7862
 270   2.0000      -0.356865        -9.7108
 271   2.0000      -0.347803        -9.4642
 272   2.0000      -0.343801        -9.3553
 273   2.0000      -0.342944        -9.3320
 274   2.0000      -0.337200        -9.1757
 275   2.0000      -0.335219        -9.1218
 276   2.0000      -0.328670        -8.9436
 277   2.0000      -0.323407        -8.8004
 278   2.0000      -0.323063        -8.7910
 279   2.0000      -0.313561        -8.5324
 280   2.0000      -0.312402        -8.5009
 281   2.0000      -0.307370        -8.3640
 282   2.0000      -0.304078        -8.2744
 283   2.0000      -0.279426        -7.6036
 284   0.0000      -0.127668        -3.4740
 285   0.0000      -0.105216        -2.8631
 286   0.0000      -0.098097        -2.6693
 287   0.0000      -0.072700        -1.9783
 288   0.0000      -0.063738        -1.7344

MULLIKEN ATOMIC CHARGES
-----------------------
   0 C :   -0.107112
   1 C :    0.244937
   2 F :   -0.166369
   3 C :    0.241050
   4 F :   -0.165995
   5 C :   -0.103215
   6 C :    0.115465
   7 C :    0.116109
   8 C :   -0.083868
   9 C :    0.055038
  10 C :   -0.006999
  11 C :   -0.071670
  12 C :    0.156852
  13 O :   -0.141254
  14 C :   -0.067826
  15 C :    0.314600
  16 C :   -0.331952
  17 C :   -0.180498
  18 N :    0.157971
  19 C :   -0.195694
  20 N :    0.172861
  21 C :   -0.020355
  22 C :   -0.111341
  23 C :    0.192481
  24 F :   -0.156444
  25 C :    0.249206
  26 F :   -0.159034
  27 C :   -0.193064
  28 C :    0.214096
  29 C :    0.236279
  30 F :   -0.164422
  31 F :   -0.166806
  32 C :    0.041174
  33 C :    0.098537
  34 N :    0.260032
  35 O :   -0.229803
  36 O :   -0.233984
  37 C :   -0.003728
  38 C :    0.012868
  39 C :    0.017644
  40 C :    0.032839
  41 C :    0.011332
  42 C :    0.030717
  43 C :    0.111646
  44 N :    0.271458
  45 O :   -0.250572
  46 O :   -0.247249
  47 C :    0.046177
  48 C :   -0.032198
  49 C :   -0.010520
  50 C :    0.117400
  51 C :   -0.127017
  52 S :    0.164815
  53 C :   -0.085237
  54 C :    0.002027
  55 C :    0.187673
  56 O :   -0.171113
  57 O :   -0.243692
  58 C :    0.172327
  59 C :   -0.002342
  60 C :    0.033162
  61 C :   -0.119774
  62 C :    0.135356
  63 O :   -0.135719
  64 C :    0.017461
  65 C :   -0.077562
  66 C :    0.109616
  67 C :    0.106428
  68 C :   -0.102289
  69 C :    0.241001
  70 C :    0.238998
  71 C :   -0.100601
  72 F :   -0.169504
  73 F :   -0.168852
  74 C :   -0.073778
  75 C :    0.031225
  76 C :    0.255431
  77 C :   -0.331024
  78 C :   -0.172793
  79 N :    0.150042
  80 C :   -0.169040
  81 N :    0.167512
  82 H :    0.010037
  83 H :    0.003995
  84 H :   -0.004208
  85 H :   -0.006302
  86 H :    0.056088
  87 H :   -0.002193
  88 H :    0.013888
  89 H :    0.000411
  90 H :    0.007286
  91 H :    0.032030
  92 H :    0.020171
  93 H :    0.035070
  94 H :    0.046401
  95 H :    0.055263
  96 H :    0.015390
  97 H :    0.035987
  98 H :   -0.007456
  99 H :    0.007550
 100 H :    0.000984
 101 H :    0.000073
Sum of atomic charges:   -0.0000000

LOEWDIN ATOMIC CHARGES
----------------------
   0 C :   -0.028410
   1 C :    0.069598
   2 F :   -0.044108
   3 C :    0.070121
   4 F :   -0.044198
   5 C :   -0.031022
   6 C :   -0.007230
   7 C :   -0.004080
   8 C :    0.020728
   9 C :   -0.023152
  10 C :   -0.055556
  11 C :    0.036943
  12 C :    0.088544
  13 O :   -0.132272
  14 C :   -0.064255
  15 C :    0.072038
  16 C :   -0.119851
  17 C :   -0.016483
  18 N :   -0.040176
  19 C :   -0.021593
  20 N :   -0.032996
  21 C :    0.079604
  22 C :   -0.072922
  23 C :    0.070609
  24 F :   -0.039505
  25 C :    0.064195
  26 F :   -0.040107
  27 C :   -0.066277
  28 C :    0.063990
  29 C :    0.073600
  30 F :   -0.039983
  31 F :   -0.046712
  32 C :   -0.000575
  33 C :   -0.013319
  34 N :    0.282390
  35 O :   -0.193677
  36 O :   -0.200263
  37 C :   -0.016959
  38 C :   -0.022504
  39 C :    0.020962
  40 C :    0.068212
  41 C :   -0.047498
  42 C :    0.041979
  43 C :   -0.038680
  44 N :    0.289159
  45 O :   -0.211986
  46 O :   -0.210201
  47 C :    0.024423
  48 C :   -0.014593
  49 C :    0.010034
  50 C :   -0.052469
  51 C :   -0.170902
  52 S :    0.490285
  53 C :   -0.137838
  54 C :   -0.103867
  55 C :    0.109626
  56 O :   -0.141118
  57 O :   -0.032217
  58 C :    0.113406
  59 C :   -0.072544
  60 C :    0.073039
  61 C :   -0.093224
  62 C :    0.084638
  63 O :   -0.135914
  64 C :   -0.054786
  65 C :    0.032376
  66 C :   -0.008526
  67 C :   -0.005491
  68 C :   -0.028844
  69 C :    0.067583
  70 C :    0.068087
  71 C :   -0.032512
  72 F :   -0.047234
  73 F :   -0.046599
  74 C :    0.018270
  75 C :   -0.021720
  76 C :    0.068063
  77 C :   -0.137898
  78 C :    0.002322
  79 N :   -0.051640
  80 C :   -0.019829
  81 N :   -0.040446
  82 H :    0.048802
  83 H :    0.046758
  84 H :    0.040882
  85 H :    0.042228
  86 H :    0.052054
  87 H :    0.036812
  88 H :    0.027382
  89 H :    0.031931
  90 H :    0.040444
  91 H :    0.035564
  92 H :    0.036638
  93 H :    0.030101
  94 H :    0.036457
  95 H :    0.028617
  96 H :    0.041119
  97 H :    0.050371
  98 H :    0.041427
  99 H :    0.048063
 100 H :    0.045390
 101 H :    0.040898

  Mayer bond orders larger than 0.100000
B(  0-C ,  1-C ) :   1.4432 B(  0-C ,  5-C ) :   0.1077 B(  0-C ,  7-C ) :   1.1848
B(  0-C , 82-H ) :   1.0073 B(  1-C ,  2-F ) :   1.1392 B(  1-C ,  3-C ) :   1.1859
B(  3-C ,  4-F ) :   1.1385 B(  3-C ,  5-C ) :   1.4462 B(  5-C ,  6-C ) :   1.1886
B(  5-C , 83-H ) :   1.0074 B(  6-C ,  7-C ) :   1.2509 B(  6-C , 11-C ) :   1.1963
B(  7-C ,  8-C ) :   1.2263 B(  8-C ,  9-C ) :   1.4372 B(  8-C , 84-H ) :   0.9895
B(  9-C , 10-C ) :   1.2189 B(  9-C , 15-C ) :   1.0011 B( 10-C , 11-C ) :   1.4615
B( 10-C , 12-C ) :   0.9488 B( 11-C , 85-H ) :   1.0171 B( 12-C , 13-O ) :   2.2194
B( 12-C , 14-C ) :   0.9150 B( 14-C , 15-C ) :   1.0294 B( 14-C , 21-C ) :   1.7866
B( 15-C , 16-C ) :   1.6743 B( 16-C , 17-C ) :   1.1400 B( 16-C , 19-C ) :   1.1381
B( 17-C , 18-N ) :   2.9642 B( 19-C , 20-N ) :   2.9787 B( 21-C , 22-C ) :   0.9782
B( 21-C , 86-H ) :   0.9358 B( 22-C , 23-C ) :   1.3271 B( 22-C , 27-C ) :   0.1408
B( 22-C , 29-C ) :   1.3258 B( 23-C , 24-F ) :   1.1931 B( 23-C , 25-C ) :   1.2811
B( 25-C , 26-F ) :   1.1933 B( 25-C , 27-C ) :   1.3302 B( 27-C , 28-C ) :   1.3367
B( 27-C , 32-C ) :   0.9383 B( 28-C , 29-C ) :   1.3011 B( 28-C , 31-F ) :   1.1722
B( 29-C , 30-F ) :   1.1597 B( 32-C , 33-C ) :   1.6655 B( 32-C , 39-C ) :   1.0921
B( 33-C , 34-N ) :   0.9107 B( 33-C , 37-C ) :   1.1141 B( 34-N , 35-O ) :   1.5435
B( 34-N , 36-O ) :   1.5285 B( 35-O , 36-O ) :   0.2745 B( 37-C , 38-C ) :   1.6068
B( 37-C , 87-H ) :   1.0201 B( 38-C , 39-C ) :   1.0955 B( 38-C , 88-H ) :   0.9791
B( 39-C , 40-C ) :   1.5241 B( 40-C , 41-C ) :   1.1177 B( 40-C , 47-C ) :   0.9945
B( 41-C , 42-C ) :   1.5894 B( 41-C , 89-H ) :   0.9984 B( 42-C , 43-C ) :   1.1076
B( 42-C , 90-H ) :   1.0124 B( 43-C , 44-N ) :   0.9396 B( 43-C , 47-C ) :   1.5567
B( 44-N , 45-O ) :   1.5004 B( 44-N , 46-O ) :   1.5392 B( 45-O , 46-O ) :   0.2595
B( 47-C , 48-C ) :   1.1957 B( 48-C , 49-C ) :   1.6287 B( 48-C , 91-H ) :   0.9346
B( 49-C , 50-C ) :   1.0974 B( 49-C , 92-H ) :   0.9639 B( 50-C , 51-C ) :   1.5149
B( 50-C , 54-C ) :   1.2133 B( 51-C , 52-S ) :   1.1789 B( 51-C , 93-H ) :   0.9704
B( 52-S , 53-C ) :   1.2117 B( 53-C , 54-C ) :   1.5590 B( 53-C , 94-H ) :   0.9680
B( 54-C , 55-C ) :   0.9462 B( 55-C , 56-O ) :   2.1573 B( 55-C , 57-O ) :   1.0714
B( 57-O , 58-C ) :   1.0540 B( 58-C , 59-C ) :   1.6760 B( 58-C , 95-H ) :   0.9651
B( 59-C , 60-C ) :   1.1451 B( 59-C , 96-H ) :   0.9544 B( 60-C , 61-C ) :   1.7047
B( 60-C , 97-H ) :   0.9269 B( 61-C , 62-C ) :   0.9353 B( 61-C , 76-C ) :   1.0193
B( 62-C , 63-O ) :   2.2738 B( 62-C , 64-C ) :   0.9178 B( 64-C , 65-C ) :   1.4712
B( 64-C , 75-C ) :   1.2219 B( 65-C , 66-C ) :   1.1979 B( 65-C , 98-H ) :   1.0160
B( 66-C , 67-C ) :   1.2555 B( 66-C , 71-C ) :   1.1921 B( 67-C , 68-C ) :   1.1906
B( 67-C , 74-C ) :   1.2179 B( 68-C , 69-C ) :   1.4427 B( 68-C , 71-C ) :   0.1081
B( 68-C , 99-H ) :   1.0065 B( 69-C , 70-C ) :   1.1893 B( 69-C , 73-F ) :   1.1365
B( 70-C , 71-C ) :   1.4449 B( 70-C , 72-F ) :   1.1358 B( 71-C ,100-H ) :   1.0066
B( 74-C , 75-C ) :   1.4554 B( 74-C ,101-H ) :   0.9945 B( 75-C , 76-C ) :   0.9997
B( 76-C , 77-C ) :   1.6621 B( 77-C , 78-C ) :   1.1698 B( 77-C , 80-C ) :   1.1248
B( 78-C , 79-N ) :   2.9512 B( 80-C , 81-N ) :   2.9943

-----------------------------------------------------------------------------
         ABSORPTION SPECTRUM VIA TRANSITION ELECTRIC DIPOLE MOMENTS
-----------------------------------------------------------------------------
State   Energy  Wavelength   fosc         T2         TX        TY        TZ
        (cm-1)    (nm)                  (au**2)     (au)      (au)      (au)
-----------------------------------------------------------------------------
   0   13017.5    768.2   0.073015828   1.84657   0.19981   1.34218   0.07213
   1   19809.1    504.8   0.026970919   0.44824   0.39142  -0.53902   0.06693
   2   22721.2    440.1   0.005452541   0.07900  -0.10348  -0.25340  -0.06388
   3   23027.7    434.3   0.008836961   0.12634  -0.34308   0.08391   0.03992
   4   23873.7    418.9   0.051841101   0.71487   0.66147  -0.10312  -0.51643
   5   25079.7    398.7   0.162281315   2.13021   0.78083  -1.23303  -0.01222
   6   25889.4    386.3   0.004409816   0.05608  -0.04533  -0.13057   0.19228
   7   26075.2    383.5   0.063893277   0.80668  -0.02990  -0.87252   0.21093
   8   26424.5    378.4   0.015844087   0.19740   0.11453  -0.39611  -0.16545
   9   26704.7    374.5   0.170624910   2.10344   0.58536   0.51211  -1.22415
  10   27487.3    363.8   0.058465312   0.70023  -0.18198  -0.04769  -0.81538
  11   27847.4    359.1   0.057706015   0.68220  -0.12933  -0.02514   0.81538
  12   28074.6    356.2   0.140496625   1.64751   0.84021  -0.50943  -0.82586
  13   28199.4    354.6   0.045244909   0.52821  -0.55854   0.39483   0.24566
  14   28826.5    346.9   0.140205154   1.60121   0.13795   1.25131  -0.12811
  15   29066.5    344.0   0.070747857   0.80130   0.39991   0.56294   0.56962
  16   29171.8    342.8   0.025335272   0.28592  -0.45467   0.26559   0.09301
  17   29322.4    341.0   0.088870466   0.99778   0.85719  -0.23222   0.45724
  18   29660.7    337.1   0.067481499   0.74900   0.03957  -0.31171   0.80639
  19   30179.9    331.3   0.027477646   0.29974   0.52810  -0.11744  -0.08398
  20   30334.1    329.7   0.153683715   1.66791   0.60094  -1.13242  -0.15626
  21   30379.0    329.2   0.007695563   0.08340  -0.07620  -0.00410   0.27852
  22   31083.6    321.7   0.005629669   0.05962  -0.11197   0.21543   0.02600
  23   31624.5    316.2   0.135382620   1.40934   0.05953   0.18459  -1.17120
  24   31799.4    314.5   0.020968906   0.21709  -0.10765   0.00026   0.45332
  25   32268.5    309.9   0.088175505   0.89959  -0.35459   0.68363  -0.55363
  26   32827.7    304.6   0.278278749   2.79071   0.44827  -0.19483   1.59744
  27   32883.6    304.1   0.161104336   1.61288  -0.32624   0.39933  -1.16060
  28   32952.6    303.5   0.104107190   1.04008  -0.19010   0.06059  -1.00014
  29   33325.2    300.1   0.056845108   0.56156   0.42444   0.07300  -0.61326
  30   33365.7    299.7   0.152956744   1.50919  -0.58214  -0.16669   1.06888
  31   33669.6    297.0   0.234873353   2.29652   1.41887  -0.45598  -0.27463
  32   33772.7    296.1   0.074180139   0.72310   0.77372   0.03560  -0.35099
  33   34025.2    293.9   0.263311288   2.54767  -0.41624  -0.08250  -1.53870
  34   34247.7    292.0   0.757393272   7.28058   0.41329   0.55554   2.60790
  35   34489.9    289.9   0.069236336   0.66087   0.77824  -0.22384  -0.07152
  36   34672.2    288.4   0.783788577   7.44206   2.51419  -0.69681  -0.79708
  37   35107.1    284.8   0.157424964   1.47623  -0.93706   0.72304   0.27451
  38   35325.2    283.1   0.006966993   0.06493   0.24032  -0.07916  -0.03016
  39   35497.3    281.7   0.005293052   0.04909   0.19753  -0.08367   0.05542
  40   35984.7    277.9   0.026967204   0.24671   0.08762  -0.16835   0.45901
  41   36401.9    274.7   0.527377291   4.76950   0.66935  -0.46351   2.02648
  42   36717.5    272.3   0.001233933   0.01106   0.04719   0.03289  -0.08807
  43   36913.7    270.9   0.123996780   1.10586  -0.50927   0.49344  -0.77654
  44   37133.5    269.3   0.021334607   0.18914   0.28362  -0.10333  -0.31309
  45   37275.9    268.3   0.028870917   0.25498  -0.40590   0.12659  -0.27240
  46   37585.2    266.1   0.040484989   0.35461  -0.03742  -0.40743   0.43268
  47   37726.2    265.1   0.013338828   0.11640   0.08123   0.25638   0.20993
  48   37930.6    263.6   0.026223328   0.22760  -0.19317   0.16531  -0.40368
  49   38076.9    262.6   0.006970896   0.06027  -0.02478   0.14729  -0.19484
  50   38286.5    261.2   0.000793153   0.00682   0.07805   0.02699  -0.00021
  51   38480.7    259.9   0.000138883   0.00119  -0.00945   0.03213  -0.00815
  52   38742.6    258.1   0.010215771   0.08681  -0.09337   0.18319  -0.21102
  53   38785.2    257.8   0.216255292   1.83559   0.63372  -1.19452  -0.08435
  54   38851.7    257.4   0.013461098   0.11406  -0.17250  -0.27991   0.07719
  55   38891.0    257.1   0.024343416   0.20607  -0.02686  -0.44945  -0.05782
  56   38988.2    256.5   0.001885503   0.01592  -0.04810  -0.08555   0.07930
  57   39155.5    255.4   0.009421622   0.07922  -0.02606   0.18240   0.21276
  58   39333.5    254.2   0.068098158   0.56997   0.35816   0.25013   0.61573
  59   39864.3    250.9   0.012788880   0.10561  -0.26392   0.16305  -0.09684
  60   40085.0    249.5   0.034189562   0.28079   0.15493   0.02871   0.50593

FINAL SINGLE POINT ENERGY     -4382.259965708001

DIPOLE MOMENT
-------------
                                X             Y             Z
Electronic contribution:    -10.21584      28.82983      -4.85291
Nuclear contribution   :     10.20997     -31.13980       4.63684
                        -----------------------------------------
Total Dipole Moment    :     -0.00587      -2.30997      -0.21608
                        -----------------------------------------
Magnitude (a.u.)       :      2.32006
Magnitude (Debye)      :      5.89713

Rotational constants in cm-1:     0.001021     0.000299     0.000275
Rotational constants in MHz :    30.623287     8.959642     8.237833

                             ****ORCA TERMINATED NORMALLY****
TOTAL RUN TIME: 0 days 0 hours 11 minutes 11 seconds 717 msec
