                         Program Version 4.2.0 -  RELEASE  -
|  1> # ORCA input file
|  2> # SCF done       -212.901923403001          0.000367246926
|  3> ! CAM-B3LYP def2-SVP def2/J RIJCOSX Grid4 TightSCF
|  4> %maxcore 5000
|  5> %tddft
|  6>     Mode sTDDFT
|  7>     Ethresh 5.0
|  8>     maxcore 5000
|  9> end
| 10>
| 11> %pal
| 12>   nprocs 6
| 13>   end
| 14> * xyz 0 1
| 15>    C       -1.27113         3.87212         0.62238
| 16>    C       -0.03040         4.40891         0.42236
| 17>    F        0.13560         5.73788         0.41754
| 18>    C        1.08788         3.57532         0.21881
| 19>    F        2.29208         4.12951         0.02464
| 20>    C        0.94970         2.21564         0.21832
| 21>    C       -0.31594         1.63223         0.42176
| 22>    C       -1.44748         2.47366         0.62810
| 23>    C       -2.72745         1.91120         0.83666
| 24>    C       -2.87195         0.54838         0.83789
| 25>    C       -1.73871        -0.28174         0.62372
| 26>    C       -0.48942         0.23075         0.42311
| 27>    C       -2.14911        -1.69832         0.65345
| 28>    O       -1.39985        -2.64730         0.54501
| 29>    C       -3.61971        -1.68759         0.83394
| 30>    C       -4.03935        -0.30701         1.02910
| 31>    C       -5.28354         0.14001         1.39081
| 32>    C       -5.60766         1.50158         1.57547
| 33>    N       -5.94090         2.58789         1.73810
| 34>    C       -6.41208        -0.66020         1.67130
| 35>    N       -7.37430        -1.22863         1.93709
| 36>    C       -4.49944        -2.73371         0.75273
| 37>    C       -4.29551        -4.11708         0.57622
| 38>    S       -5.73348        -5.10468         0.40526
| 39>    C       -4.79183        -6.54378         0.26443
| 40>    C       -3.42385        -6.26911         0.35701
| 41>    C       -3.16181        -4.91000         0.53104
| 42>    C       -2.39061        -7.33959         0.45224
| 43>    O       -2.64310        -8.40219         0.96954
| 44>    C       -1.04376        -6.98393        -0.09874
| 45>    C       -5.36259        -7.81358        -0.04790
| 46>    N       -6.56310        -8.29706         0.40771
| 47>    C       -7.40111        -7.71339         1.42707
| 48>    C       -6.72274        -7.72306         2.79313
| 49>    C       -6.83829        -9.58132        -0.11740
| 50>    O       -7.83164       -10.21956         0.15999
| 51>    C       -5.72100        -9.84944        -0.98992
| 52>    C       -4.83326        -8.74928        -0.92304
| 53>    C       -3.75718        -8.99971        -1.85369
| 54>    O       -2.80747        -8.32534        -2.19406
| 55>    N       -4.04578       -10.26910        -2.39780
| 56>    C       -3.09798       -10.87848        -3.30066
| 57>    C       -2.23815       -11.92298        -2.59424
| 58>    C       -5.21733       -10.78253        -1.89180
| 59>    C       -5.90544       -11.99144        -2.19551
| 60>    C       -5.55370       -12.98118        -3.04401
| 61>    C       -6.35595       -14.14328        -3.31605
| 62>    C       -7.55592       -14.45378        -2.72778
| 63>    S       -8.24063       -15.90476        -3.32238
| 64>    C       -6.93331       -16.13489        -4.39074
| 65>    C       -5.99457       -15.14099        -4.29336
| 66>    C       -4.78283       -15.11599        -5.10790
| 67>    O       -3.86162       -14.34414        -5.02155
| 68>    O       -4.80411       -16.12002        -6.04174
| 69>    C       -3.76676       -16.21219        -6.89787
| 70>    C       -3.79954       -17.05863        -7.94059
| 71>    C       -2.71366       -17.16256        -8.85214
| 72>    C       -2.70314       -17.78832       -10.05680
| 73>    C       -1.40354       -18.12640       -10.70444
| 74>    O       -0.31378       -17.70194       -10.40203
| 75>    C       -1.73622       -19.12496       -11.74027
| 76>    C       -0.89374       -19.83303       -12.54829
| 77>    C       -1.43790       -20.76189       -13.46303
| 78>    C       -2.85051       -20.94507       -13.51607
| 79>    C       -3.38730       -21.87629       -14.42797
| 80>    C       -2.56114       -22.58910       -15.25062
| 81>    C       -1.16413       -22.40647       -15.19798
| 82>    C       -0.61293       -21.51259       -14.32331
| 83>    F       -0.37912       -23.11988       -16.01524
| 84>    F       -3.07264       -23.47148       -16.11777
| 85>    C       -3.69840       -20.19548       -12.66948
| 86>    C       -3.14994       -19.29128       -11.79899
| 87>    C       -3.76756       -18.35834       -10.85937
| 88>    C       -5.07141       -17.94323       -10.90054
| 89>    C       -5.57836       -16.83005       -10.19570
| 90>    N       -6.03622       -15.90433        -9.69543
| 91>    C       -6.04727       -18.51276       -11.74651
| 92>    N       -6.88228       -18.95630       -12.39671
| 93>    H       -2.11621         4.52445         0.77791
| 94>    H        1.81518         1.59123         0.06098
| 95>    H       -3.56188         2.57673         0.98547
| 96>    H        0.35330        -0.42517         0.26585
| 97>    H       -5.54929        -2.47161         0.81124
| 98>    H       -2.18048        -4.48912         0.64525
| 99>    H       -1.14150        -6.89528        -1.17951
|100>    H       -0.33494        -7.77437         0.13227
|101>    H       -0.68933        -6.03558         0.29418
|102>    H       -8.30358        -8.33091         1.45274
|103>    H       -7.68071        -6.69491         1.14126
|104>    H       -6.47893        -8.74230         3.08245
|105>    H       -7.38979        -7.29699         3.53698
|106>    H       -5.80308        -7.14232         2.77575
|107>    H       -2.46029       -10.06149        -3.65218
|108>    H       -3.61913       -11.30426        -4.16047
|109>    H       -1.66126       -11.45176        -1.80209
|110>    H       -1.55547       -12.37620        -3.30702
|111>    H       -2.85234       -12.70518        -2.15489
|112>    H       -6.83842       -12.06386        -1.65171
|113>    H       -4.62688       -12.94866        -3.58956
|114>    H       -8.07653       -13.90554        -1.96873
|115>    H       -6.90961       -16.98786        -5.03893
|116>    H       -2.93823       -15.53601        -6.71280
|117>    H       -4.67249       -17.67840        -8.08084
|118>    H       -1.76169       -16.75250        -8.53247
|119>    H        0.17386       -19.68478       -12.49133
|120>    H       -4.45430       -22.02545       -14.48379
|121>    H        0.45779       -21.38429       -14.29545
|122>    H       -4.76250       -20.36062       -12.72570
|123> *
|124>
|125>                          ****END OF INPUT****

CARTESIAN COORDINATES (ANGSTROEM)
---------------------------------
  C     -1.271130    3.872120    0.622380
  C     -0.030400    4.408910    0.422360
  F      0.135600    5.737880    0.417540
  C      1.087880    3.575320    0.218810
  F      2.292080    4.129510    0.024640
  C      0.949700    2.215640    0.218320
  C     -0.315940    1.632230    0.421760
  C     -1.447480    2.473660    0.628100
  C     -2.727450    1.911200    0.836660
  C     -2.871950    0.548380    0.837890
  C     -1.738710   -0.281740    0.623720
  C     -0.489420    0.230750    0.423110
  C     -2.149110   -1.698320    0.653450
  O     -1.399850   -2.647300    0.545010
  C     -3.619710   -1.687590    0.833940
  C     -4.039350   -0.307010    1.029100
  C     -5.283540    0.140010    1.390810
  C     -5.607660    1.501580    1.575470
  N     -5.940900    2.587890    1.738100
  C     -6.412080   -0.660200    1.671300
  N     -7.374300   -1.228630    1.937090
  C     -4.499440   -2.733710    0.752730
  C     -4.295510   -4.117080    0.576220
  S     -5.733480   -5.104680    0.405260
  C     -4.791830   -6.543780    0.264430
  C     -3.423850   -6.269110    0.357010
  C     -3.161810   -4.910000    0.531040
  C     -2.390610   -7.339590    0.452240
  O     -2.643100   -8.402190    0.969540
  C     -1.043760   -6.983930   -0.098740
  C     -5.362590   -7.813580   -0.047900
  N     -6.563100   -8.297060    0.407710
  C     -7.401110   -7.713390    1.427070
  C     -6.722740   -7.723060    2.793130
  C     -6.838290   -9.581320   -0.117400
  O     -7.831640  -10.219560    0.159990
  C     -5.721000   -9.849440   -0.989920
  C     -4.833260   -8.749280   -0.923040
  C     -3.757180   -8.999710   -1.853690
  O     -2.807470   -8.325340   -2.194060
  N     -4.045780  -10.269100   -2.397800
  C     -3.097980  -10.878480   -3.300660
  C     -2.238150  -11.922980   -2.594240
  C     -5.217330  -10.782530   -1.891800
  C     -5.905440  -11.991440   -2.195510
  C     -5.553700  -12.981180   -3.044010
  C     -6.355950  -14.143280   -3.316050
  C     -7.555920  -14.453780   -2.727780
  S     -8.240630  -15.904760   -3.322380
  C     -6.933310  -16.134890   -4.390740
  C     -5.994570  -15.140990   -4.293360
  C     -4.782830  -15.115990   -5.107900
  O     -3.861620  -14.344140   -5.021550
  O     -4.804110  -16.120020   -6.041740
  C     -3.766760  -16.212190   -6.897870
  C     -3.799540  -17.058630   -7.940590
  C     -2.713660  -17.162560   -8.852140
  C     -2.703140  -17.788320  -10.056800
  C     -1.403540  -18.126400  -10.704440
  O     -0.313780  -17.701940  -10.402030
  C     -1.736220  -19.124960  -11.740270
  C     -0.893740  -19.833030  -12.548290
  C     -1.437900  -20.761890  -13.463030
  C     -2.850510  -20.945070  -13.516070
  C     -3.387300  -21.876290  -14.427970
  C     -2.561140  -22.589100  -15.250620
  C     -1.164130  -22.406470  -15.197980
  C     -0.612930  -21.512590  -14.323310
  F     -0.379120  -23.119880  -16.015240
  F     -3.072640  -23.471480  -16.117770
  C     -3.698400  -20.195480  -12.669480
  C     -3.149940  -19.291280  -11.798990
  C     -3.767560  -18.358340  -10.859370
  C     -5.071410  -17.943230  -10.900540
  C     -5.578360  -16.830050  -10.195700
  N     -6.036220  -15.904330   -9.695430
  C     -6.047270  -18.512760  -11.746510
  N     -6.882280  -18.956300  -12.396710
  H     -2.116210    4.524450    0.777910
  H      1.815180    1.591230    0.060980
  H     -3.561880    2.576730    0.985470
  H      0.353300   -0.425170    0.265850
  H     -5.549290   -2.471610    0.811240
  H     -2.180480   -4.489120    0.645250
  H     -1.141500   -6.895280   -1.179510
  H     -0.334940   -7.774370    0.132270
  H     -0.689330   -6.035580    0.294180
  H     -8.303580   -8.330910    1.452740
  H     -7.680710   -6.694910    1.141260
  H     -6.478930   -8.742300    3.082450
  H     -7.389790   -7.296990    3.536980
  H     -5.803080   -7.142320    2.775750
  H     -2.460290  -10.061490   -3.652180
  H     -3.619130  -11.304260   -4.160470
  H     -1.661260  -11.451760   -1.802090
  H     -1.555470  -12.376200   -3.307020
  H     -2.852340  -12.705180   -2.154890
  H     -6.838420  -12.063860   -1.651710
  H     -4.626880  -12.948660   -3.589560
  H     -8.076530  -13.905540   -1.968730
  H     -6.909610  -16.987860   -5.038930
  H     -2.938230  -15.536010   -6.712800
  H     -4.672490  -17.678400   -8.080840
  H     -1.761690  -16.752500   -8.532470
  H      0.173860  -19.684780  -12.491330
  H     -4.454300  -22.025450  -14.483790
  H      0.457790  -21.384290  -14.295450
  H     -4.762500  -20.360620  -12.725700

 Total Charge           Charge          ....    0
 Multiplicity           Mult            ....    1
 Number of Electrons    NEL             ....  550
 Basis Dimension        Dim             .... 1250

ORBITAL ENERGIES
----------------

  NO   OCC          E(Eh)            E(eV)
   0   2.0000     -88.987216     -2421.4652
   1   2.0000     -88.985257     -2421.4119
   2   2.0000     -24.801651      -674.8872
   3   2.0000     -24.801138      -674.8733
   4   2.0000     -24.800686      -674.8610
   5   2.0000     -24.799697      -674.8341
   6   2.0000     -19.309486      -525.4378
   7   2.0000     -19.243248      -523.6354
   8   2.0000     -19.226553      -523.1811
   9   2.0000     -19.220913      -523.0276
  10   2.0000     -19.201766      -522.5066
  11   2.0000     -19.197677      -522.3953
  12   2.0000     -19.189480      -522.1723
  13   2.0000     -14.455748      -393.3609
  14   2.0000     -14.455411      -393.3517
  15   2.0000     -14.423104      -392.4726
  16   2.0000     -14.421899      -392.4398
  17   2.0000     -14.420555      -392.4033
  18   2.0000     -14.418795      -392.3554
  19   2.0000     -10.440535      -284.1014
  20   2.0000     -10.385142      -282.5941
  21   2.0000     -10.384622      -282.5799
  22   2.0000     -10.384162      -282.5674
  23   2.0000     -10.383345      -282.5452
  24   2.0000     -10.378467      -282.4124
  25   2.0000     -10.377623      -282.3895
  26   2.0000     -10.374000      -282.2909
  27   2.0000     -10.372060      -282.2381
  28   2.0000     -10.371390      -282.2199
  29   2.0000     -10.358919      -281.8805
  30   2.0000     -10.351996      -281.6921
  31   2.0000     -10.348998      -281.6105
  32   2.0000     -10.347425      -281.5677
  33   2.0000     -10.347083      -281.5584
  34   2.0000     -10.346822      -281.5513
  35   2.0000     -10.343187      -281.4524
  36   2.0000     -10.339312      -281.3470
  37   2.0000     -10.332483      -281.1612
  38   2.0000     -10.327858      -281.0353
  39   2.0000     -10.326779      -281.0059
  40   2.0000     -10.326397      -280.9956
  41   2.0000     -10.325343      -280.9669
  42   2.0000     -10.324590      -280.9464
  43   2.0000     -10.322849      -280.8990
  44   2.0000     -10.321809      -280.8707
  45   2.0000     -10.315499      -280.6990
  46   2.0000     -10.314839      -280.6810
  47   2.0000     -10.314482      -280.6713
  48   2.0000     -10.313528      -280.6454
  49   2.0000     -10.313217      -280.6369
  50   2.0000     -10.313014      -280.6314
  51   2.0000     -10.310709      -280.5687
  52   2.0000     -10.310338      -280.5586
  53   2.0000     -10.308300      -280.5031
  54   2.0000     -10.307961      -280.4939
  55   2.0000     -10.307196      -280.4731
  56   2.0000     -10.307039      -280.4688
  57   2.0000     -10.306406      -280.4516
  58   2.0000     -10.305853      -280.4365
  59   2.0000     -10.305508      -280.4271
  60   2.0000     -10.304809      -280.4081
  61   2.0000     -10.304440      -280.3981
  62   2.0000     -10.304107      -280.3890
  63   2.0000     -10.303763      -280.3796
  64   2.0000     -10.302924      -280.3568
  65   2.0000     -10.302780      -280.3529
  66   2.0000     -10.300332      -280.2863
  67   2.0000     -10.298319      -280.2315
  68   2.0000     -10.297728      -280.2154
  69   2.0000     -10.297076      -280.1977
  70   2.0000     -10.296673      -280.1867
  71   2.0000     -10.295886      -280.1653
  72   2.0000     -10.293141      -280.0906
  73   2.0000     -10.266025      -279.3527
  74   2.0000     -10.261371      -279.2261
  75   2.0000     -10.259860      -279.1850
  76   2.0000     -10.258839      -279.1572
  77   2.0000     -10.255649      -279.0704
  78   2.0000      -8.083476      -219.9626
  79   2.0000      -8.080335      -219.8771
  80   2.0000      -6.052507      -164.6971
  81   2.0000      -6.049391      -164.6123
  82   2.0000      -6.047961      -164.5734
  83   2.0000      -6.046396      -164.5308
  84   2.0000      -6.045322      -164.5016
  85   2.0000      -6.042845      -164.4342
  86   2.0000      -1.324577       -36.0436
  87   2.0000      -1.323129       -36.0042
  88   2.0000      -1.309704       -35.6388
  89   2.0000      -1.308237       -35.5989
  90   2.0000      -1.239078       -33.7170
  91   2.0000      -1.143115       -31.1057
  92   2.0000      -1.141316       -31.0568
  93   2.0000      -1.137254       -30.9462
  94   2.0000      -1.136705       -30.9313
  95   2.0000      -1.128219       -30.7004
  96   2.0000      -1.120503       -30.4904
  97   2.0000      -1.066515       -29.0214
  98   2.0000      -1.057760       -28.7831
  99   2.0000      -1.025779       -27.9129
 100   2.0000      -1.024932       -27.8898
 101   2.0000      -1.012238       -27.5444
 102   2.0000      -1.009073       -27.4583
 103   2.0000      -1.008833       -27.4517
 104   2.0000      -1.007963       -27.4281
 105   2.0000      -1.000469       -27.2241
 106   2.0000      -0.998699       -27.1760
 107   2.0000      -0.986321       -26.8392
 108   2.0000      -0.985069       -26.8051
 109   2.0000      -0.942519       -25.6472
 110   2.0000      -0.937235       -25.5034
 111   2.0000      -0.930271       -25.3140
 112   2.0000      -0.927521       -25.2391
 113   2.0000      -0.915898       -24.9229
 114   2.0000      -0.913658       -24.8619
 115   2.0000      -0.903450       -24.5841
 116   2.0000      -0.897553       -24.4237
 117   2.0000      -0.896465       -24.3940
 118   2.0000      -0.892092       -24.2751
 119   2.0000      -0.884429       -24.0665
 120   2.0000      -0.876836       -23.8599
 121   2.0000      -0.872659       -23.7463
 122   2.0000      -0.856268       -23.3002
 123   2.0000      -0.854263       -23.2457
 124   2.0000      -0.845599       -23.0099
 125   2.0000      -0.844657       -22.9843
 126   2.0000      -0.843652       -22.9569
 127   2.0000      -0.819381       -22.2965
 128   2.0000      -0.816370       -22.2146
 129   2.0000      -0.813543       -22.1376
 130   2.0000      -0.807797       -21.9813
 131   2.0000      -0.786830       -21.4107
 132   2.0000      -0.773512       -21.0483
 133   2.0000      -0.772452       -21.0195
 134   2.0000      -0.768267       -20.9056
 135   2.0000      -0.763503       -20.7760
 136   2.0000      -0.759372       -20.6636
 137   2.0000      -0.743326       -20.2269
 138   2.0000      -0.736710       -20.0469
 139   2.0000      -0.722839       -19.6694
 140   2.0000      -0.722649       -19.6643
 141   2.0000      -0.716335       -19.4925
 142   2.0000      -0.713520       -19.4159
 143   2.0000      -0.706620       -19.2281
 144   2.0000      -0.703602       -19.1460
 145   2.0000      -0.694992       -18.9117
 146   2.0000      -0.692486       -18.8435
 147   2.0000      -0.690851       -18.7990
 148   2.0000      -0.685534       -18.6543
 149   2.0000      -0.682658       -18.5761
 150   2.0000      -0.680632       -18.5210
 151   2.0000      -0.669347       -18.2139
 152   2.0000      -0.664373       -18.0785
 153   2.0000      -0.659621       -17.9492
 154   2.0000      -0.658137       -17.9088
 155   2.0000      -0.651023       -17.7152
 156   2.0000      -0.647395       -17.6165
 157   2.0000      -0.645745       -17.5716
 158   2.0000      -0.637546       -17.3485
 159   2.0000      -0.634728       -17.2718
 160   2.0000      -0.633948       -17.2506
 161   2.0000      -0.622631       -16.9426
 162   2.0000      -0.620755       -16.8916
 163   2.0000      -0.614200       -16.7132
 164   2.0000      -0.605125       -16.4663
 165   2.0000      -0.598592       -16.2885
 166   2.0000      -0.595349       -16.2003
 167   2.0000      -0.590500       -16.0683
 168   2.0000      -0.588973       -16.0268
 169   2.0000      -0.588643       -16.0178
 170   2.0000      -0.588488       -16.0136
 171   2.0000      -0.587696       -15.9920
 172   2.0000      -0.584488       -15.9047
 173   2.0000      -0.580886       -15.8067
 174   2.0000      -0.578747       -15.7485
 175   2.0000      -0.576447       -15.6859
 176   2.0000      -0.573239       -15.5986
 177   2.0000      -0.562753       -15.3133
 178   2.0000      -0.561137       -15.2693
 179   2.0000      -0.559436       -15.2230
 180   2.0000      -0.557930       -15.1821
 181   2.0000      -0.555765       -15.1231
 182   2.0000      -0.550527       -14.9806
 183   2.0000      -0.549665       -14.9571
 184   2.0000      -0.549227       -14.9452
 185   2.0000      -0.547904       -14.9092
 186   2.0000      -0.544904       -14.8276
 187   2.0000      -0.542318       -14.7572
 188   2.0000      -0.541377       -14.7316
 189   2.0000      -0.539281       -14.6746
 190   2.0000      -0.536005       -14.5854
 191   2.0000      -0.533954       -14.5296
 192   2.0000      -0.533553       -14.5187
 193   2.0000      -0.532993       -14.5035
 194   2.0000      -0.529094       -14.3974
 195   2.0000      -0.527523       -14.3546
 196   2.0000      -0.525224       -14.2921
 197   2.0000      -0.521155       -14.1813
 198   2.0000      -0.518277       -14.1030
 199   2.0000      -0.517902       -14.0928
 200   2.0000      -0.516514       -14.0551
 201   2.0000      -0.513425       -13.9710
 202   2.0000      -0.511080       -13.9072
 203   2.0000      -0.507114       -13.7993
 204   2.0000      -0.505633       -13.7590
 205   2.0000      -0.504895       -13.7389
 206   2.0000      -0.503775       -13.7084
 207   2.0000      -0.502488       -13.6734
 208   2.0000      -0.501377       -13.6432
 209   2.0000      -0.498979       -13.5779
 210   2.0000      -0.495164       -13.4741
 211   2.0000      -0.494175       -13.4472
 212   2.0000      -0.490638       -13.3509
 213   2.0000      -0.488881       -13.3031
 214   2.0000      -0.488084       -13.2814
 215   2.0000      -0.485851       -13.2207
 216   2.0000      -0.482196       -13.1212
 217   2.0000      -0.478040       -13.0081
 218   2.0000      -0.473694       -12.8899
 219   2.0000      -0.472771       -12.8647
 220   2.0000      -0.472161       -12.8481
 221   2.0000      -0.471882       -12.8406
 222   2.0000      -0.467426       -12.7193
 223   2.0000      -0.466849       -12.7036
 224   2.0000      -0.463764       -12.6197
 225   2.0000      -0.463458       -12.6113
 226   2.0000      -0.462486       -12.5849
 227   2.0000      -0.456002       -12.4084
 228   2.0000      -0.453981       -12.3535
 229   2.0000      -0.453188       -12.3319
 230   2.0000      -0.451933       -12.2977
 231   2.0000      -0.451101       -12.2751
 232   2.0000      -0.450436       -12.2570
 233   2.0000      -0.449884       -12.2420
 234   2.0000      -0.448826       -12.2132
 235   2.0000      -0.447743       -12.1837
 236   2.0000      -0.441845       -12.0232
 237   2.0000      -0.441346       -12.0096
 238   2.0000      -0.437350       -11.9009
 239   2.0000      -0.436418       -11.8755
 240   2.0000      -0.435575       -11.8526
 241   2.0000      -0.433359       -11.7923
 242   2.0000      -0.432272       -11.7627
 243   2.0000      -0.431015       -11.7285
 244   2.0000      -0.428726       -11.6662
 245   2.0000      -0.427599       -11.6356
 246   2.0000      -0.425164       -11.5693
 247   2.0000      -0.422989       -11.5101
 248   2.0000      -0.420678       -11.4472
 249   2.0000      -0.416365       -11.3299
 250   2.0000      -0.411154       -11.1881
 251   2.0000      -0.408729       -11.1221
 252   2.0000      -0.400759       -10.9052
 253   2.0000      -0.391640       -10.6571
 254   2.0000      -0.389963       -10.6114
 255   2.0000      -0.389514       -10.5992
 256   2.0000      -0.386754       -10.5241
 257   2.0000      -0.371567       -10.1108
 258   2.0000      -0.362980        -9.8772
 259   2.0000      -0.352254        -9.5853
 260   2.0000      -0.347919        -9.4674
 261   2.0000      -0.346814        -9.4373
 262   2.0000      -0.344443        -9.3728
 263   2.0000      -0.342682        -9.3249
 264   2.0000      -0.334441        -9.1006
 265   2.0000      -0.326265        -8.8781
 266   2.0000      -0.322103        -8.7649
 267   2.0000      -0.321452        -8.7472
 268   2.0000      -0.316323        -8.6076
 269   2.0000      -0.313002        -8.5172
 270   2.0000      -0.310599        -8.4518
 271   2.0000      -0.309276        -8.4158
 272   2.0000      -0.301021        -8.1912
 273   2.0000      -0.296082        -8.0568
 274   2.0000      -0.242217        -6.5911
 275   0.0000      -0.108859        -2.9622
 276   0.0000      -0.096544        -2.6271
 277   0.0000      -0.076552        -2.0831
 278   0.0000      -0.063151        -1.7184
 279   0.0000      -0.062112        -1.6902

MULLIKEN ATOMIC CHARGES
-----------------------
   0 C :   -0.106328
   1 C :    0.242038
   2 F :   -0.170610
   3 C :    0.238589
   4 F :   -0.170898
   5 C :   -0.103687
   6 C :    0.115392
   7 C :    0.112274
   8 C :   -0.079931
   9 C :    0.047489
  10 C :   -0.000413
  11 C :   -0.080776
  12 C :    0.160635
  13 O :   -0.154161
  14 C :   -0.085431
  15 C :    0.313692
  16 C :   -0.353468
  17 C :   -0.180500
  18 N :    0.147020
  19 C :   -0.193397
  20 N :    0.156425
  21 C :    0.057875
  22 C :   -0.094952
  23 S :    0.178559
  24 C :   -0.191981
  25 C :    0.100407
  26 C :   -0.027074
  27 C :    0.013295
  28 O :   -0.181791
  29 C :    0.042273
  30 C :    0.132631
  31 N :   -0.262195
  32 C :    0.085924
  33 C :    0.005529
  34 C :    0.157295
  35 O :   -0.196164
  36 C :   -0.074835
  37 C :    0.005920
  38 C :    0.152101
  39 O :   -0.206281
  40 N :   -0.266643
  41 C :    0.098115
  42 C :    0.009839
  43 C :    0.131009
  44 C :   -0.021757
  45 C :    0.000509
  46 C :    0.110238
  47 C :   -0.145342
  48 S :    0.173389
  49 C :   -0.076733
  50 C :   -0.030946
  51 C :    0.237071
  52 O :   -0.186003
  53 O :   -0.236694
  54 C :    0.172645
  55 C :    0.015321
  56 C :    0.016210
  57 C :   -0.119149
  58 C :    0.143699
  59 O :   -0.136459
  60 C :    0.004207
  61 C :   -0.080369
  62 C :    0.112882
  63 C :    0.111161
  64 C :   -0.106556
  65 C :    0.242365
  66 C :    0.236742
  67 C :   -0.102610
  68 F :   -0.170267
  69 F :   -0.169895
  70 C :   -0.081907
  71 C :    0.040193
  72 C :    0.282018
  73 C :   -0.328125
  74 C :   -0.217262
  75 N :    0.171735
  76 C :   -0.176790
  77 N :    0.151574
  78 H :    0.007960
  79 H :    0.000859
  80 H :   -0.004914
  81 H :   -0.009727
  82 H :    0.008080
  83 H :    0.017348
  84 H :    0.064639
  85 H :    0.024465
  86 H :    0.035940
  87 H :    0.046953
  88 H :    0.028083
  89 H :    0.029401
  90 H :    0.025344
  91 H :    0.026331
  92 H :    0.039096
  93 H :    0.032678
  94 H :    0.026765
  95 H :    0.023570
  96 H :    0.020322
  97 H :   -0.005445
  98 H :    0.008193
  99 H :    0.051983
 100 H :    0.045136
 101 H :    0.046481
 102 H :    0.030740
 103 H :    0.022044
 104 H :   -0.006849
 105 H :    0.008027
 106 H :    0.001365
 107 H :   -0.002772
Sum of atomic charges:   -0.0000000

LOEWDIN ATOMIC CHARGES
----------------------
   0 C :   -0.028613
   1 C :    0.067255
   2 F :   -0.048212
   3 C :    0.068328
   4 F :   -0.048654
   5 C :   -0.033109
   6 C :   -0.008406
   7 C :   -0.006183
   8 C :    0.018533
   9 C :   -0.023580
  10 C :   -0.052244
  11 C :    0.030536
  12 C :    0.089340
  13 O :   -0.142611
  14 C :   -0.094892
  15 C :    0.076619
  16 C :   -0.139772
  17 C :   -0.016904
  18 N :   -0.052346
  19 C :   -0.024989
  20 N :   -0.049451
  21 C :    0.050280
  22 C :   -0.178784
  23 S :    0.493080
  24 C :   -0.139422
  25 C :   -0.076509
  26 C :    0.004697
  27 C :    0.090861
  28 O :   -0.141351
  29 C :   -0.074334
  30 C :    0.053372
  31 N :   -0.002634
  32 C :    0.028706
  33 C :   -0.060445
  34 C :    0.080775
  35 O :   -0.199390
  36 C :   -0.118115
  37 C :   -0.098827
  38 C :    0.092008
  39 O :   -0.188330
  40 N :   -0.000488
  41 C :    0.035574
  42 C :   -0.060472
  43 C :    0.085102
  44 C :   -0.025668
  45 C :    0.002246
  46 C :   -0.046126
  47 C :   -0.168181
  48 S :    0.500785
  49 C :   -0.142449
  50 C :   -0.112757
  51 C :    0.124113
  52 O :   -0.152765
  53 O :   -0.032658
  54 C :    0.114559
  55 C :   -0.063072
  56 C :    0.075587
  57 C :   -0.096402
  58 C :    0.082622
  59 O :   -0.139515
  60 C :   -0.054433
  61 C :    0.031247
  62 C :   -0.008949
  63 C :   -0.005725
  64 C :   -0.030025
  65 C :    0.067334
  66 C :    0.067485
  67 C :   -0.032708
  68 F :   -0.048110
  69 F :   -0.047647
  70 C :    0.014782
  71 C :   -0.021142
  72 C :    0.070634
  73 C :   -0.135340
  74 C :   -0.025220
  75 N :   -0.046145
  76 C :   -0.018561
  77 N :   -0.048683
  78 H :    0.048055
  79 H :    0.045147
  80 H :    0.040239
  81 H :    0.040192
  82 H :    0.043596
  83 H :    0.033784
  84 H :    0.053363
  85 H :    0.037392
  86 H :    0.038225
  87 H :    0.038689
  88 H :    0.011626
  89 H :    0.032349
  90 H :    0.032101
  91 H :    0.022518
  92 H :    0.036049
  93 H :    0.024937
  94 H :    0.031605
  95 H :    0.032118
  96 H :    0.022648
  97 H :    0.041497
  98 H :    0.030827
  99 H :    0.032252
 100 H :    0.032968
 101 H :    0.031890
 102 H :    0.040052
 103 H :    0.046674
 104 H :    0.041232
 105 H :    0.047709
 106 H :    0.045336
 107 H :    0.039817

  Mayer bond orders larger than 0.100000
B(  0-C ,  1-C ) :   1.4412 B(  0-C ,  5-C ) :   0.1082 B(  0-C ,  7-C ) :   1.1899
B(  0-C , 78-H ) :   1.0065 B(  1-C ,  2-F ) :   1.1354 B(  1-C ,  3-C ) :   1.1901
B(  3-C ,  4-F ) :   1.1348 B(  3-C ,  5-C ) :   1.4447 B(  5-C ,  6-C ) :   1.1918
B(  5-C , 79-H ) :   1.0067 B(  6-C ,  7-C ) :   1.2536 B(  6-C , 11-C ) :   1.1909
B(  7-C ,  8-C ) :   1.2190 B(  8-C ,  9-C ) :   1.4506 B(  8-C , 80-H ) :   0.9890
B(  9-C , 10-C ) :   1.2217 B(  9-C , 15-C ) :   0.9812 B( 10-C , 11-C ) :   1.4689
B( 10-C , 12-C ) :   0.9546 B( 11-C , 81-H ) :   1.0161 B( 12-C , 13-O ) :   2.1640
B( 12-C , 14-C ) :   0.9391 B( 13-O , 83-H ) :   0.1017 B( 14-C , 15-C ) :   1.0799
B( 14-C , 21-C ) :   1.5898 B( 15-C , 16-C ) :   1.6254 B( 16-C , 17-C ) :   1.1480
B( 16-C , 19-C ) :   1.1390 B( 17-C , 18-N ) :   2.9616 B( 19-C , 20-N ) :   2.9740
B( 21-C , 22-C ) :   1.2101 B( 21-C , 82-H ) :   0.9118 B( 22-C , 23-S ) :   1.0895
B( 22-C , 24-C ) :   0.1073 B( 22-C , 26-C ) :   1.4360 B( 23-S , 24-C ) :   1.1890
B( 24-C , 25-C ) :   1.4498 B( 24-C , 30-C ) :   1.0633 B( 25-C , 26-C ) :   1.2787
B( 25-C , 27-C ) :   0.8890 B( 26-C , 83-H ) :   0.9683 B( 27-C , 28-O ) :   2.1891
B( 27-C , 29-C ) :   1.0519 B( 29-C , 84-H ) :   0.9390 B( 29-C , 85-H ) :   0.9450
B( 29-C , 86-H ) :   0.9419 B( 30-C , 31-N ) :   1.2052 B( 30-C , 37-C ) :   1.4202
B( 31-N , 32-C ) :   0.9441 B( 31-N , 34-C ) :   1.0226 B( 32-C , 33-C ) :   1.1152
B( 32-C , 87-H ) :   0.9252 B( 32-C , 88-H ) :   0.9473 B( 33-C , 89-H ) :   0.9637
B( 33-C , 90-H ) :   0.9666 B( 33-C , 91-H ) :   0.9672 B( 34-C , 35-O ) :   2.1217
B( 34-C , 36-C ) :   0.9895 B( 36-C , 37-C ) :   1.2302 B( 36-C , 43-C ) :   1.3465
B( 37-C , 38-C ) :   0.9701 B( 38-C , 39-O ) :   2.0687 B( 38-C , 40-N ) :   1.0500
B( 40-N , 41-C ) :   0.9387 B( 40-N , 43-C ) :   1.1688 B( 41-C , 42-C ) :   1.1195
B( 41-C , 92-H ) :   0.9226 B( 41-C , 93-H ) :   0.9500 B( 42-C , 94-H ) :   0.9608
B( 42-C , 95-H ) :   0.9680 B( 42-C , 96-H ) :   0.9669 B( 43-C , 44-C ) :   1.1694
B( 44-C , 45-C ) :   1.6074 B( 44-C , 97-H ) :   0.9496 B( 45-C , 46-C ) :   1.0960
B( 45-C , 98-H ) :   0.9635 B( 46-C , 47-C ) :   1.5389 B( 46-C , 50-C ) :   1.2127
B( 47-C , 48-S ) :   1.1793 B( 47-C , 99-H ) :   0.9519 B( 48-S , 49-C ) :   1.2264
B( 49-C , 50-C ) :   1.5112 B( 49-C ,100-H ) :   0.9614 B( 50-C , 51-C ) :   0.9811
B( 51-C , 52-O ) :   2.0683 B( 51-C , 53-O ) :   1.1080 B( 53-O , 54-C ) :   1.0619
B( 54-C , 55-C ) :   1.6942 B( 54-C ,101-H ) :   0.9729 B( 55-C , 56-C ) :   1.1204
B( 55-C ,102-H ) :   0.9450 B( 56-C , 57-C ) :   1.6628 B( 56-C ,103-H ) :   0.9479
B( 57-C , 58-C ) :   0.9374 B( 57-C , 72-C ) :   1.0301 B( 58-C , 59-O ) :   2.2780
B( 58-C , 60-C ) :   0.9196 B( 60-C , 61-C ) :   1.4761 B( 60-C , 71-C ) :   1.2215
B( 61-C , 62-C ) :   1.1965 B( 61-C ,104-H ) :   1.0155 B( 62-C , 63-C ) :   1.2558
B( 62-C , 67-C ) :   1.1932 B( 63-C , 64-C ) :   1.1910 B( 63-C , 70-C ) :   1.2178
B( 64-C , 65-C ) :   1.4430 B( 64-C , 67-C ) :   0.1081 B( 64-C ,105-H ) :   1.0059
B( 65-C , 66-C ) :   1.1892 B( 65-C , 69-F ) :   1.1368 B( 66-C , 67-C ) :   1.4457
B( 66-C , 68-F ) :   1.1356 B( 67-C ,106-H ) :   1.0059 B( 70-C , 71-C ) :   1.4553
B( 70-C ,107-H ) :   0.9916 B( 71-C , 72-C ) :   1.0028 B( 72-C , 73-C ) :   1.6503
B( 73-C , 74-C ) :   1.1551 B( 73-C , 76-C ) :   1.1301 B( 74-C , 75-N ) :   3.0186
B( 76-C , 77-N ) :   2.9825

-----------------------------------------------------------------------------
         ABSORPTION SPECTRUM VIA TRANSITION ELECTRIC DIPOLE MOMENTS
-----------------------------------------------------------------------------
State   Energy  Wavelength   fosc         T2         TX        TY        TZ
        (cm-1)    (nm)                  (au**2)     (au)      (au)      (au)
-----------------------------------------------------------------------------
   0   14078.9    710.3   0.891807106  20.85343  -0.25470  -4.20236  -1.76882
   1   21475.3    465.7   0.108943677   1.67008  -0.33226   0.47959   1.15312
   2   22579.3    442.9   0.001957666   0.02854  -0.05327  -0.11335   0.11339
   3   24623.4    406.1   0.420936535   5.62788  -0.13550  -2.32485  -0.45230
   4   25345.5    394.5   0.039414590   0.51196   0.06170  -0.69553  -0.15617
   5   26044.2    384.0   0.034210717   0.43244   0.35482  -0.37293  -0.40923
   6   26978.8    370.7   0.049645082   0.60580  -0.70545  -0.30832   0.11434
   7   27197.8    367.7   0.363177968   4.39604  -0.51348  -0.68467  -1.91405
   8   27920.4    358.2   0.366458383   4.32094  -0.90623  -1.86925   0.07496
   9   28366.6    352.5   0.018538249   0.21515   0.30157   0.34538  -0.07011
  10   28488.4    351.0   0.366771647   4.23842   0.24576  -1.29678  -1.58000
  11   28818.8    347.0   0.080792534   0.92294   0.26007   0.92405   0.03782
  12   28974.2    345.1   0.001609240   0.01828   0.10865   0.07989   0.00987
  13   29164.1    342.9   0.075270353   0.84967   0.61557   0.67896  -0.09878
  14   29340.2    340.8   0.017825044   0.20001  -0.27554   0.22880   0.26783
  15   29918.5    334.2   0.041972184   0.46185  -0.04497   0.57063   0.36635
  16   30455.7    328.3   0.014713889   0.15905  -0.28662   0.27412   0.04193
  17   30907.0    323.6   0.255834099   2.72506  -0.69861  -1.42427  -0.45657
  18   32034.2    312.2   0.175775164   1.80642   1.23653   0.38563  -0.35877
  19   32193.4    310.6   0.017961123   0.18367   0.33401  -0.21363  -0.16270
  20   32273.9    309.8   0.011989314   0.12230   0.13749   0.31520   0.06357
  21   33416.6    299.3   0.629385154   6.20054  -2.09538  -1.27998   0.41420
  22   33765.3    296.2   0.076735004   0.74817   0.43170   0.65029   0.37273
  23   33884.2    295.1   0.267504786   2.59902  -1.12233   0.81379   0.82289
  24   34093.0    293.3   0.403785833   3.89907   1.02012  -1.09613  -1.28722
  25   34345.0    291.2   0.095702263   0.91735  -0.41626  -0.85753   0.09335
  26   34660.4    288.5   0.712563745   6.76809   1.39882  -1.45335  -1.64291
  27   34704.7    288.1   0.032058582   0.30411  -0.20162   0.09976   0.50350
  28   34811.1    287.3   0.049046475   0.46384   0.54143   0.02323  -0.41249
  29   35400.0    282.5   0.023627136   0.21973  -0.26617   0.28285   0.26245
  30   35491.3    281.8   0.013618849   0.12633   0.31240  -0.16912   0.01145
  31   35695.3    280.1   0.022749294   0.20981  -0.42262   0.17149   0.04242
  32   35749.8    279.7   0.168399687   1.55076   0.81908  -0.80470  -0.48199
  33   37049.6    269.9   0.171282764   1.52197   1.00387   0.67225  -0.24958
  34   37532.4    266.4   0.004678317   0.04104   0.01943   0.20023   0.02382
  35   37725.9    265.1   0.051368160   0.44826   0.56461  -0.29445  -0.20681
  36   37766.4    264.8   0.029080564   0.25350   0.41645  -0.26734  -0.09273
  37   38269.0    261.3   0.014695203   0.12642  -0.35014  -0.01796   0.05912
  38   38675.3    258.6   0.117501052   1.00019   0.56079   0.81108   0.16687
  39   38705.5    258.4   0.030685640   0.26100  -0.27126  -0.41203  -0.13282
  40   39359.7    254.1   0.026223913   0.21934   0.33740   0.00120   0.32481
  41   39475.8    253.3   0.090686141   0.75628   0.41179   0.76316   0.06551
  42   39595.1    252.6   0.253676602   2.10918  -0.90622   1.12265   0.16613
  43   39768.9    251.5   0.090966139   0.75303  -0.78315  -0.21253   0.30747

FINAL SINGLE POINT ENERGY     -4312.567092689560

DIPOLE MOMENT
-------------
                                X             Y             Z
Electronic contribution:      8.93797       7.94544     -43.24596
Nuclear contribution   :     -7.21946     -10.20527      43.02937
                        -----------------------------------------
Total Dipole Moment    :      1.71851      -2.25983      -0.21659
                        -----------------------------------------
Magnitude (a.u.)       :      2.84729
Magnitude (Debye)      :      7.23722

Rotational constants in cm-1:     0.001345     0.000159     0.000147
Rotational constants in MHz :    40.321558     4.772404     4.409461

                             ****ORCA TERMINATED NORMALLY****
TOTAL RUN TIME: 0 days 0 hours 9 minutes 55 seconds 811 msec
