                         Program Version 4.2.0 -  RELEASE  -
|  1> # ORCA input file
|  2> # SCF done       -216.745734430698          0.000400126314
|  3> ! CAM-B3LYP def2-SVP def2/J RIJCOSX Grid4 TightSCF
|  4> %maxcore 5000
|  5> %tddft
|  6>     Mode sTDDFT
|  7>     Ethresh 5.0
|  8>     maxcore 5000
|  9> end
| 10>
| 11> %pal
| 12>   nprocs 6
| 13>   end
| 14> * xyz 0 1
| 15>    C        1.78421         2.32487         3.39650
| 16>    C        3.06692         2.48577         3.83977
| 17>    F        3.51212         3.69981         4.18631
| 18>    C        3.93660         1.38047         3.93817
| 19>    F        5.18811         1.56829         4.37610
| 20>    C        3.51078         0.12889         3.59171
| 21>    C        2.19437        -0.06928         3.13171
| 22>    C        1.31417         1.04733         3.03045
| 23>    C       -0.01026         0.87289         2.56840
| 24>    C       -0.44080        -0.37946         2.21510
| 25>    C        0.44351        -1.48856         2.32538
| 26>    C        1.72676        -1.35206         2.77119
| 27>    C       -0.25432        -2.72042         1.91246
| 28>    O        0.18435        -3.84868         1.95941
| 29>    C       -1.62805        -2.29314         1.53407
| 30>    C       -1.72269        -0.85443         1.70312
| 31>    C       -2.79181        -0.06601         1.36985
| 32>    C       -3.99047        -0.53369         0.78904
| 33>    N       -4.98081        -0.83856         0.29542
| 34>    C       -2.82137         1.33495         1.53688
| 35>    N       -2.90327         2.47354         1.65474
| 36>    C       -2.64737        -3.15723         1.26285
| 37>    C       -2.50930        -4.54271         0.97966
| 38>    C       -3.43672        -5.51407         1.29469
| 39>    C       -2.92143        -6.79017         0.91773
| 40>    C       -1.63209        -6.52869         0.26293
| 41>    C       -1.39491        -5.18981         0.30350
| 42>    C       -0.79230        -7.47291        -0.33717
| 43>    N       -0.09289        -8.23415        -0.83934
| 44>    C       -3.47856        -8.02818         1.15463
| 45>    C       -2.90347        -9.29224         0.87197
| 46>    C       -3.74585       -10.28753         1.32619
| 47>    C       -4.92189        -9.64964         1.90288
| 48>    C       -4.77620        -8.30438         1.80939
| 49>    C       -5.70471        -7.35977         2.26147
| 50>    N       -6.48526        -6.60971         2.64521
| 51>    C       -3.51196       -11.67931         1.30003
| 52>    C       -2.39084       -12.32264         0.78954
| 53>    C       -2.45265       -13.69234         0.99293
| 54>    C       -3.63293       -14.11895         1.66187
| 55>    S       -4.66846       -12.79472         2.02236
| 56>    C       -3.52458       -15.49431         1.82972
| 57>    C       -2.27891       -15.88110         1.26361
| 58>    N       -1.65366       -14.77670         0.75115
| 59>    C       -1.99780       -17.23199         1.39861
| 60>    C       -3.01605       -17.90471         2.06580
| 61>    S       -4.35004       -16.84102         2.50862
| 62>    C       -3.07816       -19.25910         2.45704
| 63>    C       -2.06212       -20.15483         2.30174
| 64>    C       -2.07250       -21.48603         2.77002
| 65>    C       -0.99213       -22.34774         2.74293
| 66>    C       -1.34062       -23.56375         3.38197
| 67>    C       -2.75990       -23.42351         3.77695
| 68>    C       -3.18006       -22.18674         3.41424
| 69>    C       -3.55768       -24.39360         4.39548
| 70>    N       -4.24665       -25.16828         4.88961
| 71>    C       -0.51520       -24.62921         3.66478
| 72>    C       -0.81801       -25.78040         4.44977
| 73>    C        0.33761       -26.50207         4.65245
| 74>    C        1.40695       -25.85249         3.91033
| 75>    C        0.90435       -24.74533         3.30140
| 76>    C        1.63119       -23.89401         2.46254
| 77>    N        2.25380       -23.21825         1.77272
| 78>    C        0.46924       -27.68256         5.43174
| 79>    C        1.58968       -28.13293         6.05694
| 80>    C        1.70378       -29.55879         6.47492
| 81>    O        0.81269       -30.37245         6.52497
| 82>    C        3.14135       -29.76378         6.75036
| 83>    C        3.79787       -30.92013         7.05934
| 84>    C        5.19528       -30.88308         7.26502
| 85>    C        5.88874       -29.64400         7.13944
| 86>    C        7.28339       -29.61517         7.34097
| 87>    C        7.95738       -30.76160         7.65556
| 88>    C        7.27056       -31.98634         7.78065
| 89>    C        5.91857       -32.04727         7.58982
| 90>    F        7.95734       -33.09403         8.08850
| 91>    F        9.28190       -30.73231         7.84848
| 92>    C        5.18203       -28.46133         6.82352
| 93>    C        3.82644       -28.51949         6.63861
| 94>    C        2.84615       -27.47600         6.35171
| 95>    C        3.02495       -26.13454         6.56751
| 96>    C        1.97665       -25.18951         6.57278
| 97>    N        1.15855       -24.38994         6.66820
| 98>    C        4.26372       -25.55798         6.91701
| 99>    N        5.25532       -25.04457         7.18173
|100>    H        1.13249         3.18173         3.32638
|101>    H        4.18788        -0.70698         3.67292
|102>    H       -0.65271         1.73645         2.50940
|103>    H        2.37555        -2.21160         2.84523
|104>    H       -3.66687        -2.79283         1.30481
|105>    H       -4.36601        -5.35254         1.80608
|106>    H       -0.55842        -4.68445        -0.13784
|107>    H       -1.95251        -9.43371         0.40075
|108>    H       -5.75414       -10.17952         2.32877
|109>    H       -1.58472       -11.79960         0.31039
|110>    H       -0.75263       -14.75814         0.30538
|111>    H       -1.10646       -17.71181         1.04091
|112>    H       -3.99030       -19.56625         2.94913
|113>    H       -1.14404       -19.83758         1.82666
|114>    H       -0.02425       -22.12244         2.34044
|115>    H       -4.16606       -21.78856         3.56416
|116>    H       -1.77488       -25.99610         4.88319
|117>    H        2.40944       -26.22822         3.81337
|118>    H       -0.40188       -28.32662         5.49601
|119>    H        3.25821       -31.85076         7.14700
|120>    H        7.82367       -28.68557         7.25263
|121>    H        5.40779       -32.99219         7.68938
|122>    H        5.73179       -27.53852         6.72728
|123> *
|124>
|125>                          ****END OF INPUT****

CARTESIAN COORDINATES (ANGSTROEM)
---------------------------------
  C      1.784210    2.324870    3.396500
  C      3.066920    2.485770    3.839770
  F      3.512120    3.699810    4.186310
  C      3.936600    1.380470    3.938170
  F      5.188110    1.568290    4.376100
  C      3.510780    0.128890    3.591710
  C      2.194370   -0.069280    3.131710
  C      1.314170    1.047330    3.030450
  C     -0.010260    0.872890    2.568400
  C     -0.440800   -0.379460    2.215100
  C      0.443510   -1.488560    2.325380
  C      1.726760   -1.352060    2.771190
  C     -0.254320   -2.720420    1.912460
  O      0.184350   -3.848680    1.959410
  C     -1.628050   -2.293140    1.534070
  C     -1.722690   -0.854430    1.703120
  C     -2.791810   -0.066010    1.369850
  C     -3.990470   -0.533690    0.789040
  N     -4.980810   -0.838560    0.295420
  C     -2.821370    1.334950    1.536880
  N     -2.903270    2.473540    1.654740
  C     -2.647370   -3.157230    1.262850
  C     -2.509300   -4.542710    0.979660
  C     -3.436720   -5.514070    1.294690
  C     -2.921430   -6.790170    0.917730
  C     -1.632090   -6.528690    0.262930
  C     -1.394910   -5.189810    0.303500
  C     -0.792300   -7.472910   -0.337170
  N     -0.092890   -8.234150   -0.839340
  C     -3.478560   -8.028180    1.154630
  C     -2.903470   -9.292240    0.871970
  C     -3.745850  -10.287530    1.326190
  C     -4.921890   -9.649640    1.902880
  C     -4.776200   -8.304380    1.809390
  C     -5.704710   -7.359770    2.261470
  N     -6.485260   -6.609710    2.645210
  C     -3.511960  -11.679310    1.300030
  C     -2.390840  -12.322640    0.789540
  C     -2.452650  -13.692340    0.992930
  C     -3.632930  -14.118950    1.661870
  S     -4.668460  -12.794720    2.022360
  C     -3.524580  -15.494310    1.829720
  C     -2.278910  -15.881100    1.263610
  N     -1.653660  -14.776700    0.751150
  C     -1.997800  -17.231990    1.398610
  C     -3.016050  -17.904710    2.065800
  S     -4.350040  -16.841020    2.508620
  C     -3.078160  -19.259100    2.457040
  C     -2.062120  -20.154830    2.301740
  C     -2.072500  -21.486030    2.770020
  C     -0.992130  -22.347740    2.742930
  C     -1.340620  -23.563750    3.381970
  C     -2.759900  -23.423510    3.776950
  C     -3.180060  -22.186740    3.414240
  C     -3.557680  -24.393600    4.395480
  N     -4.246650  -25.168280    4.889610
  C     -0.515200  -24.629210    3.664780
  C     -0.818010  -25.780400    4.449770
  C      0.337610  -26.502070    4.652450
  C      1.406950  -25.852490    3.910330
  C      0.904350  -24.745330    3.301400
  C      1.631190  -23.894010    2.462540
  N      2.253800  -23.218250    1.772720
  C      0.469240  -27.682560    5.431740
  C      1.589680  -28.132930    6.056940
  C      1.703780  -29.558790    6.474920
  O      0.812690  -30.372450    6.524970
  C      3.141350  -29.763780    6.750360
  C      3.797870  -30.920130    7.059340
  C      5.195280  -30.883080    7.265020
  C      5.888740  -29.644000    7.139440
  C      7.283390  -29.615170    7.340970
  C      7.957380  -30.761600    7.655560
  C      7.270560  -31.986340    7.780650
  C      5.918570  -32.047270    7.589820
  F      7.957340  -33.094030    8.088500
  F      9.281900  -30.732310    7.848480
  C      5.182030  -28.461330    6.823520
  C      3.826440  -28.519490    6.638610
  C      2.846150  -27.476000    6.351710
  C      3.024950  -26.134540    6.567510
  C      1.976650  -25.189510    6.572780
  N      1.158550  -24.389940    6.668200
  C      4.263720  -25.557980    6.917010
  N      5.255320  -25.044570    7.181730
  H      1.132490    3.181730    3.326380
  H      4.187880   -0.706980    3.672920
  H     -0.652710    1.736450    2.509400
  H      2.375550   -2.211600    2.845230
  H     -3.666870   -2.792830    1.304810
  H     -4.366010   -5.352540    1.806080
  H     -0.558420   -4.684450   -0.137840
  H     -1.952510   -9.433710    0.400750
  H     -5.754140  -10.179520    2.328770
  H     -1.584720  -11.799600    0.310390
  H     -0.752630  -14.758140    0.305380
  H     -1.106460  -17.711810    1.040910
  H     -3.990300  -19.566250    2.949130
  H     -1.144040  -19.837580    1.826660
  H     -0.024250  -22.122440    2.340440
  H     -4.166060  -21.788560    3.564160
  H     -1.774880  -25.996100    4.883190
  H      2.409440  -26.228220    3.813370
  H     -0.401880  -28.326620    5.496010
  H      3.258210  -31.850760    7.147000
  H      7.823670  -28.685570    7.252630
  H      5.407790  -32.992190    7.689380
  H      5.731790  -27.538520    6.727280

 Total Charge           Charge          ....    0
 Multiplicity           Mult            ....    1
 Number of Electrons    NEL             ....  578
 Basis Dimension        Dim             .... 1313

ORBITAL ENERGIES
----------------

  NO   OCC          E(Eh)            E(eV)
   0   2.0000     -88.983795     -2421.3722
   1   2.0000     -88.981874     -2421.3199
   2   2.0000     -24.803293      -674.9319
   3   2.0000     -24.802593      -674.9129
   4   2.0000     -24.802286      -674.9045
   5   2.0000     -24.802065      -674.8985
   6   2.0000     -19.229346      -523.2571
   7   2.0000     -19.223949      -523.1102
   8   2.0000     -14.491161      -394.3245
   9   2.0000     -14.425110      -392.5272
  10   2.0000     -14.423414      -392.4810
  11   2.0000     -14.423031      -392.4706
  12   2.0000     -14.421623      -392.4323
  13   2.0000     -14.417601      -392.3229
  14   2.0000     -14.417110      -392.3095
  15   2.0000     -14.411645      -392.1608
  16   2.0000     -14.408434      -392.0734
  17   2.0000     -10.387003      -282.6447
  18   2.0000     -10.386378      -282.6277
  19   2.0000     -10.386308      -282.6258
  20   2.0000     -10.385883      -282.6143
  21   2.0000     -10.379713      -282.4464
  22   2.0000     -10.375084      -282.3204
  23   2.0000     -10.354875      -281.7705
  24   2.0000     -10.352685      -281.7109
  25   2.0000     -10.351252      -281.6719
  26   2.0000     -10.349762      -281.6313
  27   2.0000     -10.341246      -281.3996
  28   2.0000     -10.340729      -281.3855
  29   2.0000     -10.332260      -281.1551
  30   2.0000     -10.332170      -281.1526
  31   2.0000     -10.331812      -281.1429
  32   2.0000     -10.331808      -281.1428
  33   2.0000     -10.329100      -281.0691
  34   2.0000     -10.328258      -281.0462
  35   2.0000     -10.327237      -281.0184
  36   2.0000     -10.326955      -281.0107
  37   2.0000     -10.326621      -281.0017
  38   2.0000     -10.325883      -280.9816
  39   2.0000     -10.325647      -280.9751
  40   2.0000     -10.324876      -280.9542
  41   2.0000     -10.324818      -280.9526
  42   2.0000     -10.324370      -280.9404
  43   2.0000     -10.324153      -280.9345
  44   2.0000     -10.323744      -280.9233
  45   2.0000     -10.320887      -280.8456
  46   2.0000     -10.320129      -280.8250
  47   2.0000     -10.319709      -280.8136
  48   2.0000     -10.318963      -280.7933
  49   2.0000     -10.318433      -280.7788
  50   2.0000     -10.317854      -280.7631
  51   2.0000     -10.317550      -280.7548
  52   2.0000     -10.316878      -280.7365
  53   2.0000     -10.316619      -280.7295
  54   2.0000     -10.316397      -280.7234
  55   2.0000     -10.316006      -280.7128
  56   2.0000     -10.315053      -280.6869
  57   2.0000     -10.314792      -280.6798
  58   2.0000     -10.314059      -280.6598
  59   2.0000     -10.313805      -280.6529
  60   2.0000     -10.311851      -280.5997
  61   2.0000     -10.311622      -280.5935
  62   2.0000     -10.311621      -280.5935
  63   2.0000     -10.310956      -280.5754
  64   2.0000     -10.309712      -280.5415
  65   2.0000     -10.309695      -280.5411
  66   2.0000     -10.309346      -280.5316
  67   2.0000     -10.309107      -280.5251
  68   2.0000     -10.309076      -280.5242
  69   2.0000     -10.309055      -280.5236
  70   2.0000     -10.308898      -280.5194
  71   2.0000     -10.308697      -280.5139
  72   2.0000     -10.308432      -280.5067
  73   2.0000     -10.308239      -280.5014
  74   2.0000     -10.306586      -280.4565
  75   2.0000     -10.305970      -280.4397
  76   2.0000     -10.305780      -280.4345
  77   2.0000     -10.305287      -280.4211
  78   2.0000     -10.305167      -280.4178
  79   2.0000     -10.303095      -280.3615
  80   2.0000     -10.300753      -280.2977
  81   2.0000     -10.300506      -280.2910
  82   2.0000     -10.300344      -280.2866
  83   2.0000     -10.286365      -279.9062
  84   2.0000     -10.285871      -279.8928
  85   2.0000      -8.078472      -219.8264
  86   2.0000      -8.076784      -219.7805
  87   2.0000      -6.048117      -164.5776
  88   2.0000      -6.046409      -164.5312
  89   2.0000      -6.044027      -164.4663
  90   2.0000      -6.042327      -164.4201
  91   2.0000      -6.039944      -164.3552
  92   2.0000      -6.038248      -164.3091
  93   2.0000      -1.325946       -36.0808
  94   2.0000      -1.325490       -36.0684
  95   2.0000      -1.311045       -35.6754
  96   2.0000      -1.310601       -35.6633
  97   2.0000      -1.145042       -31.1582
  98   2.0000      -1.139387       -31.0043
  99   2.0000      -1.113057       -30.2878
 100   2.0000      -1.029571       -28.0160
 101   2.0000      -1.027559       -27.9613
 102   2.0000      -1.024384       -27.8749
 103   2.0000      -1.022207       -27.8157
 104   2.0000      -1.011142       -27.5146
 105   2.0000      -1.010781       -27.5048
 106   2.0000      -1.007422       -27.4134
 107   2.0000      -1.007088       -27.4043
 108   2.0000      -1.001587       -27.2546
 109   2.0000      -1.001432       -27.2503
 110   2.0000      -1.000890       -27.2356
 111   2.0000      -0.997907       -27.1544
 112   2.0000      -0.991898       -26.9909
 113   2.0000      -0.989505       -26.9258
 114   2.0000      -0.989485       -26.9253
 115   2.0000      -0.987229       -26.8639
 116   2.0000      -0.985015       -26.8036
 117   2.0000      -0.982369       -26.7316
 118   2.0000      -0.939483       -25.5646
 119   2.0000      -0.939397       -25.5623
 120   2.0000      -0.926855       -25.2210
 121   2.0000      -0.915719       -24.9180
 122   2.0000      -0.913997       -24.8711
 123   2.0000      -0.901527       -24.5318
 124   2.0000      -0.899340       -24.4723
 125   2.0000      -0.898446       -24.4480
 126   2.0000      -0.892089       -24.2750
 127   2.0000      -0.889731       -24.2108
 128   2.0000      -0.875019       -23.8105
 129   2.0000      -0.864972       -23.5371
 130   2.0000      -0.863187       -23.4885
 131   2.0000      -0.861378       -23.4393
 132   2.0000      -0.853862       -23.2348
 133   2.0000      -0.848287       -23.0831
 134   2.0000      -0.847037       -23.0491
 135   2.0000      -0.846531       -23.0353
 136   2.0000      -0.845480       -23.0067
 137   2.0000      -0.841338       -22.8940
 138   2.0000      -0.818236       -22.2653
 139   2.0000      -0.811471       -22.0812
 140   2.0000      -0.798476       -21.7276
 141   2.0000      -0.784100       -21.3364
 142   2.0000      -0.774991       -21.0886
 143   2.0000      -0.774734       -21.0816
 144   2.0000      -0.770629       -20.9699
 145   2.0000      -0.757980       -20.6257
 146   2.0000      -0.747063       -20.3286
 147   2.0000      -0.746936       -20.3252
 148   2.0000      -0.729512       -19.8510
 149   2.0000      -0.726695       -19.7744
 150   2.0000      -0.725845       -19.7512
 151   2.0000      -0.725180       -19.7331
 152   2.0000      -0.720661       -19.6102
 153   2.0000      -0.715583       -19.4720
 154   2.0000      -0.713001       -19.4017
 155   2.0000      -0.702912       -19.1272
 156   2.0000      -0.694184       -18.8897
 157   2.0000      -0.690688       -18.7946
 158   2.0000      -0.685642       -18.6573
 159   2.0000      -0.680978       -18.5303
 160   2.0000      -0.676141       -18.3987
 161   2.0000      -0.673200       -18.3187
 162   2.0000      -0.669064       -18.2062
 163   2.0000      -0.663324       -18.0500
 164   2.0000      -0.660342       -17.9688
 165   2.0000      -0.656917       -17.8756
 166   2.0000      -0.653005       -17.7692
 167   2.0000      -0.650027       -17.6881
 168   2.0000      -0.648606       -17.6495
 169   2.0000      -0.646408       -17.5897
 170   2.0000      -0.643054       -17.4984
 171   2.0000      -0.638130       -17.3644
 172   2.0000      -0.630672       -17.1614
 173   2.0000      -0.625027       -17.0078
 174   2.0000      -0.622429       -16.9372
 175   2.0000      -0.621379       -16.9086
 176   2.0000      -0.615859       -16.7584
 177   2.0000      -0.602423       -16.3928
 178   2.0000      -0.600439       -16.3388
 179   2.0000      -0.593389       -16.1469
 180   2.0000      -0.590697       -16.0737
 181   2.0000      -0.590396       -16.0655
 182   2.0000      -0.589895       -16.0519
 183   2.0000      -0.585044       -15.9198
 184   2.0000      -0.579003       -15.7555
 185   2.0000      -0.577187       -15.7061
 186   2.0000      -0.573302       -15.6003
 187   2.0000      -0.572034       -15.5658
 188   2.0000      -0.564701       -15.3663
 189   2.0000      -0.562516       -15.3068
 190   2.0000      -0.559660       -15.2291
 191   2.0000      -0.559421       -15.2226
 192   2.0000      -0.551818       -15.0157
 193   2.0000      -0.551402       -15.0044
 194   2.0000      -0.547716       -14.9041
 195   2.0000      -0.545374       -14.8404
 196   2.0000      -0.543872       -14.7995
 197   2.0000      -0.543157       -14.7800
 198   2.0000      -0.542622       -14.7655
 199   2.0000      -0.540578       -14.7099
 200   2.0000      -0.538965       -14.6660
 201   2.0000      -0.537153       -14.6167
 202   2.0000      -0.536767       -14.6062
 203   2.0000      -0.535484       -14.5712
 204   2.0000      -0.532237       -14.4829
 205   2.0000      -0.529008       -14.3950
 206   2.0000      -0.527966       -14.3667
 207   2.0000      -0.526082       -14.3154
 208   2.0000      -0.525405       -14.2970
 209   2.0000      -0.521745       -14.1974
 210   2.0000      -0.519422       -14.1342
 211   2.0000      -0.517873       -14.0920
 212   2.0000      -0.515260       -14.0209
 213   2.0000      -0.511934       -13.9304
 214   2.0000      -0.510654       -13.8956
 215   2.0000      -0.509374       -13.8608
 216   2.0000      -0.508590       -13.8394
 217   2.0000      -0.506329       -13.7779
 218   2.0000      -0.504289       -13.7224
 219   2.0000      -0.504039       -13.7156
 220   2.0000      -0.501164       -13.6374
 221   2.0000      -0.497779       -13.5452
 222   2.0000      -0.494484       -13.4556
 223   2.0000      -0.493291       -13.4231
 224   2.0000      -0.490719       -13.3531
 225   2.0000      -0.489487       -13.3196
 226   2.0000      -0.488542       -13.2939
 227   2.0000      -0.485145       -13.2015
 228   2.0000      -0.483516       -13.1571
 229   2.0000      -0.479676       -13.0526
 230   2.0000      -0.477440       -12.9918
 231   2.0000      -0.475294       -12.9334
 232   2.0000      -0.473387       -12.8815
 233   2.0000      -0.470520       -12.8035
 234   2.0000      -0.468535       -12.7495
 235   2.0000      -0.467341       -12.7170
 236   2.0000      -0.464224       -12.6322
 237   2.0000      -0.461782       -12.5657
 238   2.0000      -0.458317       -12.4714
 239   2.0000      -0.455998       -12.4083
 240   2.0000      -0.452571       -12.3151
 241   2.0000      -0.452520       -12.3137
 242   2.0000      -0.451143       -12.2762
 243   2.0000      -0.450445       -12.2572
 244   2.0000      -0.448009       -12.1909
 245   2.0000      -0.446323       -12.1451
 246   2.0000      -0.446016       -12.1367
 247   2.0000      -0.445087       -12.1114
 248   2.0000      -0.444055       -12.0834
 249   2.0000      -0.441555       -12.0153
 250   2.0000      -0.441375       -12.0104
 251   2.0000      -0.439966       -11.9721
 252   2.0000      -0.437869       -11.9150
 253   2.0000      -0.436824       -11.8866
 254   2.0000      -0.435247       -11.8437
 255   2.0000      -0.435106       -11.8398
 256   2.0000      -0.434090       -11.8122
 257   2.0000      -0.432137       -11.7590
 258   2.0000      -0.430594       -11.7171
 259   2.0000      -0.427167       -11.6238
 260   2.0000      -0.422190       -11.4884
 261   2.0000      -0.421777       -11.4771
 262   2.0000      -0.419090       -11.4040
 263   2.0000      -0.416969       -11.3463
 264   2.0000      -0.410446       -11.1688
 265   2.0000      -0.405790       -11.0421
 266   2.0000      -0.402909       -10.9637
 267   2.0000      -0.401823       -10.9341
 268   2.0000      -0.400015       -10.8850
 269   2.0000      -0.392199       -10.6723
 270   2.0000      -0.389802       -10.6071
 271   2.0000      -0.378142       -10.2898
 272   2.0000      -0.364880        -9.9289
 273   2.0000      -0.357131        -9.7180
 274   2.0000      -0.355715        -9.6795
 275   2.0000      -0.354300        -9.6410
 276   2.0000      -0.343713        -9.3529
 277   2.0000      -0.332815        -9.0564
 278   2.0000      -0.328095        -8.9279
 279   2.0000      -0.326643        -8.8884
 280   2.0000      -0.323019        -8.7898
 281   2.0000      -0.322759        -8.7827
 282   2.0000      -0.310169        -8.4401
 283   2.0000      -0.308883        -8.4051
 284   2.0000      -0.306195        -8.3320
 285   2.0000      -0.303701        -8.2641
 286   2.0000      -0.298971        -8.1354
 287   2.0000      -0.287740        -7.8298
 288   2.0000      -0.247494        -6.7347
 289   0.0000      -0.141648        -3.8544
 290   0.0000      -0.129031        -3.5111
 291   0.0000      -0.092459        -2.5159
 292   0.0000      -0.088784        -2.4159
 293   0.0000      -0.066462        -1.8085

MULLIKEN ATOMIC CHARGES
-----------------------
   0 C :   -0.110606
   1 C :    0.243356
   2 F :   -0.169035
   3 C :    0.241896
   4 F :   -0.169426
   5 C :   -0.106656
   6 C :    0.118305
   7 C :    0.117460
   8 C :   -0.087345
   9 C :    0.055994
  10 C :   -0.006689
  11 C :   -0.080303
  12 C :    0.141873
  13 O :   -0.141498
  14 C :   -0.096274
  15 C :    0.311508
  16 C :   -0.337884
  17 C :   -0.199482
  18 N :    0.172060
  19 C :   -0.180846
  20 N :    0.151729
  21 C :   -0.017025
  22 C :    0.074472
  23 C :   -0.069721
  24 C :    0.093192
  25 C :   -0.126872
  26 C :    0.075813
  27 C :   -0.172842
  28 N :    0.118147
  29 C :    0.134514
  30 C :   -0.147651
  31 C :    0.131051
  32 C :   -0.020107
  33 C :   -0.084600
  34 C :   -0.181337
  35 N :    0.144670
  36 C :   -0.075656
  37 C :   -0.076454
  38 C :    0.148058
  39 C :   -0.110579
  40 S :    0.152168
  41 C :   -0.115692
  42 C :    0.131272
  43 N :   -0.012731
  44 C :   -0.060148
  45 C :   -0.084235
  46 S :    0.162992
  47 C :    0.062834
  48 C :   -0.010141
  49 C :    0.125679
  50 C :   -0.117849
  51 C :    0.133408
  52 C :   -0.090835
  53 C :   -0.003466
  54 C :   -0.175034
  55 N :    0.139537
  56 C :    0.109667
  57 C :   -0.047034
  58 C :    0.046877
  59 C :   -0.008741
  60 C :   -0.091976
  61 C :   -0.175845
  62 N :    0.137967
  63 C :    0.046884
  64 C :   -0.123226
  65 C :    0.142519
  66 O :   -0.129277
  67 C :    0.009048
  68 C :   -0.081536
  69 C :    0.113371
  70 C :    0.112734
  71 C :   -0.107309
  72 C :    0.245233
  73 C :    0.240007
  74 C :   -0.104286
  75 F :   -0.169885
  76 F :   -0.169322
  77 C :   -0.082837
  78 C :    0.039161
  79 C :    0.265021
  80 C :   -0.345902
  81 C :   -0.186091
  82 N :    0.176201
  83 C :   -0.176519
  84 N :    0.159757
  85 H :    0.010128
  86 H :    0.001937
  87 H :   -0.004421
  88 H :   -0.007721
  89 H :    0.040444
  90 H :    0.012129
  91 H :    0.001442
  92 H :   -0.005211
  93 H :    0.009726
  94 H :   -0.000877
  95 H :    0.134772
  96 H :   -0.011908
  97 H :   -0.010348
  98 H :   -0.008119
  99 H :    0.000069
 100 H :    0.001331
 101 H :    0.008741
 102 H :    0.007702
 103 H :    0.033585
 104 H :   -0.006694
 105 H :    0.006703
 106 H :    0.001490
 107 H :   -0.002528
Sum of atomic charges:   -0.0000000

LOEWDIN ATOMIC CHARGES
----------------------
   0 C :   -0.028861
   1 C :    0.068308
   2 F :   -0.046799
   3 C :    0.068907
   4 F :   -0.047385
   5 C :   -0.032481
   6 C :   -0.008247
   7 C :   -0.005282
   8 C :    0.018703
   9 C :   -0.022962
  10 C :   -0.054282
  11 C :    0.032550
  12 C :    0.084377
  13 O :   -0.128973
  14 C :   -0.086278
  15 C :    0.071764
  16 C :   -0.129240
  17 C :   -0.024725
  18 N :   -0.039708
  19 C :   -0.016882
  20 N :   -0.046796
  21 C :    0.079250
  22 C :   -0.035580
  23 C :    0.023460
  24 C :    0.021095
  25 C :   -0.098215
  26 C :    0.076006
  27 C :   -0.024501
  28 N :   -0.077238
  29 C :    0.048399
  30 C :   -0.045401
  31 C :   -0.016347
  32 C :    0.046029
  33 C :   -0.069268
  34 C :   -0.032332
  35 N :   -0.053581
  36 C :   -0.156268
  37 C :   -0.042873
  38 C :   -0.005140
  39 C :   -0.210347
  40 S :    0.431214
  41 C :   -0.216320
  42 C :   -0.003354
  43 N :    0.064554
  44 C :   -0.057465
  45 C :   -0.156675
  46 S :    0.432429
  47 C :   -0.015588
  48 C :   -0.015682
  49 C :   -0.000815
  50 C :   -0.037873
  51 C :    0.054588
  52 C :   -0.068538
  53 C :    0.055068
  54 C :   -0.031027
  55 N :   -0.054884
  56 C :    0.023963
  57 C :    0.025368
  58 C :   -0.042280
  59 C :    0.045673
  60 C :   -0.076218
  61 C :   -0.027465
  62 N :   -0.065661
  63 C :    0.078795
  64 C :   -0.082696
  65 C :    0.082833
  66 O :   -0.132715
  67 C :   -0.055126
  68 C :    0.032936
  69 C :   -0.008710
  70 C :   -0.005330
  71 C :   -0.029521
  72 C :    0.068293
  73 C :    0.068232
  74 C :   -0.031982
  75 F :   -0.047745
  76 F :   -0.047130
  77 C :    0.015411
  78 C :   -0.021976
  79 C :    0.064664
  80 C :   -0.129679
  81 C :   -0.020318
  82 N :   -0.040561
  83 C :   -0.018649
  84 N :   -0.044231
  85 H :    0.048542
  86 H :    0.045623
  87 H :    0.040532
  88 H :    0.041262
  89 H :    0.052720
  90 H :    0.039057
  91 H :    0.036541
  92 H :    0.031715
  93 H :    0.034601
  94 H :    0.042088
  95 H :    0.099202
  96 H :    0.035436
  97 H :    0.030979
  98 H :    0.035617
  99 H :    0.035095
 100 H :    0.036064
 101 H :    0.039107
 102 H :    0.035836
 103 H :    0.054112
 104 H :    0.041706
 105 H :    0.047737
 106 H :    0.045619
 107 H :    0.040145

  Mayer bond orders larger than 0.100000
B(  0-C ,  1-C ) :   1.4413 B(  0-C ,  5-C ) :   0.1084 B(  0-C ,  7-C ) :   1.1865
B(  0-C , 85-H ) :   1.0075 B(  1-C ,  2-F ) :   1.1366 B(  1-C ,  3-C ) :   1.1890
B(  3-C ,  4-F ) :   1.1360 B(  3-C ,  5-C ) :   1.4429 B(  5-C ,  6-C ) :   1.1908
B(  5-C , 86-H ) :   1.0077 B(  6-C ,  7-C ) :   1.2556 B(  6-C , 11-C ) :   1.1895
B(  7-C ,  8-C ) :   1.2183 B(  8-C ,  9-C ) :   1.4447 B(  8-C , 87-H ) :   0.9912
B(  9-C , 10-C ) :   1.2203 B(  9-C , 15-C ) :   0.9919 B( 10-C , 11-C ) :   1.4674
B( 10-C , 12-C ) :   0.9431 B( 11-C , 88-H ) :   1.0175 B( 12-C , 13-O ) :   2.2141
B( 12-C , 14-C ) :   0.9413 B( 14-C , 15-C ) :   1.0471 B( 14-C , 21-C ) :   1.6114
B( 15-C , 16-C ) :   1.6537 B( 16-C , 17-C ) :   1.1412 B( 16-C , 19-C ) :   1.1430
B( 17-C , 18-N ) :   2.9881 B( 19-C , 20-N ) :   2.9637 B( 21-C , 22-C ) :   1.1044
B( 21-C , 89-H ) :   0.9497 B( 22-C , 23-C ) :   1.5017 B( 22-C , 26-C ) :   1.0677
B( 23-C , 24-C ) :   1.1154 B( 23-C , 90-H ) :   1.0058 B( 24-C , 25-C ) :   1.1254
B( 24-C , 29-C ) :   1.3823 B( 25-C , 26-C ) :   1.6566 B( 25-C , 27-C ) :   1.0947
B( 26-C , 91-H ) :   1.0053 B( 27-C , 28-N ) :   2.9646 B( 29-C , 30-C ) :   1.1626
B( 29-C , 33-C ) :   1.0900 B( 30-C , 31-C ) :   1.5282 B( 30-C , 92-H ) :   0.9975
B( 31-C , 32-C ) :   1.0294 B( 31-C , 36-C ) :   1.1465 B( 32-C , 33-C ) :   1.7012
B( 32-C , 93-H ) :   1.0121 B( 33-C , 34-C ) :   1.0838 B( 34-C , 35-N ) :   2.9690
B( 36-C , 37-C ) :   1.4334 B( 36-C , 40-S ) :   1.0785 B( 37-C , 38-C ) :   1.2471
B( 37-C , 94-H ) :   1.0176 B( 38-C , 39-C ) :   1.3564 B( 38-C , 43-N ) :   1.1643
B( 39-C , 40-S ) :   1.0510 B( 39-C , 41-C ) :   1.4101 B( 41-C , 42-C ) :   1.3607
B( 41-C , 46-S ) :   1.0470 B( 42-C , 43-N ) :   1.1678 B( 42-C , 44-C ) :   1.2621
B( 43-N , 95-H ) :   0.9319 B( 44-C , 45-C ) :   1.4360 B( 44-C , 96-H ) :   1.0092
B( 45-C , 46-S ) :   1.0907 B( 45-C , 47-C ) :   1.1602 B( 47-C , 48-C ) :   1.6011
B( 47-C , 97-H ) :   0.9618 B( 48-C , 49-C ) :   1.1623 B( 48-C , 98-H ) :   0.9750
B( 49-C , 50-C ) :   1.4842 B( 49-C , 53-C ) :   1.0235 B( 50-C , 51-C ) :   1.1511
B( 50-C , 99-H ) :   1.0078 B( 51-C , 52-C ) :   1.0911 B( 51-C , 56-C ) :   1.3877
B( 52-C , 53-C ) :   1.7065 B( 52-C , 54-C ) :   1.0865 B( 53-C ,100-H ) :   1.0147
B( 54-C , 55-N ) :   2.9716 B( 56-C , 57-C ) :   1.1196 B( 56-C , 60-C ) :   1.1258
B( 57-C , 58-C ) :   1.5187 B( 57-C ,101-H ) :   1.0042 B( 58-C , 59-C ) :   1.0545
B( 58-C , 63-C ) :   1.0572 B( 59-C , 60-C ) :   1.6609 B( 59-C ,102-H ) :   1.0184
B( 60-C , 61-C ) :   1.0969 B( 61-C , 62-N ) :   2.9709 B( 63-C , 64-C ) :   1.6632
B( 63-C ,103-H ) :   0.9563 B( 64-C , 65-C ) :   0.9296 B( 64-C , 79-C ) :   1.0357
B( 65-C , 66-O ) :   2.2902 B( 65-C , 67-C ) :   0.9149 B( 67-C , 68-C ) :   1.4729
B( 67-C , 78-C ) :   1.2221 B( 68-C , 69-C ) :   1.1934 B( 68-C ,104-H ) :   1.0173
B( 69-C , 70-C ) :   1.2571 B( 69-C , 74-C ) :   1.1929 B( 70-C , 71-C ) :   1.1874
B( 70-C , 77-C ) :   1.2156 B( 71-C , 72-C ) :   1.4421 B( 71-C , 74-C ) :   0.1084
B( 71-C ,105-H ) :   1.0079 B( 72-C , 73-C ) :   1.1891 B( 72-C , 76-F ) :   1.1366
B( 73-C , 74-C ) :   1.4430 B( 73-C , 75-F ) :   1.1358 B( 74-C ,106-H ) :   1.0076
B( 77-C , 78-C ) :   1.4518 B( 77-C ,107-H ) :   0.9946 B( 78-C , 79-C ) :   1.0033
B( 79-C , 80-C ) :   1.6512 B( 80-C , 81-C ) :   1.1578 B( 80-C , 83-C ) :   1.1389
B( 81-C , 82-N ) :   2.9908 B( 83-C , 84-N ) :   2.9833

-----------------------------------------------------------------------------
         ABSORPTION SPECTRUM VIA TRANSITION ELECTRIC DIPOLE MOMENTS
-----------------------------------------------------------------------------
State   Energy  Wavelength   fosc         T2         TX        TY        TZ
        (cm-1)    (nm)                  (au**2)     (au)      (au)      (au)
-----------------------------------------------------------------------------
   0    9874.9   1012.7   1.834830816  61.17012  -0.99374   7.66627  -1.18779
   1   12894.9    775.5   0.170886884   4.36282  -1.95056   0.19481  -0.72123
   2   17751.0    563.3   0.042372801   0.78585  -0.73400  -0.48623  -0.10331
   3   18086.8    552.9   0.039790823   0.72426   0.80127  -0.13275   0.25417
   4   19750.1    506.3   0.014436671   0.24064  -0.37338  -0.23035   0.21947
   5   20865.8    479.3   0.581777577   9.17906   0.31149  -2.98888   0.38554
   6   21816.4    458.4   0.113751461   1.71653   0.83478   1.00727  -0.07123
   7   22387.3    446.7   0.069414031   1.02075  -0.70008  -0.02624  -0.72798
   8   23057.9    433.7   0.096771382   1.38167   0.33875   1.07276   0.34074
   9   23288.6    429.4   0.047088967   0.66566  -0.49465   0.42712  -0.48842
  10   23756.0    420.9   0.053142703   0.73645   0.39023   0.59050   0.48528
  11   24636.5    405.9   0.125326319   1.67471   0.36971   1.23726  -0.08498
  12   24889.5    401.8   0.118006945   1.56087   1.06377  -0.63546   0.15953
  13   25976.5    385.0   0.247103963   3.13166  -1.20918   1.16577  -0.55725
  14   26460.6    377.9   0.145125698   1.80559   0.71437  -0.99302   0.55603
  15   26772.5    373.5   0.083963888   1.03248   0.94822   0.17149   0.32240
  16   26830.3    372.7   0.025441079   0.31217  -0.33376  -0.18571  -0.40778
  17   27033.1    369.9   0.053609035   0.65286  -0.66528   0.17715  -0.42294
  18   27479.6    363.9   0.964879453  11.55946  -0.29150   3.37603  -0.27734
  19   27841.6    359.2   0.021856864   0.25845   0.09604  -0.49307  -0.07814
  20   28270.6    353.7   0.021705804   0.25276   0.30790   0.29047   0.27127
  21   28564.0    350.1   0.011993468   0.13823  -0.29145   0.22716  -0.04101
  22   29252.9    341.8   0.018825364   0.21186  -0.09076  -0.44957  -0.03881
  23   29601.6    337.8   0.104464691   1.16180  -1.05212  -0.15295  -0.17731
  24   30094.6    332.3   0.048574519   0.53137   0.72261   0.09591   0.00041
  25   30332.4    329.7   0.002150361   0.02334  -0.08862   0.08525   0.09066
  26   30663.2    326.1   0.165855515   1.78069  -0.64514   1.16804  -0.01314
  27   30873.3    323.9   0.166989967   1.78067   1.03691  -0.63076   0.55464
  28   31416.3    318.3   0.427283077   4.47751  -1.83799  -0.68939  -0.78997
  29   31591.6    316.5   0.143475243   1.49514  -0.18107  -1.20855   0.04207
  30   32037.7    312.1   0.010087071   0.10365  -0.12533  -0.27461   0.11196
  31   32837.6    304.5   0.046246442   0.46364   0.59566  -0.22395   0.24223
  32   32883.6    304.1   0.113590575   1.13720   0.58154   0.88261   0.14150
  33   33104.8    302.1   0.010916864   0.10856   0.25839  -0.08451   0.18616
  34   33191.6    301.3   0.003390809   0.03363  -0.09015   0.15965   0.00416
  35   33234.6    300.9   0.054581908   0.54067  -0.46853  -0.53540  -0.18573
  36   33435.9    299.1   0.034462663   0.33932  -0.07779  -0.57439  -0.05782
  37   33545.6    298.1   0.104679266   1.02731   0.79100   0.35579   0.52444
  38   33939.1    294.6   0.041702776   0.40452  -0.49025   0.40251  -0.04647
  39   33999.0    294.1   0.037078721   0.35903  -0.38886   0.43637   0.13191
  40   34312.8    291.4   0.015291758   0.14672   0.18606  -0.33135   0.04798
  41   34684.4    288.3   0.008641709   0.08202  -0.03989  -0.13792   0.24781
  42   35120.6    284.7   0.118577567   1.11152  -0.49929   0.86539  -0.33665
  43   35300.3    283.3   0.074999082   0.69944  -0.69324  -0.23666  -0.40355
  44   35371.2    282.7   0.046075187   0.42884  -0.39064  -0.51332  -0.11286
  45   35540.9    281.4   0.098058572   0.90831   0.43791  -0.81888   0.21444
  46   35757.1    279.7   0.207845093   1.91361  -1.00890  -0.84958  -0.41707
  47   35810.8    279.2   0.388264673   3.56935  -1.47700   1.04911  -0.53591
  48   35922.6    278.4   0.125628587   1.15132   0.36760  -0.99936   0.13221
  49   36089.7    277.1   0.282422931   2.57628  -1.35743   0.83211  -0.20312
  50   36359.3    275.0   0.031186759   0.28238   0.53035  -0.00821   0.03226
  51   36691.5    272.5   0.079992181   0.71772  -0.26145  -0.79629   0.12363
  52   37035.5    270.0   0.043122129   0.38332   0.53027  -0.11234   0.29917
  53   37197.6    268.8   0.043396588   0.38407   0.27943  -0.54741   0.07964
  54   37720.3    265.1   0.013987169   0.12208  -0.01093   0.03682   0.34728
  55   38181.0    261.9   0.043913954   0.37864   0.56126   0.13317  -0.21425
  56   38329.5    260.9   0.078741653   0.67631  -0.20162   0.79716   0.01374
  57   38415.6    260.3   0.082570898   0.70761  -0.43852   0.71681  -0.03872
  58   38984.0    256.5   0.064212514   0.54226  -0.71242   0.02205  -0.18501
  59   39151.4    255.4   0.044089098   0.37073   0.30600  -0.50025   0.16384
  60   39294.1    254.5   0.037189730   0.31158  -0.22630  -0.50551  -0.06947
  61   39475.5    253.3   0.024877930   0.20747  -0.12837   0.29335  -0.32394
  62   39558.4    252.8   0.096507679   0.80315   0.27419   0.79503   0.30969
  63   39821.0    251.1   0.066884674   0.55296   0.67541  -0.11057  -0.29078
  64   39951.7    250.3   0.027126829   0.22353   0.39738   0.25454  -0.02879
  65   40215.7    248.7   0.037878650   0.31008   0.39139  -0.35770  -0.17012
  66   40313.1    248.1   0.129364917   1.05644  -0.89955  -0.12093  -0.48231

FINAL SINGLE POINT ENERGY     -4438.993494494491

DIPOLE MOMENT
-------------
                                X             Y             Z
Electronic contribution:     24.74877      12.50460      14.78023
Nuclear contribution   :    -23.52552     -14.33267     -15.36694
                        -----------------------------------------
Total Dipole Moment    :      1.22326      -1.82807      -0.58671
                        -----------------------------------------
Magnitude (a.u.)       :      2.27649
Magnitude (Debye)      :      5.78639

Rotational constants in cm-1:     0.001054     0.000105     0.000097
Rotational constants in MHz :    31.605161     3.142191     2.897559

                             ****ORCA TERMINATED NORMALLY****
TOTAL RUN TIME: 0 days 0 hours 13 minutes 2 seconds 877 msec
