                         Program Version 4.2.0 -  RELEASE  -
|  1> # ORCA input file
|  2> # SCF done       -212.129754347060          0.000914609628
|  3> ! CAM-B3LYP def2-SVP def2/J RIJCOSX Grid4 TightSCF
|  4> %maxcore 5000
|  5> %tddft
|  6>     Mode sTDDFT
|  7>     Ethresh 5.0
|  8>     maxcore 5000
|  9> end
| 10>
| 11> %pal
| 12>   nprocs 6
| 13>   end
| 14> * xyz 0 1
| 15>    C       -6.07063        -9.84049         1.45679
| 16>    C       -6.96631        -9.34693         0.55027
| 17>    F       -7.96986       -10.11418         0.11040
| 18>    C       -6.84630        -8.02702         0.06747
| 19>    F       -7.73761        -7.57237        -0.81996
| 20>    C       -5.83107        -7.21928         0.49820
| 21>    C       -4.89070        -7.69999         1.43022
| 22>    C       -5.01233        -9.03309         1.92094
| 23>    C       -4.08401        -9.53616         2.85970
| 24>    C       -3.06585        -8.72988         3.29920
| 25>    C       -2.94840        -7.40366         2.79817
| 26>    C       -3.82680        -6.89140         1.88668
| 27>    C       -1.77461        -6.74895         3.40369
| 28>    O       -1.32317        -5.66387         3.11170
| 29>    C       -1.19905        -7.74871         4.34388
| 30>    C       -1.99325        -8.96443         4.25956
| 31>    C       -1.82570       -10.10056         5.00532
| 32>    C       -0.83423       -10.29055         5.99208
| 33>    N       -0.06684       -10.51151         6.81690
| 34>    C       -2.64887       -11.24290         4.89962
| 35>    N       -3.28109       -12.19954         4.85900
| 36>    C       -0.03546        -7.60036         5.03517
| 37>    C        0.65700        -6.39200         5.31554
| 38>    S        2.37404        -6.44902         5.57058
| 39>    C        2.43962        -4.76470         5.94605
| 40>    C        3.68286        -4.02210         6.25118
| 41>    O        3.65330        -2.90298         6.68101
| 42>    O        4.83555        -4.66328         6.03257
| 43>    C        1.19301        -4.19641         5.91355
| 44>    C        0.18633        -5.10387         5.55040
| 45>    O       -1.14611        -4.80348         5.54509
| 46>    C       -1.50100        -3.69174         4.89428
| 47>    N       -2.77248        -3.22447         5.03974
| 48>    C       -3.80707        -3.81912         5.85214
| 49>    C       -4.33895        -5.11432         5.24865
| 50>    C       -2.97487        -2.05805         4.25924
| 51>    O       -4.03486        -1.46795         4.22111
| 52>    C       -1.70033        -1.82932         3.62812
| 53>    C       -0.80370        -2.86135         4.04494
| 54>    C        0.46021        -2.65784         3.37947
| 55>    O        1.50534        -3.27779         3.40015
| 56>    N        0.25992        -1.49352         2.62100
| 57>    C        1.34150        -0.91797         1.85893
| 58>    C        2.01677         0.22504         2.61341
| 59>    C       -1.01448        -0.98985         2.75691
| 60>    C       -1.46729         0.18053         2.09410
| 61>    C       -2.74464         0.62869         2.19015
| 62>    C       -3.23392         1.79817         1.55155
| 63>    S       -4.93763         2.14962         1.60568
| 64>    C       -4.72899         3.60413         0.68445
| 65>    C       -3.37675         3.78985         0.36784
| 66>    C       -2.54679         2.77370         0.85096
| 67>    C       -2.91079         4.89438        -0.36714
| 68>    N       -2.52351         5.79775        -0.95788
| 69>    C       -5.79617         4.43951         0.29192
| 70>    C       -7.10710         4.16619         0.53085
| 71>    C       -8.15343         4.99231         0.07099
| 72>    C       -9.48666         4.70143         0.05182
| 73>    C      -10.48121         5.79702        -0.09930
| 74>    O      -10.25750         6.93784        -0.43149
| 75>    C      -11.77535         5.20295         0.29486
| 76>    C      -12.99103         5.80911         0.42709
| 77>    C      -14.10024         5.04030         0.84559
| 78>    C      -13.92315         3.65457         1.12742
| 79>    C      -15.03194         2.89407         1.55012
| 80>    C      -16.25899         3.48078         1.68312
| 81>    C      -16.43328         4.85103         1.40256
| 82>    C      -15.37731         5.61583         0.99265
| 83>    F      -17.64755         5.39945         1.54254
| 84>    F      -17.31189         2.75609         2.08340
| 85>    C      -12.65250         3.05323         0.97684
| 86>    C      -11.59436         3.81478         0.55797
| 87>    C      -10.20313         3.46535         0.27344
| 88>    C       -9.74294         2.19434         0.04236
| 89>    C       -8.48533         1.88230        -0.51609
| 90>    N       -7.50345         1.56220        -1.01737
| 91>    C      -10.52217         1.03379         0.23261
| 92>    N      -11.10310         0.05674         0.39275
| 93>    H       -6.17771       -10.85189         1.81669
| 94>    H       -5.75353        -6.21234         0.11888
| 95>    H       -4.20074       -10.55029         3.20554
| 96>    H       -3.71134        -5.88218         1.52100
| 97>    H        0.45116        -8.48993         5.41716
| 98>    H        4.72373        -5.54490         5.65116
| 99>    H        1.02581        -3.16253         6.15351
|100>    H       -4.60476        -3.07389         5.91031
|101>    H       -3.40896        -4.00543         6.85419
|102>    H       -4.70641        -4.93783         4.24062
|103>    H       -3.55355        -5.86576         5.20910
|104>    H       -5.15462        -5.49480         5.85707
|105>    H        0.96938        -0.58350         0.88678
|106>    H        2.06175        -1.72545         1.70079
|107>    H        2.82231         0.63820         2.01296
|108>    H        2.43455        -0.14410         3.54672
|109>    H        1.30656         1.01701         2.84175
|110>    H       -0.75268         0.71572         1.48694
|111>    H       -3.45818         0.06816         2.77897
|112>    H       -1.48283         2.76628         0.69735
|113>    H       -5.52781         5.31740        -0.28334
|114>    H       -7.35598         3.27813         1.09611
|115>    H       -7.89191         5.99390        -0.25451
|116>    H      -13.10528         6.86119         0.21475
|117>    H      -14.91672         1.84320         1.76530
|118>    H      -15.52698         6.66312         0.78166
|119>    H      -12.54711         2.00449         1.20415
|120> *
|121>
|122>                          ****END OF INPUT****

CARTESIAN COORDINATES (ANGSTROEM)
---------------------------------
  C     -6.070630   -9.840490    1.456790
  C     -6.966310   -9.346930    0.550270
  F     -7.969860  -10.114180    0.110400
  C     -6.846300   -8.027020    0.067470
  F     -7.737610   -7.572370   -0.819960
  C     -5.831070   -7.219280    0.498200
  C     -4.890700   -7.699990    1.430220
  C     -5.012330   -9.033090    1.920940
  C     -4.084010   -9.536160    2.859700
  C     -3.065850   -8.729880    3.299200
  C     -2.948400   -7.403660    2.798170
  C     -3.826800   -6.891400    1.886680
  C     -1.774610   -6.748950    3.403690
  O     -1.323170   -5.663870    3.111700
  C     -1.199050   -7.748710    4.343880
  C     -1.993250   -8.964430    4.259560
  C     -1.825700  -10.100560    5.005320
  C     -0.834230  -10.290550    5.992080
  N     -0.066840  -10.511510    6.816900
  C     -2.648870  -11.242900    4.899620
  N     -3.281090  -12.199540    4.859000
  C     -0.035460   -7.600360    5.035170
  C      0.657000   -6.392000    5.315540
  S      2.374040   -6.449020    5.570580
  C      2.439620   -4.764700    5.946050
  C      3.682860   -4.022100    6.251180
  O      3.653300   -2.902980    6.681010
  O      4.835550   -4.663280    6.032570
  C      1.193010   -4.196410    5.913550
  C      0.186330   -5.103870    5.550400
  O     -1.146110   -4.803480    5.545090
  C     -1.501000   -3.691740    4.894280
  N     -2.772480   -3.224470    5.039740
  C     -3.807070   -3.819120    5.852140
  C     -4.338950   -5.114320    5.248650
  C     -2.974870   -2.058050    4.259240
  O     -4.034860   -1.467950    4.221110
  C     -1.700330   -1.829320    3.628120
  C     -0.803700   -2.861350    4.044940
  C      0.460210   -2.657840    3.379470
  O      1.505340   -3.277790    3.400150
  N      0.259920   -1.493520    2.621000
  C      1.341500   -0.917970    1.858930
  C      2.016770    0.225040    2.613410
  C     -1.014480   -0.989850    2.756910
  C     -1.467290    0.180530    2.094100
  C     -2.744640    0.628690    2.190150
  C     -3.233920    1.798170    1.551550
  S     -4.937630    2.149620    1.605680
  C     -4.728990    3.604130    0.684450
  C     -3.376750    3.789850    0.367840
  C     -2.546790    2.773700    0.850960
  C     -2.910790    4.894380   -0.367140
  N     -2.523510    5.797750   -0.957880
  C     -5.796170    4.439510    0.291920
  C     -7.107100    4.166190    0.530850
  C     -8.153430    4.992310    0.070990
  C     -9.486660    4.701430    0.051820
  C    -10.481210    5.797020   -0.099300
  O    -10.257500    6.937840   -0.431490
  C    -11.775350    5.202950    0.294860
  C    -12.991030    5.809110    0.427090
  C    -14.100240    5.040300    0.845590
  C    -13.923150    3.654570    1.127420
  C    -15.031940    2.894070    1.550120
  C    -16.258990    3.480780    1.683120
  C    -16.433280    4.851030    1.402560
  C    -15.377310    5.615830    0.992650
  F    -17.647550    5.399450    1.542540
  F    -17.311890    2.756090    2.083400
  C    -12.652500    3.053230    0.976840
  C    -11.594360    3.814780    0.557970
  C    -10.203130    3.465350    0.273440
  C     -9.742940    2.194340    0.042360
  C     -8.485330    1.882300   -0.516090
  N     -7.503450    1.562200   -1.017370
  C    -10.522170    1.033790    0.232610
  N    -11.103100    0.056740    0.392750
  H     -6.177710  -10.851890    1.816690
  H     -5.753530   -6.212340    0.118880
  H     -4.200740  -10.550290    3.205540
  H     -3.711340   -5.882180    1.521000
  H      0.451160   -8.489930    5.417160
  H      4.723730   -5.544900    5.651160
  H      1.025810   -3.162530    6.153510
  H     -4.604760   -3.073890    5.910310
  H     -3.408960   -4.005430    6.854190
  H     -4.706410   -4.937830    4.240620
  H     -3.553550   -5.865760    5.209100
  H     -5.154620   -5.494800    5.857070
  H      0.969380   -0.583500    0.886780
  H      2.061750   -1.725450    1.700790
  H      2.822310    0.638200    2.012960
  H      2.434550   -0.144100    3.546720
  H      1.306560    1.017010    2.841750
  H     -0.752680    0.715720    1.486940
  H     -3.458180    0.068160    2.778970
  H     -1.482830    2.766280    0.697350
  H     -5.527810    5.317400   -0.283340
  H     -7.355980    3.278130    1.096110
  H     -7.891910    5.993900   -0.254510
  H    -13.105280    6.861190    0.214750
  H    -14.916720    1.843200    1.765300
  H    -15.526980    6.663120    0.781660
  H    -12.547110    2.004490    1.204150

 Total Charge           Charge          ....    0
 Multiplicity           Mult            ....    1
 Number of Electrons    NEL             ....  548
 Basis Dimension        Dim             .... 1235

ORBITAL ENERGIES
----------------

  NO   OCC          E(Eh)            E(eV)
   0   2.0000     -88.995511     -2421.6910
   1   2.0000     -88.986929     -2421.4574
   2   2.0000     -24.805057      -674.9799
   3   2.0000     -24.804591      -674.9672
   4   2.0000     -24.800691      -674.8611
   5   2.0000     -24.800061      -674.8440
   6   2.0000     -19.322212      -525.7841
   7   2.0000     -19.273696      -524.4639
   8   2.0000     -19.232197      -523.3347
   9   2.0000     -19.219469      -522.9883
  10   2.0000     -19.208865      -522.6998
  11   2.0000     -19.207743      -522.6693
  12   2.0000     -19.189284      -522.1670
  13   2.0000     -14.470457      -393.7611
  14   2.0000     -14.459092      -393.4519
  15   2.0000     -14.430175      -392.6650
  16   2.0000     -14.428194      -392.6111
  17   2.0000     -14.422320      -392.4513
  18   2.0000     -14.420645      -392.4057
  19   2.0000     -14.419471      -392.3737
  20   2.0000     -10.419811      -283.5375
  21   2.0000     -10.413071      -283.3541
  22   2.0000     -10.390513      -282.7402
  23   2.0000     -10.389568      -282.7145
  24   2.0000     -10.388835      -282.6946
  25   2.0000     -10.384138      -282.5668
  26   2.0000     -10.383639      -282.5532
  27   2.0000     -10.383359      -282.5456
  28   2.0000     -10.380046      -282.4554
  29   2.0000     -10.377777      -282.3937
  30   2.0000     -10.370530      -282.1965
  31   2.0000     -10.358105      -281.8584
  32   2.0000     -10.355797      -281.7956
  33   2.0000     -10.351086      -281.6674
  34   2.0000     -10.348340      -281.5927
  35   2.0000     -10.345532      -281.5162
  36   2.0000     -10.343067      -281.4492
  37   2.0000     -10.342191      -281.4253
  38   2.0000     -10.338891      -281.3355
  39   2.0000     -10.334443      -281.2145
  40   2.0000     -10.333473      -281.1881
  41   2.0000     -10.333433      -281.1870
  42   2.0000     -10.332305      -281.1563
  43   2.0000     -10.330452      -281.1059
  44   2.0000     -10.324739      -280.9504
  45   2.0000     -10.323262      -280.9103
  46   2.0000     -10.322353      -280.8855
  47   2.0000     -10.321153      -280.8528
  48   2.0000     -10.320467      -280.8342
  49   2.0000     -10.320053      -280.8229
  50   2.0000     -10.319723      -280.8139
  51   2.0000     -10.319323      -280.8031
  52   2.0000     -10.318896      -280.7914
  53   2.0000     -10.318696      -280.7860
  54   2.0000     -10.313751      -280.6514
  55   2.0000     -10.313596      -280.6472
  56   2.0000     -10.313388      -280.6416
  57   2.0000     -10.313130      -280.6345
  58   2.0000     -10.312961      -280.6299
  59   2.0000     -10.311976      -280.6031
  60   2.0000     -10.309723      -280.5418
  61   2.0000     -10.309632      -280.5393
  62   2.0000     -10.308746      -280.5152
  63   2.0000     -10.308365      -280.5049
  64   2.0000     -10.307110      -280.4707
  65   2.0000     -10.306049      -280.4419
  66   2.0000     -10.305826      -280.4358
  67   2.0000     -10.305664      -280.4314
  68   2.0000     -10.305580      -280.4291
  69   2.0000     -10.304607      -280.4026
  70   2.0000     -10.303831      -280.3815
  71   2.0000     -10.303343      -280.3682
  72   2.0000     -10.303210      -280.3646
  73   2.0000     -10.297151      -280.1997
  74   2.0000     -10.274465      -279.5824
  75   2.0000     -10.273285      -279.5503
  76   2.0000     -10.268137      -279.4102
  77   2.0000     -10.267909      -279.4040
  78   2.0000      -8.091307      -220.1757
  79   2.0000      -8.082337      -219.9316
  80   2.0000      -6.060556      -164.9161
  81   2.0000      -6.056486      -164.8054
  82   2.0000      -6.053390      -164.7211
  83   2.0000      -6.051395      -164.6668
  84   2.0000      -6.047356      -164.5569
  85   2.0000      -6.044716      -164.4851
  86   2.0000      -1.328489       -36.1500
  87   2.0000      -1.323332       -36.0097
  88   2.0000      -1.313525       -35.7428
  89   2.0000      -1.308471       -35.6053
  90   2.0000      -1.237474       -33.6734
  91   2.0000      -1.197132       -32.5756
  92   2.0000      -1.147917       -31.2364
  93   2.0000      -1.145507       -31.1708
  94   2.0000      -1.134701       -30.8768
  95   2.0000      -1.132011       -30.8036
  96   2.0000      -1.109950       -30.2033
  97   2.0000      -1.075930       -29.2775
  98   2.0000      -1.062423       -28.9100
  99   2.0000      -1.033329       -28.1183
 100   2.0000      -1.025937       -27.9172
 101   2.0000      -1.024442       -27.8765
 102   2.0000      -1.019470       -27.7412
 103   2.0000      -1.015519       -27.6337
 104   2.0000      -1.008371       -27.4392
 105   2.0000      -1.007519       -27.4160
 106   2.0000      -1.000149       -27.2154
 107   2.0000      -0.997572       -27.1453
 108   2.0000      -0.992189       -26.9988
 109   2.0000      -0.985661       -26.8212
 110   2.0000      -0.946309       -25.7504
 111   2.0000      -0.944600       -25.7039
 112   2.0000      -0.939469       -25.5643
 113   2.0000      -0.932992       -25.3880
 114   2.0000      -0.923169       -25.1207
 115   2.0000      -0.920314       -25.0430
 116   2.0000      -0.903407       -24.5830
 117   2.0000      -0.902047       -24.5459
 118   2.0000      -0.897314       -24.4172
 119   2.0000      -0.895322       -24.3630
 120   2.0000      -0.887539       -24.1512
 121   2.0000      -0.879705       -23.9380
 122   2.0000      -0.876457       -23.8496
 123   2.0000      -0.873843       -23.7785
 124   2.0000      -0.854976       -23.2651
 125   2.0000      -0.850205       -23.1353
 126   2.0000      -0.843987       -22.9661
 127   2.0000      -0.840418       -22.8689
 128   2.0000      -0.830763       -22.6062
 129   2.0000      -0.817379       -22.2420
 130   2.0000      -0.809564       -22.0293
 131   2.0000      -0.800425       -21.7807
 132   2.0000      -0.785584       -21.3768
 133   2.0000      -0.779686       -21.2163
 134   2.0000      -0.770980       -20.9794
 135   2.0000      -0.770473       -20.9656
 136   2.0000      -0.755299       -20.5527
 137   2.0000      -0.748908       -20.3788
 138   2.0000      -0.746931       -20.3250
 139   2.0000      -0.736914       -20.0525
 140   2.0000      -0.730528       -19.8787
 141   2.0000      -0.726835       -19.7782
 142   2.0000      -0.721695       -19.6383
 143   2.0000      -0.720973       -19.6187
 144   2.0000      -0.717895       -19.5349
 145   2.0000      -0.712791       -19.3960
 146   2.0000      -0.707190       -19.2436
 147   2.0000      -0.696993       -18.9661
 148   2.0000      -0.696055       -18.9406
 149   2.0000      -0.689291       -18.7566
 150   2.0000      -0.679217       -18.4824
 151   2.0000      -0.675314       -18.3762
 152   2.0000      -0.670597       -18.2479
 153   2.0000      -0.662890       -18.0382
 154   2.0000      -0.662419       -18.0253
 155   2.0000      -0.657730       -17.8978
 156   2.0000      -0.654445       -17.8084
 157   2.0000      -0.652003       -17.7419
 158   2.0000      -0.646185       -17.5836
 159   2.0000      -0.642463       -17.4823
 160   2.0000      -0.635318       -17.2879
 161   2.0000      -0.630597       -17.1594
 162   2.0000      -0.626851       -17.0575
 163   2.0000      -0.620129       -16.8746
 164   2.0000      -0.618672       -16.8349
 165   2.0000      -0.609829       -16.5943
 166   2.0000      -0.603824       -16.4309
 167   2.0000      -0.601428       -16.3657
 168   2.0000      -0.596354       -16.2276
 169   2.0000      -0.594153       -16.1677
 170   2.0000      -0.592701       -16.1282
 171   2.0000      -0.588997       -16.0274
 172   2.0000      -0.587883       -15.9971
 173   2.0000      -0.583986       -15.8911
 174   2.0000      -0.580301       -15.7908
 175   2.0000      -0.577835       -15.7237
 176   2.0000      -0.575272       -15.6540
 177   2.0000      -0.565125       -15.3778
 178   2.0000      -0.561727       -15.2854
 179   2.0000      -0.560390       -15.2490
 180   2.0000      -0.558625       -15.2010
 181   2.0000      -0.556797       -15.1512
 182   2.0000      -0.555036       -15.1033
 183   2.0000      -0.554018       -15.0756
 184   2.0000      -0.552932       -15.0460
 185   2.0000      -0.551651       -15.0112
 186   2.0000      -0.549473       -14.9519
 187   2.0000      -0.547251       -14.8915
 188   2.0000      -0.543257       -14.7828
 189   2.0000      -0.541576       -14.7370
 190   2.0000      -0.540404       -14.7051
 191   2.0000      -0.538676       -14.6581
 192   2.0000      -0.536766       -14.6061
 193   2.0000      -0.536074       -14.5873
 194   2.0000      -0.534308       -14.5393
 195   2.0000      -0.533312       -14.5122
 196   2.0000      -0.529681       -14.4133
 197   2.0000      -0.529123       -14.3982
 198   2.0000      -0.528725       -14.3873
 199   2.0000      -0.524469       -14.2715
 200   2.0000      -0.523897       -14.2560
 201   2.0000      -0.519805       -14.1446
 202   2.0000      -0.519193       -14.1280
 203   2.0000      -0.517591       -14.0844
 204   2.0000      -0.511831       -13.9276
 205   2.0000      -0.509433       -13.8624
 206   2.0000      -0.508429       -13.8351
 207   2.0000      -0.507646       -13.8137
 208   2.0000      -0.503292       -13.6953
 209   2.0000      -0.502707       -13.6794
 210   2.0000      -0.498791       -13.5728
 211   2.0000      -0.494065       -13.4442
 212   2.0000      -0.489724       -13.3261
 213   2.0000      -0.488084       -13.2814
 214   2.0000      -0.485951       -13.2234
 215   2.0000      -0.479723       -13.0539
 216   2.0000      -0.478806       -13.0290
 217   2.0000      -0.478681       -13.0256
 218   2.0000      -0.474501       -12.9118
 219   2.0000      -0.472494       -12.8572
 220   2.0000      -0.471597       -12.8328
 221   2.0000      -0.469658       -12.7800
 222   2.0000      -0.468467       -12.7476
 223   2.0000      -0.466636       -12.6978
 224   2.0000      -0.464129       -12.6296
 225   2.0000      -0.461926       -12.5696
 226   2.0000      -0.459871       -12.5137
 227   2.0000      -0.458733       -12.4828
 228   2.0000      -0.458190       -12.4680
 229   2.0000      -0.456625       -12.4254
 230   2.0000      -0.456175       -12.4131
 231   2.0000      -0.455559       -12.3964
 232   2.0000      -0.455194       -12.3865
 233   2.0000      -0.454235       -12.3604
 234   2.0000      -0.449544       -12.2327
 235   2.0000      -0.448364       -12.2006
 236   2.0000      -0.446700       -12.1553
 237   2.0000      -0.441942       -12.0259
 238   2.0000      -0.441782       -12.0215
 239   2.0000      -0.440682       -11.9916
 240   2.0000      -0.439481       -11.9589
 241   2.0000      -0.437272       -11.8988
 242   2.0000      -0.436392       -11.8748
 243   2.0000      -0.433095       -11.7851
 244   2.0000      -0.430944       -11.7266
 245   2.0000      -0.428482       -11.6596
 246   2.0000      -0.424438       -11.5495
 247   2.0000      -0.422384       -11.4937
 248   2.0000      -0.421639       -11.4734
 249   2.0000      -0.415165       -11.2972
 250   2.0000      -0.412226       -11.2172
 251   2.0000      -0.405849       -11.0437
 252   2.0000      -0.401526       -10.9261
 253   2.0000      -0.397641       -10.8204
 254   2.0000      -0.395554       -10.7636
 255   2.0000      -0.388388       -10.5686
 256   2.0000      -0.372588       -10.1386
 257   2.0000      -0.370256       -10.0752
 258   2.0000      -0.365381        -9.9425
 259   2.0000      -0.361555        -9.8384
 260   2.0000      -0.355902        -9.6846
 261   2.0000      -0.351965        -9.5775
 262   2.0000      -0.347770        -9.4633
 263   2.0000      -0.343937        -9.3590
 264   2.0000      -0.334930        -9.1139
 265   2.0000      -0.330437        -8.9917
 266   2.0000      -0.327628        -8.9152
 267   2.0000      -0.324304        -8.8248
 268   2.0000      -0.320570        -8.7231
 269   2.0000      -0.315484        -8.5848
 270   2.0000      -0.305383        -8.3099
 271   2.0000      -0.303570        -8.2606
 272   2.0000      -0.287199        -7.8151
 273   2.0000      -0.247977        -6.7478
 274   0.0000      -0.114193        -3.1074
 275   0.0000      -0.111001        -3.0205
 276   0.0000      -0.076766        -2.0889
 277   0.0000      -0.072822        -1.9816
 278   0.0000      -0.061458        -1.6724

MULLIKEN ATOMIC CHARGES
-----------------------
   0 C :   -0.106519
   1 C :    0.244189
   2 F :   -0.167116
   3 C :    0.238158
   4 F :   -0.166040
   5 C :   -0.102864
   6 C :    0.113859
   7 C :    0.116628
   8 C :   -0.085464
   9 C :    0.056156
  10 C :   -0.011266
  11 C :   -0.078322
  12 C :    0.138406
  13 O :   -0.144138
  14 C :   -0.074831
  15 C :    0.310444
  16 C :   -0.340253
  17 C :   -0.200033
  18 N :    0.163915
  19 C :   -0.181108
  20 N :    0.157183
  21 C :    0.001085
  22 C :   -0.132937
  23 S :    0.144551
  24 C :   -0.143007
  25 C :    0.194459
  26 O :   -0.160289
  27 O :   -0.150298
  28 C :    0.023879
  29 C :    0.251492
  30 O :   -0.227607
  31 C :    0.198445
  32 N :   -0.272542
  33 C :    0.126297
  34 C :   -0.013389
  35 C :    0.183065
  36 O :   -0.196255
  37 C :   -0.094167
  38 C :   -0.038364
  39 C :    0.156361
  40 O :   -0.214641
  41 N :   -0.258956
  42 C :    0.098314
  43 C :    0.003976
  44 C :    0.136193
  45 C :   -0.021307
  46 C :    0.072729
  47 C :   -0.066176
  48 S :    0.190316
  49 C :   -0.040303
  50 C :   -0.040608
  51 C :    0.011336
  52 C :   -0.191568
  53 N :    0.141487
  54 C :    0.008548
  55 C :    0.002465
  56 C :    0.027486
  57 C :   -0.111117
  58 C :    0.142238
  59 O :   -0.135292
  60 C :    0.005068
  61 C :   -0.080783
  62 C :    0.114633
  63 C :    0.112768
  64 C :   -0.105883
  65 C :    0.241650
  66 C :    0.238527
  67 C :   -0.104837
  68 F :   -0.171196
  69 F :   -0.170275
  70 C :   -0.082379
  71 C :    0.038293
  72 C :    0.288563
  73 C :   -0.333665
  74 C :   -0.220547
  75 N :    0.171852
  76 C :   -0.174912
  77 N :    0.147945
  78 H :    0.008688
  79 H :    0.004212
  80 H :   -0.004984
  81 H :   -0.007122
  82 H :    0.035006
  83 H :    0.184373
  84 H :    0.024011
  85 H :    0.046172
  86 H :    0.026128
  87 H :    0.025591
  88 H :    0.025144
  89 H :    0.027148
  90 H :    0.021782
  91 H :    0.044341
  92 H :    0.026065
  93 H :    0.037872
  94 H :    0.010937
  95 H :   -0.023875
  96 H :    0.008916
  97 H :    0.000600
  98 H :    0.028513
  99 H :    0.029270
 100 H :    0.023627
 101 H :   -0.007540
 102 H :    0.006260
 103 H :    0.001382
 104 H :   -0.004221
Sum of atomic charges:   -0.0000000

LOEWDIN ATOMIC CHARGES
----------------------
   0 C :   -0.028734
   1 C :    0.068608
   2 F :   -0.045180
   3 C :    0.070240
   4 F :   -0.043960
   5 C :   -0.031938
   6 C :   -0.007649
   7 C :   -0.005855
   8 C :    0.020198
   9 C :   -0.025275
  10 C :   -0.054371
  11 C :    0.031637
  12 C :    0.079134
  13 O :   -0.130970
  14 C :   -0.083602
  15 C :    0.073006
  16 C :   -0.131393
  17 C :   -0.024164
  18 N :   -0.043332
  19 C :   -0.017666
  20 N :   -0.044957
  21 C :    0.051638
  22 C :   -0.184509
  23 S :    0.464833
  24 C :   -0.204348
  25 C :    0.068473
  26 O :   -0.146220
  27 O :   -0.022805
  28 C :   -0.008846
  29 C :    0.049281
  30 O :   -0.003802
  31 C :    0.134117
  32 N :   -0.006950
  33 C :    0.041190
  34 C :   -0.061492
  35 C :    0.086939
  36 O :   -0.190955
  37 C :   -0.116223
  38 C :   -0.166824
  39 C :    0.079981
  40 O :   -0.207971
  41 N :    0.002550
  42 C :    0.036318
  43 C :   -0.060725
  44 C :    0.068283
  45 C :   -0.031464
  46 C :   -0.000867
  47 C :   -0.151868
  48 S :    0.500052
  49 C :   -0.148951
  50 C :   -0.084230
  51 C :   -0.023811
  52 C :   -0.033191
  53 N :   -0.043141
  54 C :    0.015877
  55 C :   -0.027491
  56 C :    0.068951
  57 C :   -0.089654
  58 C :    0.081219
  59 O :   -0.138914
  60 C :   -0.053786
  61 C :    0.031081
  62 C :   -0.008787
  63 C :   -0.005754
  64 C :   -0.029925
  65 C :    0.067273
  66 C :    0.067758
  67 C :   -0.032544
  68 F :   -0.048838
  69 F :   -0.048444
  70 C :    0.014511
  71 C :   -0.020811
  72 C :    0.069926
  73 C :   -0.136947
  74 C :   -0.025437
  75 N :   -0.049174
  76 C :   -0.018039
  77 N :   -0.050509
  78 H :    0.048351
  79 H :    0.046863
  80 H :    0.040511
  81 H :    0.040723
  82 H :    0.047673
  83 H :    0.085166
  84 H :    0.048996
  85 H :    0.038252
  86 H :    0.028190
  87 H :    0.028450
  88 H :    0.020452
  89 H :    0.033606
  90 H :    0.022157
  91 H :    0.038586
  92 H :    0.031641
  93 H :    0.035481
  94 H :    0.020280
  95 H :    0.029574
  96 H :    0.036759
  97 H :    0.039070
  98 H :    0.048956
  99 H :    0.028394
 100 H :    0.048539
 101 H :    0.041231
 102 H :    0.047374
 103 H :    0.045360
 104 H :    0.039581

  Mayer bond orders larger than 0.100000
B(  0-C ,  1-C ) :   1.4422 B(  0-C ,  5-C ) :   0.1080 B(  0-C ,  7-C ) :   1.1868
B(  0-C , 78-H ) :   1.0062 B(  1-C ,  2-F ) :   1.1383 B(  1-C ,  3-C ) :   1.1889
B(  3-C ,  4-F ) :   1.1392 B(  3-C ,  5-C ) :   1.4442 B(  5-C ,  6-C ) :   1.1910
B(  5-C , 79-H ) :   1.0074 B(  6-C ,  7-C ) :   1.2518 B(  6-C , 11-C ) :   1.1918
B(  7-C ,  8-C ) :   1.2205 B(  8-C ,  9-C ) :   1.4404 B(  8-C , 80-H ) :   0.9887
B(  9-C , 10-C ) :   1.2195 B(  9-C , 15-C ) :   0.9918 B( 10-C , 11-C ) :   1.4670
B( 10-C , 12-C ) :   0.9370 B( 11-C , 81-H ) :   1.0149 B( 12-C , 13-O ) :   2.2000
B( 12-C , 14-C ) :   0.9381 B( 14-C , 15-C ) :   1.0594 B( 14-C , 21-C ) :   1.6485
B( 15-C , 16-C ) :   1.6478 B( 16-C , 17-C ) :   1.1372 B( 16-C , 19-C ) :   1.1441
B( 17-C , 18-N ) :   2.9815 B( 19-C , 20-N ) :   2.9644 B( 21-C , 22-C ) :   1.1398
B( 21-C , 82-H ) :   0.9258 B( 22-C , 23-S ) :   1.1302 B( 22-C , 29-C ) :   1.4665
B( 23-S , 24-C ) :   1.1258 B( 24-C , 25-C ) :   0.9148 B( 24-C , 28-C ) :   1.5151
B( 25-C , 26-O ) :   2.2062 B( 25-C , 27-O ) :   1.2490 B( 27-O , 83-H ) :   0.9478
B( 28-C , 29-C ) :   1.2552 B( 28-C , 84-H ) :   1.0016 B( 29-C , 30-O ) :   1.0459
B( 30-O , 31-C ) :   1.1379 B( 31-C , 32-N ) :   1.2061 B( 31-C , 38-C ) :   1.3262
B( 32-N , 33-C ) :   0.9265 B( 32-N , 35-C ) :   1.0229 B( 33-C , 34-C ) :   1.1214
B( 33-C , 85-H ) :   0.9328 B( 33-C , 86-H ) :   0.9510 B( 34-C , 87-H ) :   0.9656
B( 34-C , 88-H ) :   0.9671 B( 34-C , 89-H ) :   0.9629 B( 35-C , 36-O ) :   2.0463
B( 35-C , 37-C ) :   0.9989 B( 36-O , 96-H ) :   0.1078 B( 37-C , 38-C ) :   1.2142
B( 37-C , 44-C ) :   1.3768 B( 38-C , 39-C ) :   0.9656 B( 39-C , 40-O ) :   2.0904
B( 39-C , 41-N ) :   1.0554 B( 41-N , 42-C ) :   0.9465 B( 41-N , 44-C ) :   1.1520
B( 42-C , 43-C ) :   1.1212 B( 42-C , 90-H ) :   0.9497 B( 42-C , 91-H ) :   0.9259
B( 43-C , 92-H ) :   0.9679 B( 43-C , 93-H ) :   0.9632 B( 43-C , 94-H ) :   0.9681
B( 44-C , 45-C ) :   1.1568 B( 45-C , 46-C ) :   1.6392 B( 45-C , 95-H ) :   0.9613
B( 46-C , 47-C ) :   1.1157 B( 46-C , 96-H ) :   0.9384 B( 47-C , 48-S ) :   1.1520
B( 47-C , 51-C ) :   1.4478 B( 48-S , 49-C ) :   1.1277 B( 49-C , 50-C ) :   1.4107
B( 49-C , 54-C ) :   1.1852 B( 50-C , 51-C ) :   1.3198 B( 50-C , 52-C ) :   1.1038
B( 51-C , 97-H ) :   0.9990 B( 52-C , 53-N ) :   3.0210 B( 54-C , 55-C ) :   1.6086
B( 54-C , 98-H ) :   0.9724 B( 55-C , 56-C ) :   1.1447 B( 55-C , 99-H ) :   0.9602
B( 56-C , 57-C ) :   1.5999 B( 56-C ,100-H ) :   0.9586 B( 57-C , 58-C ) :   0.9398
B( 57-C , 72-C ) :   1.0440 B( 58-C , 59-O ) :   2.2783 B( 58-C , 60-C ) :   0.9178
B( 60-C , 61-C ) :   1.4782 B( 60-C , 71-C ) :   1.2215 B( 61-C , 62-C ) :   1.1935
B( 61-C ,101-H ) :   1.0153 B( 62-C , 63-C ) :   1.2571 B( 62-C , 67-C ) :   1.1935
B( 63-C , 64-C ) :   1.1897 B( 63-C , 70-C ) :   1.2161 B( 64-C , 65-C ) :   1.4423
B( 64-C , 67-C ) :   0.1087 B( 64-C ,102-H ) :   1.0063 B( 65-C , 66-C ) :   1.1915
B( 65-C , 69-F ) :   1.1357 B( 66-C , 67-C ) :   1.4443 B( 66-C , 68-F ) :   1.1342
B( 67-C ,103-H ) :   1.0063 B( 70-C , 71-C ) :   1.4557 B( 70-C ,104-H ) :   0.9917
B( 71-C , 72-C ) :   0.9991 B( 72-C , 73-C ) :   1.6372 B( 73-C , 74-C ) :   1.1580
B( 73-C , 76-C ) :   1.1341 B( 74-C , 75-N ) :   3.0130 B( 76-C , 77-N ) :   2.9781

-----------------------------------------------------------------------------
         ABSORPTION SPECTRUM VIA TRANSITION ELECTRIC DIPOLE MOMENTS
-----------------------------------------------------------------------------
State   Energy  Wavelength   fosc         T2         TX        TY        TZ
        (cm-1)    (nm)                  (au**2)     (au)      (au)      (au)
-----------------------------------------------------------------------------
   0   13793.1    725.0   0.094413021   2.25344  -0.50481   1.36530  -0.36681
   1   15460.0    646.8   0.636531634  13.55455   2.76007  -2.02928   1.34854
   2   21898.7    456.6   0.362031131   5.44257   1.89162   1.25540  -0.53693
   3   22460.9    445.2   0.304396289   4.46157   2.10281   0.19199  -0.05405
   4   23620.9    423.4   0.158337275   2.20680   0.34633  -1.13867   0.88898
   5   24648.6    405.7   0.462368646   6.17550   1.52242   1.87385   0.58858
   6   25906.6    386.0   0.107011446   1.35986   1.07490  -0.45217  -0.00078
   7   26641.0    375.4   0.131507581   1.62508  -0.98756  -0.31696  -0.74118
   8   27434.0    364.5   0.008119997   0.09744  -0.17552  -0.22718   0.12257
   9   27927.1    358.1   0.069258012   0.81643  -0.84691   0.31493   0.00063
  10   28210.9    354.5   0.158752090   1.85259   1.08961  -0.74829  -0.32466
  11   28287.7    353.5   0.165922641   1.93100   1.24350   0.24763   0.56867
  12   28682.8    348.6   0.058870527   0.67570  -0.66483  -0.48336  -0.00751
  13   28835.1    346.8   0.183285387   2.09258  -1.37792   0.40438   0.17436
  14   28963.5    345.3   0.027860858   0.31668   0.19629  -0.49582  -0.17977
  15   29343.6    340.8   0.116531710   1.30740  -0.28451  -1.09295  -0.17865
  16   29406.1    340.1   0.015673803   0.17547  -0.12632   0.37295   0.14292
  17   30156.0    331.6   0.026932958   0.29403   0.11871  -0.48798   0.20447
  18   30429.6    328.6   0.166031632   1.79626   0.57826  -1.20006   0.14744
  19   31088.8    321.7   0.051326765   0.54352  -0.63054   0.12461  -0.36112
  20   31676.7    315.7   0.218694426   2.27286  -1.20797   0.06932  -0.89938
  21   32076.4    311.8   0.434601670   4.46047   1.53072  -0.08562   1.45260
  22   32491.9    307.8   0.019232467   0.19487   0.40111   0.03787  -0.18038
  23   33152.0    301.6   0.454949197   4.51782   1.76487  -1.16926  -0.18947
  24   33364.6    299.7   0.306865508   3.02787   0.95807  -0.54460   1.34662
  25   33832.1    295.6   0.117410239   1.14249  -0.71638  -0.52109   0.59812
  26   33923.3    294.8   0.111182776   1.07898  -0.72289   0.64151  -0.38062
  27   34102.8    293.2   0.137895651   1.33118   1.11730   0.00372  -0.28776
  28   34225.6    292.2   0.191964387   1.84648   0.94953   0.36129  -0.90241
  29   34362.7    291.0   0.173885006   1.66591  -1.27522  -0.15809  -0.12132
  30   34700.1    288.2   0.109098642   1.03506  -1.01383  -0.08118  -0.02479
  31   34764.0    287.7   0.008676990   0.08217   0.09442   0.23675  -0.13116
  32   35073.5    285.1   0.049664607   0.46617  -0.67214   0.00964   0.11961
  33   35429.0    282.3   0.004087381   0.03798   0.18022   0.05193   0.05295
  34   35770.3    279.6   0.001509263   0.01389   0.09781   0.02653  -0.06017
  35   35892.2    278.6   0.001948151   0.01787  -0.02371  -0.11867  -0.05677
  36   36284.8    275.6   0.016482654   0.14955  -0.27484  -0.27102   0.02361
  37   36755.7    272.1   0.007762271   0.06952   0.01144  -0.09886   0.24417
  38   37136.9    269.3   0.016241014   0.14397  -0.28032  -0.24829  -0.06119
  39   37348.4    267.7   0.073810570   0.65061  -0.12886   0.79475  -0.04882
  40   37705.5    265.2   0.165231156   1.44266   0.52936  -1.07358   0.09928
  41   37788.7    264.6   0.033876119   0.29513  -0.15616  -0.31330   0.41543
  42   38034.5    262.9   0.034644753   0.29987   0.01776   0.54663   0.02751
  43   38453.7    260.1   0.003511897   0.03007  -0.09585   0.14417   0.00974
  44   38673.1    258.6   0.001048020   0.00892  -0.09222  -0.01639  -0.01218
  45   38753.9    258.0   0.001404233   0.01193   0.03032  -0.09903  -0.03467
  46   39156.8    255.4   0.389201573   3.27223   0.38018  -1.75036   0.25282
  47   39180.5    255.2   0.016306861   0.13702  -0.16565  -0.32414   0.06717
  48   39819.5    251.1   0.029720153   0.24571   0.03327   0.48964   0.06972
  49   39950.4    250.3   0.021300019   0.17552   0.08477   0.41004  -0.01435
  50   40072.6    249.5   0.005348299   0.04394   0.18416   0.09467   0.03257
  51   40297.1    248.2   0.385946705   3.15304   1.19151   1.31214   0.10782

FINAL SINGLE POINT ENERGY     -4327.366965396885

DIPOLE MOMENT
-------------
                                X             Y             Z
Electronic contribution:    -52.86529     -14.15931     -10.99726
Nuclear contribution   :     52.63828      14.20924      11.20066
                        -----------------------------------------
Total Dipole Moment    :     -0.22701       0.04993       0.20340
                        -----------------------------------------
Magnitude (a.u.)       :      0.30886
Magnitude (Debye)      :      0.78507

Rotational constants in cm-1:     0.000980     0.000306     0.000251
Rotational constants in MHz :    29.369212     9.159239     7.514588

                             ****ORCA TERMINATED NORMALLY****
TOTAL RUN TIME: 0 days 0 hours 10 minutes 59 seconds 971 msec
