                         Program Version 4.2.0 -  RELEASE  -
|  1> # ORCA input file
|  2> # SCF done       -209.852653486076          0.000565765829
|  3> ! CAM-B3LYP def2-SVP def2/J RIJCOSX Grid4 TightSCF
|  4> %maxcore 5000
|  5> %tddft
|  6>     Mode sTDDFT
|  7>     Ethresh 5.0
|  8>     maxcore 5000
|  9> end
| 10>
| 11> %pal
| 12>   nprocs 6
| 13>   end
| 14> * xyz 0 1
| 15>    C       -7.83083        -0.90721        -8.06906
| 16>    C       -8.68442        -1.16206        -9.10516
| 17>    F       -8.83612        -0.26583       -10.08877
| 18>    C       -9.41425        -2.36727        -9.15402
| 19>    F      -10.24369        -2.58919       -10.18228
| 20>    C       -9.27986        -3.30150        -8.16569
| 21>    C       -8.40747        -3.06850        -7.08465
| 22>    C       -7.66900        -1.85049        -7.03389
| 23>    C       -6.78474        -1.59509        -5.96148
| 24>    C       -6.63864        -2.53151        -4.97072
| 25>    C       -7.37942        -3.74269        -5.03160
| 26>    C       -8.24574        -4.01640        -6.05049
| 27>    C       -7.04773        -4.58571        -3.86671
| 28>    O       -7.56600        -5.64200        -3.58471
| 29>    C       -6.01255        -3.83466        -3.10797
| 30>    C       -5.80455        -2.55574        -3.77193
| 31>    C       -4.96273        -1.54392        -3.38794
| 32>    C       -4.12487        -1.52725        -2.25190
| 33>    N       -3.40621        -1.41795        -1.36220
| 34>    C       -4.80958        -0.33183        -4.09624
| 35>    N       -4.63262         0.67555        -4.61709
| 36>    C       -5.36876        -4.22167        -1.96603
| 37>    C       -5.32903        -5.46385        -1.28622
| 38>    C       -5.80458        -6.72039        -1.61080
| 39>    C       -5.34141        -7.65751        -0.63995
| 40>    C       -4.57810        -6.88631         0.35294
| 41>    C       -4.57236        -5.58795        -0.04456
| 42>    C       -3.95355        -7.38353         1.50240
| 43>    N       -3.43133        -7.76903         2.45028
| 44>    C       -5.47636        -9.02778        -0.67539
| 45>    C       -4.89803        -9.97403         0.20929
| 46>    C       -5.16968       -11.24951        -0.23675
| 47>    C       -5.95346       -11.13175        -1.46261
| 48>    C       -6.15337        -9.81577        -1.72651
| 49>    C       -6.88590        -9.35470        -2.82783
| 50>    N       -7.51416        -9.06527        -3.74424
| 51>    C       -4.67100       -12.45457         0.31811
| 52>    S       -3.17386       -12.36359         1.21249
| 53>    C       -3.04928       -14.05054         1.31166
| 54>    C       -4.11873       -14.69887         0.72489
| 55>    C       -5.08921       -13.78824         0.18988
| 56>    C       -6.30832       -14.29334        -0.34031
| 57>    C       -6.44340       -15.68410        -0.45928
| 58>    C       -5.42927       -16.56178        -0.00262
| 59>    C       -4.30691       -16.09409         0.60512
| 60>    O       -7.54387       -16.28106        -0.92317
| 61>    C       -7.44751       -13.43793        -0.59100
| 62>    C       -8.39246       -13.51961        -1.58311
| 63>    C       -9.41416       -12.54720        -1.34124
| 64>    C       -9.03245       -11.86032        -0.09583
| 65>    C       -7.85335       -12.38274         0.33040
| 66>    C       -9.76386       -10.87624         0.57786
| 67>    N      -10.35538       -10.07985         1.15732
| 68>    C      -10.57258       -12.35768        -2.04940
| 69>    C      -11.67253       -11.52764        -1.66571
| 70>    C      -12.75267       -11.82051        -2.46102
| 71>    C      -12.32341       -12.78168        -3.46614
| 72>    C      -11.03075       -13.12061        -3.22130
| 73>    C      -10.27633       -14.04603        -3.95032
| 74>    N       -9.66176       -14.80941        -4.54960
| 75>    C      -14.08298       -11.32999        -2.35050
| 76>    C      -14.72749       -10.88957        -1.23997
| 77>    C      -16.00544       -10.13099        -1.40433
| 78>    O      -16.65577       -10.03726        -2.41770
| 79>    C      -16.25863        -9.50405        -0.09445
| 80>    C      -17.24216        -8.62575         0.26129
| 81>    C      -17.27812        -8.13562         1.58548
| 82>    C      -16.27662        -8.54980         2.51194
| 83>    C      -16.31258        -8.05006         3.82953
| 84>    C      -17.30090        -7.18719         4.21166
| 85>    C      -18.29327        -6.78135         3.29569
| 86>    C      -18.28241        -7.24337         2.00952
| 87>    F      -19.24994        -5.93577         3.69874
| 88>    F      -17.33810        -6.71783         5.46453
| 89>    C      -15.27131        -9.46021         2.11525
| 90>    C      -15.27369        -9.94601         0.83447
| 91>    C      -14.41319       -10.92775         0.17770
| 92>    C      -13.66178       -11.85642         0.84576
| 93>    C      -12.99805       -12.95383         0.26324
| 94>    N      -12.45380       -13.89188        -0.11524
| 95>    C      -13.52193       -11.89045         2.25151
| 96>    N      -13.37500       -11.98260         3.38539
| 97>    H       -7.27959         0.01994        -8.04726
| 98>    H       -9.84448        -4.21918        -8.21726
| 99>    H       -6.24365        -0.66321        -5.95570
|100>    H       -8.79283        -4.94669        -6.06680
|101>    H       -4.73736        -3.47400        -1.50050
|102>    H       -6.40482        -6.97365        -2.46164
|103>    H       -4.09151        -4.76787         0.45706
|104>    H       -4.33674        -9.72830         1.08931
|105>    H       -6.24246       -11.94903        -2.09450
|106>    H       -2.19995       -14.50421         1.78370
|107>    H       -5.61442       -17.61729        -0.11959
|108>    H       -3.56009       -16.76547         0.99767
|109>    H       -8.24297       -15.64192        -1.13768
|110>    H       -8.35820       -14.13208        -2.46494
|111>    H       -7.33345       -12.12531         1.23424
|112>    H      -11.64302       -10.80202        -0.87741
|113>    H      -12.95411       -13.17561        -4.24136
|114>    H      -14.65963       -11.27706        -3.26984
|115>    H      -17.98406        -8.31198        -0.45714
|116>    H      -15.56307        -8.35395         4.54343
|117>    H      -19.04846        -6.92266         1.32103
|118>    H      -14.51760        -9.74465         2.83165
|119> *
|120>
|121>                          ****END OF INPUT****

CARTESIAN COORDINATES (ANGSTROEM)
---------------------------------
  C     -7.830830   -0.907210   -8.069060
  C     -8.684420   -1.162060   -9.105160
  F     -8.836120   -0.265830  -10.088770
  C     -9.414250   -2.367270   -9.154020
  F    -10.243690   -2.589190  -10.182280
  C     -9.279860   -3.301500   -8.165690
  C     -8.407470   -3.068500   -7.084650
  C     -7.669000   -1.850490   -7.033890
  C     -6.784740   -1.595090   -5.961480
  C     -6.638640   -2.531510   -4.970720
  C     -7.379420   -3.742690   -5.031600
  C     -8.245740   -4.016400   -6.050490
  C     -7.047730   -4.585710   -3.866710
  O     -7.566000   -5.642000   -3.584710
  C     -6.012550   -3.834660   -3.107970
  C     -5.804550   -2.555740   -3.771930
  C     -4.962730   -1.543920   -3.387940
  C     -4.124870   -1.527250   -2.251900
  N     -3.406210   -1.417950   -1.362200
  C     -4.809580   -0.331830   -4.096240
  N     -4.632620    0.675550   -4.617090
  C     -5.368760   -4.221670   -1.966030
  C     -5.329030   -5.463850   -1.286220
  C     -5.804580   -6.720390   -1.610800
  C     -5.341410   -7.657510   -0.639950
  C     -4.578100   -6.886310    0.352940
  C     -4.572360   -5.587950   -0.044560
  C     -3.953550   -7.383530    1.502400
  N     -3.431330   -7.769030    2.450280
  C     -5.476360   -9.027780   -0.675390
  C     -4.898030   -9.974030    0.209290
  C     -5.169680  -11.249510   -0.236750
  C     -5.953460  -11.131750   -1.462610
  C     -6.153370   -9.815770   -1.726510
  C     -6.885900   -9.354700   -2.827830
  N     -7.514160   -9.065270   -3.744240
  C     -4.671000  -12.454570    0.318110
  S     -3.173860  -12.363590    1.212490
  C     -3.049280  -14.050540    1.311660
  C     -4.118730  -14.698870    0.724890
  C     -5.089210  -13.788240    0.189880
  C     -6.308320  -14.293340   -0.340310
  C     -6.443400  -15.684100   -0.459280
  C     -5.429270  -16.561780   -0.002620
  C     -4.306910  -16.094090    0.605120
  O     -7.543870  -16.281060   -0.923170
  C     -7.447510  -13.437930   -0.591000
  C     -8.392460  -13.519610   -1.583110
  C     -9.414160  -12.547200   -1.341240
  C     -9.032450  -11.860320   -0.095830
  C     -7.853350  -12.382740    0.330400
  C     -9.763860  -10.876240    0.577860
  N    -10.355380  -10.079850    1.157320
  C    -10.572580  -12.357680   -2.049400
  C    -11.672530  -11.527640   -1.665710
  C    -12.752670  -11.820510   -2.461020
  C    -12.323410  -12.781680   -3.466140
  C    -11.030750  -13.120610   -3.221300
  C    -10.276330  -14.046030   -3.950320
  N     -9.661760  -14.809410   -4.549600
  C    -14.082980  -11.329990   -2.350500
  C    -14.727490  -10.889570   -1.239970
  C    -16.005440  -10.130990   -1.404330
  O    -16.655770  -10.037260   -2.417700
  C    -16.258630   -9.504050   -0.094450
  C    -17.242160   -8.625750    0.261290
  C    -17.278120   -8.135620    1.585480
  C    -16.276620   -8.549800    2.511940
  C    -16.312580   -8.050060    3.829530
  C    -17.300900   -7.187190    4.211660
  C    -18.293270   -6.781350    3.295690
  C    -18.282410   -7.243370    2.009520
  F    -19.249940   -5.935770    3.698740
  F    -17.338100   -6.717830    5.464530
  C    -15.271310   -9.460210    2.115250
  C    -15.273690   -9.946010    0.834470
  C    -14.413190  -10.927750    0.177700
  C    -13.661780  -11.856420    0.845760
  C    -12.998050  -12.953830    0.263240
  N    -12.453800  -13.891880   -0.115240
  C    -13.521930  -11.890450    2.251510
  N    -13.375000  -11.982600    3.385390
  H     -7.279590    0.019940   -8.047260
  H     -9.844480   -4.219180   -8.217260
  H     -6.243650   -0.663210   -5.955700
  H     -8.792830   -4.946690   -6.066800
  H     -4.737360   -3.474000   -1.500500
  H     -6.404820   -6.973650   -2.461640
  H     -4.091510   -4.767870    0.457060
  H     -4.336740   -9.728300    1.089310
  H     -6.242460  -11.949030   -2.094500
  H     -2.199950  -14.504210    1.783700
  H     -5.614420  -17.617290   -0.119590
  H     -3.560090  -16.765470    0.997670
  H     -8.242970  -15.641920   -1.137680
  H     -8.358200  -14.132080   -2.464940
  H     -7.333450  -12.125310    1.234240
  H    -11.643020  -10.802020   -0.877410
  H    -12.954110  -13.175610   -4.241360
  H    -14.659630  -11.277060   -3.269840
  H    -17.984060   -8.311980   -0.457140
  H    -15.563070   -8.353950    4.543430
  H    -19.048460   -6.922660    1.321030
  H    -14.517600   -9.744650    2.831650

 Total Charge           Charge          ....    0
 Multiplicity           Mult            ....    1
 Number of Electrons    NEL             ....  550
 Basis Dimension        Dim             .... 1262

ORBITAL ENERGIES
----------------

  NO   OCC          E(Eh)            E(eV)
   0   2.0000     -88.994674     -2421.6682
   1   2.0000     -24.802564      -674.9121
   2   2.0000     -24.801604      -674.8859
   3   2.0000     -24.799248      -674.8218
   4   2.0000     -24.798306      -674.7962
   5   2.0000     -19.277745      -524.5741
   6   2.0000     -19.226954      -523.1920
   7   2.0000     -19.222076      -523.0593
   8   2.0000     -14.429633      -392.6503
   9   2.0000     -14.425544      -392.5390
  10   2.0000     -14.423391      -392.4804
  11   2.0000     -14.422424      -392.4541
  12   2.0000     -14.419160      -392.3653
  13   2.0000     -14.417914      -392.3314
  14   2.0000     -14.414796      -392.2466
  15   2.0000     -14.408887      -392.0858
  16   2.0000     -10.386303      -282.6257
  17   2.0000     -10.385643      -282.6077
  18   2.0000     -10.382674      -282.5269
  19   2.0000     -10.381914      -282.5063
  20   2.0000     -10.379045      -282.4282
  21   2.0000     -10.377394      -282.3832
  22   2.0000     -10.372721      -282.2561
  23   2.0000     -10.355868      -281.7975
  24   2.0000     -10.353822      -281.7418
  25   2.0000     -10.348158      -281.5877
  26   2.0000     -10.346710      -281.5483
  27   2.0000     -10.340010      -281.3660
  28   2.0000     -10.336217      -281.2628
  29   2.0000     -10.334487      -281.2157
  30   2.0000     -10.334035      -281.2034
  31   2.0000     -10.333506      -281.1890
  32   2.0000     -10.331628      -281.1379
  33   2.0000     -10.331341      -281.1301
  34   2.0000     -10.330222      -281.0996
  35   2.0000     -10.329118      -281.0696
  36   2.0000     -10.328078      -281.0413
  37   2.0000     -10.327032      -281.0128
  38   2.0000     -10.326927      -281.0100
  39   2.0000     -10.326454      -280.9971
  40   2.0000     -10.325479      -280.9706
  41   2.0000     -10.325049      -280.9589
  42   2.0000     -10.324583      -280.9462
  43   2.0000     -10.323717      -280.9226
  44   2.0000     -10.322211      -280.8817
  45   2.0000     -10.322044      -280.8771
  46   2.0000     -10.321517      -280.8627
  47   2.0000     -10.321284      -280.8564
  48   2.0000     -10.319915      -280.8192
  49   2.0000     -10.319343      -280.8036
  50   2.0000     -10.316348      -280.7221
  51   2.0000     -10.316088      -280.7150
  52   2.0000     -10.315577      -280.7011
  53   2.0000     -10.315420      -280.6969
  54   2.0000     -10.315106      -280.6883
  55   2.0000     -10.314879      -280.6821
  56   2.0000     -10.313990      -280.6579
  57   2.0000     -10.313515      -280.6450
  58   2.0000     -10.312757      -280.6244
  59   2.0000     -10.311881      -280.6006
  60   2.0000     -10.311619      -280.5934
  61   2.0000     -10.311521      -280.5907
  62   2.0000     -10.310629      -280.5665
  63   2.0000     -10.309679      -280.5406
  64   2.0000     -10.309462      -280.5347
  65   2.0000     -10.308399      -280.5058
  66   2.0000     -10.307777      -280.4889
  67   2.0000     -10.307666      -280.4859
  68   2.0000     -10.307405      -280.4788
  69   2.0000     -10.305852      -280.4365
  70   2.0000     -10.304729      -280.4059
  71   2.0000     -10.304106      -280.3890
  72   2.0000     -10.303856      -280.3822
  73   2.0000     -10.303133      -280.3625
  74   2.0000     -10.301908      -280.3292
  75   2.0000     -10.301496      -280.3179
  76   2.0000     -10.301245      -280.3111
  77   2.0000     -10.300947      -280.3030
  78   2.0000     -10.300860      -280.3007
  79   2.0000     -10.297321      -280.2043
  80   2.0000     -10.294247      -280.1207
  81   2.0000     -10.287396      -279.9343
  82   2.0000      -8.089943      -220.1385
  83   2.0000      -6.058933      -164.8719
  84   2.0000      -6.054553      -164.7528
  85   2.0000      -6.052899      -164.7078
  86   2.0000      -1.325339       -36.0643
  87   2.0000      -1.321790       -35.9677
  88   2.0000      -1.310415       -35.6582
  89   2.0000      -1.306879       -35.5620
  90   2.0000      -1.179486       -32.0954
  91   2.0000      -1.142576       -31.0911
  92   2.0000      -1.138131       -30.9701
  93   2.0000      -1.036291       -28.1989
  94   2.0000      -1.031807       -28.0769
  95   2.0000      -1.027162       -27.9505
  96   2.0000      -1.024354       -27.8741
  97   2.0000      -1.018778       -27.7224
  98   2.0000      -1.014022       -27.5930
  99   2.0000      -1.012563       -27.5532
 100   2.0000      -1.007454       -27.4142
 101   2.0000      -1.004094       -27.3228
 102   2.0000      -1.003753       -27.3135
 103   2.0000      -1.000822       -27.2337
 104   2.0000      -0.998972       -27.1834
 105   2.0000      -0.994670       -27.0663
 106   2.0000      -0.990447       -26.9514
 107   2.0000      -0.987963       -26.8838
 108   2.0000      -0.986365       -26.8404
 109   2.0000      -0.981998       -26.7215
 110   2.0000      -0.956636       -26.0314
 111   2.0000      -0.939931       -25.5768
 112   2.0000      -0.934854       -25.4387
 113   2.0000      -0.921154       -25.0659
 114   2.0000      -0.914893       -24.8955
 115   2.0000      -0.909523       -24.7494
 116   2.0000      -0.899293       -24.4710
 117   2.0000      -0.895346       -24.3636
 118   2.0000      -0.893732       -24.3197
 119   2.0000      -0.889876       -24.2148
 120   2.0000      -0.882112       -24.0035
 121   2.0000      -0.871337       -23.7103
 122   2.0000      -0.864233       -23.5170
 123   2.0000      -0.862061       -23.4579
 124   2.0000      -0.852540       -23.1988
 125   2.0000      -0.848700       -23.0943
 126   2.0000      -0.846834       -23.0435
 127   2.0000      -0.843306       -22.9475
 128   2.0000      -0.841389       -22.8953
 129   2.0000      -0.825312       -22.4579
 130   2.0000      -0.814950       -22.1759
 131   2.0000      -0.802893       -21.8478
 132   2.0000      -0.788175       -21.4473
 133   2.0000      -0.776549       -21.1310
 134   2.0000      -0.775180       -21.0937
 135   2.0000      -0.770977       -20.9794
 136   2.0000      -0.764328       -20.7984
 137   2.0000      -0.746527       -20.3140
 138   2.0000      -0.741557       -20.1788
 139   2.0000      -0.734335       -19.9823
 140   2.0000      -0.731693       -19.9104
 141   2.0000      -0.725091       -19.7307
 142   2.0000      -0.723590       -19.6899
 143   2.0000      -0.721805       -19.6413
 144   2.0000      -0.720917       -19.6171
 145   2.0000      -0.708941       -19.2913
 146   2.0000      -0.705064       -19.1858
 147   2.0000      -0.695085       -18.9142
 148   2.0000      -0.690385       -18.7863
 149   2.0000      -0.688306       -18.7298
 150   2.0000      -0.687489       -18.7075
 151   2.0000      -0.681000       -18.5309
 152   2.0000      -0.678438       -18.4612
 153   2.0000      -0.667718       -18.1695
 154   2.0000      -0.660876       -17.9834
 155   2.0000      -0.659797       -17.9540
 156   2.0000      -0.658237       -17.9115
 157   2.0000      -0.651121       -17.7179
 158   2.0000      -0.648926       -17.6582
 159   2.0000      -0.648249       -17.6397
 160   2.0000      -0.644601       -17.5405
 161   2.0000      -0.640234       -17.4217
 162   2.0000      -0.631795       -17.1920
 163   2.0000      -0.626958       -17.0604
 164   2.0000      -0.622977       -16.9521
 165   2.0000      -0.614971       -16.7342
 166   2.0000      -0.603849       -16.4316
 167   2.0000      -0.601527       -16.3684
 168   2.0000      -0.595328       -16.1997
 169   2.0000      -0.594068       -16.1654
 170   2.0000      -0.589680       -16.0460
 171   2.0000      -0.588346       -16.0097
 172   2.0000      -0.586299       -15.9540
 173   2.0000      -0.583530       -15.8787
 174   2.0000      -0.579528       -15.7698
 175   2.0000      -0.576610       -15.6904
 176   2.0000      -0.567267       -15.4361
 177   2.0000      -0.559699       -15.2302
 178   2.0000      -0.558977       -15.2105
 179   2.0000      -0.556317       -15.1381
 180   2.0000      -0.555839       -15.1252
 181   2.0000      -0.553082       -15.0501
 182   2.0000      -0.551176       -14.9983
 183   2.0000      -0.551149       -14.9975
 184   2.0000      -0.549423       -14.9506
 185   2.0000      -0.547863       -14.9081
 186   2.0000      -0.544974       -14.8295
 187   2.0000      -0.543425       -14.7874
 188   2.0000      -0.542356       -14.7583
 189   2.0000      -0.541612       -14.7380
 190   2.0000      -0.539712       -14.6863
 191   2.0000      -0.536078       -14.5874
 192   2.0000      -0.534244       -14.5375
 193   2.0000      -0.534111       -14.5339
 194   2.0000      -0.530237       -14.4285
 195   2.0000      -0.528819       -14.3899
 196   2.0000      -0.527662       -14.3584
 197   2.0000      -0.526735       -14.3332
 198   2.0000      -0.523083       -14.2338
 199   2.0000      -0.520697       -14.1689
 200   2.0000      -0.518846       -14.1185
 201   2.0000      -0.518185       -14.1005
 202   2.0000      -0.516965       -14.0673
 203   2.0000      -0.515354       -14.0235
 204   2.0000      -0.510022       -13.8784
 205   2.0000      -0.508399       -13.8342
 206   2.0000      -0.506469       -13.7817
 207   2.0000      -0.504299       -13.7227
 208   2.0000      -0.501896       -13.6573
 209   2.0000      -0.500238       -13.6122
 210   2.0000      -0.499372       -13.5886
 211   2.0000      -0.497468       -13.5368
 212   2.0000      -0.495927       -13.4949
 213   2.0000      -0.492940       -13.4136
 214   2.0000      -0.490959       -13.3597
 215   2.0000      -0.489340       -13.3156
 216   2.0000      -0.486190       -13.2299
 217   2.0000      -0.484604       -13.1868
 218   2.0000      -0.479906       -13.0589
 219   2.0000      -0.478916       -13.0320
 220   2.0000      -0.473521       -12.8852
 221   2.0000      -0.472091       -12.8463
 222   2.0000      -0.470901       -12.8139
 223   2.0000      -0.468049       -12.7363
 224   2.0000      -0.463426       -12.6105
 225   2.0000      -0.462695       -12.5906
 226   2.0000      -0.457343       -12.4449
 227   2.0000      -0.455267       -12.3884
 228   2.0000      -0.453701       -12.3458
 229   2.0000      -0.450971       -12.2716
 230   2.0000      -0.450421       -12.2566
 231   2.0000      -0.449771       -12.2389
 232   2.0000      -0.448950       -12.2165
 233   2.0000      -0.448264       -12.1979
 234   2.0000      -0.447613       -12.1802
 235   2.0000      -0.447519       -12.1776
 236   2.0000      -0.445175       -12.1138
 237   2.0000      -0.443212       -12.0604
 238   2.0000      -0.440892       -11.9973
 239   2.0000      -0.439596       -11.9620
 240   2.0000      -0.438909       -11.9433
 241   2.0000      -0.438453       -11.9309
 242   2.0000      -0.434034       -11.8107
 243   2.0000      -0.433645       -11.8001
 244   2.0000      -0.430274       -11.7084
 245   2.0000      -0.429834       -11.6964
 246   2.0000      -0.428594       -11.6626
 247   2.0000      -0.426882       -11.6160
 248   2.0000      -0.419672       -11.4199
 249   2.0000      -0.418765       -11.3952
 250   2.0000      -0.416114       -11.3230
 251   2.0000      -0.410970       -11.1831
 252   2.0000      -0.410838       -11.1795
 253   2.0000      -0.404708       -11.0127
 254   2.0000      -0.404229       -10.9996
 255   2.0000      -0.400351       -10.8941
 256   2.0000      -0.393082       -10.6963
 257   2.0000      -0.389746       -10.6055
 258   2.0000      -0.386231       -10.5099
 259   2.0000      -0.374354       -10.1867
 260   2.0000      -0.361343        -9.8326
 261   2.0000      -0.348662        -9.4876
 262   2.0000      -0.342466        -9.3190
 263   2.0000      -0.342031        -9.3071
 264   2.0000      -0.337715        -9.1897
 265   2.0000      -0.331466        -9.0197
 266   2.0000      -0.326825        -8.8934
 267   2.0000      -0.323356        -8.7990
 268   2.0000      -0.319254        -8.6874
 269   2.0000      -0.315557        -8.5867
 270   2.0000      -0.309290        -8.4162
 271   2.0000      -0.305817        -8.3217
 272   2.0000      -0.300912        -8.1882
 273   2.0000      -0.292465        -7.9584
 274   2.0000      -0.265284        -7.2187
 275   0.0000      -0.142279        -3.8716
 276   0.0000      -0.132979        -3.6186
 277   0.0000      -0.092894        -2.5278
 278   0.0000      -0.084793        -2.3073
 279   0.0000      -0.063217        -1.7202

MULLIKEN ATOMIC CHARGES
-----------------------
   0 C :   -0.106582
   1 C :    0.241811
   2 F :   -0.170954
   3 C :    0.238170
   4 F :   -0.171283
   5 C :   -0.101912
   6 C :    0.116305
   7 C :    0.112744
   8 C :   -0.082058
   9 C :    0.048045
  10 C :   -0.004142
  11 C :   -0.078957
  12 C :    0.148413
  13 O :   -0.131098
  14 C :   -0.052227
  15 C :    0.327452
  16 C :   -0.357547
  17 C :   -0.180594
  18 N :    0.151165
  19 C :   -0.183439
  20 N :    0.149720
  21 C :   -0.025106
  22 C :    0.086590
  23 C :   -0.098386
  24 C :    0.082621
  25 C :   -0.094860
  26 C :   -0.008256
  27 C :   -0.171076
  28 N :    0.129276
  29 C :    0.155372
  30 C :   -0.149079
  31 C :    0.064111
  32 C :    0.026528
  33 C :   -0.112480
  34 C :   -0.179889
  35 N :    0.165914
  36 C :   -0.234499
  37 S :    0.210558
  38 C :   -0.088506
  39 C :    0.055315
  40 C :    0.179778
  41 C :    0.060942
  42 C :    0.093978
  43 C :   -0.014873
  44 C :    0.034475
  45 O :   -0.138228
  46 C :   -0.094353
  47 C :   -0.174174
  48 C :    0.156922
  49 C :   -0.105774
  50 C :    0.051183
  51 C :   -0.172636
  52 N :    0.150626
  53 C :    0.095959
  54 C :   -0.108117
  55 C :    0.083128
  56 C :    0.019891
  57 C :   -0.079055
  58 C :   -0.178937
  59 N :    0.133371
  60 C :    0.032757
  61 C :   -0.108990
  62 C :    0.133704
  63 O :   -0.135359
  64 C :    0.018585
  65 C :   -0.079606
  66 C :    0.112929
  67 C :    0.109811
  68 C :   -0.104131
  69 C :    0.242729
  70 C :    0.241012
  71 C :   -0.104348
  72 F :   -0.169616
  73 F :   -0.168467
  74 C :   -0.072203
  75 C :    0.024725
  76 C :    0.294368
  77 C :   -0.335879
  78 C :   -0.187694
  79 N :    0.168842
  80 C :   -0.176423
  81 N :    0.164981
  82 H :    0.007195
  83 H :    0.001326
  84 H :   -0.006465
  85 H :   -0.003990
  86 H :   -0.001449
  87 H :    0.032397
  88 H :    0.012429
  89 H :    0.005451
  90 H :    0.011030
  91 H :    0.036442
  92 H :    0.004235
  93 H :   -0.005265
  94 H :    0.190595
  95 H :    0.016720
  96 H :    0.015682
  97 H :    0.021178
  98 H :    0.003438
  99 H :    0.025769
 100 H :   -0.006779
 101 H :    0.009254
 102 H :    0.001506
 103 H :    0.006289
Sum of atomic charges:    0.0000000

LOEWDIN ATOMIC CHARGES
----------------------
   0 C :   -0.029030
   1 C :    0.067002
   2 F :   -0.048505
   3 C :    0.068242
   4 F :   -0.048773
   5 C :   -0.032460
   6 C :   -0.007770
   7 C :   -0.006325
   8 C :    0.018106
   9 C :   -0.024482
  10 C :   -0.052535
  11 C :    0.032452
  12 C :    0.084673
  13 O :   -0.123304
  14 C :   -0.079873
  15 C :    0.075754
  16 C :   -0.135730
  17 C :   -0.022526
  18 N :   -0.048521
  19 C :   -0.016472
  20 N :   -0.050835
  21 C :    0.069586
  22 C :   -0.047825
  23 C :    0.039696
  24 C :    0.012885
  25 C :   -0.092323
  26 C :    0.055797
  27 C :   -0.028601
  28 N :   -0.068391
  29 C :    0.061549
  30 C :   -0.064358
  31 C :   -0.018672
  32 C :    0.057146
  33 C :   -0.070765
  34 C :   -0.038508
  35 N :   -0.045001
  36 C :   -0.197790
  37 S :    0.524752
  38 C :   -0.152290
  39 C :   -0.067206
  40 C :   -0.018816
  41 C :   -0.094086
  42 C :    0.096856
  43 C :   -0.037843
  44 C :    0.026092
  45 O :   -0.007242
  46 C :   -0.003695
  47 C :   -0.071137
  48 C :    0.052719
  49 C :   -0.072153
  50 C :    0.061791
  51 C :   -0.025389
  52 N :   -0.055999
  53 C :    0.037013
  54 C :    0.022532
  55 C :   -0.037644
  56 C :    0.064237
  57 C :   -0.078965
  58 C :   -0.028058
  59 N :   -0.062497
  60 C :    0.066377
  61 C :   -0.069670
  62 C :    0.084416
  63 O :   -0.134264
  64 C :   -0.056060
  65 C :    0.033254
  66 C :   -0.008221
  67 C :   -0.004045
  68 C :   -0.028054
  69 C :    0.068638
  70 C :    0.068867
  71 C :   -0.032523
  72 F :   -0.047322
  73 F :   -0.046484
  74 C :    0.020624
  75 C :   -0.020132
  76 C :    0.068545
  77 C :   -0.124827
  78 C :   -0.011618
  79 N :   -0.045813
  80 C :   -0.016876
  81 N :   -0.041825
  82 H :    0.047849
  83 H :    0.045665
  84 H :    0.039916
  85 H :    0.042722
  86 H :    0.046265
  87 H :    0.034927
  88 H :    0.041179
  89 H :    0.030161
  90 H :    0.041076
  91 H :    0.033221
  92 H :    0.043098
  93 H :    0.039816
  94 H :    0.090787
  95 H :    0.034877
  96 H :    0.044000
  97 H :    0.036305
  98 H :    0.040353
  99 H :    0.049401
 100 H :    0.041682
 101 H :    0.048866
 102 H :    0.045557
 103 H :    0.042802

  Mayer bond orders larger than 0.100000
B(  0-C ,  1-C ) :   1.4430 B(  0-C ,  5-C ) :   0.1085 B(  0-C ,  7-C ) :   1.1871
B(  0-C , 82-H ) :   1.0063 B(  1-C ,  2-F ) :   1.1344 B(  1-C ,  3-C ) :   1.1911
B(  3-C ,  4-F ) :   1.1339 B(  3-C ,  5-C ) :   1.4436 B(  5-C ,  6-C ) :   1.1914
B(  5-C , 83-H ) :   1.0069 B(  6-C ,  7-C ) :   1.2552 B(  6-C , 11-C ) :   1.1875
B(  7-C ,  8-C ) :   1.2222 B(  8-C ,  9-C ) :   1.4453 B(  8-C , 84-H ) :   0.9878
B(  9-C , 10-C ) :   1.2224 B(  9-C , 15-C ) :   0.9821 B( 10-C , 11-C ) :   1.4715
B( 10-C , 12-C ) :   0.9406 B( 11-C , 85-H ) :   1.0167 B( 12-C , 13-O ) :   2.2035
B( 12-C , 14-C ) :   0.9250 B( 14-C , 15-C ) :   1.0730 B( 14-C , 21-C ) :   1.5670
B( 15-C , 16-C ) :   1.6220 B( 16-C , 17-C ) :   1.1406 B( 16-C , 19-C ) :   1.1497
B( 17-C , 18-N ) :   2.9596 B( 19-C , 20-N ) :   2.9576 B( 21-C , 22-C ) :   1.1546
B( 21-C , 86-H ) :   0.9316 B( 22-C , 23-C ) :   1.5004 B( 22-C , 26-C ) :   1.0408
B( 23-C , 24-C ) :   1.1025 B( 23-C , 87-H ) :   0.9880 B( 24-C , 25-C ) :   1.1190
B( 24-C , 29-C ) :   1.3866 B( 25-C , 26-C ) :   1.6461 B( 25-C , 27-C ) :   1.0835
B( 26-C , 88-H ) :   1.0246 B( 27-C , 28-N ) :   2.9623 B( 29-C , 30-C ) :   1.1553
B( 29-C , 33-C ) :   1.0873 B( 30-C , 31-C ) :   1.5144 B( 30-C , 89-H ) :   0.9975
B( 31-C , 32-C ) :   1.0361 B( 31-C , 36-C ) :   1.1236 B( 32-C , 33-C ) :   1.6995
B( 32-C , 90-H ) :   1.0103 B( 33-C , 34-C ) :   1.0899 B( 34-C , 35-N ) :   2.9936
B( 36-C , 37-S ) :   1.1515 B( 36-C , 40-C ) :   1.3540 B( 37-S , 38-C ) :   1.2451
B( 38-C , 39-C ) :   1.4044 B( 38-C , 91-H ) :   0.9700 B( 39-C , 40-C ) :   1.1923
B( 39-C , 44-C ) :   1.1468 B( 40-C , 41-C ) :   1.2093 B( 41-C , 42-C ) :   1.3582
B( 41-C , 46-C ) :   0.9668 B( 42-C , 43-C ) :   1.2094 B( 42-C , 45-O ) :   1.3223
B( 43-C , 44-C ) :   1.5342 B( 43-C , 92-H ) :   0.9926 B( 44-C , 93-H ) :   1.0049
B( 45-O , 94-H ) :   0.9336 B( 46-C , 47-C ) :   1.5638 B( 46-C , 50-C ) :   1.0752
B( 47-C , 48-C ) :   1.0977 B( 47-C , 95-H ) :   0.9913 B( 48-C , 49-C ) :   1.1195
B( 48-C , 53-C ) :   1.4433 B( 49-C , 50-C ) :   1.6697 B( 49-C , 51-C ) :   1.1021
B( 50-C , 96-H ) :   1.0190 B( 51-C , 52-N ) :   2.9482 B( 53-C , 54-C ) :   1.1038
B( 53-C , 57-C ) :   1.1172 B( 54-C , 55-C ) :   1.5439 B( 54-C , 97-H ) :   0.9972
B( 55-C , 56-C ) :   1.0531 B( 55-C , 60-C ) :   1.0394 B( 56-C , 57-C ) :   1.6588
B( 56-C , 98-H ) :   1.0230 B( 57-C , 58-C ) :   1.0891 B( 58-C , 59-N ) :   2.9625
B( 60-C , 61-C ) :   1.7117 B( 60-C , 99-H ) :   0.9420 B( 61-C , 62-C ) :   0.9309
B( 61-C , 76-C ) :   1.0155 B( 62-C , 63-O ) :   2.2751 B( 62-C , 64-C ) :   0.9197
B( 64-C , 65-C ) :   1.4684 B( 64-C , 75-C ) :   1.2205 B( 65-C , 66-C ) :   1.1989
B( 65-C ,100-H ) :   1.0159 B( 66-C , 67-C ) :   1.2528 B( 66-C , 71-C ) :   1.1912
B( 67-C , 68-C ) :   1.1883 B( 67-C , 74-C ) :   1.2219 B( 68-C , 69-C ) :   1.4429
B( 68-C , 71-C ) :   0.1087 B( 68-C ,101-H ) :   1.0068 B( 69-C , 70-C ) :   1.1898
B( 69-C , 73-F ) :   1.1373 B( 70-C , 71-C ) :   1.4448 B( 70-C , 72-F ) :   1.1355
B( 71-C ,102-H ) :   1.0067 B( 74-C , 75-C ) :   1.4525 B( 74-C ,103-H ) :   0.9919
B( 75-C , 76-C ) :   0.9992 B( 76-C , 77-C ) :   1.6667 B( 77-C , 78-C ) :   1.1793
B( 77-C , 80-C ) :   1.1265 B( 78-C , 79-N ) :   2.9672 B( 80-C , 81-N ) :   2.9924

-----------------------------------------------------------------------------
         ABSORPTION SPECTRUM VIA TRANSITION ELECTRIC DIPOLE MOMENTS
-----------------------------------------------------------------------------
State   Energy  Wavelength   fosc         T2         TX        TY        TZ
        (cm-1)    (nm)                  (au**2)     (au)      (au)      (au)
-----------------------------------------------------------------------------
   0   11222.8    891.0   0.385017824  11.29415   1.37799  -2.93330   0.88941
   1   12076.0    828.1   0.330358365   9.00612  -1.96486  -2.25274   0.26572
   2   16825.9    594.3   0.046412006   0.90809   0.69252   0.58813  -0.28740
   3   17253.3    579.6   0.044320087   0.84567  -0.78121   0.46727  -0.13057
   4   19499.1    512.8   0.036873976   0.62256  -0.08408   0.65947  -0.42496
   5   20607.3    485.3   0.031394445   0.50154  -0.63997  -0.30322   0.00595
   6   21552.0    464.0   0.038839288   0.59328  -0.45494  -0.60880   0.12519
   7   22084.3    452.8   0.061784844   0.92103  -0.89644  -0.34095   0.03426
   8   22358.5    447.3   0.096865423   1.42627  -0.21155   1.17281  -0.07763
   9   23013.2    434.5   0.318953641   4.56275  -0.23906  -1.90953   0.92698
  10   23414.0    427.1   0.137246566   1.92975   0.84805  -1.10006  -0.02089
  11   23604.0    423.7   0.005879570   0.08200   0.03330  -0.26893   0.09258
  12   24196.9    413.3   0.108256400   1.47289  -0.79626  -0.15404   0.90285
  13   24618.3    406.2   0.166572557   2.22751  -0.73758   1.28156  -0.20269
  14   25050.5    399.2   0.055731427   0.73242  -0.80595   0.21431  -0.19219
  15   25295.0    395.3   0.048559238   0.63199   0.52809   0.24801   0.54000
  16   25473.9    392.6   0.202648821   2.61893   0.14719   1.26471  -0.99889
  17   25646.2    389.9   0.016019267   0.20563   0.31096  -0.17344   0.28081
  18   26240.2    381.1   0.317076332   3.97806  -1.66014   0.97357  -0.52360
  19   26624.2    375.6   0.045647273   0.56443   0.38931  -0.40689   0.49731
  20   27015.2    370.2   0.015126629   0.18434   0.15500  -0.23867  -0.32148
  21   27072.0    369.4   0.027420041   0.33344   0.20184  -0.23547  -0.48709
  22   27136.1    368.5   0.008006948   0.09714  -0.25268   0.09730  -0.15435
  23   27544.6    363.0   0.077040904   0.92079  -0.60296   0.56053  -0.49299
  24   27727.3    360.7   0.249149263   2.95820   0.96629  -1.31104   0.55285
  25   28911.2    345.9   0.049556553   0.56430   0.01345  -0.64204   0.38975
  26   29235.5    342.0   0.028486141   0.32077   0.12634   0.54379  -0.09544
  27   29393.8    340.2   0.058212382   0.65198  -0.12306  -0.59044  -0.53685
  28   29893.6    334.5   0.072427467   0.79763  -0.80708   0.33242   0.18909
  29   30287.8    330.2   0.119754330   1.30166   0.40490  -0.51932  -0.93168
  30   30464.7    328.2   0.069971116   0.75613  -0.20561   0.72649   0.43135
  31   30728.7    325.4   0.113598137   1.21703  -0.63093   0.15484  -0.89162
  32   31054.4    322.0   0.065120143   0.69035   0.42275  -0.67682   0.23137
  33   31476.3    317.7   0.292106418   3.05516  -0.91575   0.46312  -1.41495
  34   31941.5    313.1   0.111316301   1.14730  -0.20932   0.43916   0.95427
  35   32194.6    310.6   0.005001049   0.05114   0.02882   0.04912  -0.21885
  36   32771.0    305.1   0.221204378   2.22218   1.17994  -0.85328  -0.31912
  37   32979.3    303.2   0.113940729   1.13740  -0.76497   0.20278  -0.71492
  38   33177.4    301.4   0.029795222   0.29565   0.47308  -0.22324   0.14834
  39   33240.9    300.8   0.052710676   0.52204   0.08228  -0.37356  -0.61296
  40   33920.8    294.8   0.032559006   0.31600   0.16129   0.26935   0.46630
  41   34359.1    291.0   0.123490720   1.18323   0.78741  -0.69850   0.27442
  42   34661.5    288.5   0.019250526   0.18284  -0.41470   0.10018  -0.02872
  43   34831.8    287.1   0.013161783   0.12440  -0.11145   0.18877  -0.27631
  44   34981.4    285.9   0.059740827   0.56222  -0.69233   0.00968  -0.28776
  45   35066.8    285.2   0.098063053   0.92063   0.34454   0.18054   0.87711
  46   35200.3    284.1   0.004157742   0.03889  -0.03775   0.18923  -0.04065
  47   35346.3    282.9   0.265362990   2.47156   1.14288  -1.03489  -0.30721
  48   35755.7    279.7   0.394556498   3.63278   1.23946  -1.43886  -0.16183
  49   35803.9    279.3   0.020680975   0.19016  -0.27662  -0.14646  -0.30363
  50   35980.9    277.9   0.071569980   0.65484   0.78314  -0.17138  -0.11031
  51   36235.2    276.0   0.011357823   0.10319  -0.25700   0.07297   0.17837
  52   36270.8    275.7   0.454327138   4.12370   1.27234   0.67538   1.43134
  53   36597.0    273.2   0.034651631   0.31171  -0.32157  -0.24627  -0.38426
  54   36939.6    270.7   0.009525149   0.08489  -0.05658  -0.17208  -0.22820
  55   37027.8    270.1   0.070179861   0.62397  -0.26581  -0.58320  -0.46173
  56   37128.9    269.3   0.047728571   0.42320  -0.44611   0.03500  -0.47219
  57   37744.7    264.9   0.032617093   0.28449   0.37767   0.26914   0.26348
  58   37785.7    264.7   0.019536894   0.17022  -0.28006  -0.27772  -0.12107
  59   37992.4    263.2   0.097888057   0.84822  -0.73142   0.45743  -0.32249
  60   38320.2    261.0   0.030776271   0.26440  -0.15431   0.46463  -0.15719
  61   38762.8    258.0   0.040462265   0.34365  -0.16731   0.53853  -0.16012
  62   38830.6    257.5   0.023300902   0.19755  -0.24574  -0.29077  -0.22937
  63   39064.1    256.0   0.103051980   0.86847  -0.07914  -0.89572   0.24471
  64   39226.1    254.9   0.044324396   0.37200  -0.07774   0.59757  -0.09415
  65   39590.1    252.6   0.100668329   0.83711   0.09455  -0.21505   0.88426
  66   39731.8    251.7   0.073522767   0.60920   0.44573  -0.11338  -0.63061
  67   40075.1    249.5   0.306476920   2.51767   0.65275   1.24544   0.73517
  68   40289.4    248.2   0.015273538   0.12480  -0.10743   0.30303  -0.14640

FINAL SINGLE POINT ENERGY     -3984.668152514214

DIPOLE MOMENT
-------------
                                X             Y             Z
Electronic contribution:    -22.23090      31.32354      -4.88187
Nuclear contribution   :     22.01616     -33.99183       4.82868
                        -----------------------------------------
Total Dipole Moment    :     -0.21474      -2.66830      -0.05318
                        -----------------------------------------
Magnitude (a.u.)       :      2.67745
Magnitude (Debye)      :      6.80554

Rotational constants in cm-1:     0.000601     0.000449     0.000327
Rotational constants in MHz :    18.023414    13.468888     9.805614

                             ****ORCA TERMINATED NORMALLY****
TOTAL RUN TIME: 0 days 0 hours 12 minutes 45 seconds 769 msec
