                         Program Version 4.2.0 -  RELEASE  -
|  1> # ORCA input file
|  2> # SCF done       -203.766722945549          0.000374256526
|  3> ! CAM-B3LYP def2-SVP def2/J RIJCOSX Grid4 TightSCF
|  4> %maxcore 5000
|  5> %tddft
|  6>     Mode sTDDFT
|  7>     Ethresh 5.0
|  8>     maxcore 5000
|  9> end
| 10>
| 11> %pal
| 12>   nprocs 6
| 13>   end
| 14> * xyz 0 1
| 15>    C      -12.16188        -0.74082         7.39680
| 16>    C      -12.91745        -1.12016         8.47066
| 17>    F      -13.88942        -0.32137         8.92511
| 18>    C      -12.68503        -2.35422         9.11283
| 19>    F      -13.44148        -2.69910        10.16120
| 20>    C      -11.69913        -3.19165         8.67163
| 21>    C      -10.90396        -2.82905         7.56697
| 22>    C      -11.13734        -1.58169         6.91676
| 23>    C      -10.35222        -1.19745         5.80623
| 24>    C       -9.36209        -2.03379         5.35927
| 25>    C       -9.13957        -3.27909         6.01290
| 26>    C       -9.88301        -3.67781         7.08715
| 27>    C       -8.05142        -4.00416         5.33698
| 28>    O       -7.64340        -5.11544         5.59323
| 29>    C       -7.62455        -3.12566         4.21144
| 30>    C       -8.41162        -1.90346         4.26007
| 31>    C       -8.24377        -0.80268         3.46621
| 32>    C       -7.25779        -0.68415         2.46198
| 33>    N       -6.46698        -0.52082         1.64697
| 34>    C       -9.01914         0.37264         3.57158
| 35>    N       -9.62081         1.34849         3.61282
| 36>    C       -6.77346        -3.54015         3.23883
| 37>    C       -5.98755        -4.73211         3.32709
| 38>    C       -5.76734        -5.63197         2.32007
| 39>    C       -5.02607        -6.74857         2.84625
| 40>    C       -4.72056        -6.40419         4.24416
| 41>    C       -5.30264        -5.21039         4.52538
| 42>    C       -3.93832        -7.14522         5.13828
| 43>    N       -3.29089        -7.72756         5.88693
| 44>    C       -4.73130        -7.92039         2.20892
| 45>    C       -4.08792        -9.07959         2.77224
| 46>    C       -4.02573       -10.05636         1.82761
| 47>    C       -4.63792        -9.55734         0.60624
| 48>    C       -5.05894        -8.28283         0.81768
| 49>    C       -5.69448        -7.47511        -0.13158
| 50>    N       -6.21411        -6.83415        -0.93060
| 51>    C       -3.50908       -11.41310         2.01859
| 52>    S       -4.78886       -12.78819         1.75140
| 53>    C       -3.16964       -13.49445         1.23531
| 54>    C       -2.69062       -12.08839         0.91691
| 55>    N       -1.27256       -12.23516         0.68352
| 56>    C       -1.25101       -13.45689        -0.13298
| 57>    C       -2.60715       -14.27842         0.06488
| 58>    C       -2.36380       -15.70866         0.34350
| 59>    C       -2.80584       -16.77754        -0.37077
| 60>    C       -2.32923       -17.98726         0.24368
| 61>    C       -1.54874       -17.55833         1.42225
| 62>    C       -1.57444       -16.20178         1.46426
| 63>    C       -0.89860       -18.37644         2.35216
| 64>    N       -0.35972       -19.00990         3.14441
| 65>    C       -2.51519       -19.27293        -0.18022
| 66>    C       -1.96942       -20.46746         0.39775
| 67>    C       -2.26035       -21.53137        -0.41584
| 68>    C       -3.08295       -21.04505        -1.51840
| 69>    C       -3.25738       -19.70660        -1.37657
| 70>    C       -4.02417       -18.90315        -2.22895
| 71>    N       -4.66734       -18.27649        -2.94452
| 72>    C       -1.85736       -22.88337        -0.21579
| 73>    C       -1.65437       -23.83113        -1.16468
| 74>    C       -1.62833       -25.27750        -0.79457
| 75>    O       -1.54714       -25.73561         0.31895
| 76>    C       -1.78445       -26.00155        -2.07198
| 77>    C       -1.93391       -27.34240        -2.28232
| 78>    C       -2.08362       -27.81802        -3.60403
| 79>    C       -2.08322       -26.88997        -4.68637
| 80>    C       -2.23673       -27.37112        -6.00227
| 81>    C       -2.38012       -28.71046        -6.23313
| 82>    C       -2.37939       -29.62764        -5.16203
| 83>    C       -2.23453       -29.19212        -3.87462
| 84>    F       -2.52301       -30.93342        -5.41836
| 85>    F       -2.52327       -29.16629        -7.48295
| 86>    C       -1.92298       -25.50769        -4.43929
| 87>    C       -1.76801       -25.07019        -3.15061
| 88>    C       -1.53965       -23.73495        -2.60695
| 89>    C       -1.06717       -22.65699        -3.30707
| 90>    C       -0.57272       -21.48083        -2.70313
| 91>    N       -0.09147       -20.53514        -2.26576
| 92>    C       -0.91877       -22.64136        -4.71029
| 93>    N       -0.80397       -22.57969        -5.85006
| 94>    H      -12.35308         0.20693         6.91819
| 95>    H      -11.53368        -4.13253         9.17271
| 96>    H      -10.55802        -0.25130         5.33230
| 97>    H       -9.69295        -4.62821         7.56230
| 98>    H       -6.70411        -2.98981         2.30880
| 99>    H       -6.15242        -5.57215         1.32060
|100>    H       -5.22493        -4.66748         5.44773
|101>    H       -3.72951        -9.14315         3.78052
|102>    H       -4.74963       -10.11558        -0.30457
|103>    H       -3.08774       -11.54442         3.01709
|104>    H       -2.72442       -13.85850         2.16683
|105>    H       -3.12223       -11.78081        -0.04301
|106>    H       -0.76327       -12.35908         1.55383
|107>    H       -0.38335       -14.06892         0.11138
|108>    H       -1.17695       -13.16112        -1.18074
|109>    H       -3.23494       -14.17560        -0.82237
|110>    H       -3.41003       -16.74529        -1.25555
|111>    H       -1.08839       -15.58978         2.20260
|112>    H       -1.36615       -20.49906         1.28361
|113>    H       -3.52200       -21.66424        -2.27965
|114>    H       -1.74654       -23.21061         0.81313
|115>    H       -1.93566       -28.03097        -1.45115
|116>    H       -2.23593       -26.68340        -6.83346
|117>    H       -2.23585       -29.90651        -3.06635
|118>    H       -1.93422       -24.82657        -5.27535
|119> *
|120>
|121>                          ****END OF INPUT****

CARTESIAN COORDINATES (ANGSTROEM)
---------------------------------
  C    -12.161880   -0.740820    7.396800
  C    -12.917450   -1.120160    8.470660
  F    -13.889420   -0.321370    8.925110
  C    -12.685030   -2.354220    9.112830
  F    -13.441480   -2.699100   10.161200
  C    -11.699130   -3.191650    8.671630
  C    -10.903960   -2.829050    7.566970
  C    -11.137340   -1.581690    6.916760
  C    -10.352220   -1.197450    5.806230
  C     -9.362090   -2.033790    5.359270
  C     -9.139570   -3.279090    6.012900
  C     -9.883010   -3.677810    7.087150
  C     -8.051420   -4.004160    5.336980
  O     -7.643400   -5.115440    5.593230
  C     -7.624550   -3.125660    4.211440
  C     -8.411620   -1.903460    4.260070
  C     -8.243770   -0.802680    3.466210
  C     -7.257790   -0.684150    2.461980
  N     -6.466980   -0.520820    1.646970
  C     -9.019140    0.372640    3.571580
  N     -9.620810    1.348490    3.612820
  C     -6.773460   -3.540150    3.238830
  C     -5.987550   -4.732110    3.327090
  C     -5.767340   -5.631970    2.320070
  C     -5.026070   -6.748570    2.846250
  C     -4.720560   -6.404190    4.244160
  C     -5.302640   -5.210390    4.525380
  C     -3.938320   -7.145220    5.138280
  N     -3.290890   -7.727560    5.886930
  C     -4.731300   -7.920390    2.208920
  C     -4.087920   -9.079590    2.772240
  C     -4.025730  -10.056360    1.827610
  C     -4.637920   -9.557340    0.606240
  C     -5.058940   -8.282830    0.817680
  C     -5.694480   -7.475110   -0.131580
  N     -6.214110   -6.834150   -0.930600
  C     -3.509080  -11.413100    2.018590
  S     -4.788860  -12.788190    1.751400
  C     -3.169640  -13.494450    1.235310
  C     -2.690620  -12.088390    0.916910
  N     -1.272560  -12.235160    0.683520
  C     -1.251010  -13.456890   -0.132980
  C     -2.607150  -14.278420    0.064880
  C     -2.363800  -15.708660    0.343500
  C     -2.805840  -16.777540   -0.370770
  C     -2.329230  -17.987260    0.243680
  C     -1.548740  -17.558330    1.422250
  C     -1.574440  -16.201780    1.464260
  C     -0.898600  -18.376440    2.352160
  N     -0.359720  -19.009900    3.144410
  C     -2.515190  -19.272930   -0.180220
  C     -1.969420  -20.467460    0.397750
  C     -2.260350  -21.531370   -0.415840
  C     -3.082950  -21.045050   -1.518400
  C     -3.257380  -19.706600   -1.376570
  C     -4.024170  -18.903150   -2.228950
  N     -4.667340  -18.276490   -2.944520
  C     -1.857360  -22.883370   -0.215790
  C     -1.654370  -23.831130   -1.164680
  C     -1.628330  -25.277500   -0.794570
  O     -1.547140  -25.735610    0.318950
  C     -1.784450  -26.001550   -2.071980
  C     -1.933910  -27.342400   -2.282320
  C     -2.083620  -27.818020   -3.604030
  C     -2.083220  -26.889970   -4.686370
  C     -2.236730  -27.371120   -6.002270
  C     -2.380120  -28.710460   -6.233130
  C     -2.379390  -29.627640   -5.162030
  C     -2.234530  -29.192120   -3.874620
  F     -2.523010  -30.933420   -5.418360
  F     -2.523270  -29.166290   -7.482950
  C     -1.922980  -25.507690   -4.439290
  C     -1.768010  -25.070190   -3.150610
  C     -1.539650  -23.734950   -2.606950
  C     -1.067170  -22.656990   -3.307070
  C     -0.572720  -21.480830   -2.703130
  N     -0.091470  -20.535140   -2.265760
  C     -0.918770  -22.641360   -4.710290
  N     -0.803970  -22.579690   -5.850060
  H    -12.353080    0.206930    6.918190
  H    -11.533680   -4.132530    9.172710
  H    -10.558020   -0.251300    5.332300
  H     -9.692950   -4.628210    7.562300
  H     -6.704110   -2.989810    2.308800
  H     -6.152420   -5.572150    1.320600
  H     -5.224930   -4.667480    5.447730
  H     -3.729510   -9.143150    3.780520
  H     -4.749630  -10.115580   -0.304570
  H     -3.087740  -11.544420    3.017090
  H     -2.724420  -13.858500    2.166830
  H     -3.122230  -11.780810   -0.043010
  H     -0.763270  -12.359080    1.553830
  H     -0.383350  -14.068920    0.111380
  H     -1.176950  -13.161120   -1.180740
  H     -3.234940  -14.175600   -0.822370
  H     -3.410030  -16.745290   -1.255550
  H     -1.088390  -15.589780    2.202600
  H     -1.366150  -20.499060    1.283610
  H     -3.522000  -21.664240   -2.279650
  H     -1.746540  -23.210610    0.813130
  H     -1.935660  -28.030970   -1.451150
  H     -2.235930  -26.683400   -6.833460
  H     -2.235850  -29.906510   -3.066350
  H     -1.934220  -24.826570   -5.275350

 Total Charge           Charge          ....    0
 Multiplicity           Mult            ....    1
 Number of Electrons    NEL             ....  534
 Basis Dimension        Dim             .... 1235

ORBITAL ENERGIES
----------------

  NO   OCC          E(Eh)            E(eV)
   0   2.0000     -88.936156     -2420.0758
   1   2.0000     -24.807924      -675.0579
   2   2.0000     -24.807147      -675.0368
   3   2.0000     -24.805669      -674.9966
   4   2.0000     -24.805081      -674.9806
   5   2.0000     -19.238680      -523.5111
   6   2.0000     -19.229534      -523.2622
   7   2.0000     -14.430572      -392.6758
   8   2.0000     -14.430258      -392.6673
   9   2.0000     -14.430007      -392.6604
  10   2.0000     -14.427492      -392.5920
  11   2.0000     -14.418479      -392.3468
  12   2.0000     -14.416865      -392.3029
  13   2.0000     -14.415059      -392.2537
  14   2.0000     -14.413718      -392.2172
  15   2.0000     -14.411818      -392.1655
  16   2.0000     -10.392236      -282.7871
  17   2.0000     -10.391582      -282.7693
  18   2.0000     -10.389742      -282.7192
  19   2.0000     -10.389295      -282.7071
  20   2.0000     -10.387780      -282.6659
  21   2.0000     -10.380524      -282.4684
  22   2.0000     -10.361291      -281.9451
  23   2.0000     -10.361209      -281.9428
  24   2.0000     -10.357319      -281.8370
  25   2.0000     -10.356886      -281.8252
  26   2.0000     -10.337352      -281.2937
  27   2.0000     -10.336893      -281.2811
  28   2.0000     -10.334543      -281.2172
  29   2.0000     -10.333826      -281.1977
  30   2.0000     -10.333229      -281.1815
  31   2.0000     -10.332249      -281.1548
  32   2.0000     -10.332112      -281.1510
  33   2.0000     -10.332079      -281.1502
  34   2.0000     -10.331615      -281.1375
  35   2.0000     -10.331551      -281.1358
  36   2.0000     -10.329333      -281.0754
  37   2.0000     -10.327753      -281.0324
  38   2.0000     -10.326063      -280.9865
  39   2.0000     -10.322882      -280.8999
  40   2.0000     -10.322812      -280.8980
  41   2.0000     -10.322706      -280.8951
  42   2.0000     -10.322406      -280.8869
  43   2.0000     -10.321626      -280.8657
  44   2.0000     -10.321543      -280.8635
  45   2.0000     -10.321117      -280.8519
  46   2.0000     -10.320618      -280.8383
  47   2.0000     -10.320371      -280.8316
  48   2.0000     -10.320323      -280.8303
  49   2.0000     -10.320239      -280.8280
  50   2.0000     -10.319966      -280.8205
  51   2.0000     -10.319754      -280.8148
  52   2.0000     -10.318540      -280.7818
  53   2.0000     -10.318117      -280.7702
  54   2.0000     -10.317871      -280.7635
  55   2.0000     -10.317251      -280.7467
  56   2.0000     -10.317022      -280.7404
  57   2.0000     -10.316882      -280.7366
  58   2.0000     -10.316641      -280.7301
  59   2.0000     -10.316259      -280.7197
  60   2.0000     -10.316051      -280.7140
  61   2.0000     -10.315509      -280.6993
  62   2.0000     -10.314515      -280.6722
  63   2.0000     -10.313541      -280.6457
  64   2.0000     -10.313359      -280.6408
  65   2.0000     -10.311635      -280.5938
  66   2.0000     -10.311547      -280.5915
  67   2.0000     -10.311221      -280.5826
  68   2.0000     -10.310830      -280.5719
  69   2.0000     -10.309749      -280.5425
  70   2.0000     -10.309445      -280.5343
  71   2.0000     -10.308958      -280.5210
  72   2.0000     -10.308729      -280.5148
  73   2.0000     -10.307591      -280.4838
  74   2.0000     -10.307439      -280.4797
  75   2.0000     -10.306668      -280.4587
  76   2.0000     -10.305026      -280.4140
  77   2.0000     -10.293637      -280.1041
  78   2.0000     -10.290596      -280.0214
  79   2.0000      -8.031046      -218.5359
  80   2.0000      -6.001166      -163.3000
  81   2.0000      -5.998635      -163.2312
  82   2.0000      -5.989785      -162.9903
  83   2.0000      -1.331117       -36.2215
  84   2.0000      -1.328806       -36.1586
  85   2.0000      -1.316161       -35.8146
  86   2.0000      -1.313885       -35.7526
  87   2.0000      -1.154412       -31.4132
  88   2.0000      -1.145301       -31.1652
  89   2.0000      -1.050526       -28.5863
  90   2.0000      -1.035021       -28.1644
  91   2.0000      -1.034572       -28.1521
  92   2.0000      -1.026402       -27.9298
  93   2.0000      -1.025026       -27.8924
  94   2.0000      -1.017532       -27.6885
  95   2.0000      -1.015308       -27.6279
  96   2.0000      -1.011328       -27.5196
  97   2.0000      -1.008837       -27.4519
  98   2.0000      -1.007604       -27.4183
  99   2.0000      -1.006162       -27.3791
 100   2.0000      -0.995407       -27.0864
 101   2.0000      -0.995375       -27.0855
 102   2.0000      -0.993590       -27.0370
 103   2.0000      -0.991899       -26.9909
 104   2.0000      -0.989798       -26.9338
 105   2.0000      -0.988918       -26.9098
 106   2.0000      -0.951141       -25.8819
 107   2.0000      -0.945630       -25.7319
 108   2.0000      -0.944026       -25.6883
 109   2.0000      -0.923258       -25.1231
 110   2.0000      -0.921109       -25.0647
 111   2.0000      -0.907237       -24.6872
 112   2.0000      -0.905491       -24.6397
 113   2.0000      -0.902782       -24.5659
 114   2.0000      -0.898059       -24.4374
 115   2.0000      -0.894053       -24.3284
 116   2.0000      -0.875474       -23.8229
 117   2.0000      -0.867250       -23.5991
 118   2.0000      -0.861779       -23.4502
 119   2.0000      -0.857508       -23.3340
 120   2.0000      -0.853452       -23.2236
 121   2.0000      -0.852823       -23.2065
 122   2.0000      -0.850595       -23.1459
 123   2.0000      -0.840855       -22.8808
 124   2.0000      -0.818591       -22.2750
 125   2.0000      -0.811759       -22.0891
 126   2.0000      -0.791891       -21.5485
 127   2.0000      -0.781919       -21.2771
 128   2.0000      -0.781557       -21.2673
 129   2.0000      -0.775879       -21.1127
 130   2.0000      -0.772866       -21.0307
 131   2.0000      -0.761271       -20.7152
 132   2.0000      -0.751909       -20.4605
 133   2.0000      -0.751460       -20.4483
 134   2.0000      -0.733509       -19.9598
 135   2.0000      -0.732318       -19.9274
 136   2.0000      -0.731280       -19.8991
 137   2.0000      -0.727901       -19.8072
 138   2.0000      -0.725444       -19.7403
 139   2.0000      -0.722229       -19.6529
 140   2.0000      -0.715393       -19.4668
 141   2.0000      -0.701705       -19.0944
 142   2.0000      -0.696546       -18.9540
 143   2.0000      -0.694559       -18.8999
 144   2.0000      -0.686127       -18.6705
 145   2.0000      -0.681080       -18.5331
 146   2.0000      -0.678401       -18.4602
 147   2.0000      -0.674988       -18.3674
 148   2.0000      -0.668828       -18.1997
 149   2.0000      -0.666698       -18.1418
 150   2.0000      -0.663891       -18.0654
 151   2.0000      -0.655500       -17.8371
 152   2.0000      -0.653601       -17.7854
 153   2.0000      -0.652502       -17.7555
 154   2.0000      -0.649069       -17.6621
 155   2.0000      -0.642430       -17.4814
 156   2.0000      -0.634188       -17.2571
 157   2.0000      -0.628669       -17.1069
 158   2.0000      -0.625605       -17.0236
 159   2.0000      -0.623698       -16.9717
 160   2.0000      -0.608534       -16.5591
 161   2.0000      -0.605122       -16.4662
 162   2.0000      -0.598659       -16.2903
 163   2.0000      -0.596724       -16.2377
 164   2.0000      -0.595343       -16.2001
 165   2.0000      -0.593197       -16.1417
 166   2.0000      -0.593148       -16.1404
 167   2.0000      -0.586012       -15.9462
 168   2.0000      -0.582778       -15.8582
 169   2.0000      -0.578392       -15.7389
 170   2.0000      -0.577690       -15.7198
 171   2.0000      -0.565184       -15.3794
 172   2.0000      -0.563381       -15.3304
 173   2.0000      -0.558699       -15.2030
 174   2.0000      -0.556678       -15.1480
 175   2.0000      -0.556650       -15.1472
 176   2.0000      -0.554563       -15.0904
 177   2.0000      -0.554499       -15.0887
 178   2.0000      -0.552046       -15.0219
 179   2.0000      -0.549279       -14.9466
 180   2.0000      -0.548121       -14.9151
 181   2.0000      -0.546897       -14.8818
 182   2.0000      -0.544974       -14.8295
 183   2.0000      -0.543074       -14.7778
 184   2.0000      -0.541484       -14.7345
 185   2.0000      -0.539459       -14.6794
 186   2.0000      -0.537140       -14.6163
 187   2.0000      -0.535062       -14.5598
 188   2.0000      -0.534757       -14.5515
 189   2.0000      -0.533457       -14.5161
 190   2.0000      -0.526992       -14.3402
 191   2.0000      -0.526443       -14.3252
 192   2.0000      -0.524989       -14.2857
 193   2.0000      -0.521736       -14.1971
 194   2.0000      -0.520801       -14.1717
 195   2.0000      -0.518103       -14.0983
 196   2.0000      -0.516556       -14.0562
 197   2.0000      -0.514128       -13.9901
 198   2.0000      -0.513485       -13.9726
 199   2.0000      -0.511628       -13.9221
 200   2.0000      -0.507771       -13.8171
 201   2.0000      -0.504264       -13.7217
 202   2.0000      -0.499046       -13.5797
 203   2.0000      -0.498195       -13.5566
 204   2.0000      -0.497908       -13.5488
 205   2.0000      -0.495347       -13.4791
 206   2.0000      -0.493758       -13.4358
 207   2.0000      -0.492999       -13.4152
 208   2.0000      -0.488644       -13.2967
 209   2.0000      -0.486711       -13.2441
 210   2.0000      -0.482555       -13.1310
 211   2.0000      -0.479623       -13.0512
 212   2.0000      -0.475612       -12.9421
 213   2.0000      -0.474368       -12.9082
 214   2.0000      -0.473668       -12.8892
 215   2.0000      -0.471610       -12.8332
 216   2.0000      -0.462962       -12.5978
 217   2.0000      -0.462497       -12.5852
 218   2.0000      -0.458613       -12.4795
 219   2.0000      -0.458189       -12.4680
 220   2.0000      -0.457485       -12.4488
 221   2.0000      -0.457129       -12.4391
 222   2.0000      -0.455836       -12.4039
 223   2.0000      -0.452003       -12.2996
 224   2.0000      -0.450381       -12.2555
 225   2.0000      -0.449412       -12.2291
 226   2.0000      -0.447138       -12.1673
 227   2.0000      -0.445507       -12.1229
 228   2.0000      -0.444918       -12.1068
 229   2.0000      -0.444511       -12.0958
 230   2.0000      -0.442743       -12.0476
 231   2.0000      -0.441871       -12.0239
 232   2.0000      -0.440308       -11.9814
 233   2.0000      -0.438906       -11.9433
 234   2.0000      -0.438668       -11.9368
 235   2.0000      -0.437684       -11.9100
 236   2.0000      -0.437475       -11.9043
 237   2.0000      -0.432141       -11.7592
 238   2.0000      -0.428110       -11.6495
 239   2.0000      -0.424826       -11.5601
 240   2.0000      -0.424564       -11.5530
 241   2.0000      -0.423482       -11.5235
 242   2.0000      -0.421387       -11.4665
 243   2.0000      -0.416832       -11.3426
 244   2.0000      -0.409273       -11.1369
 245   2.0000      -0.407108       -11.0780
 246   2.0000      -0.404991       -11.0204
 247   2.0000      -0.404006       -10.9936
 248   2.0000      -0.396873       -10.7995
 249   2.0000      -0.393909       -10.7188
 250   2.0000      -0.390350       -10.6220
 251   2.0000      -0.369731       -10.0609
 252   2.0000      -0.366795        -9.9810
 253   2.0000      -0.361994        -9.8504
 254   2.0000      -0.349341        -9.5060
 255   2.0000      -0.338623        -9.2144
 256   2.0000      -0.331645        -9.0245
 257   2.0000      -0.327595        -8.9143
 258   2.0000      -0.327089        -8.9005
 259   2.0000      -0.325633        -8.8609
 260   2.0000      -0.317533        -8.6405
 261   2.0000      -0.315731        -8.5915
 262   2.0000      -0.313851        -8.5403
 263   2.0000      -0.310063        -8.4372
 264   2.0000      -0.309153        -8.4125
 265   2.0000      -0.303186        -8.2501
 266   2.0000      -0.298315        -8.1176
 267   0.0000      -0.131567        -3.5801
 268   0.0000      -0.130552        -3.5525
 269   0.0000      -0.096567        -2.6277
 270   0.0000      -0.093908        -2.5554
 271   0.0000      -0.073588        -2.0024

MULLIKEN ATOMIC CHARGES
-----------------------
   0 C :   -0.104241
   1 C :    0.243915
   2 F :   -0.166741
   3 C :    0.239186
   4 F :   -0.167077
   5 C :   -0.101153
   6 C :    0.113556
   7 C :    0.113517
   8 C :   -0.081525
   9 C :    0.056433
  10 C :   -0.010936
  11 C :   -0.070516
  12 C :    0.144518
  13 O :   -0.136584
  14 C :   -0.094198
  15 C :    0.307097
  16 C :   -0.326647
  17 C :   -0.199020
  18 N :    0.173985
  19 C :   -0.182212
  20 N :    0.160819
  21 C :   -0.010190
  22 C :    0.061310
  23 C :   -0.054572
  24 C :    0.100636
  25 C :   -0.123923
  26 C :    0.090674
  27 C :   -0.179248
  28 N :    0.131661
  29 C :    0.099197
  30 C :   -0.095089
  31 C :    0.146062
  32 C :    0.005060
  33 C :   -0.096223
  34 C :   -0.183017
  35 N :    0.138034
  36 C :   -0.097924
  37 S :    0.012074
  38 C :   -0.097740
  39 C :    0.049103
  40 N :   -0.184180
  41 C :    0.165265
  42 C :   -0.011723
  43 C :    0.087994
  44 C :   -0.105183
  45 C :    0.103491
  46 C :   -0.085084
  47 C :   -0.015568
  48 C :   -0.182667
  49 N :    0.141903
  50 C :    0.104685
  51 C :   -0.039514
  52 C :    0.049062
  53 C :   -0.008978
  54 C :   -0.081087
  55 C :   -0.179117
  56 N :    0.150796
  57 C :    0.042219
  58 C :   -0.119204
  59 C :    0.143234
  60 O :   -0.127264
  61 C :    0.006323
  62 C :   -0.077303
  63 C :    0.112889
  64 C :    0.111724
  65 C :   -0.106027
  66 C :    0.242098
  67 C :    0.239705
  68 C :   -0.102296
  69 F :   -0.168817
  70 F :   -0.167788
  71 C :   -0.080954
  72 C :    0.040546
  73 C :    0.265107
  74 C :   -0.341030
  75 C :   -0.183669
  76 N :    0.175878
  77 C :   -0.176916
  78 N :    0.162580
  79 H :    0.009471
  80 H :    0.003296
  81 H :   -0.004320
  82 H :   -0.005869
  83 H :    0.046549
  84 H :    0.013473
  85 H :    0.003964
  86 H :    0.000986
  87 H :    0.007722
  88 H :    0.031737
  89 H :    0.038647
  90 H :    0.020573
  91 H :    0.099257
  92 H :    0.021922
  93 H :    0.027016
  94 H :    0.006597
  95 H :   -0.000107
  96 H :   -0.000697
  97 H :    0.012046
  98 H :    0.013173
  99 H :    0.036651
 100 H :   -0.003860
 101 H :    0.010198
 102 H :    0.003366
 103 H :   -0.000982
Sum of atomic charges:   -0.0000000

LOEWDIN ATOMIC CHARGES
----------------------
   0 C :   -0.028022
   1 C :    0.069588
   2 F :   -0.044664
   3 C :    0.069973
   4 F :   -0.045030
   5 C :   -0.031321
   6 C :   -0.007763
   7 C :   -0.004406
   8 C :    0.020679
   9 C :   -0.023225
  10 C :   -0.056034
  11 C :    0.036010
  12 C :    0.086777
  13 O :   -0.121278
  14 C :   -0.077647
  15 C :    0.070879
  16 C :   -0.123075
  17 C :   -0.023616
  18 N :   -0.035432
  19 C :   -0.017359
  20 N :   -0.040609
  21 C :    0.077900
  22 C :   -0.026422
  23 C :    0.023726
  24 C :    0.039122
  25 C :   -0.095527
  26 C :    0.083541
  27 C :   -0.028203
  28 N :   -0.066181
  29 C :    0.043255
  30 C :   -0.016901
  31 C :   -0.029229
  32 C :    0.057377
  33 C :   -0.084352
  34 C :   -0.031798
  35 N :   -0.060159
  36 C :   -0.077914
  37 S :    0.214802
  38 C :   -0.123328
  39 C :   -0.009869
  40 N :   -0.099433
  41 C :    0.048063
  42 C :   -0.041973
  43 C :    0.000160
  44 C :   -0.032852
  45 C :    0.057423
  46 C :   -0.076451
  47 C :    0.047009
  48 C :   -0.032475
  49 N :   -0.056844
  50 C :    0.034397
  51 C :    0.029039
  52 C :   -0.036517
  53 C :    0.051365
  54 C :   -0.071934
  55 C :   -0.029586
  56 N :   -0.055910
  57 C :    0.075678
  58 C :   -0.076656
  59 C :    0.083920
  60 O :   -0.129364
  61 C :   -0.056114
  62 C :    0.034503
  63 C :   -0.008199
  64 C :   -0.004821
  65 C :   -0.029217
  66 C :    0.068998
  67 C :    0.069160
  68 C :   -0.031574
  69 F :   -0.046320
  70 F :   -0.045568
  71 C :    0.016706
  72 C :   -0.022724
  73 C :    0.064236
  74 C :   -0.126885
  75 C :   -0.020355
  76 N :   -0.038514
  77 C :   -0.018811
  78 N :   -0.039690
  79 H :    0.048722
  80 H :    0.046334
  81 H :    0.040846
  82 H :    0.042302
  83 H :    0.054220
  84 H :    0.040544
  85 H :    0.037928
  86 H :    0.036616
  87 H :    0.037066
  88 H :    0.032398
  89 H :    0.013431
  90 H :    0.024034
  91 H :    0.055960
  92 H :    0.024658
  93 H :    0.029425
  94 H :    0.038210
  95 H :    0.036454
  96 H :    0.033239
  97 H :    0.040768
  98 H :    0.037717
  99 H :    0.055357
 100 H :    0.042463
 101 H :    0.048508
 102 H :    0.046104
 103 H :    0.040560

  Mayer bond orders larger than 0.100000
B(  0-C ,  1-C ) :   1.4421 B(  0-C ,  5-C ) :   0.1075 B(  0-C ,  7-C ) :   1.1898
B(  0-C , 79-H ) :   1.0064 B(  1-C ,  2-F ) :   1.1386 B(  1-C ,  3-C ) :   1.1871
B(  3-C ,  4-F ) :   1.1385 B(  3-C ,  5-C ) :   1.4459 B(  5-C ,  6-C ) :   1.1894
B(  5-C , 80-H ) :   1.0069 B(  6-C ,  7-C ) :   1.2504 B(  6-C , 11-C ) :   1.1958
B(  7-C ,  8-C ) :   1.2200 B(  8-C ,  9-C ) :   1.4470 B(  8-C , 81-H ) :   0.9902
B(  9-C , 10-C ) :   1.2157 B(  9-C , 15-C ) :   0.9973 B( 10-C , 11-C ) :   1.4661
B( 10-C , 12-C ) :   0.9497 B( 11-C , 82-H ) :   1.0166 B( 12-C , 13-O ) :   2.2050
B( 12-C , 14-C ) :   0.9384 B( 14-C , 15-C ) :   1.0289 B( 14-C , 21-C ) :   1.6755
B( 15-C , 16-C ) :   1.6729 B( 16-C , 17-C ) :   1.1371 B( 16-C , 19-C ) :   1.1406
B( 17-C , 18-N ) :   2.9901 B( 19-C , 20-N ) :   2.9675 B( 21-C , 22-C ) :   1.0574
B( 21-C , 83-H ) :   0.9489 B( 22-C , 23-C ) :   1.5768 B( 22-C , 26-C ) :   1.0409
B( 23-C , 24-C ) :   1.0749 B( 23-C , 84-H ) :   1.0049 B( 24-C , 25-C ) :   1.1134
B( 24-C , 29-C ) :   1.4752 B( 25-C , 26-C ) :   1.6810 B( 25-C , 27-C ) :   1.0928
B( 26-C , 85-H ) :   1.0073 B( 27-C , 28-N ) :   2.9707 B( 29-C , 30-C ) :   1.0670
B( 29-C , 33-C ) :   1.1055 B( 30-C , 31-C ) :   1.6342 B( 30-C , 86-H ) :   1.0115
B( 31-C , 32-C ) :   1.0556 B( 31-C , 36-C ) :   0.9788 B( 32-C , 33-C ) :   1.6703
B( 32-C , 87-H ) :   1.0142 B( 33-C , 34-C ) :   1.0898 B( 34-C , 35-N ) :   2.9675
B( 36-C , 37-S ) :   1.0077 B( 36-C , 39-C ) :   0.8917 B( 36-C , 88-H ) :   0.9172
B( 37-S , 38-C ) :   0.9831 B( 38-C , 39-C ) :   0.9718 B( 38-C , 42-C ) :   1.0156
B( 38-C , 89-H ) :   0.9247 B( 39-C , 40-N ) :   1.0957 B( 39-C , 90-H ) :   0.9252
B( 40-N , 41-C ) :   1.0757 B( 40-N , 91-H ) :   0.9424 B( 41-C , 42-C ) :   0.9832
B( 41-C , 92-H ) :   0.9493 B( 41-C , 93-H ) :   0.9429 B( 42-C , 43-C ) :   0.9810
B( 42-C , 94-H ) :   0.8983 B( 43-C , 44-C ) :   1.6627 B( 43-C , 47-C ) :   1.0421
B( 44-C , 45-C ) :   1.0736 B( 44-C , 95-H ) :   1.0135 B( 45-C , 46-C ) :   1.0973
B( 45-C , 50-C ) :   1.4636 B( 46-C , 47-C ) :   1.6902 B( 46-C , 48-C ) :   1.0875
B( 47-C , 96-H ) :   1.0083 B( 48-C , 49-N ) :   2.9681 B( 50-C , 51-C ) :   1.0853
B( 50-C , 54-C ) :   1.1110 B( 51-C , 52-C ) :   1.5623 B( 51-C , 97-H ) :   1.0040
B( 52-C , 53-C ) :   1.0419 B( 52-C , 57-C ) :   1.0372 B( 53-C , 54-C ) :   1.6814
B( 53-C , 98-H ) :   1.0176 B( 54-C , 55-C ) :   1.0949 B( 55-C , 56-N ) :   2.9764
B( 57-C , 58-C ) :   1.6894 B( 57-C , 99-H ) :   0.9562 B( 58-C , 59-C ) :   0.9245
B( 58-C , 73-C ) :   1.0274 B( 59-C , 60-O ) :   2.2903 B( 59-C , 61-C ) :   0.9179
B( 61-C , 62-C ) :   1.4736 B( 61-C , 72-C ) :   1.2189 B( 62-C , 63-C ) :   1.1984
B( 62-C ,100-H ) :   1.0160 B( 63-C , 64-C ) :   1.2507 B( 63-C , 68-C ) :   1.1941
B( 64-C , 65-C ) :   1.1893 B( 64-C , 71-C ) :   1.2195 B( 65-C , 66-C ) :   1.4441
B( 65-C , 68-C ) :   0.1076 B( 65-C ,101-H ) :   1.0068 B( 66-C , 67-C ) :   1.1875
B( 66-C , 70-F ) :   1.1382 B( 67-C , 68-C ) :   1.4454 B( 67-C , 69-F ) :   1.1362
B( 68-C ,102-H ) :   1.0068 B( 71-C , 72-C ) :   1.4525 B( 71-C ,103-H ) :   0.9940
B( 72-C , 73-C ) :   1.0055 B( 73-C , 74-C ) :   1.6583 B( 74-C , 75-C ) :   1.1577
B( 74-C , 77-C ) :   1.1349 B( 75-C , 76-N ) :   2.9887 B( 77-C , 78-N ) :   2.9858

-----------------------------------------------------------------------------
         ABSORPTION SPECTRUM VIA TRANSITION ELECTRIC DIPOLE MOMENTS
-----------------------------------------------------------------------------
State   Energy  Wavelength   fosc         T2         TX        TY        TZ
        (cm-1)    (nm)                  (au**2)     (au)      (au)      (au)
-----------------------------------------------------------------------------
   0   18084.8    553.0   0.339223639   6.17517  -0.08715  -2.15495  -1.23440
   1   19383.6    515.9   0.180881544   3.07211  -0.63263   1.38642   0.86587
   2   20124.7    496.9   0.028738323   0.47012   0.13855  -0.46561  -0.48387
   3   20305.2    492.5   0.003667172   0.05946   0.13120   0.12330   0.16444
   4   22457.0    445.3   0.273476202   4.00906   0.57253  -1.82993  -0.57674
   5   23803.5    420.1   0.055865246   0.77264   0.12685  -0.83945  -0.22775
   6   23810.8    420.0   0.044674647   0.61768  -0.05995   0.75217   0.21984
   7   24042.1    415.9   0.002451733   0.03357   0.14305   0.11149  -0.02605
   8   24396.1    409.9   0.232194247   3.13334   0.57465  -1.61514  -0.44095
   9   24913.4    401.4   0.220973165   2.91999  -0.10199   1.60283   0.58355
  10   25481.7    392.4   0.188433365   2.43447   0.94855  -0.78865  -0.95539
  11   26039.0    384.0   0.126331812   1.59722  -0.65363   0.62216   0.88482
  12   26746.0    373.9   0.074256982   0.91401  -0.13169   0.68171   0.65722
  13   27494.5    363.7   0.073580652   0.88103   0.71515  -0.43136  -0.42840
  14   28062.3    356.4   0.131347657   1.54090   0.10690  -1.09998  -0.56525
  15   28288.6    353.5   0.238249827   2.77266  -0.60891   1.54957   0.02716
  16   28439.5    351.6   0.423808379   4.90594   0.31475   1.91913   1.06010
  17   28892.3    346.1   0.035812159   0.40806  -0.00005   0.53477   0.34940
  18   29861.6    334.9   0.377893025   4.16611  -0.82646   1.60778   0.94769
  19   30426.8    328.7   0.001542540   0.01669  -0.05986   0.09259   0.06734
  20   30834.3    324.3   0.295868102   3.15893  -0.35113  -1.62454  -0.62968
  21   31307.1    319.4   0.089327980   0.93933  -0.20486  -0.86007  -0.39705
  22   31336.8    319.1   0.006231481   0.06547   0.05042   0.22541   0.11007
  23   31727.6    315.2   0.398855631   4.13861  -1.22626   0.22920   1.60697
  24   31803.3    314.4   0.037300644   0.38612   0.39121  -0.02262  -0.48225
  25   31906.6    313.4   0.105407279   1.08759  -0.03482   0.80606   0.66079
  26   32029.2    312.2   0.397651401   4.08726   1.34234  -0.52018  -1.41943
  27   32420.0    308.5   0.027431227   0.27855   0.18048  -0.34844  -0.35294
  28   32698.2    305.8   0.065665503   0.66113   0.23156   0.77942   0.00321
  29   33446.3    299.0   0.021903532   0.21560  -0.18045  -0.31415   0.29042
  30   33513.0    298.4   0.040970448   0.40247  -0.57392   0.03784   0.26767
  31   33685.5    296.9   0.000020227   0.00020   0.00146   0.00877   0.01089
  32   34174.1    292.6   0.286556053   2.76051   0.03562  -1.65572  -0.13349
  33   34273.8    291.8   0.040021001   0.38442   0.47904  -0.32184  -0.22661
  34   34309.6    291.5   0.000052051   0.00050   0.01219  -0.01724  -0.00732
  35   34600.6    289.0   0.002526861   0.02404  -0.02669  -0.15236  -0.01082
  36   34739.1    287.9   0.160077343   1.51701  -0.25819  -1.19891  -0.11388
  37   35290.1    283.4   0.169545844   1.58165  -0.49489  -1.10873   0.32781
  38   35801.5    279.3   0.543787293   5.00039   0.52419   2.17122   0.10681
  39   36113.1    276.9   0.041293314   0.37644  -0.06323  -0.57557   0.20287
  40   36340.2    275.2   0.459597610   4.16358   0.91336   0.92066  -1.57535
  41   36513.2    273.9   0.029857931   0.26921  -0.09542  -0.20685   0.46617
  42   36600.8    273.2   0.013841600   0.12450  -0.27151  -0.21326   0.07283
  43   36771.9    271.9   0.006166528   0.05521   0.04185  -0.03601   0.22839
  44   36855.1    271.3   0.003696283   0.03302   0.13462   0.11922   0.02612
  45   36949.0    270.6   0.012830047   0.11431  -0.02192   0.02672   0.33633
  46   37470.2    266.9   0.003218293   0.02828   0.07187  -0.08661  -0.12494
  47   37592.8    266.0   0.001961250   0.01718  -0.06423  -0.10377   0.04776
  48   37851.0    264.2   0.000022334   0.00019   0.00923  -0.00331  -0.00990
  49   37934.5    263.6   0.000013789   0.00012   0.00759  -0.00110  -0.00780
  50   38556.8    259.4   0.000681949   0.00582   0.07388   0.01657  -0.00951
  51   39259.3    254.7   0.004319568   0.03622  -0.06492   0.16452   0.07029
  52   39348.3    254.1   0.100755679   0.84298   0.60646  -0.67553  -0.13727
  53   39587.9    252.6   0.001481005   0.01232  -0.00065   0.06521   0.08979
  54   39779.2    251.4   0.161281951   1.33477  -1.11977   0.22998   0.16732
  55   40168.5    249.0   0.168369071   1.37992   0.05164  -0.56952  -1.02611

FINAL SINGLE POINT ENERGY     -3851.782455869867

DIPOLE MOMENT
-------------
                                X             Y             Z
Electronic contribution:    -27.76990      -7.94249       2.45492
Nuclear contribution   :     26.87219       6.20161      -0.91834
                        -----------------------------------------
Total Dipole Moment    :     -0.89770      -1.74088       1.53659
                        -----------------------------------------
Magnitude (a.u.)       :      2.48951
Magnitude (Debye)      :      6.32782

Rotational constants in cm-1:     0.002083     0.000134     0.000131
Rotational constants in MHz :    62.442111     4.004003     3.939405

                             ****ORCA TERMINATED NORMALLY****
TOTAL RUN TIME: 0 days 0 hours 10 minutes 17 seconds 405 msec
