                         Program Version 4.2.0 -  RELEASE  -
|  1> # ORCA input file
|  2> # SCF done       -194.406589216542          0.000300040158
|  3> ! CAM-B3LYP def2-SVP def2/J RIJCOSX Grid4 TightSCF
|  4> %maxcore 5000
|  5> %tddft
|  6>     Mode sTDDFT
|  7>     Ethresh 5.0
|  8>     maxcore 5000
|  9> end
| 10>
| 11> %pal
| 12>   nprocs 6
| 13>   end
| 14> * xyz 0 1
| 15>    C       -1.94115        -8.63120         9.20180
| 16>    C       -0.63432        -8.24447         9.30115
| 17>    F        0.09924        -8.61525        10.35885
| 18>    C       -0.04135        -7.45382         8.29606
| 19>    F        1.24261        -7.09098         8.41929
| 20>    C       -0.76432        -7.06044         7.20514
| 21>    C       -2.11320        -7.44381         7.07316
| 22>    C       -2.71449        -8.24268         8.08898
| 23>    C       -4.06633        -8.63960         7.97766
| 24>    C       -4.79415        -8.24899         6.88374
| 25>    C       -4.18445        -7.45635         5.87312
| 26>    C       -2.88138        -7.05751         5.95277
| 27>    C       -5.15882        -7.17983         4.79675
| 28>    O       -4.94320        -6.54334         3.79051
| 29>    C       -6.39211        -7.91841         5.18387
| 30>    C       -6.17730        -8.50313         6.49843
| 31>    C       -7.12339        -9.11368         7.27758
| 32>    C       -6.86729        -9.63787         8.56228
| 33>    N       -6.71622       -10.08660         9.60787
| 34>    C       -8.48101        -9.27538         6.92638
| 35>    N       -9.59990        -9.43114         6.72147
| 36>    C       -7.43515        -8.21009         4.36035
| 37>    C       -7.74333        -7.62503         3.08479
| 38>    C       -7.51102        -6.26089         2.80996
| 39>    C       -7.80241        -5.69703         1.59149
| 40>    C       -8.32690        -6.52703         0.60370
| 41>    C       -8.58785        -7.89106         0.89037
| 42>    C       -8.33541        -8.45075         2.11642
| 43>    O       -9.09674        -8.45454        -0.23572
| 44>    C       -9.11937        -7.43496        -1.14364
| 45>    N       -8.68146        -6.29042        -0.68674
| 46>    C       -9.56661        -7.64254        -2.46763
| 47>    S       -9.52866        -6.31188        -3.56070
| 48>    C      -10.07104        -7.28344        -4.88736
| 49>    C      -10.33455        -8.59898        -4.47143
| 50>    C      -10.03308        -8.80917        -3.09047
| 51>    C      -10.22587       -10.07543        -2.50876
| 52>    C      -10.73363       -11.10345        -3.25916
| 53>    C      -10.95139       -12.46336        -2.67626
| 54>    C      -11.08718       -10.87236        -4.60917
| 55>    C      -10.90209        -9.65998        -5.20739
| 56>    C      -10.15180        -6.68466        -6.17639
| 57>    C      -10.03238        -7.33916        -7.35237
| 58>    C      -10.11309        -6.74590        -8.66376
| 59>    C       -9.65637        -7.51138        -9.76399
| 60>    C       -9.68884        -7.05633       -11.05687
| 61>    C      -10.21713        -5.78389       -11.26986
| 62>    C      -10.68415        -5.01487       -10.17309
| 63>    C      -10.64039        -5.46886        -8.87440
| 64>    O      -11.15235        -3.84940       -10.66765
| 65>    C      -10.97809        -3.94963       -12.01709
| 66>    N      -10.42419        -5.06843       -12.40308
| 67>    C      -11.33859        -2.84510       -12.83470
| 68>    C      -11.33564        -2.79228       -14.18848
| 69>    C      -11.34020        -1.46455       -14.87346
| 70>    O      -11.63304        -0.40009       -14.38489
| 71>    C      -10.84930        -1.73893       -16.23789
| 72>    C      -10.55124        -0.85240       -17.23324
| 73>    C      -10.05668        -1.34069       -18.46287
| 74>    C       -9.87325        -2.74399       -18.63501
| 75>    C       -9.37034        -3.22339       -19.86149
| 76>    C       -9.06733        -2.35210       -20.86971
| 77>    C       -9.25155        -0.96480       -20.69911
| 78>    C       -9.73577        -0.46838       -19.52154
| 79>    F       -8.94565        -0.13458       -21.70468
| 80>    F       -8.59023        -2.80949       -22.03416
| 81>    C      -10.19786        -3.63855       -17.58987
| 82>    C      -10.68694        -3.14438       -16.40983
| 83>    C      -11.14248        -3.81865       -15.19663
| 84>    C      -11.53239        -5.12472       -15.11270
| 85>    C      -12.26838        -5.66475       -14.03446
| 86>    N      -12.96656        -6.14139       -13.25828
| 87>    C      -11.35580        -6.06040       -16.15366
| 88>    N      -11.21565        -6.85949       -16.96524
| 89>    H       -2.37975        -9.23509         9.98082
| 90>    H       -0.29633        -6.45589         6.44404
| 91>    H       -4.49035        -9.25054         8.75810
| 92>    H       -2.44411        -6.45621         5.17020
| 93>    H       -8.09412        -9.01836         4.65728
| 94>    H       -7.12191        -5.63672         3.59682
| 95>    H       -7.63043        -4.65260         1.39278
| 96>    H       -8.54229        -9.48997         2.31854
| 97>    H       -9.98170       -10.22007        -1.46869
| 98>    H      -12.00254       -12.74051        -2.74717
| 99>    H      -10.65137       -12.49440        -1.63246
|100>    H      -10.37629       -13.20581        -3.22856
|101>    H      -11.52560       -11.68467        -5.17020
|102>    H      -11.21777        -9.50079        -6.22547
|103>    H      -10.23898        -5.60658        -6.17123
|104>    H       -9.80232        -8.39478        -7.33904
|105>    H       -9.26130        -8.49659        -9.56364
|106>    H       -9.33952        -7.65069       -11.88466
|107>    H      -11.02172        -4.86767        -8.06636
|108>    H      -11.55817        -1.92562       -12.30511
|109>    H      -10.68990         0.20751       -17.08348
|110>    H       -9.22678        -4.28220       -20.01009
|111>    H       -9.87088         0.59566       -19.40658
|112>    H      -10.04363        -4.69457       -17.74382
|113> *
|114>
|115>                          ****END OF INPUT****

CARTESIAN COORDINATES (ANGSTROEM)
---------------------------------
  C     -1.941150   -8.631200    9.201800
  C     -0.634320   -8.244470    9.301150
  F      0.099240   -8.615250   10.358850
  C     -0.041350   -7.453820    8.296060
  F      1.242610   -7.090980    8.419290
  C     -0.764320   -7.060440    7.205140
  C     -2.113200   -7.443810    7.073160
  C     -2.714490   -8.242680    8.088980
  C     -4.066330   -8.639600    7.977660
  C     -4.794150   -8.248990    6.883740
  C     -4.184450   -7.456350    5.873120
  C     -2.881380   -7.057510    5.952770
  C     -5.158820   -7.179830    4.796750
  O     -4.943200   -6.543340    3.790510
  C     -6.392110   -7.918410    5.183870
  C     -6.177300   -8.503130    6.498430
  C     -7.123390   -9.113680    7.277580
  C     -6.867290   -9.637870    8.562280
  N     -6.716220  -10.086600    9.607870
  C     -8.481010   -9.275380    6.926380
  N     -9.599900   -9.431140    6.721470
  C     -7.435150   -8.210090    4.360350
  C     -7.743330   -7.625030    3.084790
  C     -7.511020   -6.260890    2.809960
  C     -7.802410   -5.697030    1.591490
  C     -8.326900   -6.527030    0.603700
  C     -8.587850   -7.891060    0.890370
  C     -8.335410   -8.450750    2.116420
  O     -9.096740   -8.454540   -0.235720
  C     -9.119370   -7.434960   -1.143640
  N     -8.681460   -6.290420   -0.686740
  C     -9.566610   -7.642540   -2.467630
  S     -9.528660   -6.311880   -3.560700
  C    -10.071040   -7.283440   -4.887360
  C    -10.334550   -8.598980   -4.471430
  C    -10.033080   -8.809170   -3.090470
  C    -10.225870  -10.075430   -2.508760
  C    -10.733630  -11.103450   -3.259160
  C    -10.951390  -12.463360   -2.676260
  C    -11.087180  -10.872360   -4.609170
  C    -10.902090   -9.659980   -5.207390
  C    -10.151800   -6.684660   -6.176390
  C    -10.032380   -7.339160   -7.352370
  C    -10.113090   -6.745900   -8.663760
  C     -9.656370   -7.511380   -9.763990
  C     -9.688840   -7.056330  -11.056870
  C    -10.217130   -5.783890  -11.269860
  C    -10.684150   -5.014870  -10.173090
  C    -10.640390   -5.468860   -8.874400
  O    -11.152350   -3.849400  -10.667650
  C    -10.978090   -3.949630  -12.017090
  N    -10.424190   -5.068430  -12.403080
  C    -11.338590   -2.845100  -12.834700
  C    -11.335640   -2.792280  -14.188480
  C    -11.340200   -1.464550  -14.873460
  O    -11.633040   -0.400090  -14.384890
  C    -10.849300   -1.738930  -16.237890
  C    -10.551240   -0.852400  -17.233240
  C    -10.056680   -1.340690  -18.462870
  C     -9.873250   -2.743990  -18.635010
  C     -9.370340   -3.223390  -19.861490
  C     -9.067330   -2.352100  -20.869710
  C     -9.251550   -0.964800  -20.699110
  C     -9.735770   -0.468380  -19.521540
  F     -8.945650   -0.134580  -21.704680
  F     -8.590230   -2.809490  -22.034160
  C    -10.197860   -3.638550  -17.589870
  C    -10.686940   -3.144380  -16.409830
  C    -11.142480   -3.818650  -15.196630
  C    -11.532390   -5.124720  -15.112700
  C    -12.268380   -5.664750  -14.034460
  N    -12.966560   -6.141390  -13.258280
  C    -11.355800   -6.060400  -16.153660
  N    -11.215650   -6.859490  -16.965240
  H     -2.379750   -9.235090    9.980820
  H     -0.296330   -6.455890    6.444040
  H     -4.490350   -9.250540    8.758100
  H     -2.444110   -6.456210    5.170200
  H     -8.094120   -9.018360    4.657280
  H     -7.121910   -5.636720    3.596820
  H     -7.630430   -4.652600    1.392780
  H     -8.542290   -9.489970    2.318540
  H     -9.981700  -10.220070   -1.468690
  H    -12.002540  -12.740510   -2.747170
  H    -10.651370  -12.494400   -1.632460
  H    -10.376290  -13.205810   -3.228560
  H    -11.525600  -11.684670   -5.170200
  H    -11.217770   -9.500790   -6.225470
  H    -10.238980   -5.606580   -6.171230
  H     -9.802320   -8.394780   -7.339040
  H     -9.261300   -8.496590   -9.563640
  H     -9.339520   -7.650690  -11.884660
  H    -11.021720   -4.867670   -8.066360
  H    -11.558170   -1.925620  -12.305110
  H    -10.689900    0.207510  -17.083480
  H     -9.226780   -4.282200  -20.010090
  H     -9.870880    0.595660  -19.406580
  H    -10.043630   -4.694570  -17.743820

 Total Charge           Charge          ....    0
 Multiplicity           Mult            ....    1
 Number of Electrons    NEL             ....  504
 Basis Dimension        Dim             .... 1160

ORBITAL ENERGIES
----------------

  NO   OCC          E(Eh)            E(eV)
   0   2.0000     -88.977261     -2421.1944
   1   2.0000     -24.802297      -674.9048
   2   2.0000     -24.801764      -674.8903
   3   2.0000     -24.798607      -674.8044
   4   2.0000     -24.797610      -674.7773
   5   2.0000     -19.313840      -525.5563
   6   2.0000     -19.305393      -525.3264
   7   2.0000     -19.227535      -523.2078
   8   2.0000     -19.216810      -522.9160
   9   2.0000     -14.430536      -392.6749
  10   2.0000     -14.424212      -392.5028
  11   2.0000     -14.416163      -392.2837
  12   2.0000     -14.416086      -392.2816
  13   2.0000     -14.415641      -392.2695
  14   2.0000     -14.408455      -392.0740
  15   2.0000     -10.387369      -282.6547
  16   2.0000     -10.385841      -282.6131
  17   2.0000     -10.385529      -282.6046
  18   2.0000     -10.383902      -282.5603
  19   2.0000     -10.381807      -282.5033
  20   2.0000     -10.381077      -282.4835
  21   2.0000     -10.378362      -282.4096
  22   2.0000     -10.369516      -282.1689
  23   2.0000     -10.352912      -281.7170
  24   2.0000     -10.349856      -281.6339
  25   2.0000     -10.346549      -281.5439
  26   2.0000     -10.343256      -281.4543
  27   2.0000     -10.341581      -281.4087
  28   2.0000     -10.338906      -281.3359
  29   2.0000     -10.329243      -281.0730
  30   2.0000     -10.325558      -280.9727
  31   2.0000     -10.320588      -280.8375
  32   2.0000     -10.319911      -280.8191
  33   2.0000     -10.318953      -280.7930
  34   2.0000     -10.318791      -280.7886
  35   2.0000     -10.318433      -280.7788
  36   2.0000     -10.318113      -280.7701
  37   2.0000     -10.316666      -280.7308
  38   2.0000     -10.316103      -280.7154
  39   2.0000     -10.315516      -280.6995
  40   2.0000     -10.314649      -280.6759
  41   2.0000     -10.312937      -280.6293
  42   2.0000     -10.311229      -280.5828
  43   2.0000     -10.310846      -280.5724
  44   2.0000     -10.310582      -280.5652
  45   2.0000     -10.309527      -280.5365
  46   2.0000     -10.307408      -280.4788
  47   2.0000     -10.307146      -280.4717
  48   2.0000     -10.305784      -280.4346
  49   2.0000     -10.304728      -280.4059
  50   2.0000     -10.302760      -280.3524
  51   2.0000     -10.302240      -280.3382
  52   2.0000     -10.302092      -280.3342
  53   2.0000     -10.301368      -280.3145
  54   2.0000     -10.300970      -280.3036
  55   2.0000     -10.300673      -280.2956
  56   2.0000     -10.298854      -280.2461
  57   2.0000     -10.298324      -280.2317
  58   2.0000     -10.295857      -280.1645
  59   2.0000     -10.295159      -280.1455
  60   2.0000     -10.295143      -280.1451
  61   2.0000     -10.293845      -280.1098
  62   2.0000     -10.293401      -280.0977
  63   2.0000     -10.293041      -280.0879
  64   2.0000     -10.290826      -280.0276
  65   2.0000     -10.290329      -280.0141
  66   2.0000     -10.288217      -279.9566
  67   2.0000     -10.286363      -279.9062
  68   2.0000     -10.283721      -279.8343
  69   2.0000     -10.282606      -279.8039
  70   2.0000     -10.277744      -279.6716
  71   2.0000     -10.277115      -279.6545
  72   2.0000     -10.272853      -279.5386
  73   2.0000     -10.269124      -279.4371
  74   2.0000      -8.071920      -219.6481
  75   2.0000      -6.040995      -164.3838
  76   2.0000      -6.036681      -164.2664
  77   2.0000      -6.034754      -164.2140
  78   2.0000      -1.325091       -36.0575
  79   2.0000      -1.321048       -35.9476
  80   2.0000      -1.310220       -35.6529
  81   2.0000      -1.306183       -35.5431
  82   2.0000      -1.243373       -33.8339
  83   2.0000      -1.232571       -33.5400
  84   2.0000      -1.143026       -31.1033
  85   2.0000      -1.133136       -30.8342
  86   2.0000      -1.041846       -28.3501
  87   2.0000      -1.027367       -27.9561
  88   2.0000      -1.024314       -27.8730
  89   2.0000      -1.019971       -27.7548
  90   2.0000      -1.009541       -27.4710
  91   2.0000      -1.005864       -27.3710
  92   2.0000      -1.004429       -27.3319
  93   2.0000      -0.997701       -27.1488
  94   2.0000      -0.994584       -27.0640
  95   2.0000      -0.988042       -26.8860
  96   2.0000      -0.982082       -26.7238
  97   2.0000      -0.972358       -26.4592
  98   2.0000      -0.965094       -26.2615
  99   2.0000      -0.942637       -25.6505
 100   2.0000      -0.939224       -25.5576
 101   2.0000      -0.931675       -25.3522
 102   2.0000      -0.921343       -25.0710
 103   2.0000      -0.912012       -24.8171
 104   2.0000      -0.903063       -24.5736
 105   2.0000      -0.898591       -24.4519
 106   2.0000      -0.893899       -24.3242
 107   2.0000      -0.891328       -24.2543
 108   2.0000      -0.882711       -24.0198
 109   2.0000      -0.871252       -23.7080
 110   2.0000      -0.861114       -23.4321
 111   2.0000      -0.859805       -23.3965
 112   2.0000      -0.852141       -23.1879
 113   2.0000      -0.846018       -23.0213
 114   2.0000      -0.842677       -22.9304
 115   2.0000      -0.840249       -22.8643
 116   2.0000      -0.836545       -22.7636
 117   2.0000      -0.817915       -22.2566
 118   2.0000      -0.805546       -21.9200
 119   2.0000      -0.786832       -21.4108
 120   2.0000      -0.776725       -21.1358
 121   2.0000      -0.773036       -21.0354
 122   2.0000      -0.767095       -20.8737
 123   2.0000      -0.765099       -20.8194
 124   2.0000      -0.747659       -20.3448
 125   2.0000      -0.739645       -20.1268
 126   2.0000      -0.737100       -20.0575
 127   2.0000      -0.726231       -19.7617
 128   2.0000      -0.723525       -19.6881
 129   2.0000      -0.720939       -19.6177
 130   2.0000      -0.713660       -19.4197
 131   2.0000      -0.709022       -19.2935
 132   2.0000      -0.707097       -19.2411
 133   2.0000      -0.698794       -19.0151
 134   2.0000      -0.698211       -18.9993
 135   2.0000      -0.690518       -18.7900
 136   2.0000      -0.687442       -18.7063
 137   2.0000      -0.680516       -18.5178
 138   2.0000      -0.679009       -18.4768
 139   2.0000      -0.662254       -18.0208
 140   2.0000      -0.659201       -17.9378
 141   2.0000      -0.655822       -17.8458
 142   2.0000      -0.653882       -17.7930
 143   2.0000      -0.648230       -17.6392
 144   2.0000      -0.645340       -17.5606
 145   2.0000      -0.641830       -17.4651
 146   2.0000      -0.636539       -17.3211
 147   2.0000      -0.628812       -17.1109
 148   2.0000      -0.619157       -16.8481
 149   2.0000      -0.618720       -16.8362
 150   2.0000      -0.616334       -16.7713
 151   2.0000      -0.607347       -16.5268
 152   2.0000      -0.603864       -16.4320
 153   2.0000      -0.598462       -16.2850
 154   2.0000      -0.593318       -16.1450
 155   2.0000      -0.592440       -16.1211
 156   2.0000      -0.589593       -16.0436
 157   2.0000      -0.588579       -16.0160
 158   2.0000      -0.585583       -15.9345
 159   2.0000      -0.585441       -15.9307
 160   2.0000      -0.584185       -15.8965
 161   2.0000      -0.582814       -15.8592
 162   2.0000      -0.577655       -15.7188
 163   2.0000      -0.570295       -15.5185
 164   2.0000      -0.564584       -15.3631
 165   2.0000      -0.559542       -15.2259
 166   2.0000      -0.556527       -15.1439
 167   2.0000      -0.554885       -15.0992
 168   2.0000      -0.551109       -14.9964
 169   2.0000      -0.550789       -14.9877
 170   2.0000      -0.547225       -14.8907
 171   2.0000      -0.546968       -14.8838
 172   2.0000      -0.544766       -14.8238
 173   2.0000      -0.542597       -14.7648
 174   2.0000      -0.540008       -14.6944
 175   2.0000      -0.537749       -14.6329
 176   2.0000      -0.536146       -14.5893
 177   2.0000      -0.532934       -14.5019
 178   2.0000      -0.531877       -14.4731
 179   2.0000      -0.527936       -14.3659
 180   2.0000      -0.525454       -14.2983
 181   2.0000      -0.523052       -14.2330
 182   2.0000      -0.521619       -14.1940
 183   2.0000      -0.518456       -14.1079
 184   2.0000      -0.517103       -14.0711
 185   2.0000      -0.516073       -14.0430
 186   2.0000      -0.514564       -14.0020
 187   2.0000      -0.511795       -13.9267
 188   2.0000      -0.506120       -13.7722
 189   2.0000      -0.504660       -13.7325
 190   2.0000      -0.503993       -13.7143
 191   2.0000      -0.500922       -13.6308
 192   2.0000      -0.498039       -13.5523
 193   2.0000      -0.496646       -13.5144
 194   2.0000      -0.492710       -13.4073
 195   2.0000      -0.491230       -13.3671
 196   2.0000      -0.490191       -13.3388
 197   2.0000      -0.484120       -13.1736
 198   2.0000      -0.480408       -13.0726
 199   2.0000      -0.473590       -12.8871
 200   2.0000      -0.471719       -12.8361
 201   2.0000      -0.470763       -12.8101
 202   2.0000      -0.468909       -12.7597
 203   2.0000      -0.468007       -12.7351
 204   2.0000      -0.464580       -12.6419
 205   2.0000      -0.463223       -12.6049
 206   2.0000      -0.460687       -12.5359
 207   2.0000      -0.460041       -12.5184
 208   2.0000      -0.456247       -12.4151
 209   2.0000      -0.452451       -12.3118
 210   2.0000      -0.451033       -12.2732
 211   2.0000      -0.450173       -12.2498
 212   2.0000      -0.448288       -12.1985
 213   2.0000      -0.446933       -12.1617
 214   2.0000      -0.446631       -12.1535
 215   2.0000      -0.443776       -12.0758
 216   2.0000      -0.441383       -12.0106
 217   2.0000      -0.438818       -11.9408
 218   2.0000      -0.434465       -11.8224
 219   2.0000      -0.432530       -11.7697
 220   2.0000      -0.431744       -11.7484
 221   2.0000      -0.431217       -11.7340
 222   2.0000      -0.429413       -11.6849
 223   2.0000      -0.427091       -11.6217
 224   2.0000      -0.425487       -11.5781
 225   2.0000      -0.423313       -11.5189
 226   2.0000      -0.418338       -11.3836
 227   2.0000      -0.416852       -11.3431
 228   2.0000      -0.412724       -11.2308
 229   2.0000      -0.410583       -11.1725
 230   2.0000      -0.406937       -11.0733
 231   2.0000      -0.399136       -10.8610
 232   2.0000      -0.392855       -10.6901
 233   2.0000      -0.387772       -10.5518
 234   2.0000      -0.381564       -10.3829
 235   2.0000      -0.377363       -10.2686
 236   2.0000      -0.368769       -10.0347
 237   2.0000      -0.368088       -10.0162
 238   2.0000      -0.351414        -9.5625
 239   2.0000      -0.346598        -9.4314
 240   2.0000      -0.343515        -9.3475
 241   2.0000      -0.340669        -9.2701
 242   2.0000      -0.330759        -9.0004
 243   2.0000      -0.322056        -8.7636
 244   2.0000      -0.319920        -8.7055
 245   2.0000      -0.318293        -8.6612
 246   2.0000      -0.316963        -8.6250
 247   2.0000      -0.308291        -8.3890
 248   2.0000      -0.305166        -8.3040
 249   2.0000      -0.298797        -8.1307
 250   2.0000      -0.288023        -7.8375
 251   2.0000      -0.243227        -6.6186
 252   0.0000      -0.108358        -2.9486
 253   0.0000      -0.093224        -2.5367
 254   0.0000      -0.071040        -1.9331
 255   0.0000      -0.063273        -1.7218
 256   0.0000      -0.057272        -1.5584

MULLIKEN ATOMIC CHARGES
-----------------------
   0 C :   -0.110956
   1 C :    0.242347
   2 F :   -0.171208
   3 C :    0.241868
   4 F :   -0.171795
   5 C :   -0.107640
   6 C :    0.118927
   7 C :    0.116308
   8 C :   -0.088635
   9 C :    0.056937
  10 C :   -0.007591
  11 C :   -0.084924
  12 C :    0.144847
  13 O :   -0.138181
  14 C :   -0.083522
  15 C :    0.298738
  16 C :   -0.344621
  17 C :   -0.180848
  18 N :    0.149019
  19 C :   -0.206492
  20 N :    0.162792
  21 C :   -0.029969
  22 C :    0.059040
  23 C :    0.079427
  24 C :   -0.066307
  25 C :    0.048089
  26 C :    0.255446
  27 C :   -0.138942
  28 O :   -0.211296
  29 C :    0.129997
  30 N :   -0.069604
  31 C :   -0.202551
  32 S :    0.238119
  33 C :   -0.113458
  34 C :    0.081543
  35 C :    0.143187
  36 C :   -0.081994
  37 C :   -0.033067
  38 C :    0.091594
  39 C :   -0.003441
  40 C :   -0.028116
  41 C :    0.049045
  42 C :   -0.016622
  43 C :    0.109058
  44 C :   -0.016310
  45 C :   -0.021921
  46 C :    0.032968
  47 C :    0.244226
  48 C :   -0.130038
  49 O :   -0.183908
  50 C :    0.129183
  51 N :   -0.064089
  52 C :    0.013865
  53 C :   -0.085107
  54 C :    0.136969
  55 O :   -0.129220
  56 C :    0.004764
  57 C :   -0.081464
  58 C :    0.114604
  59 C :    0.117452
  60 C :   -0.111000
  61 C :    0.245052
  62 C :    0.241309
  63 C :   -0.107410
  64 F :   -0.170089
  65 F :   -0.169763
  66 C :   -0.087627
  67 C :    0.048264
  68 C :    0.269118
  69 C :   -0.273398
  70 C :   -0.186410
  71 N :    0.162434
  72 C :   -0.188863
  73 N :    0.155186
  74 H :    0.007729
  75 H :   -0.000757
  76 H :   -0.005375
  77 H :   -0.010384
  78 H :    0.033422
  79 H :   -0.009984
  80 H :   -0.016024
  81 H :   -0.013679
  82 H :   -0.026649
  83 H :    0.031559
  84 H :    0.012601
  85 H :    0.029674
  86 H :   -0.025830
  87 H :   -0.021272
  88 H :   -0.005357
  89 H :   -0.005797
  90 H :   -0.015266
  91 H :   -0.012273
  92 H :   -0.014193
  93 H :    0.032431
  94 H :   -0.006077
  95 H :    0.008135
  96 H :    0.001558
  97 H :   -0.001519
Sum of atomic charges:    0.0000000

LOEWDIN ATOMIC CHARGES
----------------------
   0 C :   -0.029477
   1 C :    0.066408
   2 F :   -0.049038
   3 C :    0.067695
   4 F :   -0.049596
   5 C :   -0.033499
   6 C :   -0.008438
   7 C :   -0.006713
   8 C :    0.017133
   9 C :   -0.023658
  10 C :   -0.051783
  11 C :    0.029138
  12 C :    0.081301
  13 O :   -0.132198
  14 C :   -0.099095
  15 C :    0.075642
  16 C :   -0.138948
  17 C :   -0.017356
  18 N :   -0.053587
  19 C :   -0.025592
  20 N :   -0.049440
  21 C :    0.085490
  22 C :   -0.046989
  23 C :    0.022887
  24 C :   -0.026765
  25 C :   -0.007083
  26 C :    0.024502
  27 C :   -0.016388
  28 O :   -0.008194
  29 C :    0.062600
  30 N :   -0.127042
  31 C :   -0.228000
  32 S :    0.529220
  33 C :   -0.156697
  34 C :   -0.050739
  35 C :   -0.019004
  36 C :   -0.031722
  37 C :   -0.012419
  38 C :   -0.043397
  39 C :   -0.023634
  40 C :   -0.011063
  41 C :   -0.038762
  42 C :   -0.010387
  43 C :   -0.015540
  44 C :   -0.015560
  45 C :   -0.007686
  46 C :   -0.026568
  47 C :    0.043463
  48 C :   -0.033300
  49 O :    0.005482
  50 C :    0.053424
  51 N :   -0.066663
  52 C :    0.036091
  53 C :   -0.047512
  54 C :    0.084207
  55 O :   -0.130622
  56 C :   -0.057302
  57 C :    0.033619
  58 C :   -0.009879
  59 C :   -0.003530
  60 C :   -0.030438
  61 C :    0.068905
  62 C :    0.067458
  63 C :   -0.032108
  64 F :   -0.048269
  65 F :   -0.047389
  66 C :    0.012949
  67 C :   -0.017026
  68 C :    0.062227
  69 C :   -0.104360
  70 C :   -0.017926
  71 N :   -0.047481
  72 C :   -0.015427
  73 N :   -0.044748
  74 H :    0.047765
  75 H :    0.044767
  76 H :    0.039882
  77 H :    0.040056
  78 H :    0.045825
  79 H :    0.032923
  80 H :    0.038502
  81 H :    0.038383
  82 H :    0.025244
  83 H :    0.037748
  84 H :    0.030765
  85 H :    0.037333
  86 H :    0.028144
  87 H :    0.029608
  88 H :    0.029156
  89 H :    0.031443
  90 H :    0.031010
  91 H :    0.040129
  92 H :    0.035995
  93 H :    0.056269
  94 H :    0.041650
  95 H :    0.047917
  96 H :    0.045468
  97 H :    0.040216

  Mayer bond orders larger than 0.100000
B(  0-C ,  1-C ) :   1.4416 B(  0-C ,  5-C ) :   0.1091 B(  0-C ,  7-C ) :   1.1860
B(  0-C , 74-H ) :   1.0071 B(  1-C ,  2-F ) :   1.1346 B(  1-C ,  3-C ) :   1.1906
B(  3-C ,  4-F ) :   1.1331 B(  3-C ,  5-C ) :   1.4427 B(  5-C ,  6-C ) :   1.1909
B(  5-C , 75-H ) :   1.0078 B(  6-C ,  7-C ) :   1.2569 B(  6-C , 11-C ) :   1.1880
B(  7-C ,  8-C ) :   1.2178 B(  8-C ,  9-C ) :   1.4438 B(  8-C , 76-H ) :   0.9912
B(  9-C , 10-C ) :   1.2191 B(  9-C , 15-C ) :   0.9912 B( 10-C , 11-C ) :   1.4726
B( 10-C , 12-C ) :   0.9383 B( 11-C , 77-H ) :   1.0168 B( 12-C , 13-O ) :   2.2350
B( 12-C , 14-C ) :   0.9355 B( 14-C , 15-C ) :   1.0560 B( 14-C , 21-C ) :   1.6126
B( 15-C , 16-C ) :   1.6491 B( 16-C , 17-C ) :   1.1415 B( 16-C , 19-C ) :   1.1399
B( 17-C , 18-N ) :   2.9674 B( 19-C , 20-N ) :   2.9968 B( 21-C , 22-C ) :   1.1110
B( 21-C , 78-H ) :   0.9542 B( 22-C , 23-C ) :   1.3169 B( 22-C , 27-C ) :   1.2602
B( 23-C , 24-C ) :   1.4206 B( 23-C , 79-H ) :   0.9768 B( 24-C , 25-C ) :   1.2788
B( 24-C , 80-H ) :   1.0213 B( 25-C , 26-C ) :   1.2447 B( 25-C , 30-N ) :   1.3220
B( 26-C , 27-C ) :   1.3476 B( 26-C , 28-O ) :   1.0740 B( 27-C , 81-H ) :   1.0269
B( 28-O , 29-C ) :   1.1555 B( 29-C , 30-N ) :   1.7380 B( 29-C , 31-C ) :   1.1294
B( 31-C , 32-S ) :   1.1600 B( 31-C , 33-C ) :   0.1293 B( 31-C , 35-C ) :   1.3299
B( 32-S , 33-C ) :   1.1779 B( 33-C , 34-C ) :   1.3384 B( 33-C , 41-C ) :   1.1153
B( 34-C , 35-C ) :   1.2178 B( 34-C , 40-C ) :   1.1956 B( 35-C , 36-C ) :   1.2116
B( 36-C , 37-C ) :   1.5266 B( 36-C , 82-H ) :   0.9898 B( 37-C , 38-C ) :   1.0508
B( 37-C , 39-C ) :   1.2186 B( 38-C , 83-H ) :   0.9545 B( 38-C , 84-H ) :   0.9609
B( 38-C , 85-H ) :   0.9537 B( 39-C , 40-C ) :   1.5511 B( 39-C , 86-H ) :   0.9897
B( 40-C , 87-H ) :   0.9910 B( 41-C , 42-C ) :   1.6923 B( 41-C , 88-H ) :   0.9476
B( 42-C , 43-C ) :   1.0919 B( 42-C , 89-H ) :   0.9811 B( 43-C , 44-C ) :   1.2814
B( 43-C , 48-C ) :   1.3327 B( 44-C , 45-C ) :   1.4221 B( 44-C , 90-H ) :   0.9933
B( 45-C , 46-C ) :   1.2757 B( 45-C , 48-C ) :   0.1020 B( 45-C , 91-H ) :   1.0164
B( 46-C , 47-C ) :   1.2526 B( 46-C , 51-N ) :   1.3051 B( 47-C , 48-C ) :   1.3310
B( 47-C , 49-O ) :   1.1242 B( 48-C , 92-H ) :   1.0129 B( 49-O , 50-C ) :   1.1349
B( 50-C , 51-N ) :   1.6538 B( 50-C , 52-C ) :   1.0769 B( 52-C , 53-C ) :   1.6843
B( 52-C , 93-H ) :   0.9478 B( 53-C , 54-C ) :   0.9285 B( 53-C , 68-C ) :   1.0181
B( 54-C , 55-O ) :   2.2874 B( 54-C , 56-C ) :   0.9190 B( 56-C , 57-C ) :   1.4685
B( 56-C , 67-C ) :   1.2184 B( 57-C , 58-C ) :   1.1996 B( 57-C , 94-H ) :   1.0168
B( 58-C , 59-C ) :   1.2540 B( 58-C , 63-C ) :   1.1901 B( 59-C , 60-C ) :   1.1874
B( 59-C , 66-C ) :   1.2159 B( 60-C , 61-C ) :   1.4424 B( 60-C , 63-C ) :   0.1087
B( 60-C , 95-H ) :   1.0078 B( 61-C , 62-C ) :   1.1892 B( 61-C , 65-F ) :   1.1348
B( 62-C , 63-C ) :   1.4452 B( 62-C , 64-F ) :   1.1351 B( 63-C , 96-H ) :   1.0078
B( 66-C , 67-C ) :   1.4546 B( 66-C , 97-H ) :   0.9940 B( 67-C , 68-C ) :   1.0006
B( 68-C , 69-C ) :   1.7018 B( 69-C , 70-C ) :   1.1459 B( 69-C , 72-C ) :   1.1416
B( 70-C , 71-N ) :   2.9886 B( 72-C , 73-N ) :   2.9816

-----------------------------------------------------------------------------
         ABSORPTION SPECTRUM VIA TRANSITION ELECTRIC DIPOLE MOMENTS
-----------------------------------------------------------------------------
State   Energy  Wavelength   fosc         T2         TX        TY        TZ
        (cm-1)    (nm)                  (au**2)     (au)      (au)      (au)
-----------------------------------------------------------------------------
   0   16845.8    593.6   1.861720491  36.38303  -1.33960   1.31164  -5.73307
   1   19662.6    508.6   0.363330505   6.08327   1.07228   0.33392   2.19590
   2   24145.6    414.2   0.108042390   1.47310   0.05475   0.02354   1.21225
   3   25221.8    396.5   0.074752471   0.97572   0.47280  -0.03557   0.86655
   4   26225.1    381.3   0.150964067   1.89510   0.24090   0.51182  -1.25503
   5   26580.8    376.2   0.034783294   0.43080  -0.17980   0.20664  -0.59647
   6   27755.9    360.3   0.020077006   0.23813  -0.22251  -0.16081   0.40344
   7   27874.6    358.7   0.155200693   1.83299  -0.47430  -0.81027   0.97545
   8   28817.9    347.0   0.047322815   0.54061   0.55320  -0.48060   0.06006
   9   28851.9    346.6   0.053408150   0.60941   0.47104   0.61396  -0.10292
  10   29104.5    343.6   0.167901895   1.89920  -0.43640  -1.03373   0.80010
  11   29975.7    333.6   0.038300964   0.42065   0.13843   0.09553  -0.62638
  12   30352.1    329.5   0.359003232   3.89391   1.46839   0.32923   1.27646
  13   30524.9    327.6   0.037727159   0.40689   0.39836  -0.08488  -0.49091
  14   31483.0    317.6   0.143727538   1.50293   0.00211  -0.78051   0.94537
  15   32424.2    308.4   0.029419201   0.29870  -0.42036  -0.29343  -0.18946
  16   32637.5    306.4   0.074781879   0.75432  -0.70717  -0.50364  -0.02401
  17   33469.3    298.8   0.256018200   2.51825  -0.47611  -1.16105   0.97136
  18   33725.6    296.5   0.184052523   1.79663   0.41692  -0.75572   1.02552
  19   34214.3    292.3   0.032472357   0.31245  -0.14036  -0.36124   0.40281
  20   34349.3    291.1   0.056317020   0.53976  -0.07284   0.69383   0.23032
  21   34460.1    290.2   0.457584119   4.37150   0.25357   1.22014  -1.67883
  22   34767.6    287.6   1.009947980   9.56312  -2.96908  -0.85153  -0.15030
  23   35451.8    282.1   0.138325988   1.28452  -0.16142  -0.00135  -1.12181
  24   35659.8    280.4   0.027090143   0.25010   0.34777   0.23098  -0.27532
  25   36102.8    277.0   0.028942750   0.26392  -0.31043   0.34940   0.21324
  26   36185.2    276.4   0.007587065   0.06903  -0.17182  -0.10543   0.16849
  27   36898.6    271.0   0.112535912   1.00405   0.04427  -0.41944   0.90894
  28   36981.2    270.4   0.056401144   0.50209   0.04597   0.08367  -0.70212
  29   37171.3    269.0   0.017263358   0.15290  -0.02988  -0.37200   0.11668
  30   37386.3    267.5   0.005970384   0.05257   0.04940   0.19811   0.10433
  31   37565.1    266.2   0.018487857   0.16202  -0.30981  -0.19513  -0.16722
  32   37619.9    265.8   0.012673876   0.11091   0.13922  -0.08862   0.28927
  33   38445.9    260.1   0.226066648   1.93581  -0.85852  -0.96197   0.52283
  34   38895.7    257.1   0.012996060   0.11000  -0.19543  -0.25963  -0.06633
  35   39010.7    256.3   0.075744540   0.63921  -0.07179  -0.19696   0.77153
  36   39229.3    254.9   0.054594878   0.45816  -0.02789   0.42419   0.52673
  37   39510.4    253.1   0.025759005   0.21463  -0.16735   0.07235  -0.42590
  38   40074.8    249.5   0.034687160   0.28495  -0.03665   0.31141   0.43201

FINAL SINGLE POINT ENERGY     -3685.460802877726

DIPOLE MOMENT
-------------
                                X             Y             Z
Electronic contribution:     25.42247      29.56906     -14.20240
Nuclear contribution   :    -24.16017     -29.02917      12.27565
                        -----------------------------------------
Total Dipole Moment    :      1.26230       0.53989      -1.92676
                        -----------------------------------------
Magnitude (a.u.)       :      2.36586
Magnitude (Debye)      :      6.01353

Rotational constants in cm-1:     0.001986     0.000150     0.000144
Rotational constants in MHz :    59.524829     4.503484     4.310216

                             ****ORCA TERMINATED NORMALLY****
TOTAL RUN TIME: 0 days 0 hours 8 minutes 32 seconds 616 msec
