                         Program Version 4.2.0 -  RELEASE  -
|  1> # ORCA input file
|  2> # SCF done       -216.805356587296          0.000984530620
|  3> ! CAM-B3LYP def2-SVP def2/J RIJCOSX Grid4 TightSCF
|  4> %maxcore 5000
|  5> %tddft
|  6>     Mode sTDDFT
|  7>     Ethresh 5.0
|  8>     maxcore 5000
|  9> end
| 10>
| 11> %pal
| 12>   nprocs 6
| 13>   end
| 14> * xyz 0 1
| 15>    C       -4.02702         1.97147        -5.03141
| 16>    C       -4.98929         2.14662        -5.98599
| 17>    F       -5.19151         3.35486        -6.52378
| 18>    C       -5.77974         1.06080        -6.41648
| 19>    F       -6.71448         1.26270        -7.35270
| 20>    C       -5.59657        -0.18545        -5.88591
| 21>    C       -4.61265        -0.39802        -4.90059
| 22>    C       -3.81227         0.69857        -4.46515
| 23>    C       -2.81651         0.50889        -3.48054
| 24>    C       -2.62309        -0.74012        -2.94972
| 25>    C       -3.43021        -1.82756        -3.38715
| 26>    C       -4.40277        -1.67421        -4.33376
| 27>    C       -3.04880        -3.05075        -2.65881
| 28>    O       -3.58614        -4.13311        -2.72713
| 29>    C       -1.93304        -2.64775        -1.75668
| 30>    C       -1.67791        -1.22989        -1.95172
| 31>    C       -0.68531        -0.49252        -1.36333
| 32>    C        0.28147        -0.99588        -0.46544
| 33>    N        1.11072        -1.33558         0.25168
| 34>    C       -0.47807         0.88397        -1.60028
| 35>    N       -0.26215         2.00103        -1.74870
| 36>    C       -1.37553        -3.45033        -0.80814
| 37>    C       -1.51195        -4.86000        -0.68669
| 38>    C       -1.39504        -5.55074         0.49860
| 39>    C       -1.59816        -6.94475         0.25234
| 40>    C       -1.79199        -7.07293        -1.20141
| 41>    C       -1.73137        -5.83363        -1.75304
| 42>    C       -1.94099        -8.26576        -1.92108
| 43>    N       -2.04184        -9.23277        -2.53129
| 44>    C       -1.59677        -7.96334         1.17569
| 45>    C       -1.83639        -9.34760         0.94457
| 46>    C       -1.69062       -10.03851         2.13178
| 47>    C       -1.35355        -9.07208         3.17142
| 48>    C       -1.31242        -7.83348         2.62104
| 49>    C       -1.04330        -6.65395         3.32612
| 50>    N       -0.82738        -5.70732         3.93916
| 51>    C       -1.83620       -11.43199         2.33960
| 52>    C       -2.31033       -12.36943         1.44073
| 53>    C       -2.28370       -13.65395         2.04857
| 54>    C       -1.74260       -13.45342         3.41004
| 55>    C       -1.49799       -12.12989         3.57498
| 56>    C       -1.54805       -14.43135         4.39399
| 57>    N       -1.38262       -15.20007         5.23037
| 58>    C       -2.69277       -14.85364         1.50965
| 59>    C       -2.58710       -16.14608         2.09133
| 60>    C       -3.15286       -17.07559         1.23912
| 61>    C       -3.64609       -16.36306         0.06611
| 62>    C       -3.36348       -15.04375         0.20588
| 63>    C       -3.70114       -14.04666        -0.71779
| 64>    N       -4.00120       -13.25389        -1.49206
| 65>    C       -3.25579       -18.47277         1.45087
| 66>    C       -2.66319       -19.20882         2.45801
| 67>    C       -3.03155       -20.57602         2.31646
| 68>    C       -3.92957       -20.63955         1.14246
| 69>    C       -4.04296       -19.38829         0.63166
| 70>    C       -4.58781       -21.77563         0.65816
| 71>    N       -5.14298       -22.69769         0.25573
| 72>    C       -2.67085       -21.63578         3.11159
| 73>    C       -3.11690       -22.98565         2.98117
| 74>    C       -2.68970       -23.71058         4.06833
| 75>    C       -1.87173       -22.83099         4.89677
| 76>    C       -1.85584       -21.59392         4.33924
| 77>    C       -1.16370       -20.48289         4.83796
| 78>    N       -0.56442       -19.59455         5.24960
| 79>    C       -2.93652       -25.07574         4.36430
| 80>    C       -3.92214       -25.88705         3.89588
| 81>    C       -3.75349       -27.36717         4.04308
| 82>    O       -2.94175       -27.92754         4.73979
| 83>    C       -4.73992       -27.96380         3.12521
| 84>    C       -4.91847       -29.27600         2.79088
| 85>    C       -5.92045       -29.61452         1.85462
| 86>    C       -6.70676       -28.58075         1.26606
| 87>    C       -7.69711       -28.92475         0.32390
| 88>    C       -7.90316       -30.23348        -0.01158
| 89>    C       -7.12796       -31.25543         0.57441
| 90>    C       -6.15597       -30.95381         1.48672
| 91>    F       -7.35285       -32.52872         0.22723
| 92>    F       -8.84699       -30.55977        -0.90256
| 93>    C       -6.50089       -27.23149         1.63342
| 94>    C       -5.54250       -26.92975         2.56381
| 95>    C       -5.14953       -25.65376         3.15837
| 96>    C       -5.94832       -24.54248         3.19759
| 97>    C       -5.67048       -23.37751         3.93865
| 98>    N       -5.50872       -22.40761         4.53146
| 99>    C       -7.20796       -24.45939         2.56314
|100>    N       -8.24357       -24.34293         2.08434
|101>    H       -3.43059         2.81262        -4.71404
|102>    H       -6.20963        -1.00551        -6.22567
|103>    H       -2.23234         1.35965        -3.16940
|104>    H       -5.00110        -2.51657        -4.64639
|105>    H       -0.78230        -2.98920        -0.02725
|106>    H       -1.23110        -5.11465         1.46500
|107>    H       -1.78635        -5.60758        -2.79951
|108>    H       -2.07816        -9.77376        -0.00885
|109>    H       -1.18553        -9.30721         4.20569
|110>    H       -2.64650       -12.17093         0.44216
|111>    H       -1.10623       -11.66813         4.46177
|112>    H       -2.14164       -16.35511         3.04373
|113>    H       -4.13907       -16.81624        -0.77353
|114>    H       -2.01537       -18.82910         3.22323
|115>    H       -4.63508       -19.10524        -0.21863
|116>    H       -3.66998       -23.36406         2.14521
|117>    H       -1.38979       -23.12979         5.80916
|118>    H       -2.21420       -25.56494         5.01239
|119>    H       -4.30407       -30.04450         3.23479
|120>    H       -8.30138       -28.15523        -0.13059
|121>    H       -5.57102       -31.74720         1.92512
|122>    H       -7.09849       -26.46765         1.16234
|123> *
|124>
|125>                          ****END OF INPUT****

CARTESIAN COORDINATES (ANGSTROEM)
---------------------------------
  C     -4.027020    1.971470   -5.031410
  C     -4.989290    2.146620   -5.985990
  F     -5.191510    3.354860   -6.523780
  C     -5.779740    1.060800   -6.416480
  F     -6.714480    1.262700   -7.352700
  C     -5.596570   -0.185450   -5.885910
  C     -4.612650   -0.398020   -4.900590
  C     -3.812270    0.698570   -4.465150
  C     -2.816510    0.508890   -3.480540
  C     -2.623090   -0.740120   -2.949720
  C     -3.430210   -1.827560   -3.387150
  C     -4.402770   -1.674210   -4.333760
  C     -3.048800   -3.050750   -2.658810
  O     -3.586140   -4.133110   -2.727130
  C     -1.933040   -2.647750   -1.756680
  C     -1.677910   -1.229890   -1.951720
  C     -0.685310   -0.492520   -1.363330
  C      0.281470   -0.995880   -0.465440
  N      1.110720   -1.335580    0.251680
  C     -0.478070    0.883970   -1.600280
  N     -0.262150    2.001030   -1.748700
  C     -1.375530   -3.450330   -0.808140
  C     -1.511950   -4.860000   -0.686690
  C     -1.395040   -5.550740    0.498600
  C     -1.598160   -6.944750    0.252340
  C     -1.791990   -7.072930   -1.201410
  C     -1.731370   -5.833630   -1.753040
  C     -1.940990   -8.265760   -1.921080
  N     -2.041840   -9.232770   -2.531290
  C     -1.596770   -7.963340    1.175690
  C     -1.836390   -9.347600    0.944570
  C     -1.690620  -10.038510    2.131780
  C     -1.353550   -9.072080    3.171420
  C     -1.312420   -7.833480    2.621040
  C     -1.043300   -6.653950    3.326120
  N     -0.827380   -5.707320    3.939160
  C     -1.836200  -11.431990    2.339600
  C     -2.310330  -12.369430    1.440730
  C     -2.283700  -13.653950    2.048570
  C     -1.742600  -13.453420    3.410040
  C     -1.497990  -12.129890    3.574980
  C     -1.548050  -14.431350    4.393990
  N     -1.382620  -15.200070    5.230370
  C     -2.692770  -14.853640    1.509650
  C     -2.587100  -16.146080    2.091330
  C     -3.152860  -17.075590    1.239120
  C     -3.646090  -16.363060    0.066110
  C     -3.363480  -15.043750    0.205880
  C     -3.701140  -14.046660   -0.717790
  N     -4.001200  -13.253890   -1.492060
  C     -3.255790  -18.472770    1.450870
  C     -2.663190  -19.208820    2.458010
  C     -3.031550  -20.576020    2.316460
  C     -3.929570  -20.639550    1.142460
  C     -4.042960  -19.388290    0.631660
  C     -4.587810  -21.775630    0.658160
  N     -5.142980  -22.697690    0.255730
  C     -2.670850  -21.635780    3.111590
  C     -3.116900  -22.985650    2.981170
  C     -2.689700  -23.710580    4.068330
  C     -1.871730  -22.830990    4.896770
  C     -1.855840  -21.593920    4.339240
  C     -1.163700  -20.482890    4.837960
  N     -0.564420  -19.594550    5.249600
  C     -2.936520  -25.075740    4.364300
  C     -3.922140  -25.887050    3.895880
  C     -3.753490  -27.367170    4.043080
  O     -2.941750  -27.927540    4.739790
  C     -4.739920  -27.963800    3.125210
  C     -4.918470  -29.276000    2.790880
  C     -5.920450  -29.614520    1.854620
  C     -6.706760  -28.580750    1.266060
  C     -7.697110  -28.924750    0.323900
  C     -7.903160  -30.233480   -0.011580
  C     -7.127960  -31.255430    0.574410
  C     -6.155970  -30.953810    1.486720
  F     -7.352850  -32.528720    0.227230
  F     -8.846990  -30.559770   -0.902560
  C     -6.500890  -27.231490    1.633420
  C     -5.542500  -26.929750    2.563810
  C     -5.149530  -25.653760    3.158370
  C     -5.948320  -24.542480    3.197590
  C     -5.670480  -23.377510    3.938650
  N     -5.508720  -22.407610    4.531460
  C     -7.207960  -24.459390    2.563140
  N     -8.243570  -24.342930    2.084340
  H     -3.430590    2.812620   -4.714040
  H     -6.209630   -1.005510   -6.225670
  H     -2.232340    1.359650   -3.169400
  H     -5.001100   -2.516570   -4.646390
  H     -0.782300   -2.989200   -0.027250
  H     -1.231100   -5.114650    1.465000
  H     -1.786350   -5.607580   -2.799510
  H     -2.078160   -9.773760   -0.008850
  H     -1.185530   -9.307210    4.205690
  H     -2.646500  -12.170930    0.442160
  H     -1.106230  -11.668130    4.461770
  H     -2.141640  -16.355110    3.043730
  H     -4.139070  -16.816240   -0.773530
  H     -2.015370  -18.829100    3.223230
  H     -4.635080  -19.105240   -0.218630
  H     -3.669980  -23.364060    2.145210
  H     -1.389790  -23.129790    5.809160
  H     -2.214200  -25.564940    5.012390
  H     -4.304070  -30.044500    3.234790
  H     -8.301380  -28.155230   -0.130590
  H     -5.571020  -31.747200    1.925120
  H     -7.098490  -26.467650    1.162340

 Total Charge           Charge          ....    0
 Multiplicity           Mult            ....    1
 Number of Electrons    NEL             ....  564
 Basis Dimension        Dim             .... 1314

ORBITAL ENERGIES
----------------

  NO   OCC          E(Eh)            E(eV)
   0   2.0000     -24.807018      -675.0333
   1   2.0000     -24.806289      -675.0134
   2   2.0000     -24.803099      -674.9266
   3   2.0000     -24.802546      -674.9116
   4   2.0000     -19.237122      -523.4687
   5   2.0000     -19.228699      -523.2395
   6   2.0000     -14.429968      -392.6594
   7   2.0000     -14.429891      -392.6573
   8   2.0000     -14.429537      -392.6477
   9   2.0000     -14.426527      -392.5658
  10   2.0000     -14.423147      -392.4738
  11   2.0000     -14.422050      -392.4439
  12   2.0000     -14.419091      -392.3634
  13   2.0000     -14.418493      -392.3471
  14   2.0000     -14.415784      -392.2734
  15   2.0000     -14.413395      -392.2084
  16   2.0000     -10.391320      -282.7622
  17   2.0000     -10.390669      -282.7445
  18   2.0000     -10.387311      -282.6531
  19   2.0000     -10.386908      -282.6421
  20   2.0000     -10.386417      -282.6288
  21   2.0000     -10.379127      -282.4304
  22   2.0000     -10.360372      -281.9200
  23   2.0000     -10.357156      -281.8325
  24   2.0000     -10.356535      -281.8156
  25   2.0000     -10.353849      -281.7426
  26   2.0000     -10.341672      -281.4112
  27   2.0000     -10.341181      -281.3978
  28   2.0000     -10.341067      -281.3948
  29   2.0000     -10.340927      -281.3909
  30   2.0000     -10.340512      -281.3796
  31   2.0000     -10.340411      -281.3769
  32   2.0000     -10.336500      -281.2705
  33   2.0000     -10.333315      -281.1838
  34   2.0000     -10.332704      -281.1672
  35   2.0000     -10.331426      -281.1324
  36   2.0000     -10.331378      -281.1311
  37   2.0000     -10.331362      -281.1306
  38   2.0000     -10.331068      -281.1227
  39   2.0000     -10.330592      -281.1097
  40   2.0000     -10.330215      -281.0994
  41   2.0000     -10.328619      -281.0560
  42   2.0000     -10.327802      -281.0338
  43   2.0000     -10.327770      -281.0329
  44   2.0000     -10.325913      -280.9824
  45   2.0000     -10.324938      -280.9558
  46   2.0000     -10.324759      -280.9510
  47   2.0000     -10.324206      -280.9359
  48   2.0000     -10.323540      -280.9178
  49   2.0000     -10.323228      -280.9093
  50   2.0000     -10.322800      -280.8977
  51   2.0000     -10.322572      -280.8915
  52   2.0000     -10.322460      -280.8884
  53   2.0000     -10.322255      -280.8828
  54   2.0000     -10.322175      -280.8807
  55   2.0000     -10.322065      -280.8777
  56   2.0000     -10.321699      -280.8677
  57   2.0000     -10.321694      -280.8676
  58   2.0000     -10.321435      -280.8605
  59   2.0000     -10.320922      -280.8466
  60   2.0000     -10.320447      -280.8336
  61   2.0000     -10.320124      -280.8249
  62   2.0000     -10.319502      -280.8079
  63   2.0000     -10.318264      -280.7742
  64   2.0000     -10.317501      -280.7535
  65   2.0000     -10.317116      -280.7430
  66   2.0000     -10.316947      -280.7384
  67   2.0000     -10.316834      -280.7353
  68   2.0000     -10.315831      -280.7080
  69   2.0000     -10.315177      -280.6902
  70   2.0000     -10.315103      -280.6882
  71   2.0000     -10.314260      -280.6653
  72   2.0000     -10.313105      -280.6339
  73   2.0000     -10.310812      -280.5715
  74   2.0000     -10.310727      -280.5692
  75   2.0000     -10.310167      -280.5539
  76   2.0000     -10.309861      -280.5456
  77   2.0000     -10.308985      -280.5218
  78   2.0000     -10.306682      -280.4591
  79   2.0000     -10.306413      -280.4517
  80   2.0000     -10.305460      -280.4258
  81   2.0000     -10.304003      -280.3862
  82   2.0000     -10.303485      -280.3721
  83   2.0000     -10.302970      -280.3581
  84   2.0000     -10.302569      -280.3472
  85   2.0000     -10.302245      -280.3383
  86   2.0000      -1.330091       -36.1936
  87   2.0000      -1.326136       -36.0860
  88   2.0000      -1.315143       -35.7869
  89   2.0000      -1.311220       -35.6801
  90   2.0000      -1.153024       -31.3754
  91   2.0000      -1.144331       -31.1388
  92   2.0000      -1.036253       -28.1979
  93   2.0000      -1.034389       -28.1472
  94   2.0000      -1.033365       -28.1193
  95   2.0000      -1.030228       -28.0339
  96   2.0000      -1.027255       -27.9530
  97   2.0000      -1.016861       -27.6702
  98   2.0000      -1.016361       -27.6566
  99   2.0000      -1.013973       -27.5916
 100   2.0000      -1.013091       -27.5676
 101   2.0000      -1.011143       -27.5146
 102   2.0000      -1.007851       -27.4250
 103   2.0000      -1.003541       -27.3077
 104   2.0000      -1.001831       -27.2612
 105   2.0000      -0.999725       -27.2039
 106   2.0000      -0.995119       -27.0786
 107   2.0000      -0.995059       -27.0769
 108   2.0000      -0.993699       -27.0399
 109   2.0000      -0.991446       -26.9786
 110   2.0000      -0.989007       -26.9123
 111   2.0000      -0.987266       -26.8649
 112   2.0000      -0.945362       -25.7246
 113   2.0000      -0.940781       -25.6000
 114   2.0000      -0.923475       -25.1290
 115   2.0000      -0.920184       -25.0395
 116   2.0000      -0.909079       -24.7373
 117   2.0000      -0.904713       -24.6185
 118   2.0000      -0.901090       -24.5199
 119   2.0000      -0.899205       -24.4686
 120   2.0000      -0.894975       -24.3535
 121   2.0000      -0.890510       -24.2320
 122   2.0000      -0.873881       -23.7795
 123   2.0000      -0.872818       -23.7506
 124   2.0000      -0.871226       -23.7073
 125   2.0000      -0.859253       -23.3815
 126   2.0000      -0.856284       -23.3007
 127   2.0000      -0.852033       -23.1850
 128   2.0000      -0.850157       -23.1339
 129   2.0000      -0.847625       -23.0650
 130   2.0000      -0.842477       -22.9250
 131   2.0000      -0.824810       -22.4442
 132   2.0000      -0.815841       -22.2002
 133   2.0000      -0.802980       -21.8502
 134   2.0000      -0.788502       -21.4562
 135   2.0000      -0.781269       -21.2594
 136   2.0000      -0.776703       -21.1352
 137   2.0000      -0.774427       -21.0732
 138   2.0000      -0.752950       -20.4888
 139   2.0000      -0.748252       -20.3610
 140   2.0000      -0.745539       -20.2871
 141   2.0000      -0.743940       -20.2436
 142   2.0000      -0.734203       -19.9787
 143   2.0000      -0.732361       -19.9286
 144   2.0000      -0.730158       -19.8686
 145   2.0000      -0.724166       -19.7056
 146   2.0000      -0.722546       -19.6615
 147   2.0000      -0.719429       -19.5767
 148   2.0000      -0.715638       -19.4735
 149   2.0000      -0.700506       -19.0617
 150   2.0000      -0.694554       -18.8998
 151   2.0000      -0.690545       -18.7907
 152   2.0000      -0.688354       -18.7311
 153   2.0000      -0.686314       -18.6756
 154   2.0000      -0.681299       -18.5391
 155   2.0000      -0.678710       -18.4686
 156   2.0000      -0.668754       -18.1977
 157   2.0000      -0.661694       -18.0056
 158   2.0000      -0.659183       -17.9373
 159   2.0000      -0.658740       -17.9252
 160   2.0000      -0.655286       -17.8312
 161   2.0000      -0.653234       -17.7754
 162   2.0000      -0.649878       -17.6841
 163   2.0000      -0.646106       -17.5814
 164   2.0000      -0.642160       -17.4741
 165   2.0000      -0.632258       -17.2046
 166   2.0000      -0.624481       -16.9930
 167   2.0000      -0.623721       -16.9723
 168   2.0000      -0.616812       -16.7843
 169   2.0000      -0.608766       -16.5654
 170   2.0000      -0.602570       -16.3968
 171   2.0000      -0.597558       -16.2604
 172   2.0000      -0.594410       -16.1747
 173   2.0000      -0.591962       -16.1081
 174   2.0000      -0.590404       -16.0657
 175   2.0000      -0.588689       -16.0190
 176   2.0000      -0.582879       -15.8609
 177   2.0000      -0.579949       -15.7812
 178   2.0000      -0.572738       -15.5850
 179   2.0000      -0.566637       -15.4190
 180   2.0000      -0.564265       -15.3544
 181   2.0000      -0.561072       -15.2676
 182   2.0000      -0.560275       -15.2458
 183   2.0000      -0.558864       -15.2075
 184   2.0000      -0.555742       -15.1225
 185   2.0000      -0.555000       -15.1023
 186   2.0000      -0.553390       -15.0585
 187   2.0000      -0.551887       -15.0176
 188   2.0000      -0.549478       -14.9521
 189   2.0000      -0.546566       -14.8728
 190   2.0000      -0.545894       -14.8545
 191   2.0000      -0.543030       -14.7766
 192   2.0000      -0.542083       -14.7508
 193   2.0000      -0.541887       -14.7455
 194   2.0000      -0.538600       -14.6560
 195   2.0000      -0.537556       -14.6276
 196   2.0000      -0.536924       -14.6104
 197   2.0000      -0.535696       -14.5770
 198   2.0000      -0.534440       -14.5429
 199   2.0000      -0.532925       -14.5016
 200   2.0000      -0.531146       -14.4532
 201   2.0000      -0.530265       -14.4293
 202   2.0000      -0.526917       -14.3382
 203   2.0000      -0.524602       -14.2751
 204   2.0000      -0.523738       -14.2516
 205   2.0000      -0.519512       -14.1366
 206   2.0000      -0.516897       -14.0655
 207   2.0000      -0.514964       -14.0129
 208   2.0000      -0.511712       -13.9244
 209   2.0000      -0.510466       -13.8905
 210   2.0000      -0.509745       -13.8709
 211   2.0000      -0.508306       -13.8317
 212   2.0000      -0.506660       -13.7869
 213   2.0000      -0.503938       -13.7129
 214   2.0000      -0.503171       -13.6920
 215   2.0000      -0.500808       -13.6277
 216   2.0000      -0.499289       -13.5863
 217   2.0000      -0.497271       -13.5314
 218   2.0000      -0.495212       -13.4754
 219   2.0000      -0.493019       -13.4157
 220   2.0000      -0.490946       -13.3593
 221   2.0000      -0.487096       -13.2546
 222   2.0000      -0.483176       -13.1479
 223   2.0000      -0.480420       -13.0729
 224   2.0000      -0.475794       -12.9470
 225   2.0000      -0.473341       -12.8803
 226   2.0000      -0.472933       -12.8692
 227   2.0000      -0.471855       -12.8398
 228   2.0000      -0.468412       -12.7461
 229   2.0000      -0.461668       -12.5626
 230   2.0000      -0.461544       -12.5593
 231   2.0000      -0.458710       -12.4821
 232   2.0000      -0.457410       -12.4468
 233   2.0000      -0.456815       -12.4306
 234   2.0000      -0.456406       -12.4194
 235   2.0000      -0.455664       -12.3992
 236   2.0000      -0.454251       -12.3608
 237   2.0000      -0.451127       -12.2758
 238   2.0000      -0.450440       -12.2571
 239   2.0000      -0.449682       -12.2365
 240   2.0000      -0.447084       -12.1658
 241   2.0000      -0.446440       -12.1482
 242   2.0000      -0.445776       -12.1302
 243   2.0000      -0.443561       -12.0699
 244   2.0000      -0.442533       -12.0419
 245   2.0000      -0.442094       -12.0300
 246   2.0000      -0.439822       -11.9682
 247   2.0000      -0.438737       -11.9386
 248   2.0000      -0.438247       -11.9253
 249   2.0000      -0.436477       -11.8772
 250   2.0000      -0.434037       -11.8108
 251   2.0000      -0.431663       -11.7461
 252   2.0000      -0.429454       -11.6860
 253   2.0000      -0.428870       -11.6701
 254   2.0000      -0.426644       -11.6096
 255   2.0000      -0.426448       -11.6042
 256   2.0000      -0.422378       -11.4935
 257   2.0000      -0.417302       -11.3554
 258   2.0000      -0.411675       -11.2022
 259   2.0000      -0.410478       -11.1697
 260   2.0000      -0.408954       -11.1282
 261   2.0000      -0.407587       -11.0910
 262   2.0000      -0.405107       -11.0235
 263   2.0000      -0.397338       -10.8121
 264   2.0000      -0.392480       -10.6799
 265   2.0000      -0.382829       -10.4173
 266   2.0000      -0.372852       -10.1458
 267   2.0000      -0.362203        -9.8560
 268   2.0000      -0.360006        -9.7963
 269   2.0000      -0.349955        -9.5228
 270   2.0000      -0.343874        -9.3573
 271   2.0000      -0.338186        -9.2025
 272   2.0000      -0.337259        -9.1773
 273   2.0000      -0.334765        -9.1094
 274   2.0000      -0.328554        -8.9404
 275   2.0000      -0.324214        -8.8223
 276   2.0000      -0.317037        -8.6270
 277   2.0000      -0.311384        -8.4732
 278   2.0000      -0.308671        -8.3994
 279   2.0000      -0.306742        -8.3469
 280   2.0000      -0.299167        -8.1407
 281   2.0000      -0.281297        -7.6545
 282   0.0000      -0.161520        -4.3952
 283   0.0000      -0.139164        -3.7868
 284   0.0000      -0.116858        -3.1799
 285   0.0000      -0.093703        -2.5498
 286   0.0000      -0.090904        -2.4736

MULLIKEN ATOMIC CHARGES
-----------------------
   0 C :   -0.103784
   1 C :    0.243989
   2 F :   -0.166686
   3 C :    0.239704
   4 F :   -0.168002
   5 C :   -0.102197
   6 C :    0.113152
   7 C :    0.111426
   8 C :   -0.079821
   9 C :    0.057092
  10 C :   -0.015090
  11 C :   -0.070729
  12 C :    0.145080
  13 O :   -0.138671
  14 C :   -0.082338
  15 C :    0.311866
  16 C :   -0.331927
  17 C :   -0.197042
  18 N :    0.168458
  19 C :   -0.179477
  20 N :    0.158718
  21 C :   -0.028516
  22 C :    0.086001
  23 C :   -0.071414
  24 C :    0.105678
  25 C :   -0.116767
  26 C :    0.074825
  27 C :   -0.186211
  28 N :    0.148462
  29 C :    0.121924
  30 C :   -0.114394
  31 C :    0.108633
  32 C :   -0.014393
  33 C :   -0.083187
  34 C :   -0.181584
  35 N :    0.146035
  36 C :    0.108718
  37 C :   -0.113523
  38 C :    0.117425
  39 C :   -0.081750
  40 C :   -0.018229
  41 C :   -0.183751
  42 N :    0.158438
  43 C :    0.117333
  44 C :   -0.114600
  45 C :    0.107804
  46 C :   -0.016588
  47 C :   -0.082402
  48 C :   -0.181491
  49 N :    0.153886
  50 C :    0.107498
  51 C :   -0.108952
  52 C :    0.136602
  53 C :   -0.082776
  54 C :   -0.010300
  55 C :   -0.170470
  56 N :    0.136872
  57 C :    0.094852
  58 C :   -0.102332
  59 C :    0.092466
  60 C :    0.018868
  61 C :   -0.071061
  62 C :   -0.185027
  63 N :    0.152146
  64 C :    0.028479
  65 C :   -0.104918
  66 C :    0.132513
  67 O :   -0.133597
  68 C :    0.019071
  69 C :   -0.077250
  70 C :    0.108941
  71 C :    0.108081
  72 C :   -0.102037
  73 C :    0.240820
  74 C :    0.237646
  75 C :   -0.099019
  76 F :   -0.169574
  77 F :   -0.168670
  78 C :   -0.072510
  79 C :    0.026178
  80 C :    0.277564
  81 C :   -0.326476
  82 C :   -0.195350
  83 N :    0.177329
  84 C :   -0.165822
  85 N :    0.166719
  86 H :    0.010097
  87 H :    0.002855
  88 H :   -0.004348
  89 H :   -0.005727
  90 H :    0.038316
  91 H :    0.018272
  92 H :    0.008783
  93 H :    0.016922
  94 H :    0.003102
  95 H :    0.014664
  96 H :    0.002414
  97 H :    0.015202
  98 H :    0.002088
  99 H :    0.016751
 100 H :    0.003290
 101 H :    0.018952
 102 H :    0.006379
 103 H :    0.024091
 104 H :   -0.006389
 105 H :    0.009889
 106 H :    0.001085
 107 H :    0.006719
Sum of atomic charges:   -0.0000000

LOEWDIN ATOMIC CHARGES
----------------------
   0 C :   -0.028295
   1 C :    0.069292
   2 F :   -0.044968
   3 C :    0.070038
   4 F :   -0.045544
   5 C :   -0.031459
   6 C :   -0.007755
   7 C :   -0.004539
   8 C :    0.019976
   9 C :   -0.023417
  10 C :   -0.056017
  11 C :    0.035206
  12 C :    0.084833
  13 O :   -0.126791
  14 C :   -0.076048
  15 C :    0.070620
  16 C :   -0.124148
  17 C :   -0.024588
  18 N :   -0.035607
  19 C :   -0.017036
  20 N :   -0.041811
  21 C :    0.073192
  22 C :   -0.021927
  23 C :    0.022640
  24 C :    0.043259
  25 C :   -0.091793
  26 C :    0.081397
  27 C :   -0.032636
  28 N :   -0.052372
  29 C :    0.041735
  30 C :   -0.000310
  31 C :   -0.009641
  32 C :    0.052294
  33 C :   -0.075259
  34 C :   -0.033435
  35 N :   -0.052027
  36 C :   -0.009230
  37 C :   -0.003991
  38 C :    0.043220
  39 C :   -0.073307
  40 C :    0.049887
  41 C :   -0.036465
  42 N :   -0.044025
  43 C :    0.043120
  44 C :   -0.003543
  45 C :   -0.009769
  46 C :    0.049962
  47 C :   -0.073662
  48 C :   -0.035605
  49 N :   -0.045736
  50 C :   -0.010106
  51 C :    0.002876
  52 C :    0.047607
  53 C :   -0.075507
  54 C :    0.056213
  55 C :   -0.025274
  56 N :   -0.061718
  57 C :    0.048486
  58 C :    0.020108
  59 C :   -0.031273
  60 C :    0.066692
  61 C :   -0.076405
  62 C :   -0.033952
  63 N :   -0.047020
  64 C :    0.060316
  65 C :   -0.064304
  66 C :    0.084502
  67 O :   -0.133231
  68 C :   -0.056814
  69 C :    0.033805
  70 C :   -0.008900
  71 C :   -0.004013
  72 C :   -0.028207
  73 C :    0.068592
  74 C :    0.068289
  75 C :   -0.032163
  76 F :   -0.047238
  77 F :   -0.046277
  78 C :    0.020118
  79 C :   -0.019976
  80 C :    0.063626
  81 C :   -0.120445
  82 C :   -0.012625
  83 N :   -0.037653
  84 C :   -0.016065
  85 N :   -0.038512
  86 H :    0.048863
  87 H :    0.046332
  88 H :    0.040874
  89 H :    0.042253
  90 H :    0.053703
  91 H :    0.041323
  92 H :    0.039262
  93 H :    0.040142
  94 H :    0.037805
  95 H :    0.039534
  96 H :    0.037514
  97 H :    0.039614
  98 H :    0.037448
  99 H :    0.040465
 100 H :    0.038184
 101 H :    0.035311
 102 H :    0.041559
 103 H :    0.049380
 104 H :    0.041683
 105 H :    0.048864
 106 H :    0.045428
 107 H :    0.042991

  Mayer bond orders larger than 0.100000
B(  0-C ,  1-C ) :   1.4418 B(  0-C ,  5-C ) :   0.1077 B(  0-C ,  7-C ) :   1.1880
B(  0-C , 86-H ) :   1.0064 B(  1-C ,  2-F ) :   1.1397 B(  1-C ,  3-C ) :   1.1877
B(  3-C ,  4-F ) :   1.1370 B(  3-C ,  5-C ) :   1.4452 B(  5-C ,  6-C ) :   1.1910
B(  5-C , 87-H ) :   1.0067 B(  6-C ,  7-C ) :   1.2516 B(  6-C , 11-C ) :   1.1949
B(  7-C ,  8-C ) :   1.2217 B(  8-C ,  9-C ) :   1.4445 B(  8-C , 88-H ) :   0.9892
B(  9-C , 10-C ) :   1.2168 B(  9-C , 15-C ) :   0.9929 B( 10-C , 11-C ) :   1.4668
B( 10-C , 12-C ) :   0.9435 B( 11-C , 89-H ) :   1.0160 B( 12-C , 13-O ) :   2.2216
B( 12-C , 14-C ) :   0.9324 B( 14-C , 15-C ) :   1.0423 B( 14-C , 21-C ) :   1.6248
B( 15-C , 16-C ) :   1.6567 B( 16-C , 17-C ) :   1.1383 B( 16-C , 19-C ) :   1.1426
B( 17-C , 18-N ) :   2.9794 B( 19-C , 20-N ) :   2.9632 B( 21-C , 22-C ) :   1.1024
B( 21-C , 90-H ) :   0.9463 B( 22-C , 23-C ) :   1.5276 B( 22-C , 26-C ) :   1.0446
B( 23-C , 24-C ) :   1.0920 B( 23-C , 91-H ) :   1.0068 B( 24-C , 25-C ) :   1.1139
B( 24-C , 29-C ) :   1.4191 B( 25-C , 26-C ) :   1.6781 B( 25-C , 27-C ) :   1.0930
B( 26-C , 92-H ) :   1.0064 B( 27-C , 28-N ) :   2.9776 B( 29-C , 30-C ) :   1.1144
B( 29-C , 33-C ) :   1.0952 B( 30-C , 31-C ) :   1.5561 B( 30-C , 93-H ) :   1.0038
B( 31-C , 32-C ) :   1.0465 B( 31-C , 36-C ) :   1.0164 B( 32-C , 33-C ) :   1.6846
B( 32-C , 94-H ) :   1.0173 B( 33-C , 34-C ) :   1.0837 B( 34-C , 35-N ) :   2.9667
B( 36-C , 37-C ) :   1.5547 B( 36-C , 40-C ) :   1.0469 B( 37-C , 38-C ) :   1.1213
B( 37-C , 95-H ) :   1.0031 B( 38-C , 39-C ) :   1.1001 B( 38-C , 43-C ) :   1.3861
B( 39-C , 40-C ) :   1.6839 B( 39-C , 41-C ) :   1.0817 B( 40-C , 96-H ) :   1.0171
B( 41-C , 42-N ) :   2.9776 B( 43-C , 44-C ) :   1.1212 B( 43-C , 47-C ) :   1.1015
B( 44-C , 45-C ) :   1.5555 B( 44-C , 97-H ) :   1.0026 B( 45-C , 46-C ) :   1.0482
B( 45-C , 50-C ) :   1.0152 B( 46-C , 47-C ) :   1.6804 B( 46-C , 98-H ) :   1.0172
B( 47-C , 48-C ) :   1.0824 B( 48-C , 49-N ) :   2.9744 B( 50-C , 51-C ) :   1.5580
B( 50-C , 54-C ) :   1.0460 B( 51-C , 52-C ) :   1.1108 B( 51-C , 99-H ) :   1.0050
B( 52-C , 53-C ) :   1.0984 B( 52-C , 57-C ) :   1.4295 B( 53-C , 54-C ) :   1.6785
B( 53-C , 55-C ) :   1.0901 B( 54-C ,100-H ) :   1.0181 B( 55-C , 56-N ) :   2.9450
B( 57-C , 58-C ) :   1.1126 B( 57-C , 61-C ) :   1.1136 B( 58-C , 59-C ) :   1.5391
B( 58-C ,101-H ) :   0.9901 B( 59-C , 60-C ) :   1.0388 B( 59-C , 64-C ) :   1.0610
B( 60-C , 61-C ) :   1.6746 B( 60-C ,102-H ) :   1.0231 B( 61-C , 62-C ) :   1.0818
B( 62-C , 63-N ) :   2.9766 B( 64-C , 65-C ) :   1.6882 B( 64-C ,103-H ) :   0.9426
B( 65-C , 66-C ) :   0.9298 B( 65-C , 80-C ) :   1.0210 B( 66-C , 67-O ) :   2.2735
B( 66-C , 68-C ) :   0.9217 B( 68-C , 69-C ) :   1.4691 B( 68-C , 79-C ) :   1.2201
B( 69-C , 70-C ) :   1.2003 B( 69-C ,104-H ) :   1.0157 B( 70-C , 71-C ) :   1.2523
B( 70-C , 75-C ) :   1.1927 B( 71-C , 72-C ) :   1.1910 B( 71-C , 78-C ) :   1.2210
B( 72-C , 73-C ) :   1.4436 B( 72-C , 75-C ) :   0.1076 B( 72-C ,105-H ) :   1.0063
B( 73-C , 74-C ) :   1.1885 B( 73-C , 77-F ) :   1.1371 B( 74-C , 75-C ) :   1.4462
B( 74-C , 76-F ) :   1.1355 B( 75-C ,106-H ) :   1.0061 B( 78-C , 79-C ) :   1.4583
B( 78-C ,107-H ) :   0.9927 B( 79-C , 80-C ) :   0.9958 B( 80-C , 81-C ) :   1.6677
B( 81-C , 82-C ) :   1.1809 B( 81-C , 84-C ) :   1.1247 B( 82-C , 83-N ) :   2.9788
B( 84-C , 85-N ) :   2.9922

-----------------------------------------------------------------------------
         ABSORPTION SPECTRUM VIA TRANSITION ELECTRIC DIPOLE MOMENTS
-----------------------------------------------------------------------------
State   Energy  Wavelength   fosc         T2         TX        TY        TZ
        (cm-1)    (nm)                  (au**2)     (au)      (au)      (au)
-----------------------------------------------------------------------------
   0   11026.5    906.9   0.967165459  28.87599  -0.59483  -5.24179   1.02266
   1   14273.2    700.6   0.004636184   0.10693  -0.10516   0.21955  -0.21834
   2   15835.1    631.5   0.007214998   0.15000   0.14114   0.27322  -0.23544
   3   16163.9    618.7   0.045294458   0.92252   0.11640   0.69460  -0.65307
   4   16628.6    601.4   0.041633976   0.82427  -0.13913   0.69340  -0.56930
   5   17583.1    568.7   0.072807891   1.36319   0.30676  -0.37148   1.06353
   6   19792.1    505.3   0.022702422   0.37762  -0.30275  -0.42531   0.32415
   7   21313.5    469.2   0.458927101   7.08867   0.33309   2.53738  -0.73445
   8   22046.6    453.6   0.075599503   1.12889   0.33425   0.89520   0.46452
   9   22105.1    452.4   0.036782763   0.54781   0.11836  -0.72995  -0.03126
  10   22571.7    443.0   0.789712088  11.51810   0.07859   3.15956  -1.23657
  11   23508.2    425.4   0.005585329   0.07822   0.18852  -0.11345   0.17265
  12   23695.3    422.0   0.006989932   0.09711   0.03245   0.16636  -0.26151
  13   24594.6    406.6   0.012363492   0.16549  -0.40492  -0.03551   0.01654
  14   24739.5    404.2   0.562007557   7.47871  -0.70970  -2.64103   0.00293
  15   25255.7    395.9   0.048373850   0.63056   0.59142  -0.09220   0.52180
  16   25282.7    395.5   0.001298132   0.01690   0.01987  -0.01435  -0.12768
  17   25647.2    389.9   0.050587287   0.64935   0.13787  -0.66524   0.43335
  18   25858.2    386.7   0.008847462   0.11264   0.03531  -0.29210   0.16147
  19   26273.8    380.6   0.154581846   1.93692  -0.81250   0.95549  -0.60316
  20   26798.0    373.2   0.033840782   0.41573  -0.38305  -0.48464   0.18474
  21   27490.0    363.8   0.009759739   0.11688   0.08771  -0.22542  -0.24160
  22   27568.0    362.7   0.125205611   1.49518   0.33518   1.15571   0.21718
  23   28270.6    353.7   0.001782032   0.02075  -0.05350  -0.04314  -0.12661
  24   28463.5    351.3   0.048158187   0.55700  -0.13788  -0.67867  -0.27821
  25   28906.0    345.9   0.016153864   0.18398   0.28956  -0.31449   0.03507
  26   29092.2    343.7   0.161083607   1.82285  -0.19893   0.94535  -0.94318
  27   29673.2    337.0   0.034237927   0.37986   0.37974   0.24071   0.42156
  28   29986.8    333.5   0.051613490   0.56664  -0.44869  -0.59156  -0.12401
  29   30169.2    331.5   0.005329087   0.05815  -0.08432  -0.18831  -0.12482
  30   30440.6    328.5   0.017066697   0.18457  -0.31245   0.13608  -0.26159
  31   30841.1    324.2   0.123611040   1.31948   0.00459   1.02800  -0.51251
  32   31142.2    321.1   0.148018696   1.56474  -0.40768  -0.54444  -1.04982
  33   31444.3    318.0   0.037288904   0.39040   0.25793  -0.32784   0.46518
  34   31656.3    315.9   0.025382393   0.26397  -0.34609  -0.17677  -0.33606
  35   31809.2    314.4   0.039442286   0.40821   0.14087   0.50769   0.36142
  36   32062.9    311.9   0.078608712   0.80713  -0.26648   0.82861   0.22254
  37   32313.5    309.5   0.138735149   1.41344   0.61243  -0.86584   0.53730
  38   32777.4    305.1   0.211269778   2.12196  -1.12055   0.16208  -0.91655
  39   32971.8    303.3   0.040936845   0.40874   0.06606  -0.43120   0.46738
  40   33488.6    298.6   0.326108469   3.20583  -0.95628   0.75028  -1.31470
  41   33755.4    296.2   0.234156968   2.28370   0.15456   1.50317   0.01710
  42   33814.2    295.7   0.113757389   1.10753   0.73775   0.57091   0.48715
  43   33866.2    295.3   0.054325558   0.52810  -0.31570  -0.63983  -0.13802
  44   34138.5    292.9   0.003547873   0.03421  -0.08555   0.14149  -0.08291
  45   34330.5    291.3   0.007129549   0.06837   0.04728  -0.25714  -0.00321
  46   34423.3    290.5   0.229768530   2.19742  -0.04630  -1.42656  -0.40027
  47   34535.9    289.6   0.164727705   1.57026  -0.53119   0.65990  -0.92337
  48   34940.6    286.2   0.008286559   0.07808   0.01339  -0.26826   0.07704
  49   35060.8    285.2   0.119252679   1.11975   0.15260  -1.02997  -0.18875
  50   35152.3    284.5   0.021816368   0.20432  -0.07064   0.41922   0.15357
  51   35195.0    284.1   0.008419048   0.07875  -0.03477  -0.08006  -0.26671
  52   35397.9    282.5   0.028290111   0.26311  -0.00346   0.20543  -0.46999
  53   35969.5    278.0   0.490243875   4.48697   1.45936   0.57848   1.42219
  54   36053.6    277.4   0.146054417   1.33365   0.46193  -1.04943   0.13768
  55   36130.3    276.8   0.276787772   2.52204  -0.35591   1.51854  -0.29899
  56   36262.2    275.8   0.074475808   0.67614   0.19221   0.42089   0.67974
  57   36323.1    275.3   0.001317257   0.01194   0.01627  -0.09623  -0.04912
  58   36596.7    273.2   0.039016024   0.35098   0.33870  -0.43564   0.21558
  59   36644.1    272.9   0.114466145   1.02837   0.62337   0.37423   0.70692
  60   36971.5    270.5   0.014357281   0.12784   0.02699  -0.22258   0.27852
  61   37157.9    269.1   0.164868397   1.46070  -0.68083   0.19888  -0.97858
  62   37792.0    264.6   0.077884223   0.67846   0.15751   0.79472   0.14856
  63   37963.9    263.4   0.088129679   0.76423   0.22122  -0.59020   0.60577
  64   38168.0    262.0   0.024038703   0.20734   0.31362  -0.32808  -0.03676
  65   38356.1    260.7   0.012408077   0.10650  -0.04840   0.32063  -0.03674
  66   38623.6    258.9   0.081508839   0.69475   0.41131  -0.25205   0.67974
  67   38847.9    257.4   0.007594481   0.06436   0.00879  -0.15111   0.20358
  68   39176.4    255.3   0.122155323   1.02651   0.53028   0.61852   0.60229
  69   39394.3    253.8   0.129246287   1.08009  -0.36809  -0.60313  -0.76212
  70   39542.4    252.9   0.078785389   0.65593   0.34170   0.52562   0.51274
  71   40117.5    249.3   0.011545442   0.09474   0.03755  -0.19628  -0.23411
  72   40209.2    248.7   0.003741538   0.03063   0.13142   0.10149  -0.05535
  73   40286.0    248.2   0.052131456   0.42601   0.01618  -0.55928  -0.33608

FINAL SINGLE POINT ENERGY     -3772.957461470809

DIPOLE MOMENT
-------------
                                X             Y             Z
Electronic contribution:    -17.08439       1.50590     -19.12772
Nuclear contribution   :     16.66431      -2.82366      17.80379
                        -----------------------------------------
Total Dipole Moment    :     -0.42008      -1.31776      -1.32394
                        -----------------------------------------
Magnitude (a.u.)       :      1.91462
Magnitude (Debye)      :      4.86657

Rotational constants in cm-1:     0.001694     0.000123     0.000115
Rotational constants in MHz :    50.784145     3.673453     3.459036

                             ****ORCA TERMINATED NORMALLY****
TOTAL RUN TIME: 0 days 0 hours 11 minutes 53 seconds 977 msec
