                         Program Version 4.2.0 -  RELEASE  -
|  1> # ORCA input file
|  2> # SCF done       -187.967740984322          0.000664154013
|  3> ! CAM-B3LYP def2-SVP def2/J RIJCOSX Grid4 TightSCF
|  4> %maxcore 5000
|  5> %tddft
|  6>     Mode sTDDFT
|  7>     Ethresh 5.0
|  8>     maxcore 5000
|  9> end
| 10>
| 11> %pal
| 12>   nprocs 6
| 13>   end
| 14> * xyz 0 1
| 15>    C       -2.86715         4.24498         0.52980
| 16>    C       -3.46075         5.34118         1.08968
| 17>    F       -3.03694         6.57185         0.77349
| 18>    C       -4.52333         5.19345         2.00390
| 19>    F       -5.08686         6.28612         2.53678
| 20>    C       -4.97777         3.95068         2.34549
| 21>    C       -4.38711         2.80143         1.78504
| 22>    C       -3.31181         2.94914         0.86140
| 23>    C       -2.70086         1.81020         0.28884
| 24>    C       -3.15381         0.56227         0.62809
| 25>    C       -4.23386         0.42528         1.54144
| 26>    C       -4.84032         1.50527         2.11535
| 27>    C       -4.55068        -1.00496         1.72611
| 28>    O       -5.39166        -1.44480         2.48136
| 29>    C       -3.65246        -1.73595         0.79991
| 30>    C       -2.72694        -0.77260         0.22142
| 31>    C       -1.59563        -1.05006        -0.49929
| 32>    C       -0.73104        -0.06051        -1.01438
| 33>    N        0.00312         0.69628        -1.46798
| 34>    C       -1.08990        -2.33815        -0.78099
| 35>    N       -0.58638        -3.34210        -1.01920
| 36>    C       -3.71795        -3.04393         0.40108
| 37>    C       -4.51208        -4.11984         0.85015
| 38>    C       -5.36355        -4.26874         1.94015
| 39>    C       -5.91808        -5.53086         2.03158
| 40>    C       -5.51767        -6.39708         1.01480
| 41>    S       -4.41952        -5.59938        -0.07093
| 42>    C       -5.85768        -7.74787         0.74059
| 43>    N       -6.64470        -8.59916         1.48332
| 44>    C       -7.24682        -8.38405         2.77682
| 45>    C       -6.21280        -8.41064         3.89956
| 46>    C       -6.75744        -9.87313         0.87392
| 47>    O       -7.39387       -10.78740         1.35232
| 48>    C       -5.98470        -9.75820        -0.33778
| 49>    C       -5.44482        -8.45658        -0.38796
| 50>    C       -4.67405        -8.34940        -1.60213
| 51>    O       -4.03049        -7.43173        -2.07039
| 52>    N       -4.79184        -9.61420        -2.21325
| 53>    C       -4.16476        -9.84036        -3.49354
| 54>    C       -5.16841        -9.76487        -4.64153
| 55>    C       -5.57828       -10.46676        -1.46975
| 56>    C       -5.95102       -11.81484        -1.68833
| 57>    C       -5.62324       -12.66147        -2.69979
| 58>    C       -6.06231       -14.00786        -2.76701
| 59>    C       -6.87565       -14.72621        -1.89743
| 60>    C       -7.10929       -16.02565        -2.31004
| 61>    C       -6.47292       -16.35954        -3.50140
| 62>    S       -5.56107       -15.00373        -4.09562
| 63>    C       -6.40307       -17.59430        -4.17923
| 64>    C       -7.19735       -18.69746        -4.06150
| 65>    C       -6.66255       -20.01357        -4.50856
| 66>    O       -5.67161       -20.20298        -5.17462
| 67>    C       -7.56527       -21.02041        -3.91434
| 68>    C       -7.45184       -22.38050        -3.91342
| 69>    C       -8.42935       -23.15048        -3.24367
| 70>    C       -9.50701       -22.49194        -2.58317
| 71>    C      -10.47316       -23.26571        -1.90948
| 72>    C      -10.37572       -24.62885        -1.89444
| 73>    C       -9.31059       -25.27916        -2.54942
| 74>    C       -8.35728       -24.55668        -3.21072
| 75>    F       -9.23948       -26.61649        -2.51688
| 76>    F      -11.29491       -25.36231        -1.25362
| 77>    C       -9.60314       -21.08145        -2.60914
| 78>    C       -8.64837       -20.35690        -3.27039
| 79>    C       -8.50396       -18.91850        -3.48621
| 80>    C       -9.52118       -18.00253        -3.39958
| 81>    C       -9.41199       -16.67884        -3.86943
| 82>    N       -9.36824       -15.60502        -4.27239
| 83>    C      -10.80997       -18.30585        -2.91647
| 84>    N      -11.86531       -18.50178        -2.51009
| 85>    H       -2.05382         4.37581        -0.16679
| 86>    H       -5.79210         3.85424         3.04641
| 87>    H       -1.89323         1.95623        -0.40979
| 88>    H       -5.65585         1.37132         2.80971
| 89>    H       -3.06943        -3.32061        -0.42294
| 90>    H       -5.56460        -3.47381         2.63401
| 91>    H       -6.59728        -5.79996         2.81724
| 92>    H       -7.94812        -9.21349         2.91140
| 93>    H       -7.81550        -7.45127         2.77223
| 94>    H       -5.72745        -9.38306         3.92923
| 95>    H       -6.70236        -8.23900         4.85415
| 96>    H       -5.45009        -7.64919         3.75378
| 97>    H       -3.63576       -10.79632        -3.48114
| 98>    H       -3.42766        -9.03911        -3.60549
| 99>    H       -5.97404       -10.48397        -4.51197
|100>    H       -4.66550        -9.96550        -5.58345
|101>    H       -5.60112        -8.76853        -4.68562
|102>    H       -6.58683       -12.18658        -0.89548
|103>    H       -4.99543       -12.34525        -3.51767
|104>    H       -7.28716       -14.30787        -0.99738
|105>    H       -7.68593       -16.73352        -1.74128
|106>    H       -5.54741       -17.72583        -4.83543
|107>    H       -6.62705       -22.86305        -4.41522
|108>    H      -11.29700       -22.78423        -1.40619
|109>    H       -7.54817       -25.06931        -3.70695
|110>    H      -10.42495       -20.60836        -2.09545
|111> *
|112>
|113>                          ****END OF INPUT****

CARTESIAN COORDINATES (ANGSTROEM)
---------------------------------
  C     -2.867150    4.244980    0.529800
  C     -3.460750    5.341180    1.089680
  F     -3.036940    6.571850    0.773490
  C     -4.523330    5.193450    2.003900
  F     -5.086860    6.286120    2.536780
  C     -4.977770    3.950680    2.345490
  C     -4.387110    2.801430    1.785040
  C     -3.311810    2.949140    0.861400
  C     -2.700860    1.810200    0.288840
  C     -3.153810    0.562270    0.628090
  C     -4.233860    0.425280    1.541440
  C     -4.840320    1.505270    2.115350
  C     -4.550680   -1.004960    1.726110
  O     -5.391660   -1.444800    2.481360
  C     -3.652460   -1.735950    0.799910
  C     -2.726940   -0.772600    0.221420
  C     -1.595630   -1.050060   -0.499290
  C     -0.731040   -0.060510   -1.014380
  N      0.003120    0.696280   -1.467980
  C     -1.089900   -2.338150   -0.780990
  N     -0.586380   -3.342100   -1.019200
  C     -3.717950   -3.043930    0.401080
  C     -4.512080   -4.119840    0.850150
  C     -5.363550   -4.268740    1.940150
  C     -5.918080   -5.530860    2.031580
  C     -5.517670   -6.397080    1.014800
  S     -4.419520   -5.599380   -0.070930
  C     -5.857680   -7.747870    0.740590
  N     -6.644700   -8.599160    1.483320
  C     -7.246820   -8.384050    2.776820
  C     -6.212800   -8.410640    3.899560
  C     -6.757440   -9.873130    0.873920
  O     -7.393870  -10.787400    1.352320
  C     -5.984700   -9.758200   -0.337780
  C     -5.444820   -8.456580   -0.387960
  C     -4.674050   -8.349400   -1.602130
  O     -4.030490   -7.431730   -2.070390
  N     -4.791840   -9.614200   -2.213250
  C     -4.164760   -9.840360   -3.493540
  C     -5.168410   -9.764870   -4.641530
  C     -5.578280  -10.466760   -1.469750
  C     -5.951020  -11.814840   -1.688330
  C     -5.623240  -12.661470   -2.699790
  C     -6.062310  -14.007860   -2.767010
  C     -6.875650  -14.726210   -1.897430
  C     -7.109290  -16.025650   -2.310040
  C     -6.472920  -16.359540   -3.501400
  S     -5.561070  -15.003730   -4.095620
  C     -6.403070  -17.594300   -4.179230
  C     -7.197350  -18.697460   -4.061500
  C     -6.662550  -20.013570   -4.508560
  O     -5.671610  -20.202980   -5.174620
  C     -7.565270  -21.020410   -3.914340
  C     -7.451840  -22.380500   -3.913420
  C     -8.429350  -23.150480   -3.243670
  C     -9.507010  -22.491940   -2.583170
  C    -10.473160  -23.265710   -1.909480
  C    -10.375720  -24.628850   -1.894440
  C     -9.310590  -25.279160   -2.549420
  C     -8.357280  -24.556680   -3.210720
  F     -9.239480  -26.616490   -2.516880
  F    -11.294910  -25.362310   -1.253620
  C     -9.603140  -21.081450   -2.609140
  C     -8.648370  -20.356900   -3.270390
  C     -8.503960  -18.918500   -3.486210
  C     -9.521180  -18.002530   -3.399580
  C     -9.411990  -16.678840   -3.869430
  N     -9.368240  -15.605020   -4.272390
  C    -10.809970  -18.305850   -2.916470
  N    -11.865310  -18.501780   -2.510090
  H     -2.053820    4.375810   -0.166790
  H     -5.792100    3.854240    3.046410
  H     -1.893230    1.956230   -0.409790
  H     -5.655850    1.371320    2.809710
  H     -3.069430   -3.320610   -0.422940
  H     -5.564600   -3.473810    2.634010
  H     -6.597280   -5.799960    2.817240
  H     -7.948120   -9.213490    2.911400
  H     -7.815500   -7.451270    2.772230
  H     -5.727450   -9.383060    3.929230
  H     -6.702360   -8.239000    4.854150
  H     -5.450090   -7.649190    3.753780
  H     -3.635760  -10.796320   -3.481140
  H     -3.427660   -9.039110   -3.605490
  H     -5.974040  -10.483970   -4.511970
  H     -4.665500   -9.965500   -5.583450
  H     -5.601120   -8.768530   -4.685620
  H     -6.586830  -12.186580   -0.895480
  H     -4.995430  -12.345250   -3.517670
  H     -7.287160  -14.307870   -0.997380
  H     -7.685930  -16.733520   -1.741280
  H     -5.547410  -17.725830   -4.835430
  H     -6.627050  -22.863050   -4.415220
  H    -11.297000  -22.784230   -1.406190
  H     -7.548170  -25.069310   -3.706950
  H    -10.424950  -20.608360   -2.095450

 Total Charge           Charge          ....    0
 Multiplicity           Mult            ....    1
 Number of Electrons    NEL             ....  492
 Basis Dimension        Dim             .... 1118

ORBITAL ENERGIES
----------------

  NO   OCC          E(Eh)            E(eV)
   0   2.0000     -88.979053     -2421.2431
   1   2.0000     -88.973415     -2421.0897
   2   2.0000     -24.800169      -674.8469
   3   2.0000     -24.799555      -674.8302
   4   2.0000     -24.799382      -674.8255
   5   2.0000     -24.798477      -674.8009
   6   2.0000     -19.223640      -523.1018
   7   2.0000     -19.218840      -522.9712
   8   2.0000     -19.200815      -522.4807
   9   2.0000     -19.200738      -522.4786
  10   2.0000     -14.465818      -393.6349
  11   2.0000     -14.464022      -393.5860
  12   2.0000     -14.420192      -392.3934
  13   2.0000     -14.419161      -392.3653
  14   2.0000     -14.416932      -392.3047
  15   2.0000     -14.416835      -392.3020
  16   2.0000     -10.384306      -282.5713
  17   2.0000     -10.383875      -282.5596
  18   2.0000     -10.383362      -282.5456
  19   2.0000     -10.382920      -282.5336
  20   2.0000     -10.382827      -282.5311
  21   2.0000     -10.382055      -282.5101
  22   2.0000     -10.375124      -282.3215
  23   2.0000     -10.370347      -282.1915
  24   2.0000     -10.359360      -281.8925
  25   2.0000     -10.350366      -281.6478
  26   2.0000     -10.347728      -281.5760
  27   2.0000     -10.346587      -281.5450
  28   2.0000     -10.345004      -281.5019
  29   2.0000     -10.343667      -281.4655
  30   2.0000     -10.335059      -281.2312
  31   2.0000     -10.330156      -281.0978
  32   2.0000     -10.328103      -281.0420
  33   2.0000     -10.327733      -281.0319
  34   2.0000     -10.324912      -280.9551
  35   2.0000     -10.322725      -280.8956
  36   2.0000     -10.319957      -280.8203
  37   2.0000     -10.319775      -280.8154
  38   2.0000     -10.319389      -280.8049
  39   2.0000     -10.319182      -280.7992
  40   2.0000     -10.315713      -280.7048
  41   2.0000     -10.315017      -280.6859
  42   2.0000     -10.314139      -280.6620
  43   2.0000     -10.313070      -280.6329
  44   2.0000     -10.312656      -280.6216
  45   2.0000     -10.312052      -280.6052
  46   2.0000     -10.311761      -280.5973
  47   2.0000     -10.310956      -280.5754
  48   2.0000     -10.308868      -280.5186
  49   2.0000     -10.306154      -280.4447
  50   2.0000     -10.305706      -280.4325
  51   2.0000     -10.305426      -280.4249
  52   2.0000     -10.305176      -280.4181
  53   2.0000     -10.304221      -280.3921
  54   2.0000     -10.303917      -280.3838
  55   2.0000     -10.303741      -280.3790
  56   2.0000     -10.303188      -280.3640
  57   2.0000     -10.302853      -280.3549
  58   2.0000     -10.302576      -280.3474
  59   2.0000     -10.302481      -280.3448
  60   2.0000     -10.301592      -280.3206
  61   2.0000     -10.297731      -280.2155
  62   2.0000     -10.296609      -280.1850
  63   2.0000     -10.295822      -280.1636
  64   2.0000     -10.295029      -280.1420
  65   2.0000     -10.290510      -280.0190
  66   2.0000     -10.274079      -279.5719
  67   2.0000     -10.273205      -279.5481
  68   2.0000     -10.270528      -279.4753
  69   2.0000     -10.269400      -279.4446
  70   2.0000      -8.074960      -219.7308
  71   2.0000      -8.068057      -219.5430
  72   2.0000      -6.044023      -164.4662
  73   2.0000      -6.040059      -164.3584
  74   2.0000      -6.037283      -164.2828
  75   2.0000      -6.037185      -164.2802
  76   2.0000      -6.032915      -164.1640
  77   2.0000      -6.030434      -164.0964
  78   2.0000      -1.322760       -35.9941
  79   2.0000      -1.321945       -35.9720
  80   2.0000      -1.307878       -35.5892
  81   2.0000      -1.307085       -35.5676
  82   2.0000      -1.144120       -31.1331
  83   2.0000      -1.138746       -30.9869
  84   2.0000      -1.137189       -30.9445
  85   2.0000      -1.134536       -30.8723
  86   2.0000      -1.073954       -29.2238
  87   2.0000      -1.065141       -28.9840
  88   2.0000      -1.024522       -27.8787
  89   2.0000      -1.021961       -27.8090
  90   2.0000      -1.009196       -27.4616
  91   2.0000      -1.006886       -27.3988
  92   2.0000      -1.005917       -27.3724
  93   2.0000      -1.002487       -27.2791
  94   2.0000      -0.997389       -27.1403
  95   2.0000      -0.995353       -27.0849
  96   2.0000      -0.984097       -26.7786
  97   2.0000      -0.982966       -26.7479
  98   2.0000      -0.940448       -25.5909
  99   2.0000      -0.937316       -25.5057
 100   2.0000      -0.934716       -25.4349
 101   2.0000      -0.925858       -25.1939
 102   2.0000      -0.911132       -24.7932
 103   2.0000      -0.906363       -24.6634
 104   2.0000      -0.896318       -24.3901
 105   2.0000      -0.895340       -24.3634
 106   2.0000      -0.891184       -24.2503
 107   2.0000      -0.885741       -24.1022
 108   2.0000      -0.880286       -23.9538
 109   2.0000      -0.860648       -23.4194
 110   2.0000      -0.856901       -23.3174
 111   2.0000      -0.847451       -23.0603
 112   2.0000      -0.844048       -22.9677
 113   2.0000      -0.842763       -22.9327
 114   2.0000      -0.841937       -22.9103
 115   2.0000      -0.829327       -22.5671
 116   2.0000      -0.815095       -22.1799
 117   2.0000      -0.806678       -21.9508
 118   2.0000      -0.781044       -21.2533
 119   2.0000      -0.769964       -20.9518
 120   2.0000      -0.769549       -20.9405
 121   2.0000      -0.769314       -20.9341
 122   2.0000      -0.765123       -20.8200
 123   2.0000      -0.741991       -20.1906
 124   2.0000      -0.739104       -20.1120
 125   2.0000      -0.724407       -19.7121
 126   2.0000      -0.721111       -19.6224
 127   2.0000      -0.720098       -19.5949
 128   2.0000      -0.712719       -19.3941
 129   2.0000      -0.712051       -19.3759
 130   2.0000      -0.710224       -19.3262
 131   2.0000      -0.695408       -18.9230
 132   2.0000      -0.687033       -18.6951
 133   2.0000      -0.684180       -18.6175
 134   2.0000      -0.682006       -18.5583
 135   2.0000      -0.671976       -18.2854
 136   2.0000      -0.664575       -18.0840
 137   2.0000      -0.659180       -17.9372
 138   2.0000      -0.656887       -17.8748
 139   2.0000      -0.655661       -17.8414
 140   2.0000      -0.649942       -17.6858
 141   2.0000      -0.644788       -17.5456
 142   2.0000      -0.643681       -17.5154
 143   2.0000      -0.637542       -17.3484
 144   2.0000      -0.627507       -17.0753
 145   2.0000      -0.622017       -16.9259
 146   2.0000      -0.617512       -16.8034
 147   2.0000      -0.613246       -16.6873
 148   2.0000      -0.608857       -16.5679
 149   2.0000      -0.599354       -16.3092
 150   2.0000      -0.595487       -16.2040
 151   2.0000      -0.591575       -16.0976
 152   2.0000      -0.587416       -15.9844
 153   2.0000      -0.587132       -15.9767
 154   2.0000      -0.586479       -15.9589
 155   2.0000      -0.584417       -15.9028
 156   2.0000      -0.581561       -15.8251
 157   2.0000      -0.578415       -15.7395
 158   2.0000      -0.575657       -15.6644
 159   2.0000      -0.561087       -15.2679
 160   2.0000      -0.558886       -15.2081
 161   2.0000      -0.555952       -15.1282
 162   2.0000      -0.555278       -15.1099
 163   2.0000      -0.552815       -15.0429
 164   2.0000      -0.548887       -14.9360
 165   2.0000      -0.548012       -14.9122
 166   2.0000      -0.546039       -14.8585
 167   2.0000      -0.542055       -14.7501
 168   2.0000      -0.541482       -14.7345
 169   2.0000      -0.539737       -14.6870
 170   2.0000      -0.538134       -14.6434
 171   2.0000      -0.535402       -14.5690
 172   2.0000      -0.533265       -14.5109
 173   2.0000      -0.531392       -14.4599
 174   2.0000      -0.529750       -14.4152
 175   2.0000      -0.527228       -14.3466
 176   2.0000      -0.525706       -14.3052
 177   2.0000      -0.522882       -14.2283
 178   2.0000      -0.520642       -14.1674
 179   2.0000      -0.519548       -14.1376
 180   2.0000      -0.517105       -14.0711
 181   2.0000      -0.516658       -14.0590
 182   2.0000      -0.512951       -13.9581
 183   2.0000      -0.511514       -13.9190
 184   2.0000      -0.506607       -13.7855
 185   2.0000      -0.500902       -13.6302
 186   2.0000      -0.499667       -13.5966
 187   2.0000      -0.498427       -13.5629
 188   2.0000      -0.497527       -13.5384
 189   2.0000      -0.494740       -13.4626
 190   2.0000      -0.491543       -13.3756
 191   2.0000      -0.486588       -13.2407
 192   2.0000      -0.486186       -13.2298
 193   2.0000      -0.480424       -13.0730
 194   2.0000      -0.478443       -13.0191
 195   2.0000      -0.476528       -12.9670
 196   2.0000      -0.474029       -12.8990
 197   2.0000      -0.471066       -12.8184
 198   2.0000      -0.468701       -12.7540
 199   2.0000      -0.466422       -12.6920
 200   2.0000      -0.465036       -12.6543
 201   2.0000      -0.462414       -12.5829
 202   2.0000      -0.461317       -12.5531
 203   2.0000      -0.459935       -12.5155
 204   2.0000      -0.456457       -12.4208
 205   2.0000      -0.454031       -12.3548
 206   2.0000      -0.450402       -12.2561
 207   2.0000      -0.449940       -12.2435
 208   2.0000      -0.448252       -12.1976
 209   2.0000      -0.447616       -12.1803
 210   2.0000      -0.445814       -12.1312
 211   2.0000      -0.444529       -12.0962
 212   2.0000      -0.440874       -11.9968
 213   2.0000      -0.439322       -11.9546
 214   2.0000      -0.434924       -11.8349
 215   2.0000      -0.432655       -11.7731
 216   2.0000      -0.431453       -11.7404
 217   2.0000      -0.430931       -11.7262
 218   2.0000      -0.430198       -11.7063
 219   2.0000      -0.428278       -11.6540
 220   2.0000      -0.427114       -11.6224
 221   2.0000      -0.425795       -11.5865
 222   2.0000      -0.422935       -11.5086
 223   2.0000      -0.419851       -11.4247
 224   2.0000      -0.410119       -11.1599
 225   2.0000      -0.407289       -11.0829
 226   2.0000      -0.401237       -10.9182
 227   2.0000      -0.391216       -10.6455
 228   2.0000      -0.387879       -10.5547
 229   2.0000      -0.379129       -10.3166
 230   2.0000      -0.362580        -9.8663
 231   2.0000      -0.355025        -9.6607
 232   2.0000      -0.354039        -9.6339
 233   2.0000      -0.344757        -9.3813
 234   2.0000      -0.344649        -9.3784
 235   2.0000      -0.341930        -9.3044
 236   2.0000      -0.338299        -9.2056
 237   2.0000      -0.337487        -9.1835
 238   2.0000      -0.326839        -8.8937
 239   2.0000      -0.319903        -8.7050
 240   2.0000      -0.319803        -8.7023
 241   2.0000      -0.310484        -8.4487
 242   2.0000      -0.305143        -8.3034
 243   2.0000      -0.297978        -8.1084
 244   2.0000      -0.289812        -7.8862
 245   2.0000      -0.243601        -6.6287
 246   0.0000      -0.117805        -3.2056
 247   0.0000      -0.097407        -2.6506
 248   0.0000      -0.074472        -2.0265
 249   0.0000      -0.062379        -1.6974
 250   0.0000      -0.057212        -1.5568

MULLIKEN ATOMIC CHARGES
-----------------------
   0 C :   -0.107901
   1 C :    0.241214
   2 F :   -0.170386
   3 C :    0.238973
   4 F :   -0.172026
   5 C :   -0.104577
   6 C :    0.116152
   7 C :    0.112546
   8 C :   -0.082342
   9 C :    0.050311
  10 C :   -0.000825
  11 C :   -0.083415
  12 C :    0.158846
  13 O :   -0.154023
  14 C :   -0.088781
  15 C :    0.302017
  16 C :   -0.344713
  17 C :   -0.181876
  18 N :    0.148164
  19 C :   -0.204383
  20 N :    0.167341
  21 C :    0.049313
  22 C :   -0.089222
  23 C :    0.029716
  24 C :   -0.014634
  25 C :   -0.136675
  26 S :    0.215803
  27 C :    0.229357
  28 N :   -0.273371
  29 C :    0.092627
  30 C :   -0.001026
  31 C :    0.146835
  32 O :   -0.190857
  33 C :   -0.034816
  34 C :   -0.090175
  35 C :    0.149447
  36 O :   -0.196874
  37 N :   -0.266074
  38 C :    0.094850
  39 C :    0.000756
  40 C :    0.123916
  41 C :   -0.038026
  42 C :    0.085393
  43 C :   -0.079187
  44 C :    0.011247
  45 C :    0.066939
  46 C :   -0.122946
  47 S :    0.166136
  48 C :    0.100930
  49 C :   -0.144354
  50 C :    0.139477
  51 O :   -0.141782
  52 C :    0.015534
  53 C :   -0.083510
  54 C :    0.113088
  55 C :    0.112324
  56 C :   -0.106050
  57 C :    0.240352
  58 C :    0.238184
  59 C :   -0.103315
  60 F :   -0.171463
  61 F :   -0.170740
  62 C :   -0.082501
  63 C :    0.034722
  64 C :    0.266363
  65 C :   -0.335943
  66 C :   -0.209447
  67 N :    0.178271
  68 C :   -0.170191
  69 N :    0.153397
  70 H :    0.009260
  71 H :   -0.000218
  72 H :   -0.004382
  73 H :   -0.010400
  74 H :    0.023180
  75 H :    0.015381
  76 H :   -0.015495
  77 H :    0.047996
  78 H :    0.028800
  79 H :    0.027615
  80 H :    0.024966
  81 H :    0.026083
  82 H :    0.026517
  83 H :    0.050028
  84 H :    0.024682
  85 H :    0.025401
  86 H :    0.029521
  87 H :    0.008916
  88 H :   -0.016846
  89 H :    0.009108
  90 H :    0.006677
  91 H :    0.025956
  92 H :   -0.008004
  93 H :    0.006137
  94 H :    0.000253
  95 H :   -0.003245
Sum of atomic charges:   -0.0000000

LOEWDIN ATOMIC CHARGES
----------------------
   0 C :   -0.029253
   1 C :    0.066714
   2 F :   -0.048479
   3 C :    0.067749
   4 F :   -0.049408
   5 C :   -0.033535
   6 C :   -0.008808
   7 C :   -0.006238
   8 C :    0.017246
   9 C :   -0.022789
  10 C :   -0.051994
  11 C :    0.029300
  12 C :    0.087862
  13 O :   -0.140889
  14 C :   -0.092105
  15 C :    0.074405
  16 C :   -0.137238
  17 C :   -0.016816
  18 N :   -0.052676
  19 C :   -0.028609
  20 N :   -0.043578
  21 C :    0.051220
  22 C :   -0.180409
  23 C :   -0.010270
  24 C :   -0.050861
  25 C :   -0.164306
  26 S :    0.536335
  27 C :    0.059655
  28 N :   -0.003967
  29 C :    0.034285
  30 C :   -0.062494
  31 C :    0.082067
  32 O :   -0.191564
  33 C :   -0.109803
  34 C :   -0.125326
  35 C :    0.073542
  36 O :   -0.193927
  37 N :   -0.001874
  38 C :    0.035078
  39 C :   -0.062357
  40 C :    0.073051
  41 C :   -0.018047
  42 C :   -0.023091
  43 C :   -0.148316
  44 C :   -0.036211
  45 C :   -0.007902
  46 C :   -0.183241
  47 S :    0.471359
  48 C :    0.050071
  49 C :   -0.094730
  50 C :    0.082693
  51 O :   -0.142364
  52 C :   -0.053908
  53 C :    0.030760
  54 C :   -0.009452
  55 C :   -0.005741
  56 C :   -0.030250
  57 C :    0.067205
  58 C :    0.067129
  59 C :   -0.032601
  60 F :   -0.049047
  61 F :   -0.048481
  62 C :    0.013440
  63 C :   -0.020517
  64 C :    0.064570
  65 C :   -0.140326
  66 C :   -0.019923
  67 N :   -0.039915
  68 C :   -0.020400
  69 N :   -0.050926
  70 H :    0.048068
  71 H :    0.044694
  72 H :    0.040095
  73 H :    0.039728
  74 H :    0.045690
  75 H :    0.034862
  76 H :    0.033029
  77 H :    0.039276
  78 H :    0.021745
  79 H :    0.032717
  80 H :    0.032117
  81 H :    0.023282
  82 H :    0.021239
  83 H :    0.040012
  84 H :    0.023056
  85 H :    0.032187
  86 H :    0.033723
  87 H :    0.047245
  88 H :    0.029727
  89 H :    0.039582
  90 H :    0.037092
  91 H :    0.047033
  92 H :    0.040977
  93 H :    0.047335
  94 H :    0.045072
  95 H :    0.039642

  Mayer bond orders larger than 0.100000
B(  0-C ,  1-C ) :   1.4409 B(  0-C ,  5-C ) :   0.1081 B(  0-C ,  7-C ) :   1.1900
B(  0-C , 70-H ) :   1.0070 B(  1-C ,  2-F ) :   1.1359 B(  1-C ,  3-C ) :   1.1891
B(  3-C ,  4-F ) :   1.1336 B(  3-C ,  5-C ) :   1.4439 B(  5-C ,  6-C ) :   1.1921
B(  5-C , 71-H ) :   1.0072 B(  6-C ,  7-C ) :   1.2560 B(  6-C , 11-C ) :   1.1907
B(  7-C ,  8-C ) :   1.2163 B(  8-C ,  9-C ) :   1.4509 B(  8-C , 72-H ) :   0.9910
B(  9-C , 10-C ) :   1.2244 B(  9-C , 15-C ) :   0.9823 B( 10-C , 11-C ) :   1.4689
B( 10-C , 12-C ) :   0.9514 B( 11-C , 73-H ) :   1.0167 B( 12-C , 13-O ) :   2.1761
B( 12-C , 14-C ) :   0.9406 B( 14-C , 15-C ) :   1.0731 B( 14-C , 21-C ) :   1.5904
B( 15-C , 16-C ) :   1.6356 B( 16-C , 17-C ) :   1.1470 B( 16-C , 19-C ) :   1.1336
B( 17-C , 18-N ) :   2.9659 B( 19-C , 20-N ) :   2.9971 B( 21-C , 22-C ) :   1.2050
B( 21-C , 74-H ) :   0.9217 B( 22-C , 23-C ) :   1.4036 B( 22-C , 25-C ) :   0.1075
B( 22-C , 26-S ) :   1.1015 B( 23-C , 24-C ) :   1.3195 B( 23-C , 75-H ) :   0.9775
B( 24-C , 25-C ) :   1.3553 B( 24-C , 76-H ) :   1.0105 B( 25-C , 26-S ) :   1.1910
B( 25-C , 27-C ) :   1.1445 B( 27-C , 28-N ) :   1.1970 B( 27-C , 34-C ) :   1.3401
B( 28-N , 29-C ) :   0.9389 B( 28-N , 31-C ) :   1.0251 B( 29-C , 30-C ) :   1.1159
B( 29-C , 77-H ) :   0.9226 B( 29-C , 78-H ) :   0.9519 B( 30-C , 79-H ) :   0.9616
B( 30-C , 80-H ) :   0.9679 B( 30-C , 81-H ) :   0.9687 B( 31-C , 32-O ) :   2.1226
B( 31-C , 33-C ) :   0.9838 B( 33-C , 34-C ) :   1.2541 B( 33-C , 40-C ) :   1.3279
B( 34-C , 35-C ) :   0.9747 B( 35-C , 36-O ) :   2.0880 B( 35-C , 37-N ) :   1.0526
B( 37-N , 38-C ) :   0.9396 B( 37-N , 40-C ) :   1.1666 B( 38-C , 39-C ) :   1.1164
B( 38-C , 82-H ) :   0.9511 B( 38-C , 83-H ) :   0.9240 B( 39-C , 84-H ) :   0.9686
B( 39-C , 85-H ) :   0.9685 B( 39-C , 86-H ) :   0.9613 B( 40-C , 41-C ) :   1.1993
B( 41-C , 42-C ) :   1.5878 B( 41-C , 87-H ) :   0.9457 B( 42-C , 43-C ) :   1.1290
B( 42-C , 88-H ) :   0.9647 B( 43-C , 44-C ) :   1.4304 B( 43-C , 47-S ) :   1.1545
B( 44-C , 45-C ) :   1.3558 B( 44-C , 89-H ) :   0.9920 B( 45-C , 46-C ) :   1.4060
B( 45-C , 90-H ) :   0.9878 B( 46-C , 47-S ) :   1.1203 B( 46-C , 48-C ) :   1.1460
B( 48-C , 49-C ) :   1.6528 B( 48-C , 91-H ) :   0.9275 B( 49-C , 50-C ) :   0.9446
B( 49-C , 64-C ) :   1.0477 B( 50-C , 51-O ) :   2.2690 B( 50-C , 52-C ) :   0.9170
B( 52-C , 53-C ) :   1.4772 B( 52-C , 63-C ) :   1.2214 B( 53-C , 54-C ) :   1.1932
B( 53-C , 92-H ) :   1.0158 B( 54-C , 55-C ) :   1.2560 B( 54-C , 59-C ) :   1.1942
B( 55-C , 56-C ) :   1.1896 B( 55-C , 62-C ) :   1.2149 B( 56-C , 57-C ) :   1.4424
B( 56-C , 59-C ) :   0.1085 B( 56-C , 93-H ) :   1.0066 B( 57-C , 58-C ) :   1.1928
B( 57-C , 61-F ) :   1.1346 B( 58-C , 59-C ) :   1.4433 B( 58-C , 60-F ) :   1.1338
B( 59-C , 94-H ) :   1.0066 B( 62-C , 63-C ) :   1.4597 B( 62-C , 95-H ) :   0.9935
B( 63-C , 64-C ) :   0.9933 B( 64-C , 65-C ) :   1.6452 B( 65-C , 66-C ) :   1.1659
B( 65-C , 68-C ) :   1.1295 B( 66-C , 67-N ) :   3.0071 B( 68-C , 69-N ) :   2.9847

-----------------------------------------------------------------------------
         ABSORPTION SPECTRUM VIA TRANSITION ELECTRIC DIPOLE MOMENTS
-----------------------------------------------------------------------------
State   Energy  Wavelength   fosc         T2         TX        TY        TZ
        (cm-1)    (nm)                  (au**2)     (au)      (au)      (au)
-----------------------------------------------------------------------------
   0   13011.7    768.5   1.553709074  39.31062   1.19275   5.81148   2.02846
   1   18552.1    539.0   0.025370071   0.45020  -0.27249  -0.40770  -0.45796
   2   22883.9    437.0   0.244557726   3.51825   1.38921   1.14722  -0.52177
   3   23851.4    419.3   0.172954447   2.38723   0.39045  -0.93317  -1.16789
   4   24901.5    401.6   0.461470092   6.10090   1.47003   1.91719  -0.51408
   5   26104.2    383.1   0.037184496   0.46895   0.44554   0.50268  -0.13326
   6   26532.3    376.9   0.016475689   0.20443  -0.14347   0.42735  -0.03491
   7   26829.0    372.7   0.202782829   2.48830  -0.27105  -1.55380   0.02311
   8   27264.8    366.8   0.007693716   0.09290   0.02290   0.24913   0.17410
   9   27641.3    361.8   0.142956054   1.70263  -0.14647  -1.29475  -0.06926
  10   28125.0    355.6   0.088770613   1.03909   0.21991   0.96902  -0.22742
  11   28416.4    351.9   0.076012574   0.88063   0.23325  -0.90811  -0.03942
  12   28616.1    349.5   0.379420029   4.36501   0.27750   2.06985  -0.06090
  13   29109.6    343.5   0.072775744   0.82305  -0.12108   0.88040   0.18245
  14   29327.1    341.0   0.013779605   0.15468  -0.32534  -0.20264   0.08818
  15   29585.7    338.0   0.093705222   1.04270  -0.28466   0.97783  -0.07423
  16   30855.6    324.1   0.000837997   0.00894   0.03806   0.00484   0.08642
  17   31694.7    315.5   0.013909285   0.14448   0.34800   0.04805  -0.14514
  18   32102.3    311.5   0.049636540   0.50903  -0.20678   0.66805   0.14134
  19   32879.9    304.1   0.087042466   0.87152   0.36514  -0.70698  -0.48823
  20   33309.5    300.2   0.064746191   0.63991   0.45437  -0.29870  -0.58672
  21   33565.9    297.9   1.146369083  11.24349  -0.71073   3.25770   0.35465
  22   33667.8    297.0   0.069846163   0.68297  -0.27201  -0.50873   0.59175
  23   34254.9    291.9   0.220492432   2.11907   0.36405   1.37288  -0.31897
  24   34578.7    289.2   0.016132323   0.15359  -0.10672  -0.24576   0.28601
  25   34640.0    288.7   0.003007330   0.02858   0.01669  -0.05237  -0.15988
  26   34798.7    287.4   0.013035854   0.12333  -0.15114   0.23192   0.21609
  27   35407.0    282.4   0.020100359   0.18689   0.40870   0.07972  -0.11621
  28   35756.0    279.7   0.007557787   0.06959  -0.22720   0.10804  -0.07934
  29   36350.1    275.1   0.031236278   0.28290   0.40751  -0.28106  -0.19452
  30   36443.5    274.4   0.097095449   0.87711   0.15308  -0.90554  -0.18348
  31   36874.3    271.2   0.076845760   0.68607   0.57382   0.32812  -0.49914
  32   37054.3    269.9   0.048920160   0.43464  -0.15706  -0.53652   0.34945
  33   37695.3    265.3   0.040295808   0.35192  -0.46670  -0.20619   0.30265
  34   37817.2    264.4   0.012154972   0.10581   0.19660  -0.25370   0.05291
  35   37869.4    264.1   0.197078334   1.71327  -0.90040   0.77839   0.54467
  36   38277.1    261.3   0.191723423   1.64897  -0.99935  -0.16381   0.78958
  37   38634.6    258.8   0.248477373   2.11732   0.95540  -1.02609  -0.38944
  38   39055.6    256.0   0.074109384   0.62469   0.29567  -0.58227  -0.44523
  39   39306.7    254.4   0.039349519   0.32957   0.17705   0.54286   0.05936
  40   39904.1    250.6   0.031693752   0.26148  -0.00722  -0.49820  -0.11500
  41   40138.5    249.1   0.115136592   0.94434  -0.37911  -0.87702   0.17734

FINAL SINGLE POINT ENERGY     -3894.437387464033

DIPOLE MOMENT
-------------
                                X             Y             Z
Electronic contribution:     -3.62147      -0.06880      -4.85019
Nuclear contribution   :      3.13714      -0.59705       6.15179
                        -----------------------------------------
Total Dipole Moment    :     -0.48434      -0.66585       1.30161
                        -----------------------------------------
Magnitude (a.u.)       :      1.54017
Magnitude (Debye)      :      3.91479

Rotational constants in cm-1:     0.003643     0.000181     0.000176
Rotational constants in MHz :   109.214468     5.426450     5.279548

                             ****ORCA TERMINATED NORMALLY****
TOTAL RUN TIME: 0 days 0 hours 8 minutes 43 seconds 214 msec
