                         Program Version 4.2.0 -  RELEASE  -
|  1> # ORCA input file
|  2> # SCF done       -208.398455759189          0.000318904060
|  3> ! CAM-B3LYP def2-SVP def2/J RIJCOSX Grid4 TightSCF
|  4> %maxcore 5000
|  5> %tddft
|  6>     Mode sTDDFT
|  7>     Ethresh 5.0
|  8>     maxcore 5000
|  9> end
| 10>
| 11> %pal
| 12>   nprocs 6
| 13>   end
| 14> * xyz 0 1
| 15>    C        6.30691        -0.62219        -0.21916
| 16>    C        7.45635        -0.82986        -0.92873
| 17>    F        8.34729         0.15781        -1.07039
| 18>    C        7.71880        -2.08329        -1.51967
| 19>    F        8.85278        -2.25728        -2.20824
| 20>    C        6.82743        -3.11168        -1.39263
| 21>    C        5.63375        -2.92886        -0.66755
| 22>    C        5.36683        -1.66195        -0.07041
| 23>    C        4.17451        -1.45409         0.65890
| 24>    C        3.27444        -2.48030         0.78462
| 25>    C        3.55208        -3.74356         0.19064
| 26>    C        4.69702        -3.97482        -0.51739
| 27>    C        2.45446        -4.68215         0.48522
| 28>    O        2.39972        -5.85296         0.18332
| 29>    C        1.48167        -3.91118         1.31067
| 30>    C        1.98000        -2.55246         1.45249
| 31>    C        1.31672        -1.50287         2.02900
| 32>    C        0.01672        -1.56918         2.57656
| 33>    N       -1.04453        -1.54386         3.01262
| 34>    C        1.83663        -0.19299         2.11587
| 35>    N        2.20988         0.88698         2.21869
| 36>    C        0.41329        -4.45131         1.95756
| 37>    C       -0.17091        -5.73054         1.73862
| 38>    C       -0.86498        -6.44120         2.68901
| 39>    C       -1.33334        -7.66694         2.11349
| 40>    C       -0.90814        -7.63557         0.70304
| 41>    C       -0.22287        -6.48282         0.48814
| 42>    C       -1.20273        -8.59167        -0.27627
| 43>    N       -1.45173        -9.35848        -1.09454
| 44>    C       -2.06753        -8.64743         2.72838
| 45>    C       -2.57912        -9.85048         2.13621
| 46>    C       -3.35075       -10.50626         3.05459
| 47>    C       -3.33502        -9.74773         4.29357
| 48>    C       -2.56126        -8.64378         4.11649
| 49>    C       -2.29001        -7.68732         5.10187
| 50>    N       -2.07938        -6.92431         5.93380
| 51>    C       -4.10209       -11.71913         2.80508
| 52>    C       -5.01742       -12.24520         3.63988
| 53>    N       -3.71069       -12.37990         1.65161
| 54>    N       -4.50645       -12.96746         0.93251
| 55>    C       -4.53480       -13.50471        -0.24545
| 56>    C       -5.24264       -14.65963        -0.52928
| 57>    C       -5.37560       -15.19385        -1.81236
| 58>    C       -6.18265       -16.35868        -2.01905
| 59>    C       -6.36576       -16.93583        -3.31849
| 60>    N       -7.18436       -17.99022        -3.46978
| 61>    C       -7.77836       -18.49417        -2.41696
| 62>    C       -7.55189       -17.95053        -1.11406
| 63>    N       -6.77926       -16.89811        -0.95337
| 64>    C       -8.17475       -18.52274         0.02215
| 65>    N       -8.69337       -18.99819         0.92628
| 66>    C       -8.66851       -19.58798        -2.57851
| 67>    N       -9.39698       -20.46699        -2.66376
| 68>    C       -5.67347       -16.45931        -4.46181
| 69>    C       -4.89182       -15.29671        -4.26731
| 70>    C       -4.76252       -14.66423        -2.97905
| 71>    N       -3.99673       -13.57636        -3.04108
| 72>    S       -3.50308       -13.35303        -4.55538
| 73>    N       -4.23486       -14.62238        -5.21248
| 74>    C       -5.84484       -17.11987        -5.70360
| 75>    C       -5.03698       -17.13470        -6.80245
| 76>    C       -5.61384       -17.53034        -8.11854
| 77>    O       -6.69782       -18.02579        -8.31651
| 78>    C       -4.60072       -17.13567        -9.11958
| 79>    C       -4.67668       -17.18433       -10.48123
| 80>    C       -3.57753       -16.73353       -11.24685
| 81>    C       -2.42103       -16.23281       -10.58135
| 82>    C       -1.33007       -15.78100       -11.35068
| 83>    C       -1.38322       -15.82723       -12.71552
| 84>    C       -2.52687       -16.32364       -13.37243
| 85>    C       -3.60196       -16.76765       -12.65457
| 86>    F       -2.55169       -16.35577       -14.71178
| 87>    F       -0.34403       -15.39858       -13.44444
| 88>    C       -2.37028       -16.19875        -9.16867
| 89>    C       -3.44259       -16.65084        -8.44748
| 90>    C       -3.65633       -16.77192        -7.00752
| 91>    C       -2.66360       -16.76400        -6.06018
| 92>    C       -2.85470       -17.13225        -4.71532
| 93>    N       -2.95331       -17.43585        -3.61181
| 94>    C       -1.32033       -16.43487        -6.32826
| 95>    N       -0.22053       -16.14178        -6.47953
| 96>    H        6.12121         0.34308         0.22544
| 97>    H        7.04323        -4.06444        -1.85021
| 98>    H        4.00518        -0.48720         1.10432
| 99>    H        4.88310        -4.94263        -0.95774
|100>    H       -0.04878        -3.87957         2.75391
|101>    H       -1.00747        -6.15214         3.71225
|102>    H        0.17673        -6.15299        -0.45050
|103>    H       -2.39323       -10.16230         1.12761
|104>    H       -3.83672       -10.02444         5.20141
|105>    H       -5.22723       -11.80623         4.59723
|106>    H       -5.52997       -13.15799         3.39015
|107>    H       -4.09567       -12.96258        -1.08763
|108>    H       -5.68840       -15.22444         0.27672
|109>    H       -6.77725       -17.66739        -5.80700
|110>    H       -5.56188       -17.56355       -10.96875
|111>    H       -0.44523       -15.40157       -10.86390
|112>    H       -4.46983       -17.14513       -13.17227
|113>    H       -1.48536       -15.80863        -8.69183
|114> *
|115>
|116>                          ****END OF INPUT****

CARTESIAN COORDINATES (ANGSTROEM)
---------------------------------
  C      6.306910   -0.622190   -0.219160
  C      7.456350   -0.829860   -0.928730
  F      8.347290    0.157810   -1.070390
  C      7.718800   -2.083290   -1.519670
  F      8.852780   -2.257280   -2.208240
  C      6.827430   -3.111680   -1.392630
  C      5.633750   -2.928860   -0.667550
  C      5.366830   -1.661950   -0.070410
  C      4.174510   -1.454090    0.658900
  C      3.274440   -2.480300    0.784620
  C      3.552080   -3.743560    0.190640
  C      4.697020   -3.974820   -0.517390
  C      2.454460   -4.682150    0.485220
  O      2.399720   -5.852960    0.183320
  C      1.481670   -3.911180    1.310670
  C      1.980000   -2.552460    1.452490
  C      1.316720   -1.502870    2.029000
  C      0.016720   -1.569180    2.576560
  N     -1.044530   -1.543860    3.012620
  C      1.836630   -0.192990    2.115870
  N      2.209880    0.886980    2.218690
  C      0.413290   -4.451310    1.957560
  C     -0.170910   -5.730540    1.738620
  C     -0.864980   -6.441200    2.689010
  C     -1.333340   -7.666940    2.113490
  C     -0.908140   -7.635570    0.703040
  C     -0.222870   -6.482820    0.488140
  C     -1.202730   -8.591670   -0.276270
  N     -1.451730   -9.358480   -1.094540
  C     -2.067530   -8.647430    2.728380
  C     -2.579120   -9.850480    2.136210
  C     -3.350750  -10.506260    3.054590
  C     -3.335020   -9.747730    4.293570
  C     -2.561260   -8.643780    4.116490
  C     -2.290010   -7.687320    5.101870
  N     -2.079380   -6.924310    5.933800
  C     -4.102090  -11.719130    2.805080
  C     -5.017420  -12.245200    3.639880
  N     -3.710690  -12.379900    1.651610
  N     -4.506450  -12.967460    0.932510
  C     -4.534800  -13.504710   -0.245450
  C     -5.242640  -14.659630   -0.529280
  C     -5.375600  -15.193850   -1.812360
  C     -6.182650  -16.358680   -2.019050
  C     -6.365760  -16.935830   -3.318490
  N     -7.184360  -17.990220   -3.469780
  C     -7.778360  -18.494170   -2.416960
  C     -7.551890  -17.950530   -1.114060
  N     -6.779260  -16.898110   -0.953370
  C     -8.174750  -18.522740    0.022150
  N     -8.693370  -18.998190    0.926280
  C     -8.668510  -19.587980   -2.578510
  N     -9.396980  -20.466990   -2.663760
  C     -5.673470  -16.459310   -4.461810
  C     -4.891820  -15.296710   -4.267310
  C     -4.762520  -14.664230   -2.979050
  N     -3.996730  -13.576360   -3.041080
  S     -3.503080  -13.353030   -4.555380
  N     -4.234860  -14.622380   -5.212480
  C     -5.844840  -17.119870   -5.703600
  C     -5.036980  -17.134700   -6.802450
  C     -5.613840  -17.530340   -8.118540
  O     -6.697820  -18.025790   -8.316510
  C     -4.600720  -17.135670   -9.119580
  C     -4.676680  -17.184330  -10.481230
  C     -3.577530  -16.733530  -11.246850
  C     -2.421030  -16.232810  -10.581350
  C     -1.330070  -15.781000  -11.350680
  C     -1.383220  -15.827230  -12.715520
  C     -2.526870  -16.323640  -13.372430
  C     -3.601960  -16.767650  -12.654570
  F     -2.551690  -16.355770  -14.711780
  F     -0.344030  -15.398580  -13.444440
  C     -2.370280  -16.198750   -9.168670
  C     -3.442590  -16.650840   -8.447480
  C     -3.656330  -16.771920   -7.007520
  C     -2.663600  -16.764000   -6.060180
  C     -2.854700  -17.132250   -4.715320
  N     -2.953310  -17.435850   -3.611810
  C     -1.320330  -16.434870   -6.328260
  N     -0.220530  -16.141780   -6.479530
  H      6.121210    0.343080    0.225440
  H      7.043230   -4.064440   -1.850210
  H      4.005180   -0.487200    1.104320
  H      4.883100   -4.942630   -0.957740
  H     -0.048780   -3.879570    2.753910
  H     -1.007470   -6.152140    3.712250
  H      0.176730   -6.152990   -0.450500
  H     -2.393230  -10.162300    1.127610
  H     -3.836720  -10.024440    5.201410
  H     -5.227230  -11.806230    4.597230
  H     -5.529970  -13.157990    3.390150
  H     -4.095670  -12.962580   -1.087630
  H     -5.688400  -15.224440    0.276720
  H     -6.777250  -17.667390   -5.807000
  H     -5.561880  -17.563550  -10.968750
  H     -0.445230  -15.401570  -10.863900
  H     -4.469830  -17.145130  -13.172270
  H     -1.485360  -15.808630   -8.691830

 Total Charge           Charge          ....    0
 Multiplicity           Mult            ....    1
 Number of Electrons    NEL             ....  544
 Basis Dimension        Dim             .... 1228

ORBITAL ENERGIES
----------------

  NO   OCC          E(Eh)            E(eV)
   0   2.0000     -89.054336     -2423.2917
   1   2.0000     -24.809859      -675.1106
   2   2.0000     -24.809073      -675.0892
   3   2.0000     -24.797192      -674.7659
   4   2.0000     -24.796603      -674.7499
   5   2.0000     -19.241383      -523.5846
   6   2.0000     -19.213597      -522.8285
   7   2.0000     -14.518519      -395.0690
   8   2.0000     -14.515641      -394.9907
   9   2.0000     -14.470616      -393.7655
  10   2.0000     -14.468686      -393.7130
  11   2.0000     -14.465494      -393.6261
  12   2.0000     -14.458319      -393.4309
  13   2.0000     -14.433804      -392.7638
  14   2.0000     -14.433521      -392.7561
  15   2.0000     -14.433210      -392.7476
  16   2.0000     -14.431047      -392.6888
  17   2.0000     -14.426697      -392.5704
  18   2.0000     -14.422664      -392.4606
  19   2.0000     -14.418558      -392.3489
  20   2.0000     -14.416355      -392.2890
  21   2.0000     -10.394297      -282.8432
  22   2.0000     -10.393789      -282.8294
  23   2.0000     -10.391739      -282.7736
  24   2.0000     -10.390139      -282.7301
  25   2.0000     -10.383463      -282.5484
  26   2.0000     -10.379994      -282.4540
  27   2.0000     -10.379566      -282.4423
  28   2.0000     -10.364365      -282.0287
  29   2.0000     -10.364240      -282.0253
  30   2.0000     -10.360210      -281.9157
  31   2.0000     -10.359272      -281.8901
  32   2.0000     -10.356031      -281.8019
  33   2.0000     -10.355013      -281.7742
  34   2.0000     -10.353665      -281.7376
  35   2.0000     -10.352794      -281.7138
  36   2.0000     -10.350764      -281.6586
  37   2.0000     -10.346963      -281.5552
  38   2.0000     -10.346412      -281.5402
  39   2.0000     -10.340979      -281.3924
  40   2.0000     -10.340654      -281.3835
  41   2.0000     -10.339901      -281.3630
  42   2.0000     -10.338697      -281.3303
  43   2.0000     -10.337442      -281.2961
  44   2.0000     -10.335051      -281.2310
  45   2.0000     -10.334910      -281.2272
  46   2.0000     -10.332478      -281.1610
  47   2.0000     -10.329653      -281.0842
  48   2.0000     -10.328134      -281.0428
  49   2.0000     -10.327385      -281.0224
  50   2.0000     -10.327184      -281.0170
  51   2.0000     -10.326539      -280.9994
  52   2.0000     -10.326257      -280.9917
  53   2.0000     -10.326104      -280.9876
  54   2.0000     -10.325224      -280.9636
  55   2.0000     -10.325060      -280.9592
  56   2.0000     -10.325043      -280.9587
  57   2.0000     -10.324775      -280.9514
  58   2.0000     -10.323954      -280.9291
  59   2.0000     -10.321250      -280.8555
  60   2.0000     -10.319752      -280.8147
  61   2.0000     -10.319453      -280.8066
  62   2.0000     -10.318786      -280.7884
  63   2.0000     -10.318720      -280.7866
  64   2.0000     -10.317784      -280.7612
  65   2.0000     -10.313866      -280.6545
  66   2.0000     -10.313795      -280.6526
  67   2.0000     -10.312978      -280.6304
  68   2.0000     -10.312970      -280.6302
  69   2.0000     -10.310196      -280.5547
  70   2.0000     -10.309110      -280.5251
  71   2.0000     -10.308640      -280.5124
  72   2.0000     -10.307525      -280.4820
  73   2.0000     -10.306028      -280.4413
  74   2.0000     -10.305749      -280.4337
  75   2.0000     -10.300780      -280.2985
  76   2.0000     -10.300280      -280.2849
  77   2.0000     -10.299797      -280.2717
  78   2.0000     -10.299207      -280.2557
  79   2.0000     -10.296392      -280.1791
  80   2.0000     -10.291455      -280.0447
  81   2.0000      -8.145239      -221.6432
  82   2.0000      -6.116369      -166.4349
  83   2.0000      -6.108562      -166.2224
  84   2.0000      -6.107976      -166.2065
  85   2.0000      -1.333013       -36.2731
  86   2.0000      -1.319725       -35.9115
  87   2.0000      -1.318043       -35.8658
  88   2.0000      -1.304874       -35.5074
  89   2.0000      -1.187992       -32.3269
  90   2.0000      -1.157214       -31.4894
  91   2.0000      -1.151108       -31.3232
  92   2.0000      -1.129082       -30.7239
  93   2.0000      -1.127360       -30.6770
  94   2.0000      -1.053384       -28.6640
  95   2.0000      -1.038807       -28.2674
  96   2.0000      -1.037038       -28.2192
  97   2.0000      -1.021823       -27.8052
  98   2.0000      -1.020705       -27.7748
  99   2.0000      -1.020011       -27.7559
 100   2.0000      -1.017492       -27.6874
 101   2.0000      -1.011521       -27.5249
 102   2.0000      -1.009808       -27.4783
 103   2.0000      -1.006658       -27.3926
 104   2.0000      -1.004816       -27.3424
 105   2.0000      -1.003578       -27.3087
 106   2.0000      -1.001771       -27.2596
 107   2.0000      -0.997256       -27.1367
 108   2.0000      -0.996532       -27.1170
 109   2.0000      -0.991055       -26.9680
 110   2.0000      -0.982763       -26.7424
 111   2.0000      -0.978111       -26.6157
 112   2.0000      -0.949152       -25.8277
 113   2.0000      -0.932533       -25.3755
 114   2.0000      -0.928696       -25.2711
 115   2.0000      -0.924530       -25.1577
 116   2.0000      -0.914757       -24.8918
 117   2.0000      -0.909520       -24.7493
 118   2.0000      -0.906936       -24.6790
 119   2.0000      -0.901240       -24.5240
 120   2.0000      -0.894570       -24.3425
 121   2.0000      -0.889373       -24.2011
 122   2.0000      -0.878112       -23.8947
 123   2.0000      -0.868771       -23.6405
 124   2.0000      -0.863987       -23.5103
 125   2.0000      -0.857188       -23.3253
 126   2.0000      -0.855285       -23.2735
 127   2.0000      -0.841589       -22.9008
 128   2.0000      -0.838861       -22.8266
 129   2.0000      -0.826408       -22.4877
 130   2.0000      -0.820300       -22.3215
 131   2.0000      -0.808453       -21.9991
 132   2.0000      -0.789478       -21.4828
 133   2.0000      -0.788704       -21.4617
 134   2.0000      -0.784861       -21.3572
 135   2.0000      -0.771164       -20.9844
 136   2.0000      -0.763233       -20.7686
 137   2.0000      -0.756875       -20.5956
 138   2.0000      -0.746223       -20.3058
 139   2.0000      -0.737952       -20.0807
 140   2.0000      -0.737568       -20.0702
 141   2.0000      -0.734382       -19.9836
 142   2.0000      -0.722912       -19.6714
 143   2.0000      -0.719181       -19.5699
 144   2.0000      -0.717509       -19.5244
 145   2.0000      -0.713433       -19.4135
 146   2.0000      -0.704640       -19.1742
 147   2.0000      -0.699132       -19.0244
 148   2.0000      -0.694197       -18.8901
 149   2.0000      -0.693127       -18.8609
 150   2.0000      -0.683328       -18.5943
 151   2.0000      -0.682159       -18.5625
 152   2.0000      -0.677042       -18.4233
 153   2.0000      -0.672245       -18.2927
 154   2.0000      -0.666787       -18.1442
 155   2.0000      -0.660047       -17.9608
 156   2.0000      -0.656371       -17.8608
 157   2.0000      -0.653920       -17.7941
 158   2.0000      -0.648546       -17.6478
 159   2.0000      -0.647680       -17.6243
 160   2.0000      -0.641492       -17.4559
 161   2.0000      -0.636801       -17.3282
 162   2.0000      -0.628515       -17.1028
 163   2.0000      -0.627984       -17.0883
 164   2.0000      -0.618622       -16.8336
 165   2.0000      -0.616565       -16.7776
 166   2.0000      -0.611603       -16.6426
 167   2.0000      -0.607055       -16.5188
 168   2.0000      -0.597774       -16.2662
 169   2.0000      -0.597358       -16.2549
 170   2.0000      -0.593136       -16.1400
 171   2.0000      -0.590993       -16.0817
 172   2.0000      -0.587923       -15.9982
 173   2.0000      -0.585118       -15.9219
 174   2.0000      -0.584263       -15.8986
 175   2.0000      -0.584156       -15.8957
 176   2.0000      -0.577662       -15.7190
 177   2.0000      -0.576598       -15.6900
 178   2.0000      -0.571832       -15.5603
 179   2.0000      -0.567545       -15.4437
 180   2.0000      -0.567032       -15.4297
 181   2.0000      -0.558796       -15.2056
 182   2.0000      -0.558634       -15.2012
 183   2.0000      -0.557994       -15.1838
 184   2.0000      -0.555528       -15.1167
 185   2.0000      -0.552959       -15.0468
 186   2.0000      -0.551076       -14.9955
 187   2.0000      -0.546034       -14.8583
 188   2.0000      -0.545731       -14.8501
 189   2.0000      -0.544640       -14.8204
 190   2.0000      -0.540494       -14.7076
 191   2.0000      -0.540075       -14.6962
 192   2.0000      -0.538910       -14.6645
 193   2.0000      -0.537731       -14.6324
 194   2.0000      -0.533222       -14.5097
 195   2.0000      -0.530801       -14.4438
 196   2.0000      -0.529536       -14.4094
 197   2.0000      -0.527580       -14.3562
 198   2.0000      -0.523394       -14.2423
 199   2.0000      -0.521820       -14.1995
 200   2.0000      -0.515723       -14.0335
 201   2.0000      -0.515252       -14.0207
 202   2.0000      -0.513718       -13.9790
 203   2.0000      -0.511183       -13.9100
 204   2.0000      -0.507728       -13.8160
 205   2.0000      -0.505308       -13.7501
 206   2.0000      -0.504677       -13.7330
 207   2.0000      -0.501407       -13.6440
 208   2.0000      -0.500537       -13.6203
 209   2.0000      -0.498379       -13.5616
 210   2.0000      -0.496051       -13.4982
 211   2.0000      -0.492707       -13.4072
 212   2.0000      -0.489976       -13.3329
 213   2.0000      -0.487856       -13.2752
 214   2.0000      -0.485302       -13.2057
 215   2.0000      -0.483587       -13.1591
 216   2.0000      -0.479991       -13.0612
 217   2.0000      -0.478159       -13.0114
 218   2.0000      -0.476568       -12.9681
 219   2.0000      -0.466871       -12.7042
 220   2.0000      -0.465230       -12.6595
 221   2.0000      -0.462857       -12.5950
 222   2.0000      -0.461604       -12.5609
 223   2.0000      -0.460722       -12.5369
 224   2.0000      -0.460039       -12.5183
 225   2.0000      -0.458338       -12.4720
 226   2.0000      -0.456337       -12.4176
 227   2.0000      -0.455898       -12.4056
 228   2.0000      -0.455347       -12.3906
 229   2.0000      -0.454039       -12.3550
 230   2.0000      -0.452399       -12.3104
 231   2.0000      -0.451872       -12.2961
 232   2.0000      -0.447083       -12.1657
 233   2.0000      -0.446835       -12.1590
 234   2.0000      -0.446503       -12.1500
 235   2.0000      -0.445277       -12.1166
 236   2.0000      -0.443496       -12.0681
 237   2.0000      -0.440917       -11.9980
 238   2.0000      -0.440376       -11.9832
 239   2.0000      -0.438131       -11.9222
 240   2.0000      -0.433081       -11.7847
 241   2.0000      -0.431152       -11.7322
 242   2.0000      -0.429445       -11.6858
 243   2.0000      -0.427006       -11.6194
 244   2.0000      -0.425920       -11.5899
 245   2.0000      -0.422463       -11.4958
 246   2.0000      -0.420143       -11.4327
 247   2.0000      -0.417428       -11.3588
 248   2.0000      -0.415343       -11.3021
 249   2.0000      -0.414683       -11.2841
 250   2.0000      -0.411368       -11.1939
 251   2.0000      -0.407325       -11.0839
 252   2.0000      -0.401806       -10.9337
 253   2.0000      -0.399438       -10.8693
 254   2.0000      -0.387927       -10.5560
 255   2.0000      -0.383209       -10.4276
 256   2.0000      -0.377949       -10.2845
 257   2.0000      -0.369025       -10.0417
 258   2.0000      -0.367155        -9.9908
 259   2.0000      -0.363790        -9.8992
 260   2.0000      -0.355265        -9.6673
 261   2.0000      -0.348638        -9.4869
 262   2.0000      -0.339313        -9.2332
 263   2.0000      -0.334225        -9.0947
 264   2.0000      -0.332214        -9.0400
 265   2.0000      -0.323919        -8.8143
 266   2.0000      -0.321878        -8.7588
 267   2.0000      -0.317596        -8.6422
 268   2.0000      -0.314139        -8.5482
 269   2.0000      -0.307459        -8.3664
 270   2.0000      -0.298008        -8.1092
 271   2.0000      -0.263414        -7.1679
 272   0.0000      -0.146567        -3.9883
 273   0.0000      -0.140427        -3.8212
 274   0.0000      -0.098656        -2.6846
 275   0.0000      -0.084729        -2.3056
 276   0.0000      -0.081927        -2.2294

MULLIKEN ATOMIC CHARGES
-----------------------
   0 C :   -0.106021
   1 C :    0.243921
   2 F :   -0.166425
   3 C :    0.241894
   4 F :   -0.166570
   5 C :   -0.102330
   6 C :    0.115529
   7 C :    0.115391
   8 C :   -0.081451
   9 C :    0.054132
  10 C :   -0.012879
  11 C :   -0.073884
  12 C :    0.146118
  13 O :   -0.138491
  14 C :   -0.082307
  15 C :    0.311762
  16 C :   -0.333070
  17 C :   -0.202201
  18 N :    0.176500
  19 C :   -0.177815
  20 N :    0.156112
  21 C :   -0.032015
  22 C :    0.087044
  23 C :   -0.070222
  24 C :    0.109932
  25 C :   -0.121763
  26 C :    0.077860
  27 C :   -0.172687
  28 N :    0.128224
  29 C :    0.115165
  30 C :   -0.103842
  31 C :    0.134751
  32 C :    0.004177
  33 C :   -0.096217
  34 C :   -0.181717
  35 N :    0.141976
  36 C :    0.003378
  37 C :    0.010316
  38 N :   -0.025328
  39 N :    0.006966
  40 C :    0.071532
  41 C :   -0.100608
  42 C :    0.120291
  43 C :   -0.062039
  44 C :   -0.028029
  45 N :    0.065719
  46 C :   -0.120550
  47 C :   -0.141315
  48 N :    0.055255
  49 C :   -0.213322
  50 N :    0.238888
  51 C :   -0.205713
  52 N :    0.245032
  53 C :    0.091206
  54 C :   -0.024948
  55 C :    0.059168
  56 N :   -0.304486
  57 S :    0.570323
  58 N :   -0.286202
  59 C :   -0.046837
  60 C :   -0.111852
  61 C :    0.132174
  62 O :   -0.134638
  63 C :    0.018272
  64 C :   -0.086975
  65 C :    0.114859
  66 C :    0.116045
  67 C :   -0.109294
  68 C :    0.241804
  69 C :    0.237741
  70 C :   -0.105491
  71 F :   -0.172629
  72 F :   -0.172520
  73 C :   -0.089494
  74 C :    0.032941
  75 C :    0.342792
  76 C :   -0.347617
  77 C :   -0.193910
  78 N :    0.149720
  79 C :   -0.192040
  80 N :    0.149730
  81 H :    0.009687
  82 H :    0.002918
  83 H :   -0.003941
  84 H :   -0.006237
  85 H :    0.041672
  86 H :    0.019257
  87 H :    0.008640
  88 H :    0.008007
  89 H :    0.002944
  90 H :    0.031621
  91 H :    0.043126
  92 H :    0.072845
  93 H :    0.008719
  94 H :    0.036920
  95 H :   -0.009135
  96 H :    0.004266
  97 H :   -0.001008
  98 H :   -0.007197
Sum of atomic charges:   -0.0000000

LOEWDIN ATOMIC CHARGES
----------------------
   0 C :   -0.028072
   1 C :    0.070065
   2 F :   -0.044284
   3 C :    0.070299
   4 F :   -0.044848
   5 C :   -0.031124
   6 C :   -0.007679
   7 C :   -0.004221
   8 C :    0.020530
   9 C :   -0.023792
  10 C :   -0.056493
  11 C :    0.035905
  12 C :    0.085150
  13 O :   -0.128064
  14 C :   -0.074966
  15 C :    0.070528
  16 C :   -0.123521
  17 C :   -0.025351
  18 N :   -0.035487
  19 C :   -0.017062
  20 N :   -0.040504
  21 C :    0.072652
  22 C :   -0.023051
  23 C :    0.025181
  24 C :    0.041266
  25 C :   -0.093467
  26 C :    0.083524
  27 C :   -0.025870
  28 N :   -0.065567
  29 C :    0.045075
  30 C :   -0.007528
  31 C :   -0.017257
  32 C :    0.058021
  33 C :   -0.077130
  34 C :   -0.033153
  35 N :   -0.052034
  36 C :   -0.029485
  37 C :    0.005318
  38 N :    0.038021
  39 N :    0.067809
  40 C :    0.034734
  41 C :   -0.040575
  42 C :    0.022574
  43 C :   -0.011897
  44 C :    0.025153
  45 N :   -0.002088
  46 C :   -0.011250
  47 C :   -0.036620
  48 N :    0.008406
  49 C :   -0.038172
  50 N :   -0.007665
  51 C :   -0.033790
  52 N :    0.004764
  53 C :   -0.064016
  54 C :   -0.031396
  55 C :   -0.039761
  56 N :   -0.268601
  57 S :    0.689992
  58 N :   -0.277656
  59 C :    0.076313
  60 C :   -0.084157
  61 C :    0.083362
  62 O :   -0.136664
  63 C :   -0.052741
  64 C :    0.029740
  65 C :   -0.009770
  66 C :   -0.005978
  67 C :   -0.031285
  68 C :    0.066113
  69 C :    0.066011
  70 C :   -0.032912
  71 F :   -0.050167
  72 F :   -0.050127
  73 C :    0.011251
  74 C :   -0.016975
  75 C :    0.078429
  76 C :   -0.144680
  77 C :   -0.014077
  78 N :   -0.066219
  79 C :   -0.021085
  80 N :   -0.059202
  81 H :    0.048928
  82 H :    0.046373
  83 H :    0.041032
  84 H :    0.042210
  85 H :    0.054106
  86 H :    0.041668
  87 H :    0.039371
  88 H :    0.035253
  89 H :    0.038689
  90 H :    0.034960
  91 H :    0.036384
  92 H :    0.045789
  93 H :    0.037831
  94 H :    0.050326
  95 H :    0.040591
  96 H :    0.046543
  97 H :    0.044747
  98 H :    0.038547

  Mayer bond orders larger than 0.100000
B(  0-C ,  1-C ) :   1.4427 B(  0-C ,  5-C ) :   0.1078 B(  0-C ,  7-C ) :   1.1865
B(  0-C , 81-H ) :   1.0065 B(  1-C ,  2-F ) :   1.1395 B(  1-C ,  3-C ) :   1.1884
B(  3-C ,  4-F ) :   1.1389 B(  3-C ,  5-C ) :   1.4446 B(  5-C ,  6-C ) :   1.1906
B(  5-C , 82-H ) :   1.0068 B(  6-C ,  7-C ) :   1.2532 B(  6-C , 11-C ) :   1.1942
B(  7-C ,  8-C ) :   1.2216 B(  8-C ,  9-C ) :   1.4439 B(  8-C , 83-H ) :   0.9899
B(  9-C , 10-C ) :   1.2179 B(  9-C , 15-C ) :   0.9940 B( 10-C , 11-C ) :   1.4648
B( 10-C , 12-C ) :   0.9439 B( 11-C , 84-H ) :   1.0166 B( 12-C , 13-O ) :   2.2222
B( 12-C , 14-C ) :   0.9323 B( 14-C , 15-C ) :   1.0374 B( 14-C , 21-C ) :   1.6345
B( 15-C , 16-C ) :   1.6599 B( 16-C , 17-C ) :   1.1404 B( 16-C , 19-C ) :   1.1421
B( 17-C , 18-N ) :   2.9882 B( 19-C , 20-N ) :   2.9642 B( 21-C , 22-C ) :   1.0955
B( 21-C , 85-H ) :   0.9486 B( 22-C , 23-C ) :   1.5377 B( 22-C , 26-C ) :   1.0495
B( 23-C , 24-C ) :   1.0830 B( 23-C , 86-H ) :   1.0070 B( 24-C , 25-C ) :   1.1093
B( 24-C , 29-C ) :   1.4563 B( 25-C , 26-C ) :   1.6756 B( 25-C , 27-C ) :   1.0968
B( 26-C , 87-H ) :   1.0072 B( 27-C , 28-N ) :   2.9638 B( 29-C , 30-C ) :   1.0802
B( 29-C , 33-C ) :   1.1035 B( 30-C , 31-C ) :   1.6039 B( 30-C , 88-H ) :   1.0012
B( 31-C , 32-C ) :   1.0577 B( 31-C , 36-C ) :   1.0028 B( 32-C , 33-C ) :   1.6891
B( 32-C , 89-H ) :   1.0130 B( 33-C , 34-C ) :   1.0912 B( 34-C , 35-N ) :   2.9668
B( 36-C , 37-C ) :   1.8752 B( 36-C , 38-N ) :   1.1291 B( 37-C , 90-H ) :   0.9333
B( 37-C , 91-H ) :   0.9282 B( 38-N , 39-N ) :   1.6485 B( 39-N , 40-C ) :   1.3226
B( 40-C , 41-C ) :   1.4372 B( 40-C , 92-H ) :   0.9034 B( 41-C , 42-C ) :   1.3274
B( 41-C , 93-H ) :   0.9545 B( 42-C , 43-C ) :   1.1708 B( 42-C , 53-C ) :   0.1173
B( 42-C , 55-C ) :   1.1449 B( 43-C , 44-C ) :   1.1366 B( 43-C , 48-N ) :   1.4968
B( 44-C , 45-N ) :   1.4700 B( 44-C , 53-C ) :   1.2474 B( 45-N , 46-C ) :   1.7351
B( 46-C , 47-C ) :   1.2233 B( 46-C , 51-C ) :   1.1518 B( 47-C , 48-N ) :   1.7051
B( 47-C , 49-C ) :   1.1548 B( 49-C , 50-N ) :   3.0508 B( 51-C , 52-N ) :   3.0488
B( 53-C , 54-C ) :   1.1803 B( 53-C , 59-C ) :   1.1509 B( 54-C , 55-C ) :   1.1224
B( 54-C , 58-N ) :   1.5193 B( 55-C , 56-N ) :   1.4922 B( 56-N , 57-S ) :   1.2794
B( 56-N , 58-N ) :   0.1403 B( 57-S , 58-N ) :   1.2651 B( 59-C , 60-C ) :   1.5918
B( 59-C , 94-H ) :   0.9363 B( 60-C , 61-C ) :   0.9422 B( 60-C , 75-C ) :   1.0590
B( 61-C , 62-O ) :   2.2778 B( 61-C , 63-C ) :   0.9142 B( 63-C , 64-C ) :   1.4760
B( 63-C , 74-C ) :   1.2181 B( 64-C , 65-C ) :   1.1913 B( 64-C , 95-H ) :   1.0159
B( 65-C , 66-C ) :   1.2570 B( 65-C , 70-C ) :   1.1934 B( 66-C , 67-C ) :   1.1894
B( 66-C , 73-C ) :   1.2122 B( 67-C , 68-C ) :   1.4410 B( 67-C , 70-C ) :   0.1094
B( 67-C , 96-H ) :   1.0066 B( 68-C , 69-C ) :   1.1935 B( 68-C , 72-F ) :   1.1326
B( 69-C , 70-C ) :   1.4420 B( 69-C , 71-F ) :   1.1331 B( 70-C , 97-H ) :   1.0070
B( 73-C , 74-C ) :   1.4568 B( 73-C , 98-H ) :   0.9922 B( 74-C , 75-C ) :   1.0032
B( 75-C , 76-C ) :   1.6181 B( 76-C , 77-C ) :   1.1769 B( 76-C , 79-C ) :   1.1446
B( 77-C , 78-N ) :   2.9856 B( 79-C , 80-N ) :   2.9786

-----------------------------------------------------------------------------
         ABSORPTION SPECTRUM VIA TRANSITION ELECTRIC DIPOLE MOMENTS
-----------------------------------------------------------------------------
State   Energy  Wavelength   fosc         T2         TX        TY        TZ
        (cm-1)    (nm)                  (au**2)     (au)      (au)      (au)
-----------------------------------------------------------------------------
   0   10185.4    981.8   0.415503337  13.42989  -0.36796  -2.11982  -2.96662
   1   13083.1    764.3   0.013034623   0.32799   0.30132   0.48701   0.00461
   2   16666.6    600.0   0.023982430   0.47372  -0.44032  -0.05701   0.52591
   3   17533.7    570.3   0.264266482   4.96186  -1.30923  -1.66915   0.67948
   4   18786.7    532.3   0.009270164   0.16245   0.25228   0.29655   0.10422
   5   19019.8    525.8   0.095655424   1.65569  -0.06610  -0.37164  -1.23013
   6   21649.7    461.9   0.305037915   4.63851  -0.99843   0.43665   1.85769
   7   21996.5    454.6   0.061468491   0.91997  -0.75529  -0.17502   0.56469
   8   22391.2    446.6   0.223153458   3.28097   0.83489   1.57821  -0.30524
   9   23091.7    433.1   0.100103739   1.42715  -0.92714  -0.75298   0.02394
  10   23844.6    419.4   0.120153314   1.65890  -0.71768  -0.81100   0.69723
  11   23994.5    416.8   0.272814065   3.74309   1.29676   1.33680  -0.52389
  12   24825.1    402.8   0.013443795   0.17828  -0.23539  -0.33886   0.08970
  13   25056.9    399.1   0.003328346   0.04373   0.12198  -0.02005  -0.16867
  14   25890.8    386.2   0.014215016   0.18075   0.32551   0.23683  -0.13677
  15   26118.9    382.9   0.059464110   0.74951  -0.77186  -0.23634   0.31286
  16   26635.9    375.4   0.018116260   0.22391   0.17607   0.19411  -0.39400
  17   27053.7    369.6   0.025214621   0.30683  -0.04407   0.31683   0.45223
  18   27437.6    364.5   0.162238422   1.94663   0.89974   1.06092  -0.10745
  19   27518.9    363.4   0.021065602   0.25201  -0.01939  -0.47055  -0.17384
  20   27626.4    362.0   0.039383601   0.46932   0.26624   0.61003  -0.16216
  21   27664.1    361.5   0.589830764   7.01917   1.67573   2.05150  -0.04938
  22   28143.9    355.3   0.048441563   0.56664  -0.07475  -0.51269   0.54608
  23   28452.6    351.5   0.081690452   0.94520   0.49008  -0.24894  -0.80190
  24   29124.5    343.4   0.289058734   3.26740  -0.59227  -0.32581   1.67644
  25   29655.6    337.2   0.000813431   0.00903  -0.06951  -0.03876  -0.05192
  26   29723.8    336.4   0.033115854   0.36678   0.41349   0.41802   0.14514
  27   30365.1    329.3   0.061556745   0.66738   0.13622   0.24906  -0.76603
  28   30833.5    324.3   0.145660382   1.55523  -1.22716  -0.10359   0.19639
  29   31082.4    321.7   0.591518722   6.26513  -0.81450  -0.67105   2.26967
  30   31244.8    320.1   0.018670434   0.19672  -0.22350   0.15218   0.35158
  31   31443.9    318.0   0.311918025   3.26572   1.34249   1.20969   0.00864
  32   31603.0    316.4   0.079624669   0.82946   0.71746  -0.42048  -0.37137
  33   31826.0    314.2   0.320473763   3.31502  -0.91582  -1.53850   0.33064
  34   31936.5    313.1   0.077082433   0.79459   0.05454   0.68612   0.56644
  35   32259.3    310.0   0.058105619   0.59298   0.33026   0.24830   0.64981
  36   32707.3    305.7   0.018973804   0.19098   0.21983  -0.36319  -0.10365
  37   33091.6    302.2   0.101906144   1.01381   0.49517   0.31327   0.81883
  38   33111.9    302.0   0.089170627   0.88657  -0.55688  -0.42728   0.62760
  39   33290.9    300.4   0.137543110   1.36016   0.99943   0.04177  -0.59963
  40   33406.2    299.3   0.138473069   1.36463   0.79198   0.69271  -0.50748
  41   33643.5    297.2   0.009989863   0.09775  -0.09464   0.04267   0.29492
  42   34077.0    293.5   0.056301102   0.54392  -0.62949  -0.28608  -0.25653
  43   34149.7    292.8   0.083642243   0.80633   0.67367   0.52969  -0.26820
  44   34342.8    291.2   0.018090244   0.17341  -0.39199   0.09032   0.10770
  45   34917.5    286.4   0.071772425   0.67669  -0.27647  -0.33368   0.69922
  46   35088.0    285.0   0.042117261   0.39516  -0.53881   0.17124   0.27481
  47   35256.7    283.6   0.093922131   0.87701  -0.87518  -0.32788   0.05970
  48   35598.5    280.9   0.336252845   3.10964  -1.21618   0.90970   0.89609
  49   35735.9    279.8   0.510415714   4.70213  -0.58544  -0.20321  -2.07800
  50   35879.0    278.7   0.095627216   0.87744  -0.56371   0.22384   0.71384
  51   35949.5    278.2   0.189947535   1.73947   0.81556  -0.29851  -0.99259
  52   36392.7    274.8   0.129197002   1.16873   0.14464  -0.44845   0.97298
  53   36484.3    274.1   0.029677335   0.26779  -0.47734  -0.18862   0.06601
  54   36532.6    273.7   0.092307933   0.83183   0.58368   0.58152  -0.39113
  55   37115.5    269.4   0.001224933   0.01087   0.08476   0.05406   0.02756
  56   37180.9    269.0   0.097697353   0.86504  -0.60189   0.06219   0.70633
  57   37533.4    266.4   0.094319372   0.82729   0.67156   0.34161  -0.50951
  58   37957.7    263.5   0.000072833   0.00063   0.01092   0.01734  -0.01456
  59   38220.0    261.6   0.002606121   0.02245   0.00436   0.09825  -0.11303
  60   38629.4    258.9   0.017095101   0.14569   0.35068   0.14933  -0.02034
  61   38876.3    257.2   0.050141334   0.42461   0.41404   0.19412  -0.46422
  62   38938.8    256.8   0.059776548   0.50539  -0.31896  -0.63012   0.08121
  63   39140.6    255.5   0.003657498   0.03076   0.13327  -0.07364   0.08706
  64   39366.3    254.0   0.019762283   0.16527   0.37172  -0.16165  -0.03095
  65   39380.8    253.9   0.060163840   0.50295   0.51814   0.29200   0.38629
  66   39485.9    253.3   0.008565091   0.07141   0.17296   0.20276  -0.01960
  67   39519.2    253.0   0.009437137   0.07862  -0.26974  -0.07621   0.00700
  68   39758.3    251.5   0.003176078   0.02630  -0.12844  -0.04005   0.09054
  69   39831.0    251.1   0.072586725   0.59995   0.32872   0.61673   0.33396
  70   40058.1    249.6   0.067424333   0.55412  -0.56780  -0.46019  -0.14123
  71   40255.8    248.4   0.038911631   0.31822   0.08812   0.14484  -0.53803

FINAL SINGLE POINT ENERGY     -4006.824154687792

DIPOLE MOMENT
-------------
                                X             Y             Z
Electronic contribution:     14.88560      -3.24752     -32.72910
Nuclear contribution   :    -13.36279       5.95173      32.91737
                        -----------------------------------------
Total Dipole Moment    :      1.52281       2.70421       0.18827
                        -----------------------------------------
Magnitude (a.u.)       :      3.10920
Magnitude (Debye)      :      7.90296

Rotational constants in cm-1:     0.000795     0.000242     0.000191
Rotational constants in MHz :    23.828798     7.250681     5.732081

                             ****ORCA TERMINATED NORMALLY****
TOTAL RUN TIME: 0 days 0 hours 10 minutes 25 seconds 810 msec
