                         Program Version 4.2.0 -  RELEASE  -
|  1> # ORCA input file
|  2> # SCF done       -224.156087122340          0.000490111993
|  3> ! CAM-B3LYP def2-SVP def2/J RIJCOSX Grid4 TightSCF
|  4> %maxcore 5000
|  5> %tddft
|  6>     Mode sTDDFT
|  7>     Ethresh 5.0
|  8>     maxcore 5000
|  9> end
| 10>
| 11> %pal
| 12>   nprocs 6
| 13>   end
| 14> * xyz 0 1
| 15>    C      -13.38333        -9.67271        -3.56298
| 16>    C      -14.04901        -9.10763        -4.61425
| 17>    F      -15.28585        -9.51191        -4.92169
| 18>    C      -13.44301        -8.09572        -5.38843
| 19>    F      -14.11581        -7.56427        -6.41322
| 20>    C      -12.17900        -7.66378        -5.09821
| 21>    C      -11.46616        -8.22883        -4.02249
| 22>    C      -12.07750        -9.25136        -3.23883
| 23>    C      -11.38113        -9.83545        -2.15699
| 24>    C      -10.11412        -9.40401        -1.85854
| 25>    C       -9.51723        -8.37426        -2.63781
| 26>    C      -10.15889        -7.80464        -3.70065
| 27>    C       -8.19177        -8.04751        -2.08835
| 28>    O       -7.37505        -7.29144        -2.56871
| 29>    C       -8.05809        -8.86808        -0.85147
| 30>    C       -9.17730        -9.80521        -0.81497
| 31>    C       -9.32507       -10.87768         0.01772
| 32>    C       -8.37918       -11.29837         0.97848
| 33>    N       -7.65055       -11.70614         1.76585
| 34>    C      -10.43919       -11.74625        -0.00740
| 35>    N      -11.31624       -12.48528         0.01574
| 36>    C       -7.09907        -8.72218         0.08886
| 37>    C       -6.10991        -7.67116         0.13759
| 38>    C       -4.81368        -7.89341         0.51865
| 39>    S       -3.84916        -6.48165         0.45369
| 40>    C       -5.18779        -5.54425        -0.05170
| 41>    C       -6.32441        -6.28775        -0.17911
| 42>    C       -7.63400        -5.72629        -0.52672
| 43>    O       -8.70462        -6.16612        -0.18667
| 44>    O       -7.50381        -4.61335        -1.29135
| 45>    C       -8.62834        -4.11946        -1.86587
| 46>    C       -8.57569        -2.99590        -2.59723
| 47>    C       -9.63107        -2.35906        -3.31275
| 48>    N      -10.85055        -2.86136        -3.68901
| 49>    C      -11.38669        -4.18627        -3.49163
| 50>    C      -12.18927        -4.29884        -2.19772
| 51>    C      -11.60333        -1.91052        -4.41931
| 52>    O      -12.70367        -2.14835        -4.87095
| 53>    C      -10.75637        -0.74204        -4.47609
| 54>    C       -9.55541        -1.05725        -3.80120
| 55>    C       -8.68470         0.09811        -3.85438
| 56>    O       -7.57121         0.29870        -3.42226
| 57>    N       -9.43460         1.05332        -4.56773
| 58>    C       -8.87629         2.34387        -4.89235
| 59>    C       -8.37492         2.39924        -6.33347
| 60>    C      -10.66622         0.57152        -4.94992
| 61>    C      -11.61706         1.32456        -5.66989
| 62>    C      -12.81652         0.81071        -6.07248
| 63>    C      -13.79084         1.52842        -6.79888
| 64>    C      -14.98704         1.01336        -7.26458
| 65>    C      -15.69405         2.02291        -7.96871
| 66>    C      -14.85303         3.23662        -7.89500
| 67>    C      -13.72782         2.93020        -7.20307
| 68>    C      -15.14556         4.50277        -8.41572
| 69>    N      -15.34459         5.56117        -8.81488
| 70>    C      -16.89863         1.91109        -8.62743
| 71>    C      -17.55687         2.90802        -9.40600
| 72>    C      -18.67152         2.35585        -9.99800
| 73>    C      -18.78300         0.97806        -9.53997
| 74>    C      -17.74047         0.70858        -8.71056
| 75>    C      -17.54768        -0.50633        -8.04245
| 76>    N      -17.43364        -1.51390        -7.50360
| 77>    C      -19.57765         3.02427       -10.86214
| 78>    C      -20.40711         2.46927       -11.78657
| 79>    C      -21.58502         3.22725       -12.29497
| 80>    O      -21.80470         4.40637       -12.15210
| 81>    C      -22.44009         2.21396       -12.94795
| 82>    C      -23.69127         2.35951       -13.47414
| 83>    C      -24.33638         1.23387       -14.03374
| 84>    C      -23.67168        -0.02713       -14.03130
| 85>    C      -24.32412        -1.14705       -14.58496
| 86>    C      -25.57569        -1.02045       -15.11895
| 87>    C      -26.23149         0.22737       -15.12238
| 88>    C      -25.62605         1.33171       -14.59159
| 89>    F      -27.45833         0.32148       -15.65162
| 90>    F      -26.19366        -2.08493       -15.64601
| 91>    C      -22.37334        -0.14678       -13.48509
| 92>    C      -21.76385         0.95993       -12.95733
| 93>    C      -20.43961         1.14485       -12.37014
| 94>    C      -19.36042         0.32209       -12.56032
| 95>    C      -18.03525         0.67877       -12.22988
| 96>    N      -16.93437         0.95004       -12.05191
| 97>    C      -19.43736        -0.92721       -13.21003
| 98>    N      -19.46289        -1.95659       -13.71638
| 99>    H      -13.86114       -10.44691        -2.98323
|100>    H      -11.72911        -6.89174        -5.70254
|101>    H      -11.87182       -10.60629        -1.58510
|102>    H       -9.67178        -7.04183        -4.28985
|103>    H       -7.04313        -9.43392         0.90245
|104>    H       -4.37309        -8.83257         0.79055
|105>    H       -5.08265        -4.48915        -0.20842
|106>    H       -9.52066        -4.69769        -1.66518
|107>    H       -7.63416        -2.46462        -2.64854
|108>    H      -10.56912        -4.90910        -3.51790
|109>    H      -12.05828        -4.37164        -4.33617
|110>    H      -11.59392        -4.01311        -1.33369
|111>    H      -12.53058        -5.32237        -2.06590
|112>    H      -13.05689        -3.64610        -2.24798
|113>    H       -8.03669         2.48908        -4.20687
|114>    H       -9.61988         3.12387        -4.70583
|115>    H       -7.60101         1.65092        -6.48500
|116>    H       -7.95443         3.37949        -6.53958
|117>    H       -9.18176         2.20826        -7.03777
|118>    H      -11.36443         2.34752        -5.90717
|119>    H      -13.05493        -0.21891        -5.83982
|120>    H      -15.32228         0.00358        -7.13032
|121>    H      -12.92628         3.61023        -6.98247
|122>    H      -17.19782         3.90660        -9.56029
|123>    H      -19.59370         0.31163        -9.77199
|124>    H      -19.66827         4.09814       -10.73234
|125>    H      -24.18244         3.32058       -13.46403
|126>    H      -23.83493        -2.10855       -14.59350
|127>    H      -26.14131         2.27940       -14.60182
|128>    H      -21.89553        -1.11362       -13.48913
|129> *
|130>
|131>                          ****END OF INPUT****

CARTESIAN COORDINATES (ANGSTROEM)
---------------------------------
  C    -13.383330   -9.672710   -3.562980
  C    -14.049010   -9.107630   -4.614250
  F    -15.285850   -9.511910   -4.921690
  C    -13.443010   -8.095720   -5.388430
  F    -14.115810   -7.564270   -6.413220
  C    -12.179000   -7.663780   -5.098210
  C    -11.466160   -8.228830   -4.022490
  C    -12.077500   -9.251360   -3.238830
  C    -11.381130   -9.835450   -2.156990
  C    -10.114120   -9.404010   -1.858540
  C     -9.517230   -8.374260   -2.637810
  C    -10.158890   -7.804640   -3.700650
  C     -8.191770   -8.047510   -2.088350
  O     -7.375050   -7.291440   -2.568710
  C     -8.058090   -8.868080   -0.851470
  C     -9.177300   -9.805210   -0.814970
  C     -9.325070  -10.877680    0.017720
  C     -8.379180  -11.298370    0.978480
  N     -7.650550  -11.706140    1.765850
  C    -10.439190  -11.746250   -0.007400
  N    -11.316240  -12.485280    0.015740
  C     -7.099070   -8.722180    0.088860
  C     -6.109910   -7.671160    0.137590
  C     -4.813680   -7.893410    0.518650
  S     -3.849160   -6.481650    0.453690
  C     -5.187790   -5.544250   -0.051700
  C     -6.324410   -6.287750   -0.179110
  C     -7.634000   -5.726290   -0.526720
  O     -8.704620   -6.166120   -0.186670
  O     -7.503810   -4.613350   -1.291350
  C     -8.628340   -4.119460   -1.865870
  C     -8.575690   -2.995900   -2.597230
  C     -9.631070   -2.359060   -3.312750
  N    -10.850550   -2.861360   -3.689010
  C    -11.386690   -4.186270   -3.491630
  C    -12.189270   -4.298840   -2.197720
  C    -11.603330   -1.910520   -4.419310
  O    -12.703670   -2.148350   -4.870950
  C    -10.756370   -0.742040   -4.476090
  C     -9.555410   -1.057250   -3.801200
  C     -8.684700    0.098110   -3.854380
  O     -7.571210    0.298700   -3.422260
  N     -9.434600    1.053320   -4.567730
  C     -8.876290    2.343870   -4.892350
  C     -8.374920    2.399240   -6.333470
  C    -10.666220    0.571520   -4.949920
  C    -11.617060    1.324560   -5.669890
  C    -12.816520    0.810710   -6.072480
  C    -13.790840    1.528420   -6.798880
  C    -14.987040    1.013360   -7.264580
  C    -15.694050    2.022910   -7.968710
  C    -14.853030    3.236620   -7.895000
  C    -13.727820    2.930200   -7.203070
  C    -15.145560    4.502770   -8.415720
  N    -15.344590    5.561170   -8.814880
  C    -16.898630    1.911090   -8.627430
  C    -17.556870    2.908020   -9.406000
  C    -18.671520    2.355850   -9.998000
  C    -18.783000    0.978060   -9.539970
  C    -17.740470    0.708580   -8.710560
  C    -17.547680   -0.506330   -8.042450
  N    -17.433640   -1.513900   -7.503600
  C    -19.577650    3.024270  -10.862140
  C    -20.407110    2.469270  -11.786570
  C    -21.585020    3.227250  -12.294970
  O    -21.804700    4.406370  -12.152100
  C    -22.440090    2.213960  -12.947950
  C    -23.691270    2.359510  -13.474140
  C    -24.336380    1.233870  -14.033740
  C    -23.671680   -0.027130  -14.031300
  C    -24.324120   -1.147050  -14.584960
  C    -25.575690   -1.020450  -15.118950
  C    -26.231490    0.227370  -15.122380
  C    -25.626050    1.331710  -14.591590
  F    -27.458330    0.321480  -15.651620
  F    -26.193660   -2.084930  -15.646010
  C    -22.373340   -0.146780  -13.485090
  C    -21.763850    0.959930  -12.957330
  C    -20.439610    1.144850  -12.370140
  C    -19.360420    0.322090  -12.560320
  C    -18.035250    0.678770  -12.229880
  N    -16.934370    0.950040  -12.051910
  C    -19.437360   -0.927210  -13.210030
  N    -19.462890   -1.956590  -13.716380
  H    -13.861140  -10.446910   -2.983230
  H    -11.729110   -6.891740   -5.702540
  H    -11.871820  -10.606290   -1.585100
  H     -9.671780   -7.041830   -4.289850
  H     -7.043130   -9.433920    0.902450
  H     -4.373090   -8.832570    0.790550
  H     -5.082650   -4.489150   -0.208420
  H     -9.520660   -4.697690   -1.665180
  H     -7.634160   -2.464620   -2.648540
  H    -10.569120   -4.909100   -3.517900
  H    -12.058280   -4.371640   -4.336170
  H    -11.593920   -4.013110   -1.333690
  H    -12.530580   -5.322370   -2.065900
  H    -13.056890   -3.646100   -2.247980
  H     -8.036690    2.489080   -4.206870
  H     -9.619880    3.123870   -4.705830
  H     -7.601010    1.650920   -6.485000
  H     -7.954430    3.379490   -6.539580
  H     -9.181760    2.208260   -7.037770
  H    -11.364430    2.347520   -5.907170
  H    -13.054930   -0.218910   -5.839820
  H    -15.322280    0.003580   -7.130320
  H    -12.926280    3.610230   -6.982470
  H    -17.197820    3.906600   -9.560290
  H    -19.593700    0.311630   -9.771990
  H    -19.668270    4.098140  -10.732340
  H    -24.182440    3.320580  -13.464030
  H    -23.834930   -2.108550  -14.593500
  H    -26.141310    2.279400  -14.601820
  H    -21.895530   -1.113620  -13.489130

 Total Charge           Charge          ....    0
 Multiplicity           Mult            ....    1
 Number of Electrons    NEL             ....  576
 Basis Dimension        Dim             .... 1330

ORBITAL ENERGIES
----------------

  NO   OCC          E(Eh)            E(eV)
   0   2.0000     -88.986287     -2421.4400
   1   2.0000     -24.803637      -674.9413
   2   2.0000     -24.803322      -674.9327
   3   2.0000     -24.802087      -674.8991
   4   2.0000     -24.801270      -674.8769
   5   2.0000     -19.303356      -525.2710
   6   2.0000     -19.233634      -523.3738
   7   2.0000     -19.230100      -523.2776
   8   2.0000     -19.223936      -523.1099
   9   2.0000     -19.204861      -522.5908
  10   2.0000     -19.191758      -522.2343
  11   2.0000     -14.465258      -393.6197
  12   2.0000     -14.458678      -393.4406
  13   2.0000     -14.427128      -392.5821
  14   2.0000     -14.425013      -392.5246
  15   2.0000     -14.424696      -392.5159
  16   2.0000     -14.421632      -392.4326
  17   2.0000     -14.415877      -392.2760
  18   2.0000     -14.409097      -392.0915
  19   2.0000     -10.434095      -283.9262
  20   2.0000     -10.389040      -282.7001
  21   2.0000     -10.388225      -282.6780
  22   2.0000     -10.385816      -282.6124
  23   2.0000     -10.385370      -282.6003
  24   2.0000     -10.384996      -282.5901
  25   2.0000     -10.382309      -282.5170
  26   2.0000     -10.377556      -282.3877
  27   2.0000     -10.375058      -282.3197
  28   2.0000     -10.363130      -281.9951
  29   2.0000     -10.354979      -281.7733
  30   2.0000     -10.354649      -281.7643
  31   2.0000     -10.352467      -281.7050
  32   2.0000     -10.352320      -281.7010
  33   2.0000     -10.351021      -281.6656
  34   2.0000     -10.347482      -281.5693
  35   2.0000     -10.332130      -281.1515
  36   2.0000     -10.329184      -281.0714
  37   2.0000     -10.329170      -281.0710
  38   2.0000     -10.327291      -281.0199
  39   2.0000     -10.326915      -281.0097
  40   2.0000     -10.326429      -280.9964
  41   2.0000     -10.326392      -280.9954
  42   2.0000     -10.325788      -280.9790
  43   2.0000     -10.325239      -280.9640
  44   2.0000     -10.324247      -280.9370
  45   2.0000     -10.323319      -280.9118
  46   2.0000     -10.320114      -280.8246
  47   2.0000     -10.319473      -280.8071
  48   2.0000     -10.318816      -280.7892
  49   2.0000     -10.318158      -280.7714
  50   2.0000     -10.318140      -280.7709
  51   2.0000     -10.317446      -280.7520
  52   2.0000     -10.317319      -280.7485
  53   2.0000     -10.315974      -280.7119
  54   2.0000     -10.315579      -280.7012
  55   2.0000     -10.314822      -280.6806
  56   2.0000     -10.314745      -280.6785
  57   2.0000     -10.313539      -280.6457
  58   2.0000     -10.313475      -280.6439
  59   2.0000     -10.312251      -280.6106
  60   2.0000     -10.311927      -280.6018
  61   2.0000     -10.311567      -280.5920
  62   2.0000     -10.310604      -280.5658
  63   2.0000     -10.310200      -280.5548
  64   2.0000     -10.310153      -280.5535
  65   2.0000     -10.310140      -280.5532
  66   2.0000     -10.309742      -280.5423
  67   2.0000     -10.308690      -280.5137
  68   2.0000     -10.308591      -280.5110
  69   2.0000     -10.308532      -280.5094
  70   2.0000     -10.307663      -280.4858
  71   2.0000     -10.307625      -280.4847
  72   2.0000     -10.305488      -280.4266
  73   2.0000     -10.304733      -280.4060
  74   2.0000     -10.303608      -280.3754
  75   2.0000     -10.302074      -280.3337
  76   2.0000     -10.300644      -280.2948
  77   2.0000     -10.300189      -280.2824
  78   2.0000     -10.298692      -280.2417
  79   2.0000     -10.289849      -280.0010
  80   2.0000     -10.272535      -279.5299
  81   2.0000     -10.270187      -279.4660
  82   2.0000     -10.270104      -279.4637
  83   2.0000     -10.267146      -279.3833
  84   2.0000      -8.082721      -219.9420
  85   2.0000      -6.051842      -164.6790
  86   2.0000      -6.047370      -164.5573
  87   2.0000      -6.045316      -164.5014
  88   2.0000      -1.327471       -36.1223
  89   2.0000      -1.324770       -36.0488
  90   2.0000      -1.312528       -35.7157
  91   2.0000      -1.309887       -35.6438
  92   2.0000      -1.234472       -33.5917
  93   2.0000      -1.148433       -31.2504
  94   2.0000      -1.144121       -31.1331
  95   2.0000      -1.139259       -31.0008
  96   2.0000      -1.133800       -30.8523
  97   2.0000      -1.132655       -30.8211
  98   2.0000      -1.072527       -29.1850
  99   2.0000      -1.062630       -28.9156
 100   2.0000      -1.029977       -28.0271
 101   2.0000      -1.029279       -28.0081
 102   2.0000      -1.021723       -27.8025
 103   2.0000      -1.014697       -27.6113
 104   2.0000      -1.013837       -27.5879
 105   2.0000      -1.010389       -27.4941
 106   2.0000      -1.006553       -27.3897
 107   2.0000      -1.004459       -27.3327
 108   2.0000      -1.000488       -27.2247
 109   2.0000      -0.990972       -26.9657
 110   2.0000      -0.990119       -26.9425
 111   2.0000      -0.988928       -26.9101
 112   2.0000      -0.984226       -26.7822
 113   2.0000      -0.941939       -25.6315
 114   2.0000      -0.939208       -25.5572
 115   2.0000      -0.937487       -25.5103
 116   2.0000      -0.923232       -25.1224
 117   2.0000      -0.918292       -24.9880
 118   2.0000      -0.916552       -24.9407
 119   2.0000      -0.913148       -24.8480
 120   2.0000      -0.902531       -24.5591
 121   2.0000      -0.898661       -24.4538
 122   2.0000      -0.894149       -24.3310
 123   2.0000      -0.891446       -24.2575
 124   2.0000      -0.883710       -24.0470
 125   2.0000      -0.870618       -23.6907
 126   2.0000      -0.866752       -23.5855
 127   2.0000      -0.859051       -23.3760
 128   2.0000      -0.849699       -23.1215
 129   2.0000      -0.848209       -23.0809
 130   2.0000      -0.845982       -23.0203
 131   2.0000      -0.845835       -23.0164
 132   2.0000      -0.828565       -22.5464
 133   2.0000      -0.820925       -22.3385
 134   2.0000      -0.812125       -22.0990
 135   2.0000      -0.798045       -21.7159
 136   2.0000      -0.795615       -21.6498
 137   2.0000      -0.777569       -21.1587
 138   2.0000      -0.774401       -21.0725
 139   2.0000      -0.768217       -20.9043
 140   2.0000      -0.768090       -20.9008
 141   2.0000      -0.749633       -20.3985
 142   2.0000      -0.746757       -20.3203
 143   2.0000      -0.744419       -20.2567
 144   2.0000      -0.729684       -19.8557
 145   2.0000      -0.726636       -19.7728
 146   2.0000      -0.725342       -19.7376
 147   2.0000      -0.720282       -19.5999
 148   2.0000      -0.717978       -19.5372
 149   2.0000      -0.714592       -19.4450
 150   2.0000      -0.709626       -19.3099
 151   2.0000      -0.697161       -18.9707
 152   2.0000      -0.696010       -18.9394
 153   2.0000      -0.693829       -18.8801
 154   2.0000      -0.690195       -18.7812
 155   2.0000      -0.681032       -18.5318
 156   2.0000      -0.676608       -18.4114
 157   2.0000      -0.675618       -18.3845
 158   2.0000      -0.669763       -18.2252
 159   2.0000      -0.667303       -18.1582
 160   2.0000      -0.660088       -17.9619
 161   2.0000      -0.659380       -17.9427
 162   2.0000      -0.657884       -17.9019
 163   2.0000      -0.650739       -17.7075
 164   2.0000      -0.648992       -17.6600
 165   2.0000      -0.647681       -17.6243
 166   2.0000      -0.633151       -17.2289
 167   2.0000      -0.631651       -17.1881
 168   2.0000      -0.626180       -17.0392
 169   2.0000      -0.622798       -16.9472
 170   2.0000      -0.617873       -16.8132
 171   2.0000      -0.615248       -16.7418
 172   2.0000      -0.603943       -16.4341
 173   2.0000      -0.600846       -16.3499
 174   2.0000      -0.595393       -16.2015
 175   2.0000      -0.593479       -16.1494
 176   2.0000      -0.592478       -16.1222
 177   2.0000      -0.591197       -16.0873
 178   2.0000      -0.589350       -16.0370
 179   2.0000      -0.588786       -16.0217
 180   2.0000      -0.585557       -15.9338
 181   2.0000      -0.581525       -15.8241
 182   2.0000      -0.577734       -15.7209
 183   2.0000      -0.573773       -15.6132
 184   2.0000      -0.572676       -15.5833
 185   2.0000      -0.567589       -15.4449
 186   2.0000      -0.564987       -15.3741
 187   2.0000      -0.561681       -15.2841
 188   2.0000      -0.558934       -15.2094
 189   2.0000      -0.553016       -15.0483
 190   2.0000      -0.552794       -15.0423
 191   2.0000      -0.550717       -14.9858
 192   2.0000      -0.550449       -14.9785
 193   2.0000      -0.547222       -14.8907
 194   2.0000      -0.543046       -14.7770
 195   2.0000      -0.542636       -14.7659
 196   2.0000      -0.542298       -14.7567
 197   2.0000      -0.540317       -14.7028
 198   2.0000      -0.539317       -14.6756
 199   2.0000      -0.538432       -14.6515
 200   2.0000      -0.535144       -14.5620
 201   2.0000      -0.532248       -14.4832
 202   2.0000      -0.531457       -14.4617
 203   2.0000      -0.530875       -14.4458
 204   2.0000      -0.528611       -14.3842
 205   2.0000      -0.525734       -14.3059
 206   2.0000      -0.523211       -14.2373
 207   2.0000      -0.522345       -14.2137
 208   2.0000      -0.519232       -14.1290
 209   2.0000      -0.517859       -14.0917
 210   2.0000      -0.516202       -14.0466
 211   2.0000      -0.514054       -13.9881
 212   2.0000      -0.512277       -13.9398
 213   2.0000      -0.510290       -13.8857
 214   2.0000      -0.508571       -13.8389
 215   2.0000      -0.507805       -13.8181
 216   2.0000      -0.506138       -13.7727
 217   2.0000      -0.505086       -13.7441
 218   2.0000      -0.504294       -13.7225
 219   2.0000      -0.499965       -13.6047
 220   2.0000      -0.499733       -13.5984
 221   2.0000      -0.496567       -13.5123
 222   2.0000      -0.493774       -13.4363
 223   2.0000      -0.493256       -13.4222
 224   2.0000      -0.487629       -13.2690
 225   2.0000      -0.483899       -13.1676
 226   2.0000      -0.479536       -13.0489
 227   2.0000      -0.478241       -13.0136
 228   2.0000      -0.476404       -12.9636
 229   2.0000      -0.474034       -12.8991
 230   2.0000      -0.470765       -12.8102
 231   2.0000      -0.470076       -12.7914
 232   2.0000      -0.469806       -12.7841
 233   2.0000      -0.466856       -12.7038
 234   2.0000      -0.466182       -12.6855
 235   2.0000      -0.464411       -12.6373
 236   2.0000      -0.459552       -12.5050
 237   2.0000      -0.457924       -12.4607
 238   2.0000      -0.457607       -12.4521
 239   2.0000      -0.455985       -12.4080
 240   2.0000      -0.455572       -12.3968
 241   2.0000      -0.454457       -12.3664
 242   2.0000      -0.453720       -12.3464
 243   2.0000      -0.452179       -12.3044
 244   2.0000      -0.451962       -12.2985
 245   2.0000      -0.451508       -12.2862
 246   2.0000      -0.450441       -12.2571
 247   2.0000      -0.444551       -12.0968
 248   2.0000      -0.443904       -12.0792
 249   2.0000      -0.439628       -11.9629
 250   2.0000      -0.438640       -11.9360
 251   2.0000      -0.438033       -11.9195
 252   2.0000      -0.436747       -11.8845
 253   2.0000      -0.436069       -11.8660
 254   2.0000      -0.434732       -11.8297
 255   2.0000      -0.433793       -11.8041
 256   2.0000      -0.433570       -11.7980
 257   2.0000      -0.430271       -11.7083
 258   2.0000      -0.426651       -11.6098
 259   2.0000      -0.424861       -11.5611
 260   2.0000      -0.420528       -11.4431
 261   2.0000      -0.419517       -11.4156
 262   2.0000      -0.415123       -11.2961
 263   2.0000      -0.412830       -11.2337
 264   2.0000      -0.404074       -10.9954
 265   2.0000      -0.401233       -10.9181
 266   2.0000      -0.396709       -10.7950
 267   2.0000      -0.390956       -10.6384
 268   2.0000      -0.385114       -10.4795
 269   2.0000      -0.377474       -10.2716
 270   2.0000      -0.368711       -10.0331
 271   2.0000      -0.359409        -9.7800
 272   2.0000      -0.356953        -9.7132
 273   2.0000      -0.355324        -9.6689
 274   2.0000      -0.346160        -9.4195
 275   2.0000      -0.343319        -9.3422
 276   2.0000      -0.338117        -9.2006
 277   2.0000      -0.335379        -9.1261
 278   2.0000      -0.330335        -8.9889
 279   2.0000      -0.326456        -8.8833
 280   2.0000      -0.324011        -8.8168
 281   2.0000      -0.322664        -8.7801
 282   2.0000      -0.317505        -8.6398
 283   2.0000      -0.310313        -8.4441
 284   2.0000      -0.307424        -8.3654
 285   2.0000      -0.305508        -8.3133
 286   2.0000      -0.295232        -8.0337
 287   2.0000      -0.243475        -6.6253
 288   0.0000      -0.138273        -3.7626
 289   0.0000      -0.100419        -2.7326
 290   0.0000      -0.092359        -2.5132
 291   0.0000      -0.076218        -2.0740
 292   0.0000      -0.069363        -1.8875

MULLIKEN ATOMIC CHARGES
-----------------------
   0 C :   -0.108462
   1 C :    0.244436
   2 F :   -0.165100
   3 C :    0.244476
   4 F :   -0.161779
   5 C :   -0.111697
   6 C :    0.111861
   7 C :    0.116281
   8 C :   -0.086344
   9 C :    0.060416
  10 C :    0.008849
  11 C :   -0.097684
  12 C :    0.141875
  13 O :   -0.156417
  14 C :   -0.032245
  15 C :    0.300978
  16 C :   -0.338739
  17 C :   -0.188047
  18 N :    0.156676
  19 C :   -0.184819
  20 N :    0.158980
  21 C :   -0.029593
  22 C :    0.088034
  23 C :   -0.113518
  24 S :    0.161805
  25 C :   -0.106115
  26 C :    0.070671
  27 C :    0.190499
  28 O :   -0.196476
  29 O :   -0.220846
  30 C :    0.152197
  31 C :   -0.021981
  32 C :    0.087293
  33 N :   -0.261916
  34 C :    0.089437
  35 C :    0.010409
  36 C :    0.159356
  37 O :   -0.195779
  38 C :   -0.050909
  39 C :   -0.041759
  40 C :    0.143568
  41 O :   -0.192672
  42 N :   -0.263784
  43 C :    0.096799
  44 C :    0.002453
  45 C :    0.144729
  46 C :   -0.021690
  47 C :    0.008289
  48 C :    0.113444
  49 C :   -0.103358
  50 C :    0.126819
  51 C :   -0.092159
  52 C :   -0.007584
  53 C :   -0.174012
  54 N :    0.139326
  55 C :    0.115394
  56 C :   -0.051593
  57 C :    0.054269
  58 C :   -0.008221
  59 C :   -0.089118
  60 C :   -0.181550
  61 N :    0.150229
  62 C :    0.047418
  63 C :   -0.125538
  64 C :    0.143053
  65 O :   -0.130198
  66 C :    0.011569
  67 C :   -0.084922
  68 C :    0.115098
  69 C :    0.114981
  70 C :   -0.109761
  71 C :    0.244942
  72 C :    0.242769
  73 C :   -0.105755
  74 F :   -0.169799
  75 F :   -0.169237
  76 C :   -0.085987
  77 C :    0.043681
  78 C :    0.262915
  79 C :   -0.339145
  80 C :   -0.188891
  81 N :    0.175782
  82 C :   -0.175991
  83 N :    0.162317
  84 H :    0.009785
  85 H :    0.003817
  86 H :   -0.002164
  87 H :    0.001264
  88 H :    0.030374
  89 H :    0.042740
  90 H :    0.045667
  91 H :    0.032324
  92 H :    0.027923
  93 H :    0.007692
  94 H :    0.042152
  95 H :    0.023070
  96 H :    0.024173
  97 H :    0.035291
  98 H :    0.045972
  99 H :    0.022450
 100 H :    0.032594
 101 H :    0.025592
 102 H :    0.014264
 103 H :   -0.030119
 104 H :    0.018292
 105 H :    0.018236
 106 H :    0.001565
 107 H :    0.009898
 108 H :    0.011070
 109 H :    0.033478
 110 H :   -0.006670
 111 H :    0.007787
 112 H :    0.001019
 113 H :   -0.002717
Sum of atomic charges:   -0.0000000

LOEWDIN ATOMIC CHARGES
----------------------
   0 C :   -0.028221
   1 C :    0.069346
   2 F :   -0.043488
   3 C :    0.071375
   4 F :   -0.040720
   5 C :   -0.035635
   6 C :   -0.009237
   7 C :   -0.005268
   8 C :    0.021412
   9 C :   -0.019556
  10 C :   -0.050774
  11 C :    0.025582
  12 C :    0.088474
  13 O :   -0.142787
  14 C :   -0.072089
  15 C :    0.080181
  16 C :   -0.129350
  17 C :   -0.019542
  18 N :   -0.044735
  19 C :   -0.017632
  20 N :   -0.045523
  21 C :    0.080586
  22 C :   -0.054461
  23 C :   -0.154663
  24 S :    0.486398
  25 C :   -0.144454
  26 C :   -0.090187
  27 C :    0.108499
  28 O :   -0.163896
  29 O :   -0.021521
  30 C :    0.088692
  31 C :   -0.063793
  32 C :    0.082351
  33 N :   -0.000182
  34 C :    0.031863
  35 C :   -0.059627
  36 C :    0.083579
  37 O :   -0.185046
  38 C :   -0.111844
  39 C :   -0.122933
  40 C :    0.075961
  41 O :   -0.199016
  42 N :   -0.004621
  43 C :    0.035849
  44 C :   -0.061168
  45 C :    0.070640
  46 C :   -0.030952
  47 C :    0.029562
  48 C :   -0.010606
  49 C :   -0.013679
  50 C :    0.050070
  51 C :   -0.072750
  52 C :    0.055431
  53 C :   -0.031404
  54 N :   -0.056610
  55 C :    0.031388
  56 C :    0.023670
  57 C :   -0.036919
  58 C :    0.048035
  59 C :   -0.073659
  60 C :   -0.031493
  61 N :   -0.054949
  62 C :    0.076779
  63 C :   -0.080210
  64 C :    0.083263
  65 O :   -0.132613
  66 C :   -0.055064
  67 C :    0.032985
  68 C :   -0.008565
  69 C :   -0.005064
  70 C :   -0.029508
  71 C :    0.068542
  72 C :    0.068455
  73 C :   -0.031989
  74 F :   -0.047911
  75 F :   -0.047113
  76 C :    0.015547
  77 C :   -0.021840
  78 C :    0.063905
  79 C :   -0.128621
  80 C :   -0.021043
  81 N :   -0.037998
  82 C :   -0.018958
  83 N :   -0.042176
  84 H :    0.048799
  85 H :    0.045015
  86 H :    0.041128
  87 H :    0.037993
  88 H :    0.049208
  89 H :    0.033491
  90 H :    0.034920
  91 H :    0.023327
  92 H :    0.055014
  93 H :    0.018269
  94 H :    0.035467
  95 H :    0.022703
  96 H :    0.031983
  97 H :    0.035466
  98 H :    0.039059
  99 H :    0.021821
 100 H :    0.033534
 101 H :    0.031511
 102 H :    0.021240
 103 H :    0.027998
 104 H :    0.043666
 105 H :    0.041643
 106 H :    0.035613
 107 H :    0.039577
 108 H :    0.036660
 109 H :    0.054469
 110 H :    0.041787
 111 H :    0.048044
 112 H :    0.045571
 113 H :    0.040266

  Mayer bond orders larger than 0.100000
B(  0-C ,  1-C ) :   1.4427 B(  0-C ,  5-C ) :   0.1072 B(  0-C ,  7-C ) :   1.1834
B(  0-C , 84-H ) :   1.0077 B(  1-C ,  2-F ) :   1.1409 B(  1-C ,  3-C ) :   1.1851
B(  3-C ,  4-F ) :   1.1443 B(  3-C ,  5-C ) :   1.4438 B(  5-C ,  6-C ) :   1.1882
B(  5-C , 85-H ) :   1.0060 B(  6-C ,  7-C ) :   1.2557 B(  6-C , 11-C ) :   1.1962
B(  7-C ,  8-C ) :   1.2223 B(  8-C ,  9-C ) :   1.4350 B(  8-C , 86-H ) :   0.9913
B(  9-C , 10-C ) :   1.2214 B(  9-C , 15-C ) :   0.9971 B( 10-C , 11-C ) :   1.4653
B( 10-C , 12-C ) :   0.9400 B( 11-C , 87-H ) :   1.0039 B( 12-C , 13-O ) :   2.2030
B( 12-C , 14-C ) :   0.9177 B( 14-C , 15-C ) :   1.0442 B( 14-C , 21-C ) :   1.7146
B( 15-C , 16-C ) :   1.6608 B( 16-C , 17-C ) :   1.1416 B( 16-C , 19-C ) :   1.1374
B( 17-C , 18-N ) :   2.9763 B( 19-C , 20-N ) :   2.9733 B( 21-C , 22-C ) :   1.0503
B( 21-C , 88-H ) :   0.9385 B( 22-C , 23-C ) :   1.5256 B( 22-C , 26-C ) :   1.2495
B( 23-C , 24-S ) :   1.1875 B( 23-C , 89-H ) :   0.9705 B( 24-S , 25-C ) :   1.1892
B( 25-C , 26-C ) :   1.5542 B( 25-C , 90-H ) :   0.9673 B( 26-C , 27-C ) :   0.9347
B( 27-C , 28-O ) :   2.0933 B( 27-C , 29-O ) :   1.1370 B( 29-O , 30-C ) :   1.0537
B( 30-C , 31-C ) :   1.6377 B( 30-C , 91-H ) :   0.9647 B( 31-C , 32-C ) :   1.1746
B( 31-C , 92-H ) :   0.9447 B( 32-C , 33-N ) :   1.1806 B( 32-C , 39-C ) :   1.3537
B( 33-N , 34-C ) :   0.9379 B( 33-N , 36-C ) :   1.0478 B( 34-C , 35-C ) :   1.1210
B( 34-C , 93-H ) :   0.9457 B( 34-C , 94-H ) :   0.9246 B( 35-C , 95-H ) :   0.9644
B( 35-C , 96-H ) :   0.9675 B( 35-C , 97-H ) :   0.9585 B( 36-C , 37-O ) :   2.0323
B( 36-C , 38-C ) :   0.9874 B( 37-O ,104-H ) :   0.1040 B( 38-C , 39-C ) :   1.2487
B( 38-C , 45-C ) :   1.3319 B( 39-C , 40-C ) :   0.9789 B( 40-C , 41-O ) :   2.1430
B( 40-C , 42-N ) :   1.0337 B( 42-N , 43-C ) :   0.9455 B( 42-N , 45-C ) :   1.1589
B( 43-C , 44-C ) :   1.1191 B( 43-C , 98-H ) :   0.9273 B( 43-C , 99-H ) :   0.9499
B( 44-C ,100-H ) :   0.9637 B( 44-C ,101-H ) :   0.9682 B( 44-C ,102-H ) :   0.9685
B( 45-C , 46-C ) :   1.1672 B( 46-C , 47-C ) :   1.5374 B( 46-C ,103-H ) :   0.9627
B( 47-C , 48-C ) :   1.1406 B( 47-C ,104-H ) :   0.9607 B( 48-C , 49-C ) :   1.4926
B( 48-C , 52-C ) :   1.0240 B( 49-C , 50-C ) :   1.1263 B( 49-C ,105-H ) :   1.0127
B( 50-C , 51-C ) :   1.0927 B( 50-C , 55-C ) :   1.3930 B( 51-C , 52-C ) :   1.7052
B( 51-C , 53-C ) :   1.0865 B( 52-C ,106-H ) :   1.0142 B( 53-C , 54-N ) :   2.9701
B( 55-C , 56-C ) :   1.1118 B( 55-C , 59-C ) :   1.1239 B( 56-C , 57-C ) :   1.5242
B( 56-C ,107-H ) :   1.0040 B( 57-C , 58-C ) :   1.0448 B( 57-C , 62-C ) :   1.0617
B( 58-C , 59-C ) :   1.6754 B( 58-C ,108-H ) :   1.0157 B( 59-C , 60-C ) :   1.0929
B( 60-C , 61-N ) :   2.9778 B( 62-C , 63-C ) :   1.6628 B( 62-C ,109-H ) :   0.9551
B( 63-C , 64-C ) :   0.9289 B( 63-C , 78-C ) :   1.0357 B( 64-C , 65-O ) :   2.2873
B( 64-C , 66-C ) :   0.9163 B( 66-C , 67-C ) :   1.4709 B( 66-C , 77-C ) :   1.2226
B( 67-C , 68-C ) :   1.1942 B( 67-C ,110-H ) :   1.0170 B( 68-C , 69-C ) :   1.2578
B( 68-C , 73-C ) :   1.1919 B( 69-C , 70-C ) :   1.1875 B( 69-C , 76-C ) :   1.2139
B( 70-C , 71-C ) :   1.4411 B( 70-C , 73-C ) :   0.1088 B( 70-C ,111-H ) :   1.0076
B( 71-C , 72-C ) :   1.1900 B( 71-C , 75-F ) :   1.1368 B( 72-C , 73-C ) :   1.4426
B( 72-C , 74-F ) :   1.1358 B( 73-C ,112-H ) :   1.0075 B( 76-C , 77-C ) :   1.4516
B( 76-C ,113-H ) :   0.9953 B( 77-C , 78-C ) :   0.9994 B( 78-C , 79-C ) :   1.6560
B( 79-C , 80-C ) :   1.1545 B( 79-C , 82-C ) :   1.1380 B( 80-C , 81-N ) :   2.9931
B( 82-C , 83-N ) :   2.9842

-----------------------------------------------------------------------------
         ABSORPTION SPECTRUM VIA TRANSITION ELECTRIC DIPOLE MOMENTS
-----------------------------------------------------------------------------
State   Energy  Wavelength   fosc         T2         TX        TY        TZ
        (cm-1)    (nm)                  (au**2)     (au)      (au)      (au)
-----------------------------------------------------------------------------
   0    9440.6   1059.2   0.594492547  20.73101   3.32482  -1.55620   2.69347
   1   16906.1    591.5   0.111872564   2.17849  -1.01508  -0.77499  -0.73993
   2   18736.5    533.7   0.070896474   1.24570   0.13723   1.05716  -0.33056
   3   19501.0    512.8   0.029430406   0.49684   0.13735  -0.63447   0.27462
   4   21219.0    471.3   0.226383457   3.51234   0.10415  -1.78268   0.56880
   5   22110.1    452.3   0.200514455   2.98559   0.89984  -0.50943   1.38432
   6   22604.6    442.4   0.060935395   0.88746   0.57085   0.37244   0.65029
   7   24571.4    407.0   0.008598064   0.11520  -0.25511  -0.02690  -0.22225
   8   24880.0    401.9   0.034129593   0.45160  -0.50489   0.09147  -0.43397
   9   25206.5    396.7   0.586469895   7.65963   2.35424   0.57137   1.33818
  10   26115.6    382.9   0.332869093   4.19613  -1.63005  -0.30486  -1.20255
  11   26458.3    378.0   0.055820013   0.69455   0.06502  -0.59497  -0.57994
  12   26469.5    377.8   0.176634268   2.19687  -1.14078  -0.93217  -0.16294
  13   26628.4    375.5   0.001566380   0.01937   0.10321   0.09333  -0.00143
  14   27398.7    365.0   0.005358764   0.06439   0.18853  -0.05152  -0.16183
  15   27706.7    360.9   0.033305669   0.39574  -0.45095   0.18026  -0.39986
  16   28102.9    355.8   0.032703084   0.38310  -0.30096   0.33451  -0.42501
  17   29270.3    341.6   0.006450174   0.07255   0.17339  -0.09111   0.18488
  18   29862.5    334.9   0.028587043   0.31515   0.00404  -0.52922   0.18724
  19   30131.7    331.9   0.303204717   3.31274   1.50104   0.91741   0.46690
  20   30539.1    327.4   0.040740531   0.43918  -0.51225   0.27175  -0.32084
  21   30632.0    326.5   0.247653692   2.66161   1.53306   0.13904   0.54039
  22   30697.6    325.8   0.011935091   0.12800  -0.29814  -0.13760  -0.14204
  23   30878.5    323.8   0.170021944   1.81269  -1.11084  -0.21310  -0.73029
  24   31508.6    317.4   0.054406371   0.56846   0.42428  -0.58025   0.22750
  25   31783.8    314.6   0.074035545   0.76685  -0.67165   0.55447  -0.09110
  26   31952.4    313.0   0.073857998   0.76097   0.76383  -0.28134   0.31367
  27   32376.8    308.9   0.155428558   1.58042  -0.78703   0.35462  -0.91392
  28   32498.4    307.7   0.207323696   2.10021   1.12332  -0.37300   0.83621
  29   32906.6    303.9   0.056232949   0.56258   0.73811  -0.07667   0.10905
  30   33371.3    299.7   0.015090252   0.14887  -0.34816  -0.16187  -0.03806
  31   33421.5    299.2   0.010526194   0.10369  -0.09603  -0.26932  -0.14809
  32   33611.4    297.5   0.045568559   0.44633   0.52974  -0.39502   0.09833
  33   33971.6    294.4   0.934699580   9.05799   1.62430  -1.27058   2.19209
  34   34162.4    292.7   0.005332862   0.05139  -0.17155  -0.02659   0.14579
  35   34433.0    290.4   0.018933814   0.18102  -0.25261  -0.11908  -0.32099
  36   34595.9    289.1   0.163386583   1.55477  -1.09614   0.33065  -0.49389
  37   34949.5    286.1   0.153787916   1.44863  -1.08123  -0.23582  -0.47324
  38   35066.5    285.2   0.005860530   0.05502  -0.01541  -0.21487   0.09281
  39   35273.2    283.5   0.100788245   0.94068   0.56369  -0.31638   0.72307
  40   35415.0    282.4   0.014138335   0.13143   0.15672  -0.16953   0.27951
  41   35456.0    282.0   0.014000570   0.13000   0.34858  -0.09209  -0.00290
  42   35522.4    281.5   0.048631795   0.45071   0.49795  -0.05353   0.44708
  43   35783.1    279.5   0.626368678   5.76272   2.27823  -0.36082   0.66498
  44   36003.6    277.7   0.022248772   0.20344   0.41790  -0.08639   0.14606
  45   36250.2    275.9   0.091914198   0.83473  -0.74546  -0.20902  -0.48511
  46   36532.2    273.7   0.000690893   0.00623   0.05270  -0.03446  -0.04755
  47   36673.9    272.7   0.005231824   0.04696  -0.19532  -0.09117  -0.02240
  48   36928.1    270.8   0.005405361   0.04819  -0.01323  -0.16018   0.14951
  49   37909.7    263.8   0.094125719   0.81740  -0.52156  -0.71804   0.17261
  50   37970.8    263.4   0.045764923   0.39679  -0.44008  -0.40544   0.19681
  51   38141.3    262.2   0.035068993   0.30269  -0.49891  -0.13945  -0.18531
  52   38255.7    261.4   0.013725378   0.11811   0.08873   0.24154  -0.22782
  53   38475.3    259.9   0.120661924   1.03244  -0.64353  -0.74227   0.25951
  54   38595.4    259.1   0.009691382   0.08267  -0.17782   0.15673  -0.16272
  55   38690.1    258.5   0.009129180   0.07768   0.01100  -0.06157  -0.27160
  56   38968.1    256.6   0.119523883   1.00977   0.91610   0.39003   0.13564
  57   39575.4    252.7   0.002513221   0.02091   0.09560  -0.06386   0.08769
  58   40003.5    250.0   0.000099116   0.00082  -0.01389  -0.02381  -0.00749
  59   40059.0    249.6   0.169156097   1.39016  -0.71356  -0.72671  -0.59403
  60   40072.9    249.5   0.000789069   0.00648   0.05944  -0.05400  -0.00572

FINAL SINGLE POINT ENERGY     -4176.961330690696

DIPOLE MOMENT
-------------
                                X             Y             Z
Electronic contribution:    -53.89973     -30.99214     -31.77136
Nuclear contribution   :     55.07438      32.01885      32.50076
                        -----------------------------------------
Total Dipole Moment    :      1.17465       1.02671       0.72940
                        -----------------------------------------
Magnitude (a.u.)       :      1.72220
Magnitude (Debye)      :      4.37748

Rotational constants in cm-1:     0.001107     0.000205     0.000176
Rotational constants in MHz :    33.186092     6.133833     5.275777

                             ****ORCA TERMINATED NORMALLY****
TOTAL RUN TIME: 0 days 0 hours 15 minutes 15 seconds 615 msec
