                         Program Version 4.2.0 -  RELEASE  -
|  1> # ORCA input file
|  2> # SCF done       -225.120850260578          0.000918434990
|  3> ! CAM-B3LYP def2-SVP def2/J RIJCOSX Grid4 TightSCF
|  4> %maxcore 5000
|  5> %tddft
|  6>     Mode sTDDFT
|  7>     Ethresh 5.0
|  8>     maxcore 5000
|  9> end
| 10>
| 11> %pal
| 12>   nprocs 6
| 13>   end
| 14> * xyz 0 1
| 15>    C        0.94454         1.55906         3.66777
| 16>    C        2.09359         1.50311         4.40572
| 17>    F        2.70489         2.63043         4.78596
| 18>    C        2.64860         0.26074         4.77665
| 19>    F        3.77371         0.23645         5.50072
| 20>    C        2.04694        -0.90834         4.40316
| 21>    C        0.86187        -0.88380         3.64216
| 22>    C        0.29816         0.37157         3.26911
| 23>    C       -0.89413         0.42073         2.51223
| 24>    C       -1.50671        -0.74902         2.14423
| 25>    C       -0.93221        -1.99817         2.51219
| 26>    C        0.22196        -2.07620         3.23860
| 27>    C       -1.75134        -3.10137         1.97823
| 28>    O       -1.48775        -4.28158         2.02350
| 29>    C       -2.88623        -2.44237         1.26557
| 30>    C       -2.73360        -1.00252         1.39911
| 31>    C       -3.63844        -0.05913         0.99412
| 32>    C       -3.46423         1.33011         1.17753
| 33>    N       -3.37266         2.46730         1.29858
| 34>    C       -4.88088        -0.34272         0.38486
| 35>    N       -5.91919        -0.49964        -0.07785
| 36>    C       -3.78750        -3.07776         0.47236
| 37>    C       -4.06826        -4.47820         0.47861
| 38>    C       -4.46148        -5.12837        -0.71443
| 39>    C       -4.71504        -6.54142        -0.76729
| 40>    N       -5.22270        -7.08441        -1.88456
| 41>    C       -5.35578        -6.34656        -2.95464
| 42>    C       -4.93873        -4.97039        -2.94611
| 43>    N       -4.54978        -4.39801        -1.83889
| 44>    C       -4.99263        -4.20706        -4.14137
| 45>    N       -5.04516        -3.61820        -5.12130
| 46>    C       -5.95422        -6.89992        -4.11596
| 47>    N       -6.44634        -7.30461        -5.06647
| 48>    C       -4.50317        -7.36739         0.36125
| 49>    C       -4.24588        -6.70181         1.57173
| 50>    C       -4.04965        -5.27445         1.63771
| 51>    N       -3.88610        -4.86521         2.89850
| 52>    S       -3.91349        -6.12803         3.87089
| 53>    N       -4.16892        -7.27126         2.77724
| 54>    C       -4.62508        -8.78654         0.31922
| 55>    S       -5.08573        -9.65629         1.74249
| 56>    C       -5.21962       -11.15515         0.86753
| 57>    C       -4.87093       -10.98056        -0.47415
| 58>    C       -4.51898        -9.64538        -0.76704
| 59>    N       -3.96169        -9.28910        -2.04090
| 60>    O       -3.04269        -8.49437        -2.03567
| 61>    O       -4.40422        -9.84839        -3.01388
| 62>    C       -4.79367       -12.02362        -1.41773
| 63>    N       -4.71055       -12.89559        -2.15711
| 64>    C       -5.64825       -12.30572         1.57374
| 65>    C       -6.03474       -13.48905         1.02894
| 66>    C       -6.50161       -14.58229         1.80625
| 67>    C       -6.47498       -14.74215         3.17365
| 68>    C       -7.09678       -15.97859         3.51462
| 69>    C       -7.52584       -16.58774         2.23648
| 70>    C       -7.15399       -15.75619         1.23209
| 71>    C       -8.23527       -17.78551         2.09126
| 72>    N       -8.83056       -18.76046         1.96852
| 73>    C       -7.30813       -16.48825         4.77031
| 74>    C       -8.00564       -17.69129         5.09868
| 75>    C       -8.16180       -17.76601         6.46101
| 76>    C       -7.48340       -16.61998         7.05297
| 77>    C       -6.98032       -15.84670         6.05677
| 78>    C       -6.28397       -14.64537         6.23108
| 79>    N       -5.71072       -13.66326         6.39292
| 80>    C       -8.83903       -18.76604         7.20988
| 81>    C       -9.82553       -19.60235         6.79657
| 82>    C      -10.13456       -20.81324         7.62049
| 83>    O       -9.76464       -21.02095         8.75086
| 84>    C      -10.92215       -21.69127         6.73711
| 85>    C      -11.34908       -22.97025         6.95564
| 86>    C      -12.06979       -23.63550         5.93928
| 87>    C      -12.31915       -22.96673         4.70474
| 88>    C      -13.02713       -23.64172         3.68994
| 89>    C      -13.47319       -24.91737         3.89358
| 90>    C      -13.22993       -25.57630         5.11652
| 91>    C      -12.54225       -24.95055         6.11822
| 92>    F      -13.67937       -26.82544         5.28793
| 93>    F      -14.14844       -25.55640         2.93151
| 94>    C      -11.86902       -21.64155         4.50845
| 95>    C      -11.19454       -21.00740         5.51757
| 96>    C      -10.65963       -19.65127         5.60905
| 97>    C      -11.09015       -18.59709         4.84999
| 98>    C      -10.73050       -17.25153         5.06054
| 99>    N      -10.49693       -16.13536         5.19472
|100>    C      -12.03075       -18.71913         3.80267
|101>    N      -12.80164       -18.75658         2.95455
|102>    H        0.53260         2.51773         3.39364
|103>    H        2.48536        -1.85017         4.69380
|104>    H       -1.29149         1.38468         2.23841
|105>    H        0.63873        -3.03592         3.50391
|106>    H       -4.33837        -2.51325        -0.26992
|107>    H       -5.71238       -12.17798         2.64618
|108>    H       -6.03555       -13.61855        -0.04388
|109>    H       -6.04922       -14.06929         3.89055
|110>    H       -7.32028       -15.90397         0.18089
|111>    H       -8.32631       -18.42127         4.38264
|112>    H       -7.43070       -16.42243         8.10764
|113>    H       -8.50135       -18.91957         8.23103
|114>    H      -11.13934       -23.46723         7.89053
|115>    H      -13.22463       -23.15023         2.75017
|116>    H      -12.36374       -25.46892         7.04727
|117>    H      -12.05653       -21.16350         3.56045
|118> *
|119>
|120>                          ****END OF INPUT****

CARTESIAN COORDINATES (ANGSTROEM)
---------------------------------
  C      0.944540    1.559060    3.667770
  C      2.093590    1.503110    4.405720
  F      2.704890    2.630430    4.785960
  C      2.648600    0.260740    4.776650
  F      3.773710    0.236450    5.500720
  C      2.046940   -0.908340    4.403160
  C      0.861870   -0.883800    3.642160
  C      0.298160    0.371570    3.269110
  C     -0.894130    0.420730    2.512230
  C     -1.506710   -0.749020    2.144230
  C     -0.932210   -1.998170    2.512190
  C      0.221960   -2.076200    3.238600
  C     -1.751340   -3.101370    1.978230
  O     -1.487750   -4.281580    2.023500
  C     -2.886230   -2.442370    1.265570
  C     -2.733600   -1.002520    1.399110
  C     -3.638440   -0.059130    0.994120
  C     -3.464230    1.330110    1.177530
  N     -3.372660    2.467300    1.298580
  C     -4.880880   -0.342720    0.384860
  N     -5.919190   -0.499640   -0.077850
  C     -3.787500   -3.077760    0.472360
  C     -4.068260   -4.478200    0.478610
  C     -4.461480   -5.128370   -0.714430
  C     -4.715040   -6.541420   -0.767290
  N     -5.222700   -7.084410   -1.884560
  C     -5.355780   -6.346560   -2.954640
  C     -4.938730   -4.970390   -2.946110
  N     -4.549780   -4.398010   -1.838890
  C     -4.992630   -4.207060   -4.141370
  N     -5.045160   -3.618200   -5.121300
  C     -5.954220   -6.899920   -4.115960
  N     -6.446340   -7.304610   -5.066470
  C     -4.503170   -7.367390    0.361250
  C     -4.245880   -6.701810    1.571730
  C     -4.049650   -5.274450    1.637710
  N     -3.886100   -4.865210    2.898500
  S     -3.913490   -6.128030    3.870890
  N     -4.168920   -7.271260    2.777240
  C     -4.625080   -8.786540    0.319220
  S     -5.085730   -9.656290    1.742490
  C     -5.219620  -11.155150    0.867530
  C     -4.870930  -10.980560   -0.474150
  C     -4.518980   -9.645380   -0.767040
  N     -3.961690   -9.289100   -2.040900
  O     -3.042690   -8.494370   -2.035670
  O     -4.404220   -9.848390   -3.013880
  C     -4.793670  -12.023620   -1.417730
  N     -4.710550  -12.895590   -2.157110
  C     -5.648250  -12.305720    1.573740
  C     -6.034740  -13.489050    1.028940
  C     -6.501610  -14.582290    1.806250
  C     -6.474980  -14.742150    3.173650
  C     -7.096780  -15.978590    3.514620
  C     -7.525840  -16.587740    2.236480
  C     -7.153990  -15.756190    1.232090
  C     -8.235270  -17.785510    2.091260
  N     -8.830560  -18.760460    1.968520
  C     -7.308130  -16.488250    4.770310
  C     -8.005640  -17.691290    5.098680
  C     -8.161800  -17.766010    6.461010
  C     -7.483400  -16.619980    7.052970
  C     -6.980320  -15.846700    6.056770
  C     -6.283970  -14.645370    6.231080
  N     -5.710720  -13.663260    6.392920
  C     -8.839030  -18.766040    7.209880
  C     -9.825530  -19.602350    6.796570
  C    -10.134560  -20.813240    7.620490
  O     -9.764640  -21.020950    8.750860
  C    -10.922150  -21.691270    6.737110
  C    -11.349080  -22.970250    6.955640
  C    -12.069790  -23.635500    5.939280
  C    -12.319150  -22.966730    4.704740
  C    -13.027130  -23.641720    3.689940
  C    -13.473190  -24.917370    3.893580
  C    -13.229930  -25.576300    5.116520
  C    -12.542250  -24.950550    6.118220
  F    -13.679370  -26.825440    5.287930
  F    -14.148440  -25.556400    2.931510
  C    -11.869020  -21.641550    4.508450
  C    -11.194540  -21.007400    5.517570
  C    -10.659630  -19.651270    5.609050
  C    -11.090150  -18.597090    4.849990
  C    -10.730500  -17.251530    5.060540
  N    -10.496930  -16.135360    5.194720
  C    -12.030750  -18.719130    3.802670
  N    -12.801640  -18.756580    2.954550
  H      0.532600    2.517730    3.393640
  H      2.485360   -1.850170    4.693800
  H     -1.291490    1.384680    2.238410
  H      0.638730   -3.035920    3.503910
  H     -4.338370   -2.513250   -0.269920
  H     -5.712380  -12.177980    2.646180
  H     -6.035550  -13.618550   -0.043880
  H     -6.049220  -14.069290    3.890550
  H     -7.320280  -15.903970    0.180890
  H     -8.326310  -18.421270    4.382640
  H     -7.430700  -16.422430    8.107640
  H     -8.501350  -18.919570    8.231030
  H    -11.139340  -23.467230    7.890530
  H    -13.224630  -23.150230    2.750170
  H    -12.363740  -25.468920    7.047270
  H    -12.056530  -21.163500    3.560450

 Total Charge           Charge          ....    0
 Multiplicity           Mult            ....    1
 Number of Electrons    NEL             ....  592
 Basis Dimension        Dim             .... 1306

ORBITAL ENERGIES
----------------

  NO   OCC          E(Eh)            E(eV)
   0   2.0000     -89.071125     -2423.7485
   1   2.0000     -89.010082     -2422.0875
   2   2.0000     -24.807911      -675.0576
   3   2.0000     -24.806873      -675.0293
   4   2.0000     -24.803841      -674.9468
   5   2.0000     -24.802823      -674.9191
   6   2.0000     -19.267687      -524.3004
   7   2.0000     -19.262096      -524.1483
   8   2.0000     -19.233845      -523.3795
   9   2.0000     -19.229765      -523.2685
  10   2.0000     -14.673166      -399.2772
  11   2.0000     -14.481289      -394.0559
  12   2.0000     -14.480491      -394.0342
  13   2.0000     -14.476912      -393.9368
  14   2.0000     -14.474168      -393.8621
  15   2.0000     -14.441200      -392.9650
  16   2.0000     -14.438963      -392.9042
  17   2.0000     -14.430960      -392.6864
  18   2.0000     -14.430243      -392.6669
  19   2.0000     -14.429365      -392.6430
  20   2.0000     -14.427388      -392.5892
  21   2.0000     -14.425504      -392.5379
  22   2.0000     -14.424092      -392.4995
  23   2.0000     -14.422693      -392.4614
  24   2.0000     -10.401284      -283.0333
  25   2.0000     -10.400321      -283.0071
  26   2.0000     -10.391920      -282.7785
  27   2.0000     -10.391190      -282.7587
  28   2.0000     -10.387525      -282.6589
  29   2.0000     -10.386980      -282.6441
  30   2.0000     -10.385189      -282.5954
  31   2.0000     -10.380258      -282.4612
  32   2.0000     -10.373238      -282.2702
  33   2.0000     -10.372551      -282.2515
  34   2.0000     -10.370580      -282.1978
  35   2.0000     -10.367527      -282.1147
  36   2.0000     -10.365049      -282.0473
  37   2.0000     -10.364307      -282.0271
  38   2.0000     -10.361187      -281.9422
  39   2.0000     -10.361162      -281.9416
  40   2.0000     -10.357976      -281.8549
  41   2.0000     -10.355852      -281.7971
  42   2.0000     -10.355045      -281.7751
  43   2.0000     -10.353959      -281.7455
  44   2.0000     -10.353789      -281.7409
  45   2.0000     -10.342274      -281.4276
  46   2.0000     -10.340376      -281.3759
  47   2.0000     -10.340180      -281.3706
  48   2.0000     -10.334712      -281.2218
  49   2.0000     -10.333294      -281.1832
  50   2.0000     -10.332512      -281.1620
  51   2.0000     -10.332037      -281.1490
  52   2.0000     -10.331879      -281.1447
  53   2.0000     -10.331529      -281.1352
  54   2.0000     -10.331167      -281.1254
  55   2.0000     -10.330957      -281.1196
  56   2.0000     -10.330065      -281.0954
  57   2.0000     -10.328869      -281.0628
  58   2.0000     -10.327592      -281.0281
  59   2.0000     -10.326273      -280.9922
  60   2.0000     -10.326067      -280.9866
  61   2.0000     -10.325874      -280.9813
  62   2.0000     -10.325065      -280.9593
  63   2.0000     -10.324896      -280.9547
  64   2.0000     -10.323139      -280.9069
  65   2.0000     -10.322136      -280.8796
  66   2.0000     -10.321856      -280.8720
  67   2.0000     -10.321819      -280.8710
  68   2.0000     -10.320376      -280.8317
  69   2.0000     -10.319937      -280.8198
  70   2.0000     -10.319078      -280.7964
  71   2.0000     -10.318282      -280.7747
  72   2.0000     -10.317830      -280.7624
  73   2.0000     -10.317578      -280.7556
  74   2.0000     -10.316688      -280.7314
  75   2.0000     -10.315202      -280.6909
  76   2.0000     -10.314607      -280.6747
  77   2.0000     -10.311653      -280.5943
  78   2.0000     -10.311453      -280.5889
  79   2.0000     -10.310712      -280.5687
  80   2.0000     -10.310497      -280.5629
  81   2.0000     -10.309887      -280.5463
  82   2.0000     -10.307328      -280.4766
  83   2.0000     -10.306433      -280.4523
  84   2.0000     -10.306004      -280.4406
  85   2.0000     -10.303449      -280.3711
  86   2.0000     -10.303178      -280.3637
  87   2.0000      -8.161897      -222.0965
  88   2.0000      -8.104592      -220.5372
  89   2.0000      -6.132769      -166.8811
  90   2.0000      -6.125166      -166.6742
  91   2.0000      -6.125005      -166.6699
  92   2.0000      -6.073843      -165.2777
  93   2.0000      -6.069513      -165.1598
  94   2.0000      -6.066846      -165.0873
  95   2.0000      -1.347189       -36.6589
  96   2.0000      -1.330960       -36.2173
  97   2.0000      -1.326790       -36.1038
  98   2.0000      -1.316018       -35.8107
  99   2.0000      -1.311860       -35.6975
 100   2.0000      -1.167685       -31.7743
 101   2.0000      -1.166699       -31.7475
 102   2.0000      -1.149014       -31.2663
 103   2.0000      -1.145510       -31.1709
 104   2.0000      -1.141266       -31.0554
 105   2.0000      -1.068403       -29.0727
 106   2.0000      -1.052277       -28.6339
 107   2.0000      -1.035921       -28.1888
 108   2.0000      -1.034042       -28.1377
 109   2.0000      -1.029553       -28.0156
 110   2.0000      -1.025958       -27.9177
 111   2.0000      -1.020783       -27.7769
 112   2.0000      -1.016780       -27.6680
 113   2.0000      -1.016383       -27.6572
 114   2.0000      -1.014089       -27.5948
 115   2.0000      -1.013676       -27.5835
 116   2.0000      -1.009117       -27.4595
 117   2.0000      -1.007884       -27.4259
 118   2.0000      -1.004936       -27.3457
 119   2.0000      -1.001915       -27.2635
 120   2.0000      -1.000380       -27.2217
 121   2.0000      -0.998229       -27.1632
 122   2.0000      -0.992956       -27.0197
 123   2.0000      -0.989821       -26.9344
 124   2.0000      -0.953474       -25.9453
 125   2.0000      -0.945938       -25.7403
 126   2.0000      -0.941723       -25.6256
 127   2.0000      -0.934670       -25.4337
 128   2.0000      -0.929413       -25.2906
 129   2.0000      -0.922641       -25.1063
 130   2.0000      -0.918053       -24.9815
 131   2.0000      -0.910891       -24.7866
 132   2.0000      -0.903815       -24.5941
 133   2.0000      -0.901083       -24.5197
 134   2.0000      -0.897093       -24.4111
 135   2.0000      -0.892053       -24.2740
 136   2.0000      -0.876193       -23.8424
 137   2.0000      -0.868557       -23.6346
 138   2.0000      -0.859046       -23.3758
 139   2.0000      -0.854320       -23.2472
 140   2.0000      -0.852263       -23.1913
 141   2.0000      -0.849697       -23.1214
 142   2.0000      -0.848420       -23.0867
 143   2.0000      -0.826298       -22.4847
 144   2.0000      -0.822589       -22.3838
 145   2.0000      -0.817871       -22.2554
 146   2.0000      -0.801292       -21.8043
 147   2.0000      -0.787640       -21.4328
 148   2.0000      -0.780817       -21.2471
 149   2.0000      -0.776986       -21.1429
 150   2.0000      -0.770866       -20.9763
 151   2.0000      -0.758858       -20.6496
 152   2.0000      -0.754060       -20.5190
 153   2.0000      -0.748083       -20.3564
 154   2.0000      -0.740991       -20.1634
 155   2.0000      -0.736868       -20.0512
 156   2.0000      -0.728159       -19.8142
 157   2.0000      -0.726395       -19.7662
 158   2.0000      -0.725211       -19.7340
 159   2.0000      -0.723354       -19.6835
 160   2.0000      -0.717205       -19.5161
 161   2.0000      -0.707313       -19.2470
 162   2.0000      -0.698947       -19.0193
 163   2.0000      -0.697594       -18.9825
 164   2.0000      -0.692085       -18.8326
 165   2.0000      -0.690141       -18.7797
 166   2.0000      -0.682516       -18.5722
 167   2.0000      -0.679044       -18.4777
 168   2.0000      -0.675693       -18.3865
 169   2.0000      -0.670494       -18.2451
 170   2.0000      -0.665900       -18.1201
 171   2.0000      -0.662293       -18.0219
 172   2.0000      -0.658116       -17.9082
 173   2.0000      -0.655464       -17.8361
 174   2.0000      -0.653939       -17.7946
 175   2.0000      -0.651278       -17.7222
 176   2.0000      -0.650263       -17.6946
 177   2.0000      -0.649204       -17.6657
 178   2.0000      -0.642699       -17.4887
 179   2.0000      -0.631451       -17.1826
 180   2.0000      -0.628739       -17.1089
 181   2.0000      -0.625044       -17.0083
 182   2.0000      -0.622376       -16.9357
 183   2.0000      -0.610929       -16.6242
 184   2.0000      -0.609367       -16.5817
 185   2.0000      -0.605842       -16.4858
 186   2.0000      -0.599668       -16.3178
 187   2.0000      -0.598185       -16.2774
 188   2.0000      -0.595241       -16.1973
 189   2.0000      -0.594876       -16.1874
 190   2.0000      -0.592017       -16.1096
 191   2.0000      -0.591013       -16.0823
 192   2.0000      -0.586309       -15.9543
 193   2.0000      -0.584022       -15.8920
 194   2.0000      -0.578283       -15.7359
 195   2.0000      -0.572018       -15.5654
 196   2.0000      -0.568370       -15.4661
 197   2.0000      -0.565872       -15.3982
 198   2.0000      -0.565307       -15.3828
 199   2.0000      -0.561296       -15.2736
 200   2.0000      -0.559754       -15.2317
 201   2.0000      -0.556612       -15.1462
 202   2.0000      -0.556421       -15.1410
 203   2.0000      -0.552472       -15.0335
 204   2.0000      -0.551533       -15.0080
 205   2.0000      -0.550010       -14.9665
 206   2.0000      -0.547194       -14.8899
 207   2.0000      -0.544417       -14.8143
 208   2.0000      -0.542602       -14.7649
 209   2.0000      -0.541587       -14.7373
 210   2.0000      -0.538481       -14.6528
 211   2.0000      -0.537680       -14.6310
 212   2.0000      -0.536368       -14.5953
 213   2.0000      -0.535481       -14.5712
 214   2.0000      -0.529637       -14.4122
 215   2.0000      -0.528172       -14.3723
 216   2.0000      -0.526435       -14.3250
 217   2.0000      -0.525858       -14.3093
 218   2.0000      -0.523667       -14.2497
 219   2.0000      -0.517360       -14.0781
 220   2.0000      -0.513272       -13.9668
 221   2.0000      -0.511064       -13.9068
 222   2.0000      -0.510701       -13.8969
 223   2.0000      -0.506978       -13.7956
 224   2.0000      -0.506339       -13.7782
 225   2.0000      -0.505108       -13.7447
 226   2.0000      -0.501906       -13.6576
 227   2.0000      -0.500955       -13.6317
 228   2.0000      -0.499474       -13.5914
 229   2.0000      -0.497428       -13.5357
 230   2.0000      -0.494716       -13.4619
 231   2.0000      -0.492443       -13.4001
 232   2.0000      -0.489932       -13.3317
 233   2.0000      -0.486975       -13.2513
 234   2.0000      -0.482348       -13.1254
 235   2.0000      -0.481323       -13.0975
 236   2.0000      -0.474807       -12.9201
 237   2.0000      -0.473518       -12.8851
 238   2.0000      -0.469706       -12.7814
 239   2.0000      -0.469440       -12.7741
 240   2.0000      -0.464637       -12.6434
 241   2.0000      -0.463205       -12.6045
 242   2.0000      -0.462399       -12.5825
 243   2.0000      -0.461490       -12.5578
 244   2.0000      -0.460882       -12.5412
 245   2.0000      -0.458754       -12.4833
 246   2.0000      -0.458218       -12.4687
 247   2.0000      -0.456569       -12.4239
 248   2.0000      -0.455685       -12.3998
 249   2.0000      -0.454665       -12.3721
 250   2.0000      -0.454103       -12.3568
 251   2.0000      -0.453317       -12.3354
 252   2.0000      -0.452406       -12.3106
 253   2.0000      -0.451854       -12.2956
 254   2.0000      -0.450832       -12.2677
 255   2.0000      -0.450815       -12.2673
 256   2.0000      -0.445681       -12.1276
 257   2.0000      -0.441556       -12.0153
 258   2.0000      -0.440559       -11.9882
 259   2.0000      -0.439605       -11.9623
 260   2.0000      -0.437855       -11.9146
 261   2.0000      -0.436235       -11.8706
 262   2.0000      -0.434914       -11.8346
 263   2.0000      -0.433860       -11.8059
 264   2.0000      -0.432120       -11.7586
 265   2.0000      -0.431008       -11.7283
 266   2.0000      -0.427353       -11.6289
 267   2.0000      -0.425717       -11.5843
 268   2.0000      -0.423580       -11.5262
 269   2.0000      -0.423036       -11.5114
 270   2.0000      -0.417546       -11.3620
 271   2.0000      -0.412982       -11.2378
 272   2.0000      -0.411287       -11.1917
 273   2.0000      -0.406926       -11.0730
 274   2.0000      -0.404160       -10.9977
 275   2.0000      -0.401330       -10.9207
 276   2.0000      -0.395644       -10.7660
 277   2.0000      -0.395319       -10.7572
 278   2.0000      -0.394352       -10.7309
 279   2.0000      -0.390777       -10.6336
 280   2.0000      -0.382008       -10.3950
 281   2.0000      -0.375736       -10.2243
 282   2.0000      -0.368046       -10.0150
 283   2.0000      -0.364479        -9.9180
 284   2.0000      -0.361233        -9.8296
 285   2.0000      -0.355205        -9.6656
 286   2.0000      -0.350927        -9.5492
 287   2.0000      -0.346983        -9.4419
 288   2.0000      -0.338916        -9.2224
 289   2.0000      -0.328496        -8.9388
 290   2.0000      -0.325069        -8.8456
 291   2.0000      -0.319160        -8.6848
 292   2.0000      -0.312807        -8.5119
 293   2.0000      -0.309654        -8.4261
 294   2.0000      -0.304122        -8.2756
 295   2.0000      -0.281769        -7.6673
 296   0.0000      -0.156277        -4.2525
 297   0.0000      -0.141567        -3.8522
 298   0.0000      -0.098207        -2.6724
 299   0.0000      -0.094927        -2.5831
 300   0.0000      -0.075523        -2.0551

MULLIKEN ATOMIC CHARGES
-----------------------
   0 C :   -0.108577
   1 C :    0.245053
   2 F :   -0.166714
   3 C :    0.241203
   4 F :   -0.167704
   5 C :   -0.104725
   6 C :    0.117784
   7 C :    0.115876
   8 C :   -0.083750
   9 C :    0.057387
  10 C :   -0.009464
  11 C :   -0.079257
  12 C :    0.164763
  13 O :   -0.147686
  14 C :   -0.051825
  15 C :    0.296261
  16 C :   -0.325472
  17 C :   -0.180203
  18 N :    0.155137
  19 C :   -0.194501
  20 N :    0.172466
  21 C :   -0.075361
  22 C :    0.074097
  23 C :   -0.031141
  24 C :   -0.072247
  25 N :    0.021356
  26 C :   -0.108241
  27 C :   -0.126206
  28 N :    0.061106
  29 C :   -0.195758
  30 N :    0.247418
  31 C :   -0.200685
  32 N :    0.257014
  33 C :    0.175546
  34 C :    0.001077
  35 C :    0.032462
  36 N :   -0.260345
  37 S :    0.585170
  38 N :   -0.312962
  39 C :   -0.267897
  40 S :    0.247643
  41 C :   -0.063878
  42 C :   -0.064129
  43 C :    0.260425
  44 N :    0.241072
  45 O :   -0.233525
  46 O :   -0.192878
  47 C :   -0.229019
  48 N :    0.171654
  49 C :    0.058933
  50 C :   -0.000093
  51 C :    0.097374
  52 C :   -0.101668
  53 C :    0.126566
  54 C :   -0.084546
  55 C :    0.010442
  56 C :   -0.167679
  57 N :    0.131107
  58 C :    0.100663
  59 C :   -0.103269
  60 C :    0.085035
  61 C :    0.017672
  62 C :   -0.076804
  63 C :   -0.172135
  64 N :    0.129120
  65 C :    0.039479
  66 C :   -0.110162
  67 C :    0.134160
  68 O :   -0.132255
  69 C :    0.016530
  70 C :   -0.082346
  71 C :    0.112718
  72 C :    0.109503
  73 C :   -0.103968
  74 C :    0.244387
  75 C :    0.241889
  76 C :   -0.104630
  77 F :   -0.168769
  78 F :   -0.168060
  79 C :   -0.074793
  80 C :    0.031300
  81 C :    0.276401
  82 C :   -0.324503
  83 C :   -0.190269
  84 N :    0.169897
  85 C :   -0.171432
  86 N :    0.168430
  87 H :    0.009936
  88 H :    0.000392
  89 H :   -0.003793
  90 H :   -0.010897
  91 H :    0.050840
  92 H :    0.004832
  93 H :    0.013202
  94 H :    0.006945
  95 H :    0.014716
  96 H :    0.021212
  97 H :    0.005951
  98 H :    0.023253
  99 H :   -0.007093
 100 H :    0.009596
 101 H :    0.000688
 102 H :    0.008179
Sum of atomic charges:   -0.0000000

LOEWDIN ATOMIC CHARGES
----------------------
   0 C :   -0.028208
   1 C :    0.068813
   2 F :   -0.044868
   3 C :    0.069473
   4 F :   -0.045758
   5 C :   -0.032474
   6 C :   -0.007697
   7 C :   -0.004815
   8 C :    0.019903
   9 C :   -0.023350
  10 C :   -0.052818
  11 C :    0.032388
  12 C :    0.084993
  13 O :   -0.140477
  14 C :   -0.058282
  15 C :    0.070660
  16 C :   -0.120347
  17 C :   -0.016699
  18 N :   -0.040762
  19 C :   -0.023955
  20 N :   -0.035902
  21 C :    0.072836
  22 C :   -0.018559
  23 C :    0.011043
  24 C :    0.000993
  25 N :   -0.004862
  26 C :   -0.010740
  27 C :   -0.009037
  28 N :    0.003870
  29 C :   -0.035301
  30 N :    0.012890
  31 C :   -0.038750
  32 N :    0.016084
  33 C :   -0.022335
  34 C :   -0.041893
  35 C :   -0.028235
  36 N :   -0.261278
  37 S :    0.718527
  38 N :   -0.305549
  39 C :   -0.150583
  40 S :    0.544051
  41 C :   -0.129912
  42 C :   -0.091055
  43 C :   -0.021436
  44 N :    0.284703
  45 O :   -0.205050
  46 O :   -0.154753
  47 C :   -0.037279
  48 N :   -0.029775
  49 C :   -0.021852
  50 C :    0.010071
  51 C :   -0.012198
  52 C :   -0.011975
  53 C :    0.051429
  54 C :   -0.078994
  55 C :    0.065745
  56 C :   -0.024835
  57 N :   -0.062275
  58 C :    0.042254
  59 C :    0.019547
  60 C :   -0.033451
  61 C :    0.066005
  62 C :   -0.078962
  63 C :   -0.026222
  64 N :   -0.065572
  65 C :    0.061102
  66 C :   -0.064929
  67 C :    0.084313
  68 O :   -0.133068
  69 C :   -0.057113
  70 C :    0.033822
  71 C :   -0.008582
  72 C :   -0.003906
  73 C :   -0.027845
  74 C :    0.068907
  75 C :    0.068681
  76 C :   -0.032379
  77 F :   -0.046865
  78 F :   -0.045593
  79 C :    0.021165
  80 C :   -0.020170
  81 C :    0.065435
  82 C :   -0.121419
  83 C :   -0.012308
  84 N :   -0.041010
  85 C :   -0.016871
  86 N :   -0.038328
  87 H :    0.048769
  88 H :    0.045320
  89 H :    0.040802
  90 H :    0.040211
  91 H :    0.051028
  92 H :    0.038535
  93 H :    0.042357
  94 H :    0.033696
  95 H :    0.043730
  96 H :    0.035930
  97 H :    0.040989
  98 H :    0.049034
  99 H :    0.041589
 100 H :    0.049006
 101 H :    0.045386
 102 H :    0.043435

  Mayer bond orders larger than 0.100000
B(  0-C ,  1-C ) :   1.4426 B(  0-C ,  5-C ) :   0.1080 B(  0-C ,  7-C ) :   1.1851
B(  0-C , 87-H ) :   1.0076 B(  1-C ,  2-F ) :   1.1393 B(  1-C ,  3-C ) :   1.1869
B(  3-C ,  4-F ) :   1.1379 B(  3-C ,  5-C ) :   1.4442 B(  5-C ,  6-C ) :   1.1902
B(  5-C , 88-H ) :   1.0076 B(  6-C ,  7-C ) :   1.2540 B(  6-C , 11-C ) :   1.1919
B(  7-C ,  8-C ) :   1.2210 B(  8-C ,  9-C ) :   1.4415 B(  8-C , 89-H ) :   0.9911
B(  9-C , 10-C ) :   1.2200 B(  9-C , 15-C ) :   0.9927 B( 10-C , 11-C ) :   1.4665
B( 10-C , 12-C ) :   0.9488 B( 11-C , 90-H ) :   1.0174 B( 12-C , 13-O ) :   2.2258
B( 12-C , 14-C ) :   0.9284 B( 14-C , 15-C ) :   1.0480 B( 14-C , 21-C ) :   1.6385
B( 15-C , 16-C ) :   1.6639 B( 16-C , 17-C ) :   1.1394 B( 16-C , 19-C ) :   1.1387
B( 17-C , 18-N ) :   2.9664 B( 19-C , 20-N ) :   2.9868 B( 21-C , 22-C ) :   1.1479
B( 21-C , 91-H ) :   0.9256 B( 22-C , 23-C ) :   1.2605 B( 22-C , 33-C ) :   0.1330
B( 22-C , 35-C ) :   1.2278 B( 23-C , 24-C ) :   1.1219 B( 23-C , 28-N ) :   1.4384
B( 24-C , 25-N ) :   1.4182 B( 24-C , 33-C ) :   1.2786 B( 25-N , 26-C ) :   1.7094
B( 26-C , 27-C ) :   1.1890 B( 26-C , 31-C ) :   1.1527 B( 27-C , 28-N ) :   1.7558
B( 27-C , 29-C ) :   1.1461 B( 29-C , 30-N ) :   3.0496 B( 31-C , 32-N ) :   3.0437
B( 33-C , 34-C ) :   1.2381 B( 33-C , 39-C ) :   1.1241 B( 34-C , 35-C ) :   1.1145
B( 34-C , 38-N ) :   1.4714 B( 35-C , 36-N ) :   1.4786 B( 36-N , 37-S ) :   1.3242
B( 36-N , 38-N ) :   0.1552 B( 37-S , 38-N ) :   1.2889 B( 39-C , 40-S ) :   1.1733
B( 39-C , 43-C ) :   1.4492 B( 40-S , 41-C ) :   1.1182 B( 41-C , 42-C ) :   1.4448
B( 41-C , 49-C ) :   1.1572 B( 42-C , 43-C ) :   1.3357 B( 42-C , 47-C ) :   1.1223
B( 43-C , 44-N ) :   0.8887 B( 44-N , 45-O ) :   1.5154 B( 44-N , 46-O ) :   1.5484
B( 45-O , 46-O ) :   0.2719 B( 47-C , 48-N ) :   2.9710 B( 49-C , 50-C ) :   1.6567
B( 49-C , 92-H ) :   0.9428 B( 50-C , 51-C ) :   1.1163 B( 50-C , 93-H ) :   0.9640
B( 51-C , 52-C ) :   1.5506 B( 51-C , 55-C ) :   1.0273 B( 52-C , 53-C ) :   1.1240
B( 52-C , 94-H ) :   0.9933 B( 53-C , 54-C ) :   1.0987 B( 53-C , 58-C ) :   1.4369
B( 54-C , 55-C ) :   1.6721 B( 54-C , 56-C ) :   1.0962 B( 55-C , 95-H ) :   1.0245
B( 56-C , 57-N ) :   2.9436 B( 58-C , 59-C ) :   1.1128 B( 58-C , 62-C ) :   1.1155
B( 59-C , 60-C ) :   1.5418 B( 59-C , 96-H ) :   0.9932 B( 60-C , 61-C ) :   1.0484
B( 60-C , 65-C ) :   1.0477 B( 61-C , 62-C ) :   1.6641 B( 61-C , 97-H ) :   1.0226
B( 62-C , 63-C ) :   1.0868 B( 63-C , 64-N ) :   2.9645 B( 65-C , 66-C ) :   1.7070
B( 65-C , 98-H ) :   0.9417 B( 66-C , 67-C ) :   0.9269 B( 66-C , 81-C ) :   1.0184
B( 67-C , 68-O ) :   2.2781 B( 67-C , 69-C ) :   0.9207 B( 69-C , 70-C ) :   1.4658
B( 69-C , 80-C ) :   1.2193 B( 70-C , 71-C ) :   1.1988 B( 70-C , 99-H ) :   1.0170
B( 71-C , 72-C ) :   1.2546 B( 71-C , 76-C ) :   1.1911 B( 72-C , 73-C ) :   1.1893
B( 72-C , 79-C ) :   1.2194 B( 73-C , 74-C ) :   1.4416 B( 73-C , 76-C ) :   0.1081
B( 73-C ,100-H ) :   1.0073 B( 74-C , 75-C ) :   1.1876 B( 74-C , 78-F ) :   1.1375
B( 75-C , 76-C ) :   1.4456 B( 75-C , 77-F ) :   1.1359 B( 76-C ,101-H ) :   1.0069
B( 79-C , 80-C ) :   1.4542 B( 79-C ,102-H ) :   0.9934 B( 80-C , 81-C ) :   0.9981
B( 81-C , 82-C ) :   1.6722 B( 82-C , 83-C ) :   1.1766 B( 82-C , 85-C ) :   1.1263
B( 83-C , 84-N ) :   2.9774 B( 85-C , 86-N ) :   2.9947

-----------------------------------------------------------------------------
         ABSORPTION SPECTRUM VIA TRANSITION ELECTRIC DIPOLE MOMENTS
-----------------------------------------------------------------------------
State   Energy  Wavelength   fosc         T2         TX        TY        TZ
        (cm-1)    (nm)                  (au**2)     (au)      (au)      (au)
-----------------------------------------------------------------------------
   0   12441.4    803.8   1.051857057  27.83322   1.71785   4.81216  -1.31350
   1   15071.5    663.5   0.148368785   3.24086  -0.32607   0.94490   1.49723
   2   17124.8    583.9   0.005419777   0.10419  -0.30526   0.09051  -0.05306
   3   19346.4    516.9   0.013062293   0.22228  -0.07061  -0.43591  -0.16516
   4   20561.5    486.3   0.009168519   0.14680  -0.28562   0.13736   0.21530
   5   20896.7    478.5   0.028906071   0.45539   0.43722   0.49216  -0.14835
   6   21682.9    461.2   0.228486401   3.46912   0.93120   1.60099  -0.19704
   7   22872.0    437.2   0.219230870   3.15554  -0.32589  -0.97895   1.44602
   8   23543.5    424.7   0.053674305   0.75053  -0.57362  -0.31611  -0.56707
   9   24254.8    412.3   0.007273744   0.09873  -0.26848   0.11606   0.11478
  10   25122.2    398.1   0.169057586   2.21540   0.07077   1.41726   0.44917
  11   25195.7    396.9   0.140258693   1.83265   0.96799   0.92364  -0.20624
  12   25672.8    389.5   0.079205691   1.01568  -0.73712  -0.44424   0.52439
  13   25951.1    385.3   0.131129851   1.66349  -0.88446  -0.67460  -0.65278
  14   26348.8    379.5   0.022256559   0.27808  -0.01220  -0.46108   0.25561
  15   26736.8    374.0   0.174552637   2.14928   0.08892  -0.47166   1.38525
  16   26890.4    371.9   0.188202885   2.30412   0.65994   1.24216   0.57065
  17   26943.9    371.1   0.034363168   0.41986  -0.31387  -0.53876   0.17632
  18   27861.7    358.9   0.157738090   1.86382  -0.63961  -0.65576   1.01228
  19   28160.2    355.1   0.012581728   0.14709  -0.05762  -0.36904  -0.08704
  20   28464.4    351.3   0.093313984   1.07925   0.38812  -0.33957   0.90183
  21   29190.9    342.6   0.015301608   0.17257  -0.27277  -0.29168  -0.11439
  22   29535.3    338.6   0.099024381   1.10376   0.41846   0.75823  -0.59476
  23   29882.4    334.6   0.013484379   0.14856  -0.33770  -0.07815  -0.16856
  24   30055.0    332.7   0.045523151   0.49864  -0.50892   0.04734  -0.48724
  25   30339.8    329.6   0.161503821   1.75245  -0.60380  -1.13907  -0.30065
  26   30552.5    327.3   0.036684948   0.39529   0.24756  -0.08045  -0.57231
  27   30666.4    326.1   0.336897392   3.61668  -1.32350  -0.47799  -1.27928
  28   30827.0    324.4   0.008157038   0.08711  -0.06772  -0.24672  -0.14715
  29   31138.6    321.1   0.095820276   1.01306   0.45626   0.74858  -0.49448
  30   31566.4    316.8   0.262740838   2.74017  -0.26349  -1.50810   0.62959
  31   31660.6    315.8   0.104714052   1.08883  -0.15952  -0.66905   0.78470
  32   31965.2    312.8   0.106901625   1.10099  -0.37974   0.64257  -0.73749
  33   32289.6    309.7   0.169033837   1.72340  -1.11071  -0.05909  -0.69731
  34   32448.0    308.2   0.005455153   0.05535  -0.00671   0.21691  -0.09084
  35   32703.2    305.8   0.004297472   0.04326  -0.12067  -0.15739   0.06267
  36   33053.4    302.5   0.007574290   0.07544  -0.20281   0.18469  -0.01416
  37   33474.5    298.7   0.006506052   0.06399   0.21407   0.13474   0.00206
  38   33599.9    297.6   0.022780888   0.22321  -0.15695   0.25132   0.36799
  39   33790.7    295.9   0.449265510   4.37705  -0.89101  -1.88885   0.12408
  40   34045.3    293.7   0.034830863   0.33681   0.51522   0.21580  -0.15744
  41   34175.1    292.6   0.005192951   0.05002  -0.11747  -0.18942  -0.01858
  42   34192.9    292.5   0.063009919   0.60666   0.38599   0.24246   0.63158
  43   34374.6    290.9   0.079088910   0.75745   0.38107  -0.00805  -0.78241
  44   34592.3    289.1   0.036968758   0.35183  -0.31009  -0.48846  -0.13071
  45   34858.5    286.9   0.165661179   1.56454   0.42267   1.09402   0.43475
  46   34928.2    286.3   0.282278324   2.66058   0.50633  -0.47831   1.47494
  47   35343.1    282.9   0.032327055   0.30112  -0.32823  -0.36577  -0.24413
  48   35676.8    280.3   0.583307296   5.38253   1.91267  -0.68119   1.12259
  49   35743.9    279.8   0.049752116   0.45823   0.28096   0.16404   0.59362
  50   36059.1    277.3   0.365492179   3.33687   0.51566   1.74965  -0.09836
  51   36213.9    276.1   0.140864904   1.28057   0.26504  -0.85004   0.69839
  52   36292.0    275.5   0.086309723   0.78293   0.29892  -0.22236   0.80258
  53   36368.8    275.0   0.005189504   0.04698  -0.01437   0.14292  -0.16230
  54   37077.7    269.7   0.005777385   0.05130  -0.08190  -0.20135  -0.06363
  55   37381.0    267.5   0.041398647   0.36460   0.46292   0.37814   0.08551
  56   37562.1    266.2   0.132101787   1.15780  -0.19642   0.23992  -1.03037
  57   37982.2    263.3   0.006524621   0.05655  -0.05301  -0.22608  -0.05131
  58   38156.0    262.1   0.006771408   0.05842   0.05838   0.07518   0.22218
  59   38218.3    261.7   0.008453856   0.07282  -0.09552  -0.20940   0.14089
  60   38455.9    260.0   0.050934522   0.43604   0.36047   0.54271   0.10754
  61   38489.5    259.8   0.014243980   0.12183  -0.17585  -0.17149   0.24799
  62   38747.1    258.1   0.003755919   0.03191   0.01282   0.17814   0.00385
  63   38985.9    256.5   0.053685958   0.45334  -0.28171  -0.46492  -0.39729
  64   39243.5    254.8   0.008559488   0.07181  -0.19494   0.16960  -0.07100
  65   39294.4    254.5   0.149305911   1.25090  -0.26160  -0.62232  -0.89173
  66   39469.2    253.4   0.038390205   0.32021  -0.23548  -0.32135  -0.40186
  67   39613.3    252.4   0.077621542   0.64509   0.42428   0.55927   0.39025
  68   39859.0    250.9   0.052120552   0.43048  -0.09089  -0.64979   0.00108
  69   40001.3    250.0   0.027558435   0.22681   0.31167  -0.35992  -0.01108
  70   40028.0    249.8   0.029815704   0.24522  -0.31287  -0.09389  -0.37218
  71   40063.0    249.6   0.065888435   0.54143  -0.06519  -0.65570  -0.32747

FINAL SINGLE POINT ENERGY     -4668.115191308927

DIPOLE MOMENT
-------------
                                X             Y             Z
Electronic contribution:      9.53600      24.98010      -8.64295
Nuclear contribution   :     -7.83246     -26.51890      13.31547
                        -----------------------------------------
Total Dipole Moment    :      1.70353      -1.53879       4.67252
                        -----------------------------------------
Magnitude (a.u.)       :      5.20600
Magnitude (Debye)      :     13.23259

Rotational constants in cm-1:     0.001406     0.000160     0.000150
Rotational constants in MHz :    42.151283     4.808357     4.484732

                             ****ORCA TERMINATED NORMALLY****
TOTAL RUN TIME: 0 days 0 hours 11 minutes 48 seconds 829 msec
