                         Program Version 4.2.0 -  RELEASE  -
|  1> # ORCA input file
|  2> # SCF done       -224.716746646933          0.000421254904
|  3> ! CAM-B3LYP def2-SVP def2/J RIJCOSX Grid4 TightSCF
|  4> %maxcore 5000
|  5> %tddft
|  6>     Mode sTDDFT
|  7>     Ethresh 5.0
|  8>     maxcore 5000
|  9> end
| 10>
| 11> %pal
| 12>   nprocs 6
| 13>   end
| 14> * xyz 0 1
| 15>    C        3.78660        -0.11680         8.57677
| 16>    C        5.07185        -0.33025         8.98959
| 17>    F        5.81282         0.68944         9.43751
| 18>    C        5.63352        -1.62331         8.94924
| 19>    F        6.89466        -1.80190         9.35933
| 20>    C        4.90149        -2.68498         8.49620
| 21>    C        3.57453        -2.49705         8.06259
| 22>    C        3.00511        -1.19052         8.10412
| 23>    C        1.67576        -0.97799         7.67460
| 24>    C        0.93829        -2.03903         7.21733
| 25>    C        1.51721        -3.33902         7.17200
| 26>    C        2.79886        -3.57462         7.58153
| 27>    C        0.54545        -4.29493         6.61131
| 28>    O        0.72498        -5.47073         6.38638
| 29>    C       -0.66479        -3.48690         6.28880
| 30>    C       -0.43042        -2.11890         6.72072
| 31>    C       -1.35518        -1.11073         6.73959
| 32>    C       -2.70308        -1.25466         6.34346
| 33>    N       -3.81351        -1.31271         6.06023
| 34>    C       -1.08743         0.19648         7.20063
| 35>    N       -0.92024         1.27245         7.56181
| 36>    C       -1.69926        -3.94470         5.53569
| 37>    C       -1.94437        -5.30939         5.20345
| 38>    C       -2.46626        -5.75329         4.01345
| 39>    C       -2.52818        -7.18478         4.03463
| 40>    C       -2.06847        -7.58910         5.37392
| 41>    C       -1.71673        -6.46979         6.05912
| 42>    C       -2.02300        -8.89168         5.88629
| 43>    N       -1.98856        -9.94896         6.33415
| 44>    C       -2.90812        -8.01702         3.01224
| 45>    C       -2.93433        -9.44311         3.03233
| 46>    C       -3.32037        -9.91162         1.79579
| 47>    C       -3.57231        -8.75338         0.94146
| 48>    C       -3.34094        -7.62402         1.65670
| 49>    C       -3.49571        -6.31854         1.17490
| 50>    N       -3.63075        -5.25550         0.76234
| 51>    C       -3.45146       -11.28749         1.43325
| 52>    C       -3.47842       -11.74896         0.09339
| 53>    C       -3.59971       -13.14865        -0.24159
| 54>    N       -3.48448       -13.53662        -1.52183
| 55>    C       -3.30559       -12.64361        -2.46048
| 56>    C       -3.26813       -11.24720        -2.13847
| 57>    N       -3.34256       -10.85033        -0.89514
| 58>    C       -3.14855       -10.27868        -3.16791
| 59>    N       -3.06003        -9.52189        -4.02237
| 60>    C       -3.17383       -13.07932        -3.80345
| 61>    N       -3.08705       -13.40614        -4.89733
| 62>    C       -3.75792       -14.14843         0.74727
| 63>    C       -3.67022       -13.69267         2.07772
| 64>    C       -3.52341       -12.29910         2.41739
| 65>    N       -3.48545       -12.12923         3.74145
| 66>    S       -3.59636       -13.54285         4.47169
| 67>    N       -3.71873       -14.46486         3.16713
| 68>    C       -3.86382       -15.54845         0.47103
| 69>    S       -3.19251       -16.64055         1.64897
| 70>    C       -3.49910       -18.01888         0.63837
| 71>    C       -4.15086       -17.63226        -0.52762
| 72>    C       -4.37387       -16.24582        -0.61526
| 73>    C       -5.23933       -15.73154        -1.72245
| 74>    C       -6.59725       -16.41793        -1.68301
| 75>    S       -6.44178       -18.24534        -1.66049
| 76>    O       -6.95995       -18.78371        -2.88402
| 77>    O       -6.99043       -18.72529        -0.42411
| 78>    C       -4.62164       -18.51625        -1.60413
| 79>    C       -3.22220       -19.34737         1.05271
| 80>    C       -2.34633       -19.77910         1.99518
| 81>    C       -2.52564       -21.13151         2.60396
| 82>    O       -3.19934       -22.03390         2.17156
| 83>    C       -1.74731       -21.08807         3.85824
| 84>    C       -1.68200       -22.01538         4.85827
| 85>    C       -0.88166       -21.74798         5.99143
| 86>    C       -0.16470       -20.51788         6.06862
| 87>    C        0.62567       -20.25581         7.20585
| 88>    C        0.70343       -21.17211         8.21683
| 89>    C       -0.00449       -22.38907         8.13863
| 90>    C       -0.78046       -22.67218         7.04964
| 91>    F        0.08955       -23.26687         9.14460
| 92>    F        1.45473       -20.92142         9.29549
| 93>    C       -0.24455       -19.57992         5.01426
| 94>    C       -1.02025       -19.86394         3.92222
| 95>    C       -1.25675       -19.12106         2.68865
| 96>    C       -0.42924       -18.16667         2.16150
| 97>    C       -0.53988       -17.70141         0.83379
| 98>    N       -0.57116       -17.34401        -0.25627
| 99>    C        0.66673       -17.61282         2.85368
|100>    N        1.55125       -17.11777         3.39142
|101>    H        3.37211         0.87850         8.61519
|102>    H        5.34605        -3.66754         8.47079
|103>    H        1.27557         0.02236         7.71082
|104>    H        3.21441        -4.56987         7.53687
|105>    H       -2.38339        -3.23103         5.09202
|106>    H       -2.73244        -5.14122         3.17361
|107>    H       -1.38018        -6.42960         7.07672
|108>    H       -2.66893       -10.04679         3.87569
|109>    H       -3.90123        -8.80272        -0.07790
|110>    H       -4.75288       -15.91683        -2.68347
|111>    H       -5.38655       -14.65651        -1.63325
|112>    H       -7.19206       -16.18119        -2.56001
|113>    H       -7.14423       -16.17088        -0.77708
|114>    H       -4.24657       -18.23556        -2.58490
|115>    H       -4.45139       -19.57199        -1.42286
|116>    H       -3.86031       -20.11832         0.63109
|117>    H       -2.23369       -22.94019         4.78620
|118>    H        1.17712       -19.33161         7.28025
|119>    H       -1.31588       -23.60758         7.00500
|120>    H        0.30150       -18.65374         5.09888
|121> *
|122>
|123>                          ****END OF INPUT****

CARTESIAN COORDINATES (ANGSTROEM)
---------------------------------
  C      3.786600   -0.116800    8.576770
  C      5.071850   -0.330250    8.989590
  F      5.812820    0.689440    9.437510
  C      5.633520   -1.623310    8.949240
  F      6.894660   -1.801900    9.359330
  C      4.901490   -2.684980    8.496200
  C      3.574530   -2.497050    8.062590
  C      3.005110   -1.190520    8.104120
  C      1.675760   -0.977990    7.674600
  C      0.938290   -2.039030    7.217330
  C      1.517210   -3.339020    7.172000
  C      2.798860   -3.574620    7.581530
  C      0.545450   -4.294930    6.611310
  O      0.724980   -5.470730    6.386380
  C     -0.664790   -3.486900    6.288800
  C     -0.430420   -2.118900    6.720720
  C     -1.355180   -1.110730    6.739590
  C     -2.703080   -1.254660    6.343460
  N     -3.813510   -1.312710    6.060230
  C     -1.087430    0.196480    7.200630
  N     -0.920240    1.272450    7.561810
  C     -1.699260   -3.944700    5.535690
  C     -1.944370   -5.309390    5.203450
  C     -2.466260   -5.753290    4.013450
  C     -2.528180   -7.184780    4.034630
  C     -2.068470   -7.589100    5.373920
  C     -1.716730   -6.469790    6.059120
  C     -2.023000   -8.891680    5.886290
  N     -1.988560   -9.948960    6.334150
  C     -2.908120   -8.017020    3.012240
  C     -2.934330   -9.443110    3.032330
  C     -3.320370   -9.911620    1.795790
  C     -3.572310   -8.753380    0.941460
  C     -3.340940   -7.624020    1.656700
  C     -3.495710   -6.318540    1.174900
  N     -3.630750   -5.255500    0.762340
  C     -3.451460  -11.287490    1.433250
  C     -3.478420  -11.748960    0.093390
  C     -3.599710  -13.148650   -0.241590
  N     -3.484480  -13.536620   -1.521830
  C     -3.305590  -12.643610   -2.460480
  C     -3.268130  -11.247200   -2.138470
  N     -3.342560  -10.850330   -0.895140
  C     -3.148550  -10.278680   -3.167910
  N     -3.060030   -9.521890   -4.022370
  C     -3.173830  -13.079320   -3.803450
  N     -3.087050  -13.406140   -4.897330
  C     -3.757920  -14.148430    0.747270
  C     -3.670220  -13.692670    2.077720
  C     -3.523410  -12.299100    2.417390
  N     -3.485450  -12.129230    3.741450
  S     -3.596360  -13.542850    4.471690
  N     -3.718730  -14.464860    3.167130
  C     -3.863820  -15.548450    0.471030
  S     -3.192510  -16.640550    1.648970
  C     -3.499100  -18.018880    0.638370
  C     -4.150860  -17.632260   -0.527620
  C     -4.373870  -16.245820   -0.615260
  C     -5.239330  -15.731540   -1.722450
  C     -6.597250  -16.417930   -1.683010
  S     -6.441780  -18.245340   -1.660490
  O     -6.959950  -18.783710   -2.884020
  O     -6.990430  -18.725290   -0.424110
  C     -4.621640  -18.516250   -1.604130
  C     -3.222200  -19.347370    1.052710
  C     -2.346330  -19.779100    1.995180
  C     -2.525640  -21.131510    2.603960
  O     -3.199340  -22.033900    2.171560
  C     -1.747310  -21.088070    3.858240
  C     -1.682000  -22.015380    4.858270
  C     -0.881660  -21.747980    5.991430
  C     -0.164700  -20.517880    6.068620
  C      0.625670  -20.255810    7.205850
  C      0.703430  -21.172110    8.216830
  C     -0.004490  -22.389070    8.138630
  C     -0.780460  -22.672180    7.049640
  F      0.089550  -23.266870    9.144600
  F      1.454730  -20.921420    9.295490
  C     -0.244550  -19.579920    5.014260
  C     -1.020250  -19.863940    3.922220
  C     -1.256750  -19.121060    2.688650
  C     -0.429240  -18.166670    2.161500
  C     -0.539880  -17.701410    0.833790
  N     -0.571160  -17.344010   -0.256270
  C      0.666730  -17.612820    2.853680
  N      1.551250  -17.117770    3.391420
  H      3.372110    0.878500    8.615190
  H      5.346050   -3.667540    8.470790
  H      1.275570    0.022360    7.710820
  H      3.214410   -4.569870    7.536870
  H     -2.383390   -3.231030    5.092020
  H     -2.732440   -5.141220    3.173610
  H     -1.380180   -6.429600    7.076720
  H     -2.668930  -10.046790    3.875690
  H     -3.901230   -8.802720   -0.077900
  H     -4.752880  -15.916830   -2.683470
  H     -5.386550  -14.656510   -1.633250
  H     -7.192060  -16.181190   -2.560010
  H     -7.144230  -16.170880   -0.777080
  H     -4.246570  -18.235560   -2.584900
  H     -4.451390  -19.571990   -1.422860
  H     -3.860310  -20.118320    0.631090
  H     -2.233690  -22.940190    4.786200
  H      1.177120  -19.331610    7.280250
  H     -1.315880  -23.607580    7.005000
  H      0.301500  -18.653740    5.098880

 Total Charge           Charge          ....    0
 Multiplicity           Mult            ....    1
 Number of Electrons    NEL             ....  598
 Basis Dimension        Dim             .... 1316

ORBITAL ENERGIES
----------------

  NO   OCC          E(Eh)            E(eV)
   0   2.0000     -89.140882     -2425.6467
   1   2.0000     -89.070579     -2423.7337
   2   2.0000     -88.984664     -2421.3958
   3   2.0000     -24.808574      -675.0756
   4   2.0000     -24.807865      -675.0563
   5   2.0000     -24.805592      -674.9945
   6   2.0000     -24.805373      -674.9885
   7   2.0000     -19.239761      -523.5405
   8   2.0000     -19.228086      -523.2228
   9   2.0000     -19.194310      -522.3037
  10   2.0000     -19.194255      -522.3022
  11   2.0000     -14.484683      -394.1483
  12   2.0000     -14.484519      -394.1438
  13   2.0000     -14.476844      -393.9350
  14   2.0000     -14.474591      -393.8736
  15   2.0000     -14.448006      -393.1502
  16   2.0000     -14.447850      -393.1460
  17   2.0000     -14.431378      -392.6978
  18   2.0000     -14.431011      -392.6878
  19   2.0000     -14.430000      -392.6603
  20   2.0000     -14.426989      -392.5783
  21   2.0000     -14.417561      -392.3218
  22   2.0000     -14.417219      -392.3125
  23   2.0000     -10.404909      -283.1320
  24   2.0000     -10.403358      -283.0898
  25   2.0000     -10.393025      -282.8086
  26   2.0000     -10.392426      -282.7923
  27   2.0000     -10.389618      -282.7159
  28   2.0000     -10.389532      -282.7135
  29   2.0000     -10.389254      -282.7060
  30   2.0000     -10.379506      -282.4407
  31   2.0000     -10.375607      -282.3346
  32   2.0000     -10.375002      -282.3181
  33   2.0000     -10.367612      -282.1171
  34   2.0000     -10.366941      -282.0988
  35   2.0000     -10.362166      -281.9689
  36   2.0000     -10.358658      -281.8734
  37   2.0000     -10.357930      -281.8536
  38   2.0000     -10.355697      -281.7929
  39   2.0000     -10.351092      -281.6675
  40   2.0000     -10.344275      -281.4820
  41   2.0000     -10.343790      -281.4688
  42   2.0000     -10.340673      -281.3840
  43   2.0000     -10.340517      -281.3798
  44   2.0000     -10.340074      -281.3677
  45   2.0000     -10.338356      -281.3210
  46   2.0000     -10.338280      -281.3189
  47   2.0000     -10.335231      -281.2359
  48   2.0000     -10.334530      -281.2169
  49   2.0000     -10.333022      -281.1758
  50   2.0000     -10.332451      -281.1603
  51   2.0000     -10.331895      -281.1452
  52   2.0000     -10.328926      -281.0644
  53   2.0000     -10.325642      -280.9750
  54   2.0000     -10.324068      -280.9322
  55   2.0000     -10.323772      -280.9241
  56   2.0000     -10.323570      -280.9186
  57   2.0000     -10.323299      -280.9112
  58   2.0000     -10.323161      -280.9075
  59   2.0000     -10.322937      -280.9014
  60   2.0000     -10.322418      -280.8873
  61   2.0000     -10.322300      -280.8841
  62   2.0000     -10.322242      -280.8825
  63   2.0000     -10.320183      -280.8264
  64   2.0000     -10.320000      -280.8215
  65   2.0000     -10.319667      -280.8124
  66   2.0000     -10.319576      -280.8099
  67   2.0000     -10.319434      -280.8061
  68   2.0000     -10.319263      -280.8014
  69   2.0000     -10.318745      -280.7873
  70   2.0000     -10.318455      -280.7794
  71   2.0000     -10.317212      -280.7456
  72   2.0000     -10.316252      -280.7195
  73   2.0000     -10.314978      -280.6848
  74   2.0000     -10.314950      -280.6841
  75   2.0000     -10.312986      -280.6306
  76   2.0000     -10.312581      -280.6196
  77   2.0000     -10.312481      -280.6169
  78   2.0000     -10.312468      -280.6165
  79   2.0000     -10.312093      -280.6063
  80   2.0000     -10.311545      -280.5914
  81   2.0000     -10.309169      -280.5267
  82   2.0000     -10.308718      -280.5145
  83   2.0000     -10.308639      -280.5123
  84   2.0000     -10.304565      -280.4015
  85   2.0000     -10.302016      -280.3321
  86   2.0000      -8.207435      -223.3357
  87   2.0000      -8.161471      -222.0849
  88   2.0000      -8.079018      -219.8413
  89   2.0000      -6.176171      -168.0621
  90   2.0000      -6.176118      -168.0607
  91   2.0000      -6.175464      -168.0429
  92   2.0000      -6.132409      -166.8713
  93   2.0000      -6.124683      -166.6611
  94   2.0000      -6.124469      -166.6553
  95   2.0000      -6.048447      -164.5866
  96   2.0000      -6.044018      -164.4661
  97   2.0000      -6.041048      -164.3853
  98   2.0000      -1.331764       -36.2392
  99   2.0000      -1.328901       -36.1612
 100   2.0000      -1.316819       -35.8325
 101   2.0000      -1.313988       -35.7554
 102   2.0000      -1.202522       -32.7223
 103   2.0000      -1.167719       -31.7753
 104   2.0000      -1.155419       -31.4406
 105   2.0000      -1.144948       -31.1556
 106   2.0000      -1.144351       -31.1394
 107   2.0000      -1.081765       -29.4363
 108   2.0000      -1.071418       -29.1548
 109   2.0000      -1.037158       -28.2225
 110   2.0000      -1.035704       -28.1829
 111   2.0000      -1.033625       -28.1264
 112   2.0000      -1.031253       -28.0618
 113   2.0000      -1.027868       -27.9697
 114   2.0000      -1.021729       -27.8026
 115   2.0000      -1.018461       -27.7137
 116   2.0000      -1.017906       -27.6986
 117   2.0000      -1.014848       -27.6154
 118   2.0000      -1.011441       -27.5227
 119   2.0000      -1.009370       -27.4663
 120   2.0000      -1.006600       -27.3910
 121   2.0000      -1.001238       -27.2451
 122   2.0000      -0.997433       -27.1415
 123   2.0000      -0.994183       -27.0531
 124   2.0000      -0.992186       -26.9988
 125   2.0000      -0.988990       -26.9118
 126   2.0000      -0.948361       -25.8062
 127   2.0000      -0.947240       -25.7757
 128   2.0000      -0.941625       -25.6229
 129   2.0000      -0.932353       -25.3706
 130   2.0000      -0.930633       -25.3238
 131   2.0000      -0.924254       -25.1502
 132   2.0000      -0.913653       -24.8618
 133   2.0000      -0.906659       -24.6714
 134   2.0000      -0.903293       -24.5798
 135   2.0000      -0.900828       -24.5128
 136   2.0000      -0.896924       -24.4065
 137   2.0000      -0.884228       -24.0611
 138   2.0000      -0.874425       -23.7943
 139   2.0000      -0.864608       -23.5272
 140   2.0000      -0.859043       -23.3757
 141   2.0000      -0.853947       -23.2371
 142   2.0000      -0.852560       -23.1993
 143   2.0000      -0.850329       -23.1386
 144   2.0000      -0.845220       -22.9996
 145   2.0000      -0.836481       -22.7618
 146   2.0000      -0.821866       -22.3641
 147   2.0000      -0.817256       -22.2387
 148   2.0000      -0.801570       -21.8118
 149   2.0000      -0.784963       -21.3599
 150   2.0000      -0.782783       -21.3006
 151   2.0000      -0.777265       -21.1505
 152   2.0000      -0.768591       -20.9144
 153   2.0000      -0.763745       -20.7826
 154   2.0000      -0.754181       -20.5223
 155   2.0000      -0.753566       -20.5056
 156   2.0000      -0.740891       -20.1607
 157   2.0000      -0.736333       -20.0366
 158   2.0000      -0.733786       -19.9673
 159   2.0000      -0.728233       -19.8162
 160   2.0000      -0.726579       -19.7712
 161   2.0000      -0.723740       -19.6940
 162   2.0000      -0.713518       -19.4158
 163   2.0000      -0.708153       -19.2698
 164   2.0000      -0.702400       -19.1133
 165   2.0000      -0.699806       -19.0427
 166   2.0000      -0.694802       -18.9065
 167   2.0000      -0.687045       -18.6955
 168   2.0000      -0.681957       -18.5570
 169   2.0000      -0.679474       -18.4894
 170   2.0000      -0.675889       -18.3919
 171   2.0000      -0.670040       -18.2327
 172   2.0000      -0.664773       -18.0894
 173   2.0000      -0.663588       -18.0571
 174   2.0000      -0.656725       -17.8704
 175   2.0000      -0.653725       -17.7888
 176   2.0000      -0.652328       -17.7508
 177   2.0000      -0.648093       -17.6355
 178   2.0000      -0.642660       -17.4877
 179   2.0000      -0.640716       -17.4348
 180   2.0000      -0.634495       -17.2655
 181   2.0000      -0.626408       -17.0454
 182   2.0000      -0.624174       -16.9846
 183   2.0000      -0.620321       -16.8798
 184   2.0000      -0.615358       -16.7447
 185   2.0000      -0.608446       -16.5567
 186   2.0000      -0.604405       -16.4467
 187   2.0000      -0.602486       -16.3945
 188   2.0000      -0.596064       -16.2197
 189   2.0000      -0.595406       -16.2018
 190   2.0000      -0.593266       -16.1436
 191   2.0000      -0.593165       -16.1408
 192   2.0000      -0.591324       -16.0907
 193   2.0000      -0.585505       -15.9324
 194   2.0000      -0.582960       -15.8632
 195   2.0000      -0.580381       -15.7930
 196   2.0000      -0.576808       -15.6957
 197   2.0000      -0.572213       -15.5707
 198   2.0000      -0.566094       -15.4042
 199   2.0000      -0.562971       -15.3192
 200   2.0000      -0.560774       -15.2594
 201   2.0000      -0.557361       -15.1666
 202   2.0000      -0.555543       -15.1171
 203   2.0000      -0.554692       -15.0939
 204   2.0000      -0.553758       -15.0685
 205   2.0000      -0.552795       -15.0423
 206   2.0000      -0.551194       -14.9987
 207   2.0000      -0.548535       -14.9264
 208   2.0000      -0.546623       -14.8744
 209   2.0000      -0.545870       -14.8539
 210   2.0000      -0.543883       -14.7998
 211   2.0000      -0.540543       -14.7089
 212   2.0000      -0.537956       -14.6385
 213   2.0000      -0.536375       -14.5955
 214   2.0000      -0.535327       -14.5670
 215   2.0000      -0.534191       -14.5361
 216   2.0000      -0.532123       -14.4798
 217   2.0000      -0.529049       -14.3962
 218   2.0000      -0.526653       -14.3310
 219   2.0000      -0.525046       -14.2872
 220   2.0000      -0.522317       -14.2130
 221   2.0000      -0.520118       -14.1531
 222   2.0000      -0.517765       -14.0891
 223   2.0000      -0.516688       -14.0598
 224   2.0000      -0.515776       -14.0350
 225   2.0000      -0.511912       -13.9298
 226   2.0000      -0.511268       -13.9123
 227   2.0000      -0.507351       -13.8057
 228   2.0000      -0.506635       -13.7862
 229   2.0000      -0.505628       -13.7588
 230   2.0000      -0.503393       -13.6980
 231   2.0000      -0.498500       -13.5649
 232   2.0000      -0.497191       -13.5292
 233   2.0000      -0.495798       -13.4913
 234   2.0000      -0.492980       -13.4147
 235   2.0000      -0.490779       -13.3548
 236   2.0000      -0.486570       -13.2403
 237   2.0000      -0.484368       -13.1803
 238   2.0000      -0.481811       -13.1107
 239   2.0000      -0.478709       -13.0263
 240   2.0000      -0.476293       -12.9606
 241   2.0000      -0.475118       -12.9286
 242   2.0000      -0.472664       -12.8618
 243   2.0000      -0.472147       -12.8478
 244   2.0000      -0.470344       -12.7987
 245   2.0000      -0.469926       -12.7873
 246   2.0000      -0.465109       -12.6563
 247   2.0000      -0.463257       -12.6059
 248   2.0000      -0.461941       -12.5700
 249   2.0000      -0.461654       -12.5622
 250   2.0000      -0.459057       -12.4916
 251   2.0000      -0.457901       -12.4601
 252   2.0000      -0.455775       -12.4023
 253   2.0000      -0.455616       -12.3979
 254   2.0000      -0.455026       -12.3819
 255   2.0000      -0.454876       -12.3778
 256   2.0000      -0.449546       -12.2328
 257   2.0000      -0.447283       -12.1712
 258   2.0000      -0.446364       -12.1462
 259   2.0000      -0.445418       -12.1204
 260   2.0000      -0.444152       -12.0860
 261   2.0000      -0.441018       -12.0007
 262   2.0000      -0.440171       -11.9777
 263   2.0000      -0.438507       -11.9324
 264   2.0000      -0.438173       -11.9233
 265   2.0000      -0.436671       -11.8824
 266   2.0000      -0.433616       -11.7993
 267   2.0000      -0.433318       -11.7912
 268   2.0000      -0.431580       -11.7439
 269   2.0000      -0.428289       -11.6543
 270   2.0000      -0.425689       -11.5836
 271   2.0000      -0.424966       -11.5639
 272   2.0000      -0.423971       -11.5368
 273   2.0000      -0.411960       -11.2100
 274   2.0000      -0.409252       -11.1363
 275   2.0000      -0.407800       -11.0968
 276   2.0000      -0.403008       -10.9664
 277   2.0000      -0.398391       -10.8408
 278   2.0000      -0.395956       -10.7745
 279   2.0000      -0.395270       -10.7558
 280   2.0000      -0.389874       -10.6090
 281   2.0000      -0.383199       -10.4274
 282   2.0000      -0.378461       -10.2984
 283   2.0000      -0.372641       -10.1401
 284   2.0000      -0.370877       -10.0921
 285   2.0000      -0.370411       -10.0794
 286   2.0000      -0.364512        -9.9189
 287   2.0000      -0.364088        -9.9073
 288   2.0000      -0.351631        -9.5684
 289   2.0000      -0.345899        -9.4124
 290   2.0000      -0.332658        -9.0521
 291   2.0000      -0.330198        -8.9851
 292   2.0000      -0.329020        -8.9531
 293   2.0000      -0.326633        -8.8881
 294   2.0000      -0.320157        -8.7119
 295   2.0000      -0.317733        -8.6460
 296   2.0000      -0.310285        -8.4433
 297   2.0000      -0.307334        -8.3630
 298   2.0000      -0.278944        -7.5905
 299   0.0000      -0.155607        -4.2343
 300   0.0000      -0.128637        -3.5004
 301   0.0000      -0.105866        -2.8808
 302   0.0000      -0.095380        -2.5954
 303   0.0000      -0.074385        -2.0241

MULLIKEN ATOMIC CHARGES
-----------------------
   0 C :   -0.110765
   1 C :    0.247568
   2 F :   -0.166083
   3 C :    0.243614
   4 F :   -0.166976
   5 C :   -0.106299
   6 C :    0.117606
   7 C :    0.117524
   8 C :   -0.087032
   9 C :    0.058508
  10 C :   -0.009135
  11 C :   -0.077813
  12 C :    0.146786
  13 O :   -0.136000
  14 C :   -0.092372
  15 C :    0.302224
  16 C :   -0.326222
  17 C :   -0.201403
  18 N :    0.173628
  19 C :   -0.179627
  20 N :    0.160012
  21 C :   -0.018080
  22 C :    0.074255
  23 C :   -0.064605
  24 C :    0.105780
  25 C :   -0.130656
  26 C :    0.088215
  27 C :   -0.166680
  28 N :    0.123400
  29 C :    0.125722
  30 C :   -0.112860
  31 C :   -0.035482
  32 C :    0.020294
  33 C :   -0.087478
  34 C :   -0.180819
  35 N :    0.145155
  36 C :    0.193361
  37 C :   -0.060944
  38 C :   -0.091971
  39 N :    0.038529
  40 C :   -0.130054
  41 C :   -0.110173
  42 N :    0.041971
  43 C :   -0.225555
  44 N :    0.257851
  45 C :   -0.212996
  46 N :    0.253608
  47 C :    0.167279
  48 C :   -0.033238
  49 C :    0.001904
  50 N :   -0.274999
  51 S :    0.598552
  52 N :   -0.297868
  53 C :   -0.219724
  54 S :    0.197600
  55 C :   -0.103123
  56 C :   -0.052496
  57 C :   -0.031439
  58 C :    0.123137
  59 C :    0.030853
  60 S :    0.629169
  61 O :   -0.447984
  62 O :   -0.459221
  63 C :    0.127610
  64 C :    0.022263
  65 C :   -0.132098
  66 C :    0.143554
  67 O :   -0.129660
  68 C :    0.011829
  69 C :   -0.076179
  70 C :    0.110751
  71 C :    0.111464
  72 C :   -0.104853
  73 C :    0.241923
  74 C :    0.239868
  75 C :   -0.101108
  76 F :   -0.169250
  77 F :   -0.168285
  78 C :   -0.081343
  79 C :    0.043589
  80 C :    0.247824
  81 C :   -0.312485
  82 C :   -0.201666
  83 N :    0.175925
  84 C :   -0.179071
  85 N :    0.159812
  86 H :    0.010082
  87 H :    0.002401
  88 H :   -0.002930
  89 H :   -0.006308
  90 H :    0.047078
  91 H :    0.015649
  92 H :    0.004415
  93 H :    0.024306
  94 H :    0.008710
  95 H :    0.034563
  96 H :    0.021219
  97 H :    0.063123
  98 H :    0.056492
  99 H :    0.063456
 100 H :    0.067040
 101 H :    0.034595
 102 H :   -0.004744
 103 H :    0.006524
 104 H :    0.001909
 105 H :   -0.003929
Sum of atomic charges:   -0.0000000

LOEWDIN ATOMIC CHARGES
----------------------
   0 C :   -0.028229
   1 C :    0.069759
   2 F :   -0.044488
   3 C :    0.070136
   4 F :   -0.045157
   5 C :   -0.031425
   6 C :   -0.007714
   7 C :   -0.004277
   8 C :    0.020303
   9 C :   -0.023217
  10 C :   -0.055984
  11 C :    0.035495
  12 C :    0.085952
  13 O :   -0.124841
  14 C :   -0.076368
  15 C :    0.070363
  16 C :   -0.123475
  17 C :   -0.024959
  18 N :   -0.035660
  19 C :   -0.017326
  20 N :   -0.040611
  21 C :    0.075069
  22 C :   -0.023793
  23 C :    0.022374
  24 C :    0.042499
  25 C :   -0.095336
  26 C :    0.083530
  27 C :   -0.026423
  28 N :   -0.069103
  29 C :    0.040748
  30 C :    0.009274
  31 C :   -0.014944
  32 C :    0.063969
  33 C :   -0.086881
  34 C :   -0.031602
  35 N :   -0.057085
  36 C :   -0.012850
  37 C :   -0.001640
  38 C :   -0.009298
  39 N :    0.011291
  40 C :   -0.024985
  41 C :   -0.019931
  42 N :    0.006365
  43 C :   -0.040669
  44 N :    0.010458
  45 C :   -0.039421
  46 N :    0.005714
  47 C :   -0.026567
  48 C :   -0.047640
  49 C :   -0.033184
  50 N :   -0.262438
  51 S :    0.722228
  52 N :   -0.294004
  53 C :   -0.147962
  54 S :    0.519699
  55 C :   -0.168035
  56 C :   -0.057572
  57 C :   -0.034752
  58 C :   -0.035746
  59 C :   -0.134118
  60 S :    1.155785
  61 O :   -0.510340
  62 O :   -0.515406
  63 C :   -0.125878
  64 C :    0.049800
  65 C :   -0.081650
  66 C :    0.084321
  67 O :   -0.130100
  68 C :   -0.054584
  69 C :    0.034001
  70 C :   -0.008447
  71 C :   -0.004978
  72 C :   -0.030399
  73 C :    0.068416
  74 C :    0.068544
  75 C :   -0.031337
  76 F :   -0.046583
  77 F :   -0.046307
  78 C :    0.014473
  79 C :   -0.020341
  80 C :    0.060318
  81 C :   -0.134897
  82 C :   -0.035560
  83 N :   -0.045017
  84 C :   -0.019593
  85 N :   -0.045555
  86 H :    0.048934
  87 H :    0.046221
  88 H :    0.041147
  89 H :    0.042151
  90 H :    0.054826
  91 H :    0.041206
  92 H :    0.038628
  93 H :    0.033691
  94 H :    0.035691
  95 H :    0.044610
  96 H :    0.035455
  97 H :    0.041947
  98 H :    0.039240
  99 H :    0.046501
 100 H :    0.047269
 101 H :    0.052550
 102 H :    0.042531
 103 H :    0.047501
 104 H :    0.046053
 105 H :    0.039643

  Mayer bond orders larger than 0.100000
B(  0-C ,  1-C ) :   1.4404 B(  0-C ,  5-C ) :   0.1082 B(  0-C ,  7-C ) :   1.1860
B(  0-C , 86-H ) :   1.0078 B(  1-C ,  2-F ) :   1.1406 B(  1-C ,  3-C ) :   1.1875
B(  3-C ,  4-F ) :   1.1386 B(  3-C ,  5-C ) :   1.4438 B(  5-C ,  6-C ) :   1.1880
B(  5-C , 87-H ) :   1.0080 B(  6-C ,  7-C ) :   1.2559 B(  6-C , 11-C ) :   1.1927
B(  7-C ,  8-C ) :   1.2181 B(  8-C ,  9-C ) :   1.4432 B(  8-C , 88-H ) :   0.9917
B(  9-C , 10-C ) :   1.2193 B(  9-C , 15-C ) :   0.9952 B( 10-C , 11-C ) :   1.4624
B( 10-C , 12-C ) :   0.9469 B( 11-C , 89-H ) :   1.0181 B( 12-C , 13-O ) :   2.2170
B( 12-C , 14-C ) :   0.9345 B( 14-C , 15-C ) :   1.0328 B( 14-C , 21-C ) :   1.6567
B( 15-C , 16-C ) :   1.6693 B( 16-C , 17-C ) :   1.1379 B( 16-C , 19-C ) :   1.1400
B( 17-C , 18-N ) :   2.9931 B( 19-C , 20-N ) :   2.9685 B( 21-C , 22-C ) :   1.0798
B( 21-C , 90-H ) :   0.9488 B( 22-C , 23-C ) :   1.5469 B( 22-C , 26-C ) :   1.0493
B( 23-C , 24-C ) :   1.0872 B( 23-C , 91-H ) :   1.0067 B( 24-C , 25-C ) :   1.1132
B( 24-C , 29-C ) :   1.4356 B( 25-C , 26-C ) :   1.6748 B( 25-C , 27-C ) :   1.0964
B( 26-C , 92-H ) :   1.0066 B( 27-C , 28-N ) :   2.9600 B( 29-C , 30-C ) :   1.0787
B( 29-C , 33-C ) :   1.1013 B( 30-C , 31-C ) :   1.5693 B( 30-C , 93-H ) :   0.9911
B( 31-C , 32-C ) :   1.0510 B( 31-C , 36-C ) :   1.0472 B( 32-C , 33-C ) :   1.6552
B( 32-C , 94-H ) :   1.0154 B( 33-C , 34-C ) :   1.0850 B( 34-C , 35-N ) :   2.9683
B( 36-C , 37-C ) :   1.2817 B( 36-C , 47-C ) :   0.1329 B( 36-C , 49-C ) :   1.2273
B( 37-C , 38-C ) :   1.0971 B( 37-C , 42-N ) :   1.4296 B( 38-C , 39-N ) :   1.4322
B( 38-C , 47-C ) :   1.2779 B( 39-N , 40-C ) :   1.7269 B( 40-C , 41-C ) :   1.1957
B( 40-C , 45-C ) :   1.1576 B( 41-C , 42-N ) :   1.7422 B( 41-C , 43-C ) :   1.1512
B( 43-C , 44-N ) :   3.0485 B( 45-C , 46-N ) :   3.0450 B( 47-C , 48-C ) :   1.2076
B( 47-C , 53-C ) :   1.1208 B( 48-C , 49-C ) :   1.1024 B( 48-C , 52-N ) :   1.4804
B( 49-C , 50-N ) :   1.5054 B( 50-N , 51-S ) :   1.3066 B( 50-N , 52-N ) :   0.1490
B( 51-S , 52-N ) :   1.2944 B( 53-C , 54-S ) :   1.1518 B( 53-C , 55-C ) :   0.1070
B( 53-C , 57-C ) :   1.4977 B( 54-S , 55-C ) :   1.1304 B( 55-C , 56-C ) :   1.4558
B( 55-C , 64-C ) :   1.1061 B( 56-C , 57-C ) :   1.3239 B( 56-C , 63-C ) :   1.0463
B( 57-C , 58-C ) :   1.0760 B( 58-C , 59-C ) :   1.0904 B( 58-C , 95-H ) :   0.8845
B( 58-C , 96-H ) :   0.9072 B( 59-C , 60-S ) :   0.8223 B( 59-C , 97-H ) :   0.9247
B( 59-C , 98-H ) :   0.9259 B( 60-S , 61-O ) :   1.7387 B( 60-S , 62-O ) :   1.7038
B( 60-S , 63-C ) :   0.8376 B( 63-C , 99-H ) :   0.9024 B( 63-C ,100-H ) :   0.9089
B( 64-C , 65-C ) :   1.6969 B( 64-C ,101-H ) :   0.9381 B( 65-C , 66-C ) :   0.9285
B( 65-C , 80-C ) :   1.0198 B( 66-C , 67-O ) :   2.2764 B( 66-C , 68-C ) :   0.9192
B( 68-C , 69-C ) :   1.4747 B( 68-C , 79-C ) :   1.2196 B( 69-C , 70-C ) :   1.1977
B( 69-C ,102-H ) :   1.0151 B( 70-C , 71-C ) :   1.2566 B( 70-C , 75-C ) :   1.1925
B( 71-C , 72-C ) :   1.1884 B( 71-C , 78-C ) :   1.2168 B( 72-C , 73-C ) :   1.4431
B( 72-C , 75-C ) :   0.1083 B( 72-C ,103-H ) :   1.0063 B( 73-C , 74-C ) :   1.1911
B( 73-C , 77-F ) :   1.1376 B( 74-C , 75-C ) :   1.4446 B( 74-C , 76-F ) :   1.1353
B( 75-C ,104-H ) :   1.0065 B( 78-C , 79-C ) :   1.4536 B( 78-C ,105-H ) :   0.9944
B( 79-C , 80-C ) :   1.0039 B( 80-C , 81-C ) :   1.6707 B( 81-C , 82-C ) :   1.1485
B( 81-C , 84-C ) :   1.1371 B( 82-C , 83-N ) :   3.0222 B( 84-C , 85-N ) :   2.9895

-----------------------------------------------------------------------------
         ABSORPTION SPECTRUM VIA TRANSITION ELECTRIC DIPOLE MOMENTS
-----------------------------------------------------------------------------
State   Energy  Wavelength   fosc         T2         TX        TY        TZ
        (cm-1)    (nm)                  (au**2)     (au)      (au)      (au)
-----------------------------------------------------------------------------
   0   11473.2    871.6   0.703174452  20.17682  -0.30330  -4.33023  -1.15495
   1   16331.9    612.3   0.113033464   2.27848   0.69242   0.30650   1.30579
   2   17574.7    569.0   0.027248309   0.51042   0.35655   0.39933   0.47311
   3   19066.7    524.5   0.057680948   0.99594  -0.29536   0.94068  -0.15435
   4   21129.9    473.3   0.049234694   0.76710   0.26722   0.71706   0.42605
   5   21199.7    471.7   0.267608550   4.15572  -0.06144   1.99009   0.43760
   6   21686.3    461.1   0.374766346   5.68919   1.48927  -0.01116   1.86310
   7   22359.0    447.2   0.040647343   0.59849   0.19169  -0.41579  -0.62359
   8   23163.6    431.7   0.147439951   2.09548  -0.86209  -0.49854  -1.05060
   9   24967.2    400.5   0.146297229   1.92905  -0.48761  -1.08586  -0.71568
  10   25071.3    398.9   0.042686937   0.56052  -0.16852  -0.66486  -0.30014
  11   25615.2    390.4   0.010525764   0.13528   0.00028  -0.13204   0.34328
  12   25639.0    390.0   0.010604815   0.13617   0.00961  -0.12244   0.34797
  13   26030.4    384.2   0.037743427   0.47735  -0.64039  -0.14313  -0.21623
  14   26606.5    375.8   0.035137264   0.43477   0.47174  -0.21404   0.40793
  15   27122.9    368.7   0.006469865   0.07853   0.09313   0.20895   0.16186
  16   27215.1    367.4   0.004087049   0.04944   0.07527   0.07093  -0.19683
  17   27517.1    363.4   0.009931728   0.11882  -0.33160   0.05052  -0.07944
  18   27828.7    359.3   0.182040086   2.15352  -0.31877  -1.41828  -0.20097
  19   28310.5    353.2   0.113392655   1.31860   0.28251   0.26355   1.08135
  20   28755.8    347.8   0.059848481   0.68518   0.09651  -0.34644   0.74555
  21   29219.8    342.2   0.115091690   1.29671  -0.44622  -0.91315  -0.51356
  22   29471.0    339.3   0.051530314   0.57563   0.69979   0.23688   0.17267
  23   29577.7    338.1   0.037445883   0.41679   0.55700   0.30643  -0.11242
  24   29767.2    335.9   0.004510557   0.04988   0.08149  -0.18282  -0.09911
  25   30195.5    331.2   0.036344146   0.39625  -0.21795  -0.22585  -0.54566
  26   30228.3    330.8   0.076879232   0.83728  -0.03045   0.88560   0.22817
  27   30584.6    327.0   0.095481590   1.02776   0.71840   0.22824   0.67791
  28   30661.2    326.1   0.267513582   2.87232   0.68458   1.34134  -0.77748
  29   30975.6    322.8   0.106674466   1.13375  -0.75730  -0.67971  -0.31343
  30   31251.6    320.0   0.021437717   0.22583   0.10439  -0.30570   0.34854
  31   31573.5    316.7   0.022400080   0.23356  -0.39984   0.27128  -0.00979
  32   31793.6    314.5   0.205938219   2.13242   0.73224  -0.58709   1.11874
  33   31875.0    313.7   0.240997279   2.48907  -0.62417   0.64327  -1.29834
  34   32190.7    310.6   0.450235854   4.60452  -0.05838  -0.23356   2.13227
  35   32639.0    306.4   0.073962813   0.74602  -0.50730  -0.25590   0.65053
  36   32752.4    305.3   0.197562446   1.98580  -0.26199  -0.07339  -1.38267
  37   33196.8    301.2   0.522770069   5.18429  -2.09144  -0.49395  -0.75244
  38   33332.2    300.0   0.002910624   0.02875  -0.00744   0.15988   0.05594
  39   33664.5    297.0   0.095047694   0.92949  -0.77209  -0.55477   0.16003
  40   33911.3    294.9   0.088783809   0.86192  -0.60594   0.58604  -0.38900
  41   33971.6    294.4   0.240237056   2.32809  -0.21914  -0.96583   1.16071
  42   34289.7    291.6   0.105867800   1.01643  -0.75122   0.64528  -0.18894
  43   34404.9    290.7   0.023581783   0.22565   0.00065   0.14410  -0.45264
  44   34680.4    288.3   0.020335919   0.19304  -0.17584  -0.37673   0.14210
  45   34817.5    287.2   0.113524885   1.07342   0.49796  -0.46333   0.78153
  46   35268.3    283.5   0.418514862   3.90663  -0.18881   0.97937  -1.70640
  47   35432.9    282.2   0.121217999   1.12625   0.59607   0.77142   0.41937
  48   35969.9    278.0   0.109544186   1.00260   0.79375  -0.01930   0.61007
  49   36085.6    277.1   0.005624396   0.05131  -0.19354   0.01944  -0.11608
  50   36481.2    274.1   0.309178005   2.79007   1.42255  -0.85791   0.17437
  51   36673.2    272.7   0.067123698   0.60256  -0.33377  -0.39735  -0.57730
  52   36767.2    272.0   0.115503341   1.03421  -0.09986  -1.00014  -0.15480
  53   37001.6    270.3   0.248220372   2.20847   0.23647  -0.32262  -1.43125
  54   37029.1    270.1   0.034447787   0.30626  -0.52307   0.16477  -0.07425
  55   37251.3    268.4   0.012663106   0.11191   0.00842  -0.00398   0.33440
  56   37606.7    265.9   0.007485250   0.06553   0.02129   0.22335   0.12324
  57   37794.9    264.6   0.010336259   0.09003   0.24988  -0.14642  -0.07844
  58   38139.1    262.2   0.006237947   0.05385   0.19251  -0.12905   0.01148
  59   38315.6    261.0   0.032448530   0.27880   0.14565   0.07416  -0.50208
  60   38603.4    259.0   0.009997034   0.08526  -0.01131  -0.13125   0.26058
  61   38705.8    258.4   0.023641992   0.20109  -0.32223  -0.30419  -0.06870
  62   38833.5    257.5   0.078590773   0.66626   0.30516   0.36995   0.66051
  63   38990.7    256.5   0.008816358   0.07444  -0.25606  -0.06404  -0.06908
  64   39149.8    255.4   0.006242579   0.05249  -0.00293  -0.15629  -0.16751
  65   39235.9    254.9   0.079317000   0.66552  -0.59901  -0.55138  -0.05176
  66   39378.0    253.9   0.009095265   0.07604   0.06705  -0.11543  -0.24129
  67   39673.7    252.1   0.005161168   0.04283   0.00628   0.12248  -0.16669
  68   39987.1    250.1   0.027170328   0.22369   0.35590   0.06942   0.30365
  69   40023.7    249.9   0.046422816   0.38185  -0.55803  -0.09839  -0.24652
  70   40161.1    249.0   0.029093285   0.23849  -0.07185  -0.39324   0.28051

FINAL SINGLE POINT ENERGY     -4959.290955213224

DIPOLE MOMENT
-------------
                                X             Y             Z
Electronic contribution:     26.20087      10.04361      28.78662
Nuclear contribution   :    -25.10168     -10.74083     -25.82922
                        -----------------------------------------
Total Dipole Moment    :      1.09919      -0.69722       2.95739
                        -----------------------------------------
Magnitude (a.u.)       :      3.23118
Magnitude (Debye)      :      8.21300

Rotational constants in cm-1:     0.000795     0.000236     0.000194
Rotational constants in MHz :    23.828744     7.074024     5.812866

                             ****ORCA TERMINATED NORMALLY****
TOTAL RUN TIME: 0 days 0 hours 13 minutes 1 seconds 970 msec
