                         Program Version 4.2.0 -  RELEASE  -
|  1> # ORCA input file
|  2> # SCF done       -223.612885568223          0.000562048933
|  3> ! CAM-B3LYP def2-SVP def2/J RIJCOSX Grid4 TightSCF
|  4> %maxcore 5000
|  5> %tddft
|  6>     Mode sTDDFT
|  7>     Ethresh 5.0
|  8>     maxcore 5000
|  9> end
| 10>
| 11> %pal
| 12>   nprocs 6
| 13>   end
| 14> * xyz 0 1
| 15>    C       -0.09400         0.47294        -1.92766
| 16>    C        1.07473         0.17299        -2.56965
| 17>    F        1.87704         1.15398        -3.00061
| 18>    C        1.45058        -1.16837        -2.78616
| 19>    F        2.60140        -1.43252        -3.41780
| 20>    C        0.65213        -2.19152        -2.35717
| 21>    C       -0.55792        -1.91488        -1.69179
| 22>    C       -0.93945        -0.55904        -1.47290
| 23>    C       -2.14996        -0.25710        -0.80852
| 24>    C       -2.95600        -1.27865        -0.37838
| 25>    C       -2.56630        -2.63139        -0.60163
| 26>    C       -1.40068        -2.95285        -1.23582
| 27>    C       -3.58890        -3.52736        -0.03948
| 28>    O       -3.54071        -4.73041         0.09846
| 29>    C       -4.67522        -2.63705         0.45169
| 30>    C       -4.24217        -1.25989         0.31315
| 31>    C       -4.91522        -0.14584         0.73606
| 32>    C       -4.44422         1.17448         0.57404
| 33>    N       -4.11155         2.26790         0.47151
| 34>    C       -6.15783        -0.17319         1.40449
| 35>    N       -7.16574        -0.13385         1.95169
| 36>    C       -5.81998        -3.14169         0.97488
| 37>    C       -6.14194        -4.52913         0.86009
| 38>    N       -6.60503        -5.23475         1.87351
| 39>    N       -6.74581        -6.49121         1.83933
| 40>    C       -6.13814        -7.12591         0.79044
| 41>    N       -6.05655        -6.40856        -0.31733
| 42>    N       -6.19489        -5.16671        -0.36170
| 43>    C       -5.76498        -8.49648         0.80379
| 44>    N       -5.78579        -9.30882         1.91075
| 45>    C       -6.25777        -8.97810         3.23411
| 46>    C       -7.77617        -9.08583         3.33134
| 47>    C       -5.35858       -10.61032         1.59863
| 48>    O       -5.28580       -11.50874         2.41580
| 49>    C       -5.05273       -10.56102         0.18759
| 50>    C       -5.29910        -9.24391        -0.27029
| 51>    C       -4.98538        -9.19157        -1.68851
| 52>    O       -5.04181        -8.31024        -2.51001
| 53>    N       -4.55471       -10.50708        -1.98628
| 54>    C       -4.17442       -10.88104        -3.32832
| 55>    C       -2.65786       -10.90080        -3.50415
| 56>    C       -4.59214       -11.32198        -0.88843
| 57>    C       -4.23996       -12.69731        -0.91805
| 58>    C       -4.42878       -13.50786         0.15255
| 59>    C       -4.15910       -14.90402         0.19648
| 60>    S       -3.87943       -15.60898         1.76004
| 61>    C       -3.51696       -17.15963         1.06769
| 62>    C       -3.64735       -17.11922        -0.30955
| 63>    C       -4.05427       -15.86438        -0.79906
| 64>    C       -4.50518       -15.74708        -2.22301
| 65>    N       -5.61211       -14.77035        -2.38139
| 66>    O       -6.51353       -14.80827        -1.58783
| 67>    O       -5.54249       -14.02755        -3.33334
| 68>    C       -5.08307       -17.10814        -2.64004
| 69>    C       -3.98815       -18.16395        -2.59479
| 70>    C       -3.37078       -18.29409        -1.20128
| 71>    N       -1.86975       -18.31254        -1.29789
| 72>    O       -1.35553       -17.57756        -2.10090
| 73>    O       -1.29120       -19.02372        -0.51798
| 74>    C       -3.14006       -18.26281         1.89708
| 75>    C       -3.66431       -18.55324         3.11064
| 76>    C       -2.93854       -19.43495         4.07546
| 77>    O       -2.01517       -20.17000         3.83050
| 78>    C       -3.56968       -19.16069         5.38282
| 79>    C       -3.20283       -19.60747         6.61996
| 80>    C       -3.95021       -19.19924         7.74722
| 81>    C       -5.06295       -18.32477         7.57208
| 82>    C       -5.79851       -17.91640         8.70300
| 83>    C       -5.45019       -18.35965         9.94793
| 84>    C       -4.35190       -19.22727        10.11968
| 85>    C       -3.61656       -19.63837         9.04342
| 86>    F       -4.03426       -19.64549        11.35084
| 87>    F       -6.15096       -17.97336        11.02039
| 88>    C       -5.42470       -17.88362         6.27922
| 89>    C       -4.69345       -18.30312         5.19999
| 90>    C       -4.85869       -18.05746         3.77284
| 91>    C       -6.02456       -17.69831         3.15101
| 92>    C       -6.19305       -17.78369         1.75407
| 93>    N       -6.34718       -17.91545         0.62404
| 94>    C       -7.19571       -17.32463         3.84288
| 95>    N       -8.16406       -17.01079         4.37112
| 96>    H       -0.36676         1.50478        -1.77026
| 97>    H        0.95359        -3.21256        -2.53099
| 98>    H       -2.41082         0.77807        -0.65865
| 99>    H       -1.12917        -3.98560        -1.39257
|100>    H       -6.54146        -2.52408         1.49051
|101>    H       -5.93387        -7.96732         3.49089
|102>    H       -5.78975        -9.69817         3.91112
|103>    H       -8.24977        -8.36673         2.66866
|104>    H       -8.09092        -8.88061         4.35012
|105>    H       -8.09761       -10.08868         3.06082
|106>    H       -4.60498       -10.12117        -3.98593
|107>    H       -4.61606       -11.85027        -3.57664
|108>    H       -2.24848        -9.91342        -3.30530
|109>    H       -2.41251       -11.17937        -4.52496
|110>    H       -2.18925       -11.61052        -2.82567
|111>    H       -3.81321       -13.07365        -1.83514
|112>    H       -4.77258       -13.06991         1.08164
|113>    H       -3.70051       -15.44374        -2.90301
|114>    H       -5.48701       -17.04709        -3.65171
|115>    H       -5.88840       -17.36831        -1.94883
|116>    H       -3.20032       -17.88351        -3.29959
|117>    H       -4.39908       -19.12420        -2.90408
|118>    H       -3.65803       -19.22033        -0.69877
|119>    H       -2.31071       -18.88011         1.56257
|120>    H       -2.35455       -20.26447         6.73696
|121>    H       -6.64383       -17.25598         8.58880
|122>    H       -2.77900       -20.30181         9.19186
|123>    H       -6.26503       -17.21622         6.17163
|124> *
|125>
|126>                          ****END OF INPUT****

CARTESIAN COORDINATES (ANGSTROEM)
---------------------------------
  C     -0.094000    0.472940   -1.927660
  C      1.074730    0.172990   -2.569650
  F      1.877040    1.153980   -3.000610
  C      1.450580   -1.168370   -2.786160
  F      2.601400   -1.432520   -3.417800
  C      0.652130   -2.191520   -2.357170
  C     -0.557920   -1.914880   -1.691790
  C     -0.939450   -0.559040   -1.472900
  C     -2.149960   -0.257100   -0.808520
  C     -2.956000   -1.278650   -0.378380
  C     -2.566300   -2.631390   -0.601630
  C     -1.400680   -2.952850   -1.235820
  C     -3.588900   -3.527360   -0.039480
  O     -3.540710   -4.730410    0.098460
  C     -4.675220   -2.637050    0.451690
  C     -4.242170   -1.259890    0.313150
  C     -4.915220   -0.145840    0.736060
  C     -4.444220    1.174480    0.574040
  N     -4.111550    2.267900    0.471510
  C     -6.157830   -0.173190    1.404490
  N     -7.165740   -0.133850    1.951690
  C     -5.819980   -3.141690    0.974880
  C     -6.141940   -4.529130    0.860090
  N     -6.605030   -5.234750    1.873510
  N     -6.745810   -6.491210    1.839330
  C     -6.138140   -7.125910    0.790440
  N     -6.056550   -6.408560   -0.317330
  N     -6.194890   -5.166710   -0.361700
  C     -5.764980   -8.496480    0.803790
  N     -5.785790   -9.308820    1.910750
  C     -6.257770   -8.978100    3.234110
  C     -7.776170   -9.085830    3.331340
  C     -5.358580  -10.610320    1.598630
  O     -5.285800  -11.508740    2.415800
  C     -5.052730  -10.561020    0.187590
  C     -5.299100   -9.243910   -0.270290
  C     -4.985380   -9.191570   -1.688510
  O     -5.041810   -8.310240   -2.510010
  N     -4.554710  -10.507080   -1.986280
  C     -4.174420  -10.881040   -3.328320
  C     -2.657860  -10.900800   -3.504150
  C     -4.592140  -11.321980   -0.888430
  C     -4.239960  -12.697310   -0.918050
  C     -4.428780  -13.507860    0.152550
  C     -4.159100  -14.904020    0.196480
  S     -3.879430  -15.608980    1.760040
  C     -3.516960  -17.159630    1.067690
  C     -3.647350  -17.119220   -0.309550
  C     -4.054270  -15.864380   -0.799060
  C     -4.505180  -15.747080   -2.223010
  N     -5.612110  -14.770350   -2.381390
  O     -6.513530  -14.808270   -1.587830
  O     -5.542490  -14.027550   -3.333340
  C     -5.083070  -17.108140   -2.640040
  C     -3.988150  -18.163950   -2.594790
  C     -3.370780  -18.294090   -1.201280
  N     -1.869750  -18.312540   -1.297890
  O     -1.355530  -17.577560   -2.100900
  O     -1.291200  -19.023720   -0.517980
  C     -3.140060  -18.262810    1.897080
  C     -3.664310  -18.553240    3.110640
  C     -2.938540  -19.434950    4.075460
  O     -2.015170  -20.170000    3.830500
  C     -3.569680  -19.160690    5.382820
  C     -3.202830  -19.607470    6.619960
  C     -3.950210  -19.199240    7.747220
  C     -5.062950  -18.324770    7.572080
  C     -5.798510  -17.916400    8.703000
  C     -5.450190  -18.359650    9.947930
  C     -4.351900  -19.227270   10.119680
  C     -3.616560  -19.638370    9.043420
  F     -4.034260  -19.645490   11.350840
  F     -6.150960  -17.973360   11.020390
  C     -5.424700  -17.883620    6.279220
  C     -4.693450  -18.303120    5.199990
  C     -4.858690  -18.057460    3.772840
  C     -6.024560  -17.698310    3.151010
  C     -6.193050  -17.783690    1.754070
  N     -6.347180  -17.915450    0.624040
  C     -7.195710  -17.324630    3.842880
  N     -8.164060  -17.010790    4.371120
  H     -0.366760    1.504780   -1.770260
  H      0.953590   -3.212560   -2.530990
  H     -2.410820    0.778070   -0.658650
  H     -1.129170   -3.985600   -1.392570
  H     -6.541460   -2.524080    1.490510
  H     -5.933870   -7.967320    3.490890
  H     -5.789750   -9.698170    3.911120
  H     -8.249770   -8.366730    2.668660
  H     -8.090920   -8.880610    4.350120
  H     -8.097610  -10.088680    3.060820
  H     -4.604980  -10.121170   -3.985930
  H     -4.616060  -11.850270   -3.576640
  H     -2.248480   -9.913420   -3.305300
  H     -2.412510  -11.179370   -4.524960
  H     -2.189250  -11.610520   -2.825670
  H     -3.813210  -13.073650   -1.835140
  H     -4.772580  -13.069910    1.081640
  H     -3.700510  -15.443740   -2.903010
  H     -5.487010  -17.047090   -3.651710
  H     -5.888400  -17.368310   -1.948830
  H     -3.200320  -17.883510   -3.299590
  H     -4.399080  -19.124200   -2.904080
  H     -3.658030  -19.220330   -0.698770
  H     -2.310710  -18.880110    1.562570
  H     -2.354550  -20.264470    6.736960
  H     -6.643830  -17.255980    8.588800
  H     -2.779000  -20.301810    9.191860
  H     -6.265030  -17.216220    6.171630

 Total Charge           Charge          ....    0
 Multiplicity           Mult            ....    1
 Number of Electrons    NEL             ....  564
 Basis Dimension        Dim             .... 1278

ORBITAL ENERGIES
----------------

  NO   OCC          E(Eh)            E(eV)
   0   2.0000     -88.989347     -2421.5232
   1   2.0000     -24.806158      -675.0099
   2   2.0000     -24.805466      -674.9910
   3   2.0000     -24.804859      -674.9745
   4   2.0000     -24.804202      -674.9567
   5   2.0000     -19.267563      -524.2970
   6   2.0000     -19.266554      -524.2696
   7   2.0000     -19.264177      -524.2049
   8   2.0000     -19.262799      -524.1674
   9   2.0000     -19.233221      -523.3625
  10   2.0000     -19.229281      -523.2553
  11   2.0000     -19.198023      -522.4048
  12   2.0000     -19.191400      -522.2245
  13   2.0000     -14.663291      -399.0084
  14   2.0000     -14.660785      -398.9402
  15   2.0000     -14.476864      -393.9355
  16   2.0000     -14.473424      -393.8419
  17   2.0000     -14.471571      -393.7915
  18   2.0000     -14.469855      -393.7448
  19   2.0000     -14.459732      -393.4693
  20   2.0000     -14.456943      -393.3934
  21   2.0000     -14.433216      -392.7478
  22   2.0000     -14.430711      -392.6796
  23   2.0000     -14.430494      -392.6737
  24   2.0000     -14.427976      -392.6052
  25   2.0000     -10.390500      -282.7399
  26   2.0000     -10.389876      -282.7229
  27   2.0000     -10.388877      -282.6957
  28   2.0000     -10.388362      -282.6817
  29   2.0000     -10.383017      -282.5362
  30   2.0000     -10.381303      -282.4896
  31   2.0000     -10.380556      -282.4693
  32   2.0000     -10.375404      -282.3291
  33   2.0000     -10.368194      -282.1329
  34   2.0000     -10.365443      -282.0581
  35   2.0000     -10.361902      -281.9617
  36   2.0000     -10.359472      -281.8956
  37   2.0000     -10.357115      -281.8314
  38   2.0000     -10.356689      -281.8198
  39   2.0000     -10.355823      -281.7963
  40   2.0000     -10.355372      -281.7840
  41   2.0000     -10.354443      -281.7587
  42   2.0000     -10.342886      -281.4442
  43   2.0000     -10.337753      -281.3046
  44   2.0000     -10.337380      -281.2944
  45   2.0000     -10.335238      -281.2361
  46   2.0000     -10.333089      -281.1776
  47   2.0000     -10.332535      -281.1626
  48   2.0000     -10.332110      -281.1510
  49   2.0000     -10.331407      -281.1319
  50   2.0000     -10.329546      -281.0812
  51   2.0000     -10.323286      -280.9109
  52   2.0000     -10.322979      -280.9025
  53   2.0000     -10.320881      -280.8454
  54   2.0000     -10.320578      -280.8372
  55   2.0000     -10.320315      -280.8300
  56   2.0000     -10.320162      -280.8259
  57   2.0000     -10.319436      -280.8061
  58   2.0000     -10.319063      -280.7960
  59   2.0000     -10.318695      -280.7860
  60   2.0000     -10.316954      -280.7386
  61   2.0000     -10.313933      -280.6564
  62   2.0000     -10.313782      -280.6523
  63   2.0000     -10.312808      -280.6258
  64   2.0000     -10.312509      -280.6176
  65   2.0000     -10.312349      -280.6133
  66   2.0000     -10.309889      -280.5463
  67   2.0000     -10.309187      -280.5272
  68   2.0000     -10.308464      -280.5076
  69   2.0000     -10.307635      -280.4850
  70   2.0000     -10.306777      -280.4617
  71   2.0000     -10.306415      -280.4518
  72   2.0000     -10.305630      -280.4305
  73   2.0000     -10.305043      -280.4145
  74   2.0000     -10.304466      -280.3988
  75   2.0000     -10.303990      -280.3858
  76   2.0000     -10.296514      -280.1824
  77   2.0000     -10.277416      -279.6627
  78   2.0000     -10.267529      -279.3937
  79   2.0000     -10.266426      -279.3637
  80   2.0000     -10.247032      -278.8359
  81   2.0000      -8.084298      -219.9849
  82   2.0000      -6.053547      -164.7254
  83   2.0000      -6.049323      -164.6104
  84   2.0000      -6.046554      -164.5351
  85   2.0000      -1.348377       -36.6912
  86   2.0000      -1.344765       -36.5929
  87   2.0000      -1.328971       -36.1631
  88   2.0000      -1.327940       -36.1351
  89   2.0000      -1.314052       -35.7572
  90   2.0000      -1.313029       -35.7293
  91   2.0000      -1.207661       -32.8621
  92   2.0000      -1.170352       -31.8469
  93   2.0000      -1.165061       -31.7029
  94   2.0000      -1.147819       -31.2337
  95   2.0000      -1.145484       -31.1702
  96   2.0000      -1.139214       -30.9996
  97   2.0000      -1.130279       -30.7564
  98   2.0000      -1.106649       -30.1135
  99   2.0000      -1.070545       -29.1310
 100   2.0000      -1.061064       -28.8730
 101   2.0000      -1.039114       -28.2757
 102   2.0000      -1.033956       -28.1354
 103   2.0000      -1.028672       -27.9916
 104   2.0000      -1.016430       -27.6585
 105   2.0000      -1.015505       -27.6333
 106   2.0000      -1.008525       -27.4434
 107   2.0000      -1.007998       -27.4290
 108   2.0000      -0.997732       -27.1497
 109   2.0000      -0.992890       -27.0179
 110   2.0000      -0.988229       -26.8911
 111   2.0000      -0.975175       -26.5359
 112   2.0000      -0.955277       -25.9944
 113   2.0000      -0.943318       -25.6690
 114   2.0000      -0.942015       -25.6335
 115   2.0000      -0.932925       -25.3862
 116   2.0000      -0.924079       -25.1455
 117   2.0000      -0.918585       -24.9960
 118   2.0000      -0.913773       -24.8650
 119   2.0000      -0.903349       -24.5814
 120   2.0000      -0.901904       -24.5421
 121   2.0000      -0.893344       -24.3091
 122   2.0000      -0.889962       -24.2171
 123   2.0000      -0.872897       -23.7527
 124   2.0000      -0.867220       -23.5983
 125   2.0000      -0.851932       -23.1823
 126   2.0000      -0.850942       -23.1553
 127   2.0000      -0.849946       -23.1282
 128   2.0000      -0.847864       -23.0716
 129   2.0000      -0.841184       -22.8898
 130   2.0000      -0.821550       -22.3555
 131   2.0000      -0.817522       -22.2459
 132   2.0000      -0.816073       -22.2065
 133   2.0000      -0.806176       -21.9372
 134   2.0000      -0.786102       -21.3909
 135   2.0000      -0.780612       -21.2415
 136   2.0000      -0.776708       -21.1353
 137   2.0000      -0.769280       -20.9332
 138   2.0000      -0.758715       -20.6457
 139   2.0000      -0.748906       -20.3788
 140   2.0000      -0.746052       -20.3011
 141   2.0000      -0.744896       -20.2696
 142   2.0000      -0.731254       -19.8984
 143   2.0000      -0.728702       -19.8290
 144   2.0000      -0.726416       -19.7668
 145   2.0000      -0.720128       -19.5957
 146   2.0000      -0.713438       -19.4136
 147   2.0000      -0.710530       -19.3345
 148   2.0000      -0.706951       -19.2371
 149   2.0000      -0.701830       -19.0978
 150   2.0000      -0.697072       -18.9683
 151   2.0000      -0.696640       -18.9565
 152   2.0000      -0.684713       -18.6320
 153   2.0000      -0.680993       -18.5308
 154   2.0000      -0.669774       -18.2255
 155   2.0000      -0.665881       -18.1195
 156   2.0000      -0.664279       -18.0760
 157   2.0000      -0.658722       -17.9247
 158   2.0000      -0.658194       -17.9104
 159   2.0000      -0.655701       -17.8425
 160   2.0000      -0.653329       -17.7780
 161   2.0000      -0.652725       -17.7616
 162   2.0000      -0.651632       -17.7318
 163   2.0000      -0.650539       -17.7021
 164   2.0000      -0.641965       -17.4687
 165   2.0000      -0.637332       -17.3427
 166   2.0000      -0.631049       -17.1717
 167   2.0000      -0.629932       -17.1413
 168   2.0000      -0.626144       -17.0382
 169   2.0000      -0.623026       -16.9534
 170   2.0000      -0.615246       -16.7417
 171   2.0000      -0.611903       -16.6507
 172   2.0000      -0.606579       -16.5059
 173   2.0000      -0.606137       -16.4938
 174   2.0000      -0.604743       -16.4559
 175   2.0000      -0.597821       -16.2675
 176   2.0000      -0.593487       -16.1496
 177   2.0000      -0.592757       -16.1297
 178   2.0000      -0.592248       -16.1159
 179   2.0000      -0.591467       -16.0946
 180   2.0000      -0.589024       -16.0282
 181   2.0000      -0.583840       -15.8871
 182   2.0000      -0.583131       -15.8678
 183   2.0000      -0.571804       -15.5596
 184   2.0000      -0.567852       -15.4520
 185   2.0000      -0.566428       -15.4133
 186   2.0000      -0.562885       -15.3169
 187   2.0000      -0.561888       -15.2897
 188   2.0000      -0.558430       -15.1957
 189   2.0000      -0.557259       -15.1638
 190   2.0000      -0.554840       -15.0980
 191   2.0000      -0.553676       -15.0663
 192   2.0000      -0.550929       -14.9915
 193   2.0000      -0.550050       -14.9676
 194   2.0000      -0.545439       -14.8421
 195   2.0000      -0.544165       -14.8075
 196   2.0000      -0.541646       -14.7389
 197   2.0000      -0.538804       -14.6616
 198   2.0000      -0.537614       -14.6292
 199   2.0000      -0.534598       -14.5471
 200   2.0000      -0.533765       -14.5245
 201   2.0000      -0.532290       -14.4843
 202   2.0000      -0.529505       -14.4086
 203   2.0000      -0.527691       -14.3592
 204   2.0000      -0.525558       -14.3012
 205   2.0000      -0.525158       -14.2903
 206   2.0000      -0.523560       -14.2468
 207   2.0000      -0.521256       -14.1841
 208   2.0000      -0.515521       -14.0280
 209   2.0000      -0.513618       -13.9763
 210   2.0000      -0.513514       -13.9734
 211   2.0000      -0.512401       -13.9431
 212   2.0000      -0.511082       -13.9073
 213   2.0000      -0.509760       -13.8713
 214   2.0000      -0.505221       -13.7478
 215   2.0000      -0.498786       -13.5727
 216   2.0000      -0.496859       -13.5202
 217   2.0000      -0.492982       -13.4147
 218   2.0000      -0.488820       -13.3015
 219   2.0000      -0.483947       -13.1689
 220   2.0000      -0.481435       -13.1005
 221   2.0000      -0.479589       -13.0503
 222   2.0000      -0.476827       -12.9751
 223   2.0000      -0.474018       -12.8987
 224   2.0000      -0.473713       -12.8904
 225   2.0000      -0.471614       -12.8333
 226   2.0000      -0.470270       -12.7967
 227   2.0000      -0.468681       -12.7534
 228   2.0000      -0.466273       -12.6879
 229   2.0000      -0.464834       -12.6488
 230   2.0000      -0.462538       -12.5863
 231   2.0000      -0.460091       -12.5197
 232   2.0000      -0.458922       -12.4879
 233   2.0000      -0.457418       -12.4470
 234   2.0000      -0.456775       -12.4295
 235   2.0000      -0.454906       -12.3786
 236   2.0000      -0.454780       -12.3752
 237   2.0000      -0.451115       -12.2755
 238   2.0000      -0.446476       -12.1492
 239   2.0000      -0.445615       -12.1258
 240   2.0000      -0.444850       -12.1050
 241   2.0000      -0.443860       -12.0781
 242   2.0000      -0.441714       -12.0196
 243   2.0000      -0.441340       -12.0095
 244   2.0000      -0.440964       -11.9992
 245   2.0000      -0.438837       -11.9414
 246   2.0000      -0.436748       -11.8845
 247   2.0000      -0.436239       -11.8707
 248   2.0000      -0.434288       -11.8176
 249   2.0000      -0.432720       -11.7749
 250   2.0000      -0.429096       -11.6763
 251   2.0000      -0.424637       -11.5550
 252   2.0000      -0.423067       -11.5122
 253   2.0000      -0.414750       -11.2859
 254   2.0000      -0.411709       -11.2032
 255   2.0000      -0.409063       -11.1312
 256   2.0000      -0.406238       -11.0543
 257   2.0000      -0.403875       -10.9900
 258   2.0000      -0.400244       -10.8912
 259   2.0000      -0.396311       -10.7842
 260   2.0000      -0.394857       -10.7446
 261   2.0000      -0.394195       -10.7266
 262   2.0000      -0.388488       -10.5713
 263   2.0000      -0.388229       -10.5643
 264   2.0000      -0.386725       -10.5233
 265   2.0000      -0.378340       -10.2951
 266   2.0000      -0.368149       -10.0179
 267   2.0000      -0.360962        -9.8223
 268   2.0000      -0.354039        -9.6339
 269   2.0000      -0.350306        -9.5323
 270   2.0000      -0.350077        -9.5261
 271   2.0000      -0.342992        -9.3333
 272   2.0000      -0.338722        -9.2171
 273   2.0000      -0.335076        -9.1179
 274   2.0000      -0.327261        -8.9052
 275   2.0000      -0.325391        -8.8544
 276   2.0000      -0.320014        -8.7080
 277   2.0000      -0.310706        -8.4547
 278   2.0000      -0.310566        -8.4509
 279   2.0000      -0.301614        -8.2073
 280   2.0000      -0.288938        -7.8624
 281   2.0000      -0.249383        -6.7861
 282   0.0000      -0.117922        -3.2088
 283   0.0000      -0.108380        -2.9492
 284   0.0000      -0.087607        -2.3839
 285   0.0000      -0.070886        -1.9289
 286   0.0000      -0.067357        -1.8329

MULLIKEN ATOMIC CHARGES
-----------------------
   0 C :   -0.112947
   1 C :    0.247451
   2 F :   -0.166986
   3 C :    0.243843
   4 F :   -0.168412
   5 C :   -0.107126
   6 C :    0.119138
   7 C :    0.119685
   8 C :   -0.089205
   9 C :    0.054581
  10 C :   -0.001421
  11 C :   -0.074309
  12 C :    0.155515
  13 O :   -0.139975
  14 C :   -0.073732
  15 C :    0.318356
  16 C :   -0.327225
  17 C :   -0.178859
  18 N :    0.159331
  19 C :   -0.192901
  20 N :    0.173127
  21 C :    0.016101
  22 C :    0.012933
  23 N :   -0.030361
  24 N :   -0.074572
  25 C :   -0.099813
  26 N :    0.025978
  27 N :   -0.045215
  28 C :    0.181481
  29 N :   -0.254436
  30 C :    0.126218
  31 C :    0.009699
  32 C :    0.166046
  33 O :   -0.218529
  34 C :   -0.074103
  35 C :   -0.051917
  36 C :    0.144062
  37 O :   -0.138019
  38 N :   -0.262780
  39 C :    0.089668
  40 C :    0.004025
  41 C :    0.133934
  42 C :   -0.012350
  43 C :    0.050697
  44 C :   -0.127951
  45 S :    0.212761
  46 C :   -0.217465
  47 C :    0.027720
  48 C :    0.020253
  49 C :    0.110535
  50 N :    0.185737
  51 O :   -0.186004
  52 O :   -0.231683
  53 C :    0.040793
  54 C :    0.099288
  55 C :    0.119924
  56 N :    0.205115
  57 O :   -0.222056
  58 O :   -0.213843
  59 C :    0.024502
  60 C :   -0.123446
  61 C :    0.145392
  62 O :   -0.123558
  63 C :    0.005486
  64 C :   -0.078061
  65 C :    0.111822
  66 C :    0.111065
  67 C :   -0.104619
  68 C :    0.243710
  69 C :    0.240067
  70 C :   -0.104279
  71 F :   -0.168238
  72 F :   -0.167730
  73 C :   -0.076219
  74 C :    0.041724
  75 C :    0.244995
  76 C :   -0.314584
  77 C :   -0.157589
  78 N :    0.159585
  79 C :   -0.174030
  80 N :    0.165782
  81 H :    0.010059
  82 H :    0.002826
  83 H :   -0.003422
  84 H :   -0.003623
  85 H :    0.059657
  86 H :    0.027411
  87 H :    0.032128
  88 H :    0.023938
  89 H :    0.016964
  90 H :    0.018679
  91 H :    0.043262
  92 H :    0.039695
  93 H :    0.026782
  94 H :    0.024933
  95 H :    0.011383
  96 H :   -0.021119
  97 H :    0.019727
  98 H :    0.045420
  99 H :    0.029772
 100 H :    0.057963
 101 H :    0.031767
 102 H :    0.033213
 103 H :    0.032449
 104 H :    0.048644
 105 H :   -0.004301
 106 H :    0.008891
 107 H :    0.003307
 108 H :    0.002021
Sum of atomic charges:   -0.0000000

LOEWDIN ATOMIC CHARGES
----------------------
   0 C :   -0.028239
   1 C :    0.069668
   2 F :   -0.045612
   3 C :    0.070563
   4 F :   -0.046336
   5 C :   -0.030956
   6 C :   -0.006662
   7 C :   -0.004110
   8 C :    0.020452
   9 C :   -0.022089
  10 C :   -0.053324
  11 C :    0.037411
  12 C :    0.088309
  13 O :   -0.130699
  14 C :   -0.053080
  15 C :    0.070856
  16 C :   -0.117845
  17 C :   -0.016593
  18 N :   -0.038882
  19 C :   -0.019855
  20 N :   -0.032118
  21 C :    0.060945
  22 C :   -0.018405
  23 N :   -0.005426
  24 N :   -0.041432
  25 C :   -0.013395
  26 N :    0.030131
  27 N :   -0.018088
  28 C :    0.036464
  29 N :    0.013269
  30 C :    0.036323
  31 C :   -0.059822
  32 C :    0.076760
  33 O :   -0.208493
  34 C :   -0.127876
  35 C :   -0.079839
  36 C :    0.086458
  37 O :   -0.147806
  38 N :    0.001278
  39 C :    0.033381
  40 C :   -0.060984
  41 C :    0.099134
  42 C :   -0.042807
  43 C :    0.012334
  44 C :   -0.151603
  45 S :    0.507529
  46 C :   -0.176746
  47 C :   -0.043815
  48 C :   -0.052747
  49 C :    0.015741
  50 N :    0.277077
  51 O :   -0.166222
  52 O :   -0.200217
  53 C :   -0.015443
  54 C :   -0.026341
  55 C :    0.028583
  56 N :    0.275568
  57 O :   -0.191651
  58 O :   -0.185696
  59 C :    0.040849
  60 C :   -0.077042
  61 C :    0.083859
  62 O :   -0.125176
  63 C :   -0.055880
  64 C :    0.034022
  65 C :   -0.008024
  66 C :   -0.004431
  67 C :   -0.028848
  68 C :    0.069027
  69 C :    0.068992
  70 C :   -0.031982
  71 F :   -0.046277
  72 F :   -0.045700
  73 C :    0.018234
  74 C :   -0.021718
  75 C :    0.061466
  76 C :   -0.130516
  77 C :   -0.008622
  78 N :   -0.051937
  79 C :   -0.019853
  80 N :   -0.038142
  81 H :    0.048759
  82 H :    0.046321
  83 H :    0.040894
  84 H :    0.043438
  85 H :    0.058177
  86 H :    0.024475
  87 H :    0.031563
  88 H :    0.021979
  89 H :    0.029829
  90 H :    0.026063
  91 H :    0.038475
  92 H :    0.024757
  93 H :    0.031036
  94 H :    0.031613
  95 H :    0.019255
  96 H :    0.025995
  97 H :    0.040067
  98 H :    0.042709
  99 H :    0.036627
 100 H :    0.039248
 101 H :    0.034751
 102 H :    0.041452
 103 H :    0.045130
 104 H :    0.049934
 105 H :    0.042317
 106 H :    0.048409
 107 H :    0.046033
 108 H :    0.041412

  Mayer bond orders larger than 0.100000
B(  0-C ,  1-C ) :   1.4420 B(  0-C ,  5-C ) :   0.1085 B(  0-C ,  7-C ) :   1.1842
B(  0-C , 81-H ) :   1.0083 B(  1-C ,  2-F ) :   1.1397 B(  1-C ,  3-C ) :   1.1873
B(  3-C ,  4-F ) :   1.1370 B(  3-C ,  5-C ) :   1.4431 B(  5-C ,  6-C ) :   1.1894
B(  5-C , 82-H ) :   1.0083 B(  6-C ,  7-C ) :   1.2527 B(  6-C , 11-C ) :   1.1920
B(  7-C ,  8-C ) :   1.2230 B(  8-C ,  9-C ) :   1.4411 B(  8-C , 83-H ) :   0.9905
B(  9-C , 10-C ) :   1.2184 B(  9-C , 15-C ) :   0.9990 B( 10-C , 11-C ) :   1.4678
B( 10-C , 12-C ) :   0.9417 B( 11-C , 84-H ) :   1.0180 B( 12-C , 13-O ) :   2.2232
B( 12-C , 14-C ) :   0.9282 B( 14-C , 15-C ) :   1.0280 B( 14-C , 21-C ) :   1.7440
B( 15-C , 16-C ) :   1.6717 B( 16-C , 17-C ) :   1.1404 B( 16-C , 19-C ) :   1.1430
B( 17-C , 18-N ) :   2.9639 B( 19-C , 20-N ) :   2.9751 B( 21-C , 22-C ) :   1.0251
B( 21-C , 85-H ) :   0.9359 B( 22-C , 23-N ) :   1.4897 B( 22-C , 27-N ) :   1.2661
B( 23-N , 24-N ) :   1.3732 B( 24-N , 25-C ) :   1.3255 B( 25-C , 26-N ) :   1.5592
B( 25-C , 28-C ) :   1.0464 B( 26-N , 27-N ) :   1.4647 B( 26-N , 28-C ) :  -0.1056
B( 28-C , 29-N ) :   1.1953 B( 28-C , 35-C ) :   1.3889 B( 29-N , 30-C ) :   0.9364
B( 29-N , 32-C ) :   1.0707 B( 30-C , 31-C ) :   1.1221 B( 30-C , 86-H ) :   0.9402
B( 30-C , 87-H ) :   0.9280 B( 31-C , 88-H ) :   0.9634 B( 31-C , 89-H ) :   0.9675
B( 31-C , 90-H ) :   0.9652 B( 32-C , 33-O ) :   2.0067 B( 32-C , 34-C ) :   0.9920
B( 33-O , 97-H ) :   0.1252 B( 34-C , 35-C ) :   1.2588 B( 34-C , 41-C ) :   1.3045
B( 35-C , 36-C ) :   0.9303 B( 36-C , 37-O ) :   2.2090 B( 36-C , 38-N ) :   1.0096
B( 38-N , 39-C ) :   0.9356 B( 38-N , 41-C ) :   1.2009 B( 39-C , 40-C ) :   1.1173
B( 39-C , 91-H ) :   0.9262 B( 39-C , 92-H ) :   0.9431 B( 40-C , 93-H ) :   0.9631
B( 40-C , 94-H ) :   0.9687 B( 40-C , 95-H ) :   0.9692 B( 41-C , 42-C ) :   1.1791
B( 42-C , 43-C ) :   1.6422 B( 42-C , 96-H ) :   0.9433 B( 43-C , 44-C ) :   1.1099
B( 43-C , 97-H ) :   0.9155 B( 44-C , 45-S ) :   1.1481 B( 44-C , 46-C ) :   0.1014
B( 44-C , 48-C ) :   1.4937 B( 45-S , 46-C ) :   1.1562 B( 46-C , 47-C ) :   1.4650
B( 46-C , 59-C ) :   1.0601 B( 47-C , 48-C ) :   1.3412 B( 47-C , 55-C ) :   1.0456
B( 48-C , 49-C ) :   0.9692 B( 49-C , 50-N ) :   0.8332 B( 49-C , 53-C ) :   1.0609
B( 49-C , 98-H ) :   0.8966 B( 50-N , 51-O ) :   1.6013 B( 50-N , 52-O ) :   1.4938
B( 51-O , 52-O ) :   0.2680 B( 53-C , 54-C ) :   1.1381 B( 53-C , 99-H ) :   0.9296
B( 53-C ,100-H ) :   0.9114 B( 54-C , 55-C ) :   1.0315 B( 54-C ,101-H ) :   0.8948
B( 54-C ,102-H ) :   0.9231 B( 55-C , 56-N ) :   0.8266 B( 55-C ,103-H ) :   0.8813
B( 56-N , 57-O ) :   1.5775 B( 56-N , 58-O ) :   1.5653 B( 57-O , 58-O ) :   0.2638
B( 59-C , 60-C ) :   1.7153 B( 59-C ,104-H ) :   0.9306 B( 60-C , 61-C ) :   0.9237
B( 60-C , 75-C ) :   1.0192 B( 61-C , 62-O ) :   2.2907 B( 61-C , 63-C ) :   0.9170
B( 63-C , 64-C ) :   1.4720 B( 63-C , 74-C ) :   1.2182 B( 64-C , 65-C ) :   1.1994
B( 64-C ,105-H ) :   1.0160 B( 65-C , 66-C ) :   1.2539 B( 65-C , 70-C ) :   1.1928
B( 66-C , 67-C ) :   1.1892 B( 66-C , 73-C ) :   1.2183 B( 67-C , 68-C ) :   1.4427
B( 67-C , 70-C ) :   0.1080 B( 67-C ,106-H ) :   1.0070 B( 68-C , 69-C ) :   1.1877
B( 68-C , 72-F ) :   1.1384 B( 69-C , 70-C ) :   1.4450 B( 69-C , 71-F ) :   1.1373
B( 70-C ,107-H ) :   1.0069 B( 73-C , 74-C ) :   1.4533 B( 73-C ,108-H ) :   0.9950
B( 74-C , 75-C ) :   1.0045 B( 75-C , 76-C ) :   1.6730 B( 76-C , 77-C ) :   1.1592
B( 76-C , 79-C ) :   1.1299 B( 77-C , 78-N ) :   2.9810 B( 79-C , 80-N ) :   2.9929

-----------------------------------------------------------------------------
         ABSORPTION SPECTRUM VIA TRANSITION ELECTRIC DIPOLE MOMENTS
-----------------------------------------------------------------------------
State   Energy  Wavelength   fosc         T2         TX        TY        TZ
        (cm-1)    (nm)                  (au**2)     (au)      (au)      (au)
-----------------------------------------------------------------------------
   0   13125.7    761.9   0.425609249  10.67493  -0.36832   3.23907   0.21842
   1   15528.9    644.0   0.245381726   5.20208  -0.14140  -2.26875   0.18668
   2   17533.7    570.3   0.032337040   0.60716   0.21884   0.42772   0.61345
   3   20219.5    494.6   0.134715392   2.19343  -0.29007   0.79737   1.21387
   4   21009.2    476.0   0.050270343   0.78773  -0.72176   0.07117   0.51159
   5   23021.8    434.4   0.136286630   1.94890   0.60862   0.96711  -0.80198
   6   23765.4    420.8   0.310993327   4.30806   0.36732   1.54956  -1.33116
   7   24885.0    401.8   0.009268487   0.12262  -0.00236  -0.32925   0.11919
   8   25160.7    397.4   0.007552397   0.09882   0.19945   0.06355  -0.23452
   9   26203.3    381.6   0.065052370   0.81730   0.45863  -0.08924   0.77395
  10   26281.3    380.5   0.072769594   0.91154   0.66792  -0.01126  -0.68213
  11   26460.6    377.9   0.040656993   0.50584  -0.08096  -0.67022   0.22381
  12   26668.9    375.0   0.057494830   0.70974   0.01903   0.63613  -0.55201
  13   27124.2    368.7   0.036388563   0.44165  -0.16698   0.09976   0.63547
  14   27310.2    366.2   0.108753807   1.31098   0.16956  -0.37017   1.07014
  15   27999.8    357.1   0.016820572   0.19777  -0.28224   0.10500  -0.32724
  16   28137.8    355.4   0.045856774   0.53652   0.26170  -0.45502   0.51088
  17   28324.6    353.1   0.025446685   0.29576   0.40908  -0.22832  -0.27620
  18   28734.2    348.0   0.092320180   1.05772   0.78257  -0.49491  -0.44763
  19   28993.9    344.9   0.211481239   2.40127   0.60000  -1.37140   0.40067
  20   29199.0    342.5   0.073570670   0.82949   0.01556   0.11952  -0.90275
  21   29642.3    337.4   0.036588482   0.40636  -0.17803  -0.51391   0.33250
  22   29787.6    335.7   0.043014064   0.47539   0.17442  -0.66703   0.00625
  23   30590.3    326.9   0.006460989   0.06953   0.13497   0.09908  -0.20371
  24   32048.6    312.0   0.189578550   1.94740  -0.46494  -1.27753   0.31487
  25   32086.9    311.7   0.077918164   0.79944  -0.41457  -0.54474  -0.57518
  26   32461.7    308.1   0.006657908   0.06752   0.15621  -0.19981  -0.05652
  27   32685.7    305.9   0.040013122   0.40301   0.14204  -0.00386   0.61873
  28   33463.8    298.8   0.234809021   2.31002  -0.78208   0.67005  -1.11777
  29   33511.9    298.4   0.664437107   6.52725  -2.17628  -0.06926   1.33652
  30   33863.3    295.3   0.325589512   3.16531  -0.21446   0.04100  -1.76568
  31   34185.3    292.5   0.186513151   1.79616  -0.71686   0.81193  -0.78933
  32   34306.0    291.5   0.003254975   0.03124   0.03316  -0.03273   0.17048
  33   34507.9    289.8   0.140683019   1.34214  -0.03192   0.05559  -1.15673
  34   34559.6    289.4   0.061164089   0.58264  -0.21229   0.33904   0.65010
  35   34861.4    286.9   0.117426524   1.10891   0.23049   0.93229  -0.43201
  36   35321.7    283.1   0.002499450   0.02330  -0.02977  -0.02593   0.14744
  37   35367.4    282.7   0.029891481   0.27824   0.41257   0.27257  -0.18368
  38   35426.6    282.3   0.031345297   0.29129  -0.30597  -0.42464   0.13174
  39   35588.4    281.0   0.202632835   1.87446  -1.13316  -0.48241   0.59808
  40   35927.4    278.3   0.023969082   0.21963  -0.16567   0.43819  -0.01337
  41   36161.5    276.5   0.054984956   0.50058   0.42330  -0.51682  -0.23303
  42   36605.2    273.2   0.040826225   0.36717   0.03515  -0.06903  -0.60098
  43   36942.6    270.7   0.039223421   0.34954   0.07076  -0.12492  -0.57352
  44   37010.7    270.2   0.058696083   0.52210  -0.14226   0.01193  -0.70832
  45   37221.6    268.7   0.003404092   0.03011   0.01207  -0.00832   0.17290
  46   37554.2    266.3   0.367493367   3.22156  -0.89305   1.50268   0.40742
  47   38083.1    262.6   0.107163492   0.92638   0.55518   0.28492  -0.73279
  48   38559.7    259.3   0.016762323   0.14311  -0.10390   0.20534  -0.30026
  49   38881.7    257.2   0.201234943   1.70386  -0.85510   0.88296  -0.43936
  50   39113.3    255.7   0.055813572   0.46978  -0.48065   0.43498   0.22260
  51   39327.5    254.3   0.012416258   0.10394   0.28947   0.13336  -0.04857
  52   39554.3    252.8   0.018686957   0.15553   0.36279   0.09635  -0.12096
  53   39748.7    251.6   0.007014115   0.05809  -0.00738  -0.21406   0.11054
  54   39913.1    250.5   0.127373962   1.05061   0.70529   0.69961  -0.25244
  55   39940.8    250.4   0.118885625   0.97991   0.26546  -0.36157  -0.88245
  56   39994.8    250.0   0.047873777   0.39407   0.35012   0.24369  -0.46055
  57   40260.4    248.4   0.249251446   2.03814  -0.01905   1.40644  -0.24437

FINAL SINGLE POINT ENERGY     -4202.100800778155

DIPOLE MOMENT
-------------
                                X             Y             Z
Electronic contribution:     14.55492      27.17689      32.34115
Nuclear contribution   :    -12.27001     -29.49947     -32.74897
                        -----------------------------------------
Total Dipole Moment    :      2.28492      -2.32258      -0.40782
                        -----------------------------------------
Magnitude (a.u.)       :      3.28352
Magnitude (Debye)      :      8.34606

Rotational constants in cm-1:     0.001078     0.000256     0.000233
Rotational constants in MHz :    32.327798     7.671715     6.977241

                             ****ORCA TERMINATED NORMALLY****
TOTAL RUN TIME: 0 days 0 hours 12 minutes 32 seconds 39 msec
