                         Program Version 4.2.0 -  RELEASE  -
|  1> # ORCA input file
|  2> # SCF done       -202.635756042773          0.000387146526
|  3> ! CAM-B3LYP def2-SVP def2/J RIJCOSX Grid4 TightSCF
|  4> %maxcore 5000
|  5> %tddft
|  6>     Mode sTDDFT
|  7>     Ethresh 5.0
|  8>     maxcore 5000
|  9> end
| 10>
| 11> %pal
| 12>   nprocs 6
| 13>   end
| 14> * xyz 0 1
| 15>    C       -8.99773         0.20081         5.88461
| 16>    C      -10.34373         0.40230         6.00786
| 17>    F      -10.80671         1.45822         6.68518
| 18>    C      -11.26099        -0.49731         5.42516
| 19>    F      -12.57268        -0.27480         5.56356
| 20>    C      -10.81856        -1.58581         4.72707
| 21>    C       -9.43715        -1.82155         4.58310
| 22>    C       -8.50876        -0.91239         5.17094
| 23>    C       -7.11902        -1.12793         5.03886
| 24>    C       -6.67030        -2.21931         4.34018
| 25>    C       -7.60367        -3.12537         3.76211
| 26>    C       -8.95310        -2.94130         3.87269
| 27>    C       -6.88627        -4.21762         3.08053
| 28>    O       -7.37875        -5.13981         2.47334
| 29>    C       -5.43779        -3.97270         3.36404
| 30>    C       -5.32273        -2.68668         4.04657
| 31>    C       -4.16250        -2.00780         4.28795
| 32>    C       -2.87831        -2.45525         3.90401
| 33>    N       -1.81285        -2.75512         3.60260
| 34>    C       -4.10482        -0.74623         4.92098
| 35>    N       -4.00294         0.27469         5.43357
| 36>    C       -4.45678        -4.89057         3.22482
| 37>    C       -4.57952        -6.16357         2.54063
| 38>    C       -4.01493        -7.29786         3.11903
| 39>    C       -4.15526        -8.53561         2.51427
| 40>    N       -3.50483        -9.66363         3.13273
| 41>    O       -3.20406        -9.56221         4.30142
| 42>    O       -3.28474       -10.63900         2.44328
| 43>    C       -4.84263        -8.68191         1.29992
| 44>    C       -5.32967        -7.52354         0.69133
| 45>    C       -5.20898        -6.29117         1.29698
| 46>    C       -5.08720        -9.97743         0.69135
| 47>    C       -4.88753       -10.32273        -0.60973
| 48>    C       -5.26006       -11.70209        -0.78964
| 49>    C       -5.76152       -12.15793         0.51996
| 50>    C       -5.64514       -11.12804         1.39584
| 51>    C       -6.28830       -13.41801         0.82599
| 52>    N       -6.73287       -14.44190         1.09723
| 53>    C       -5.14762       -12.45689        -1.92373
| 54>    C       -5.48993       -13.83956        -2.07319
| 55>    C       -5.20807       -14.23757        -3.35568
| 56>    C       -4.66835       -13.09205        -4.08189
| 57>    C       -4.63413       -12.02835        -3.24011
| 58>    C       -4.19772       -10.74089        -3.57671
| 59>    N       -3.84965        -9.68475        -3.86269
| 60>    C       -5.42612       -15.54028        -3.87900
| 61>    S       -6.17603       -16.73601        -2.84566
| 62>    C       -6.14539       -17.96361        -4.08691
| 63>    C       -5.54453       -17.45262        -5.21742
| 64>    C       -5.16142       -16.09525        -5.12041
| 65>    C       -4.57038       -15.65377        -6.39408
| 66>    O       -4.10166       -14.57872        -6.66974
| 67>    C       -4.65087       -16.84617        -7.33529
| 68>    C       -5.24241       -18.00184        -6.54562
| 69>    O       -5.41000       -19.12929        -6.92989
| 70>    C       -6.62261       -19.28932        -3.88625
| 71>    C       -7.61169       -19.69507        -3.05605
| 72>    C       -7.70204       -21.12843        -2.63124
| 73>    O       -7.14028       -22.06685        -3.13688
| 74>    C       -8.56095       -21.11158        -1.43032
| 75>    C       -8.85829       -22.13497        -0.57597
| 76>    C       -9.69412       -21.88154         0.53437
| 77>    C      -10.19856       -20.56460         0.74715
| 78>    C      -11.02445       -20.31823         1.86252
| 79>    C      -11.34031       -21.33218         2.72254
| 80>    C      -10.84378       -22.63495         2.50958
| 81>    C      -10.03745       -22.90496         1.43956
| 82>    F      -11.16996       -23.60803         3.36852
| 83>    F      -12.12749       -21.09847         3.77876
| 84>    C       -9.87880       -19.52568        -0.15556
| 85>    C       -9.08055       -19.79906        -1.23420
| 86>    C       -8.63183       -18.95418        -2.33433
| 87>    C       -9.25405       -17.81531        -2.76621
| 88>    C       -8.94732       -17.17637        -3.98663
| 89>    N       -8.74721       -16.65085        -4.98703
| 90>    C      -10.33189       -17.20751        -2.08735
| 91>    N      -11.20628       -16.67580        -1.56957
| 92>    H       -8.31012         0.89940         6.33521
| 93>    H      -11.53289        -2.26448         4.28796
| 94>    H       -6.44151        -0.42818         5.50099
| 95>    H       -9.63982        -3.64297         3.42410
| 96>    H       -3.50142        -4.71618         3.70495
| 97>    H       -3.47439        -7.23479         4.05244
| 98>    H       -5.83606        -7.61164        -0.25723
| 99>    H       -5.58666        -5.41384         0.79802
|100>    H       -4.46300        -9.70311        -1.37474
|101>    H       -5.94314       -11.13458         2.42820
|102>    H       -5.89736       -14.45589        -1.29566
|103>    H       -4.35846       -13.11522        -5.10989
|104>    H       -3.66844       -17.09681        -7.74110
|105>    H       -5.28718       -16.60750        -8.19111
|106>    H       -6.09574       -20.06498        -4.43495
|107>    H       -8.46218       -23.12453        -0.74561
|108>    H      -11.41477       -19.32800         2.03810
|109>    H       -9.66543       -23.90665         1.29160
|110>    H      -10.26168       -18.53514         0.03222
|111> *
|112>
|113>                          ****END OF INPUT****

CARTESIAN COORDINATES (ANGSTROEM)
---------------------------------
  C     -8.997730    0.200810    5.884610
  C    -10.343730    0.402300    6.007860
  F    -10.806710    1.458220    6.685180
  C    -11.260990   -0.497310    5.425160
  F    -12.572680   -0.274800    5.563560
  C    -10.818560   -1.585810    4.727070
  C     -9.437150   -1.821550    4.583100
  C     -8.508760   -0.912390    5.170940
  C     -7.119020   -1.127930    5.038860
  C     -6.670300   -2.219310    4.340180
  C     -7.603670   -3.125370    3.762110
  C     -8.953100   -2.941300    3.872690
  C     -6.886270   -4.217620    3.080530
  O     -7.378750   -5.139810    2.473340
  C     -5.437790   -3.972700    3.364040
  C     -5.322730   -2.686680    4.046570
  C     -4.162500   -2.007800    4.287950
  C     -2.878310   -2.455250    3.904010
  N     -1.812850   -2.755120    3.602600
  C     -4.104820   -0.746230    4.920980
  N     -4.002940    0.274690    5.433570
  C     -4.456780   -4.890570    3.224820
  C     -4.579520   -6.163570    2.540630
  C     -4.014930   -7.297860    3.119030
  C     -4.155260   -8.535610    2.514270
  N     -3.504830   -9.663630    3.132730
  O     -3.204060   -9.562210    4.301420
  O     -3.284740  -10.639000    2.443280
  C     -4.842630   -8.681910    1.299920
  C     -5.329670   -7.523540    0.691330
  C     -5.208980   -6.291170    1.296980
  C     -5.087200   -9.977430    0.691350
  C     -4.887530  -10.322730   -0.609730
  C     -5.260060  -11.702090   -0.789640
  C     -5.761520  -12.157930    0.519960
  C     -5.645140  -11.128040    1.395840
  C     -6.288300  -13.418010    0.825990
  N     -6.732870  -14.441900    1.097230
  C     -5.147620  -12.456890   -1.923730
  C     -5.489930  -13.839560   -2.073190
  C     -5.208070  -14.237570   -3.355680
  C     -4.668350  -13.092050   -4.081890
  C     -4.634130  -12.028350   -3.240110
  C     -4.197720  -10.740890   -3.576710
  N     -3.849650   -9.684750   -3.862690
  C     -5.426120  -15.540280   -3.879000
  S     -6.176030  -16.736010   -2.845660
  C     -6.145390  -17.963610   -4.086910
  C     -5.544530  -17.452620   -5.217420
  C     -5.161420  -16.095250   -5.120410
  C     -4.570380  -15.653770   -6.394080
  O     -4.101660  -14.578720   -6.669740
  C     -4.650870  -16.846170   -7.335290
  C     -5.242410  -18.001840   -6.545620
  O     -5.410000  -19.129290   -6.929890
  C     -6.622610  -19.289320   -3.886250
  C     -7.611690  -19.695070   -3.056050
  C     -7.702040  -21.128430   -2.631240
  O     -7.140280  -22.066850   -3.136880
  C     -8.560950  -21.111580   -1.430320
  C     -8.858290  -22.134970   -0.575970
  C     -9.694120  -21.881540    0.534370
  C    -10.198560  -20.564600    0.747150
  C    -11.024450  -20.318230    1.862520
  C    -11.340310  -21.332180    2.722540
  C    -10.843780  -22.634950    2.509580
  C    -10.037450  -22.904960    1.439560
  F    -11.169960  -23.608030    3.368520
  F    -12.127490  -21.098470    3.778760
  C     -9.878800  -19.525680   -0.155560
  C     -9.080550  -19.799060   -1.234200
  C     -8.631830  -18.954180   -2.334330
  C     -9.254050  -17.815310   -2.766210
  C     -8.947320  -17.176370   -3.986630
  N     -8.747210  -16.650850   -4.987030
  C    -10.331890  -17.207510   -2.087350
  N    -11.206280  -16.675800   -1.569570
  H     -8.310120    0.899400    6.335210
  H    -11.532890   -2.264480    4.287960
  H     -6.441510   -0.428180    5.500990
  H     -9.639820   -3.642970    3.424100
  H     -3.501420   -4.716180    3.704950
  H     -3.474390   -7.234790    4.052440
  H     -5.836060   -7.611640   -0.257230
  H     -5.586660   -5.413840    0.798020
  H     -4.463000   -9.703110   -1.374740
  H     -5.943140  -11.134580    2.428200
  H     -5.897360  -14.455890   -1.295660
  H     -4.358460  -13.115220   -5.109890
  H     -3.668440  -17.096810   -7.741100
  H     -5.287180  -16.607500   -8.191110
  H     -6.095740  -20.064980   -4.434950
  H     -8.462180  -23.124530   -0.745610
  H    -11.414770  -19.328000    2.038100
  H     -9.665430  -23.906650    1.291600
  H    -10.261680  -18.535140    0.032220

 Total Charge           Charge          ....    0
 Multiplicity           Mult            ....    1
 Number of Electrons    NEL             ....  522
 Basis Dimension        Dim             .... 1177

ORBITAL ENERGIES
----------------

  NO   OCC          E(Eh)            E(eV)
   0   2.0000     -88.997653     -2421.7492
   1   2.0000     -24.809774      -675.1083
   2   2.0000     -24.809007      -675.0874
   3   2.0000     -24.803549      -674.9389
   4   2.0000     -24.802715      -674.9162
   5   2.0000     -19.263443      -524.1849
   6   2.0000     -19.262090      -524.1481
   7   2.0000     -19.238813      -523.5147
   8   2.0000     -19.232002      -523.3294
   9   2.0000     -19.229039      -523.2488
  10   2.0000     -19.227521      -523.2075
  11   2.0000     -14.667932      -399.1347
  12   2.0000     -14.432690      -392.7335
  13   2.0000     -14.432382      -392.7251
  14   2.0000     -14.427369      -392.5887
  15   2.0000     -14.426764      -392.5722
  16   2.0000     -14.417152      -392.3106
  17   2.0000     -14.412744      -392.1907
  18   2.0000     -10.394247      -282.8418
  19   2.0000     -10.393624      -282.8249
  20   2.0000     -10.390717      -282.7458
  21   2.0000     -10.387227      -282.6508
  22   2.0000     -10.386703      -282.6366
  23   2.0000     -10.386683      -282.6360
  24   2.0000     -10.381719      -282.5009
  25   2.0000     -10.379120      -282.4302
  26   2.0000     -10.363587      -282.0075
  27   2.0000     -10.359548      -281.8976
  28   2.0000     -10.358246      -281.8622
  29   2.0000     -10.354474      -281.7596
  30   2.0000     -10.353031      -281.7203
  31   2.0000     -10.352052      -281.6937
  32   2.0000     -10.346394      -281.5397
  33   2.0000     -10.339026      -281.3392
  34   2.0000     -10.336540      -281.2716
  35   2.0000     -10.334915      -281.2273
  36   2.0000     -10.334381      -281.2128
  37   2.0000     -10.334008      -281.2026
  38   2.0000     -10.333551      -281.1902
  39   2.0000     -10.332138      -281.1518
  40   2.0000     -10.328959      -281.0653
  41   2.0000     -10.328304      -281.0474
  42   2.0000     -10.324948      -280.9561
  43   2.0000     -10.324693      -280.9492
  44   2.0000     -10.323990      -280.9300
  45   2.0000     -10.323820      -280.9254
  46   2.0000     -10.323722      -280.9228
  47   2.0000     -10.323180      -280.9080
  48   2.0000     -10.323122      -280.9064
  49   2.0000     -10.322606      -280.8924
  50   2.0000     -10.320676      -280.8399
  51   2.0000     -10.320604      -280.8379
  52   2.0000     -10.320528      -280.8358
  53   2.0000     -10.319717      -280.8138
  54   2.0000     -10.318369      -280.7771
  55   2.0000     -10.317864      -280.7634
  56   2.0000     -10.317636      -280.7572
  57   2.0000     -10.317320      -280.7485
  58   2.0000     -10.316855      -280.7359
  59   2.0000     -10.316846      -280.7356
  60   2.0000     -10.316709      -280.7319
  61   2.0000     -10.314899      -280.6827
  62   2.0000     -10.313616      -280.6478
  63   2.0000     -10.312789      -280.6253
  64   2.0000     -10.310871      -280.5731
  65   2.0000     -10.310788      -280.5708
  66   2.0000     -10.310489      -280.5627
  67   2.0000     -10.310425      -280.5609
  68   2.0000     -10.310228      -280.5556
  69   2.0000     -10.309924      -280.5473
  70   2.0000     -10.309917      -280.5471
  71   2.0000     -10.306783      -280.4618
  72   2.0000     -10.305872      -280.4370
  73   2.0000     -10.302890      -280.3559
  74   2.0000     -10.302795      -280.3533
  75   2.0000     -10.298180      -280.2277
  76   2.0000     -10.293187      -280.0918
  77   2.0000      -8.091929      -220.1926
  78   2.0000      -6.061217      -164.9341
  79   2.0000      -6.056857      -164.8155
  80   2.0000      -6.054346      -164.7471
  81   2.0000      -1.343991       -36.5718
  82   2.0000      -1.333130       -36.2763
  83   2.0000      -1.326603       -36.0987
  84   2.0000      -1.318180       -35.8695
  85   2.0000      -1.311660       -35.6921
  86   2.0000      -1.163207       -31.6525
  87   2.0000      -1.155249       -31.4359
  88   2.0000      -1.150660       -31.3110
  89   2.0000      -1.144619       -31.1467
  90   2.0000      -1.144083       -31.1321
  91   2.0000      -1.037000       -28.2182
  92   2.0000      -1.036200       -28.1964
  93   2.0000      -1.029306       -28.0088
  94   2.0000      -1.024122       -27.8678
  95   2.0000      -1.019713       -27.7478
  96   2.0000      -1.013420       -27.5766
  97   2.0000      -1.012879       -27.5618
  98   2.0000      -1.010883       -27.5075
  99   2.0000      -1.006137       -27.3784
 100   2.0000      -1.004538       -27.3349
 101   2.0000      -0.997112       -27.1328
 102   2.0000      -0.992232       -27.0000
 103   2.0000      -0.990776       -26.9604
 104   2.0000      -0.987501       -26.8713
 105   2.0000      -0.951797       -25.8997
 106   2.0000      -0.945585       -25.7307
 107   2.0000      -0.937904       -25.5217
 108   2.0000      -0.935924       -25.4678
 109   2.0000      -0.922776       -25.1100
 110   2.0000      -0.915067       -24.9002
 111   2.0000      -0.909471       -24.7480
 112   2.0000      -0.905675       -24.6447
 113   2.0000      -0.902362       -24.5545
 114   2.0000      -0.898469       -24.4486
 115   2.0000      -0.883232       -24.0340
 116   2.0000      -0.873820       -23.7778
 117   2.0000      -0.863059       -23.4850
 118   2.0000      -0.855174       -23.2705
 119   2.0000      -0.852852       -23.2073
 120   2.0000      -0.848097       -23.0779
 121   2.0000      -0.842040       -22.9131
 122   2.0000      -0.836696       -22.7676
 123   2.0000      -0.816367       -22.2145
 124   2.0000      -0.813620       -22.1397
 125   2.0000      -0.803739       -21.8709
 126   2.0000      -0.784024       -21.3344
 127   2.0000      -0.783627       -21.3236
 128   2.0000      -0.775846       -21.1118
 129   2.0000      -0.758629       -20.6433
 130   2.0000      -0.750102       -20.4113
 131   2.0000      -0.745501       -20.2861
 132   2.0000      -0.740079       -20.1386
 133   2.0000      -0.733434       -19.9578
 134   2.0000      -0.727790       -19.8042
 135   2.0000      -0.726689       -19.7742
 136   2.0000      -0.723820       -19.6961
 137   2.0000      -0.719323       -19.5738
 138   2.0000      -0.711224       -19.3534
 139   2.0000      -0.703510       -19.1435
 140   2.0000      -0.696284       -18.9469
 141   2.0000      -0.694022       -18.8853
 142   2.0000      -0.687144       -18.6981
 143   2.0000      -0.683037       -18.5864
 144   2.0000      -0.678925       -18.4745
 145   2.0000      -0.671082       -18.2611
 146   2.0000      -0.663740       -18.0613
 147   2.0000      -0.659888       -17.9565
 148   2.0000      -0.656558       -17.8659
 149   2.0000      -0.655037       -17.8245
 150   2.0000      -0.651310       -17.7231
 151   2.0000      -0.648452       -17.6453
 152   2.0000      -0.645494       -17.5648
 153   2.0000      -0.638952       -17.3868
 154   2.0000      -0.632564       -17.2129
 155   2.0000      -0.625613       -17.0238
 156   2.0000      -0.622493       -16.9389
 157   2.0000      -0.618241       -16.8232
 158   2.0000      -0.613738       -16.7006
 159   2.0000      -0.607773       -16.5383
 160   2.0000      -0.602655       -16.3991
 161   2.0000      -0.597303       -16.2534
 162   2.0000      -0.595486       -16.2040
 163   2.0000      -0.593765       -16.1572
 164   2.0000      -0.591852       -16.1051
 165   2.0000      -0.590848       -16.0778
 166   2.0000      -0.584548       -15.9064
 167   2.0000      -0.583865       -15.8878
 168   2.0000      -0.577531       -15.7154
 169   2.0000      -0.574796       -15.6410
 170   2.0000      -0.569098       -15.4859
 171   2.0000      -0.567146       -15.4328
 172   2.0000      -0.563228       -15.3262
 173   2.0000      -0.561130       -15.2691
 174   2.0000      -0.559004       -15.2113
 175   2.0000      -0.558583       -15.1998
 176   2.0000      -0.556216       -15.1354
 177   2.0000      -0.554887       -15.0992
 178   2.0000      -0.552385       -15.0311
 179   2.0000      -0.550395       -14.9770
 180   2.0000      -0.546981       -14.8841
 181   2.0000      -0.545509       -14.8440
 182   2.0000      -0.542516       -14.7626
 183   2.0000      -0.539600       -14.6833
 184   2.0000      -0.537854       -14.6358
 185   2.0000      -0.535483       -14.5712
 186   2.0000      -0.535028       -14.5588
 187   2.0000      -0.533899       -14.5281
 188   2.0000      -0.532857       -14.4998
 189   2.0000      -0.528909       -14.3924
 190   2.0000      -0.527758       -14.3610
 191   2.0000      -0.524947       -14.2845
 192   2.0000      -0.522187       -14.2094
 193   2.0000      -0.521534       -14.1917
 194   2.0000      -0.519062       -14.1244
 195   2.0000      -0.517926       -14.0935
 196   2.0000      -0.516278       -14.0486
 197   2.0000      -0.514163       -13.9911
 198   2.0000      -0.509427       -13.8622
 199   2.0000      -0.506700       -13.7880
 200   2.0000      -0.505235       -13.7481
 201   2.0000      -0.500470       -13.6185
 202   2.0000      -0.497523       -13.5383
 203   2.0000      -0.495953       -13.4956
 204   2.0000      -0.493828       -13.4377
 205   2.0000      -0.490806       -13.3555
 206   2.0000      -0.488619       -13.2960
 207   2.0000      -0.486221       -13.2308
 208   2.0000      -0.482623       -13.1328
 209   2.0000      -0.481376       -13.0989
 210   2.0000      -0.479841       -13.0571
 211   2.0000      -0.477011       -12.9801
 212   2.0000      -0.472641       -12.8612
 213   2.0000      -0.469392       -12.7728
 214   2.0000      -0.468159       -12.7393
 215   2.0000      -0.463826       -12.6214
 216   2.0000      -0.461174       -12.5492
 217   2.0000      -0.459756       -12.5106
 218   2.0000      -0.459232       -12.4963
 219   2.0000      -0.455038       -12.3822
 220   2.0000      -0.454249       -12.3607
 221   2.0000      -0.452564       -12.3149
 222   2.0000      -0.448347       -12.2001
 223   2.0000      -0.447918       -12.1885
 224   2.0000      -0.446608       -12.1528
 225   2.0000      -0.445350       -12.1186
 226   2.0000      -0.443815       -12.0768
 227   2.0000      -0.442495       -12.0409
 228   2.0000      -0.440775       -11.9941
 229   2.0000      -0.440100       -11.9757
 230   2.0000      -0.438058       -11.9202
 231   2.0000      -0.435861       -11.8604
 232   2.0000      -0.430521       -11.7151
 233   2.0000      -0.427050       -11.6206
 234   2.0000      -0.423548       -11.5253
 235   2.0000      -0.423095       -11.5130
 236   2.0000      -0.417611       -11.3638
 237   2.0000      -0.410992       -11.1837
 238   2.0000      -0.405766       -11.0415
 239   2.0000      -0.404968       -11.0197
 240   2.0000      -0.401607       -10.9283
 241   2.0000      -0.400933       -10.9100
 242   2.0000      -0.395378       -10.7588
 243   2.0000      -0.391905       -10.6643
 244   2.0000      -0.379701       -10.3322
 245   2.0000      -0.375954       -10.2302
 246   2.0000      -0.371638       -10.1128
 247   2.0000      -0.361632        -9.8405
 248   2.0000      -0.358965        -9.7679
 249   2.0000      -0.356011        -9.6875
 250   2.0000      -0.349885        -9.5209
 251   2.0000      -0.342217        -9.3122
 252   2.0000      -0.336944        -9.1687
 253   2.0000      -0.334372        -9.0987
 254   2.0000      -0.331161        -9.0114
 255   2.0000      -0.327607        -8.9146
 256   2.0000      -0.323846        -8.8123
 257   2.0000      -0.316139        -8.6026
 258   2.0000      -0.310354        -8.4452
 259   2.0000      -0.307911        -8.3787
 260   2.0000      -0.288551        -7.8519
 261   0.0000      -0.133495        -3.6326
 262   0.0000      -0.108862        -2.9623
 263   0.0000      -0.103741        -2.8229
 264   0.0000      -0.076637        -2.0854
 265   0.0000      -0.068376        -1.8606

MULLIKEN ATOMIC CHARGES
-----------------------
   0 C :   -0.104892
   1 C :    0.243064
   2 F :   -0.166267
   3 C :    0.241256
   4 F :   -0.166819
   5 C :   -0.102239
   6 C :    0.113529
   7 C :    0.114199
   8 C :   -0.079363
   9 C :    0.055686
  10 C :   -0.013013
  11 C :   -0.071790
  12 C :    0.149901
  13 O :   -0.135596
  14 C :   -0.078752
  15 C :    0.288639
  16 C :   -0.325308
  17 C :   -0.203163
  18 N :    0.172568
  19 C :   -0.181422
  20 N :    0.161997
  21 C :   -0.021961
  22 C :    0.060787
  23 C :   -0.059075
  24 C :    0.144685
  25 N :    0.242205
  26 O :   -0.222498
  27 O :   -0.218862
  28 C :    0.060292
  29 C :   -0.028848
  30 C :    0.113863
  31 C :    0.054568
  32 C :   -0.078850
  33 C :    0.105068
  34 C :   -0.112414
  35 C :    0.047498
  36 C :   -0.170518
  37 N :    0.132357
  38 C :    0.103815
  39 C :   -0.129830
  40 C :    0.095389
  41 C :    0.005479
  42 C :   -0.095819
  43 C :   -0.179070
  44 N :    0.141626
  45 C :   -0.101320
  46 S :    0.197367
  47 C :   -0.199721
  48 C :    0.092398
  49 C :    0.028767
  50 C :    0.037073
  51 O :   -0.143823
  52 C :    0.048292
  53 C :    0.035972
  54 O :   -0.130005
  55 C :    0.053551
  56 C :   -0.119766
  57 C :    0.141474
  58 O :   -0.121438
  59 C :    0.008938
  60 C :   -0.077631
  61 C :    0.112674
  62 C :    0.111015
  63 C :   -0.104149
  64 C :    0.243836
  65 C :    0.240041
  66 C :   -0.102114
  67 F :   -0.168773
  68 F :   -0.167972
  69 C :   -0.074487
  70 C :    0.039751
  71 C :    0.245114
  72 C :   -0.316026
  73 C :   -0.191101
  74 N :    0.171989
  75 C :   -0.176331
  76 N :    0.166632
  77 H :    0.011333
  78 H :    0.002976
  79 H :   -0.002891
  80 H :   -0.005950
  81 H :    0.045247
  82 H :    0.010355
  83 H :    0.001361
  84 H :    0.001678
  85 H :    0.007967
  86 H :    0.004731
  87 H :    0.015306
  88 H :    0.014805
  89 H :    0.070916
  90 H :    0.081991
  91 H :    0.050190
  92 H :   -0.005282
  93 H :    0.008189
  94 H :    0.001339
  95 H :    0.003409
Sum of atomic charges:   -0.0000000

LOEWDIN ATOMIC CHARGES
----------------------
   0 C :   -0.028289
   1 C :    0.069735
   2 F :   -0.044002
   3 C :    0.070422
   4 F :   -0.044499
   5 C :   -0.031518
   6 C :   -0.007443
   7 C :   -0.004401
   8 C :    0.020998
   9 C :   -0.024407
  10 C :   -0.056102
  11 C :    0.035424
  12 C :    0.085379
  13 O :   -0.127069
  14 C :   -0.076789
  15 C :    0.072325
  16 C :   -0.124632
  17 C :   -0.025389
  18 N :   -0.036919
  19 C :   -0.017728
  20 N :   -0.039988
  21 C :    0.077261
  22 C :   -0.032632
  23 C :    0.025146
  24 C :   -0.031630
  25 N :    0.283759
  26 O :   -0.190493
  27 O :   -0.179086
  28 C :    0.008605
  29 C :    0.001761
  30 C :    0.049899
  31 C :   -0.006841
  32 C :   -0.010993
  33 C :    0.051843
  34 C :   -0.086026
  35 C :    0.067771
  36 C :   -0.027219
  37 N :   -0.065227
  38 C :    0.032071
  39 C :   -0.009277
  40 C :   -0.038630
  41 C :    0.066097
  42 C :   -0.084553
  43 C :   -0.027441
  44 N :   -0.061651
  45 C :   -0.110044
  46 S :    0.515903
  47 C :   -0.147536
  48 C :   -0.063248
  49 C :   -0.087396
  50 C :    0.087683
  51 O :   -0.125156
  52 C :   -0.067243
  53 C :    0.080499
  54 O :   -0.118598
  55 C :    0.051851
  56 C :   -0.073402
  57 C :    0.084419
  58 O :   -0.124558
  59 C :   -0.055752
  60 C :    0.034351
  61 C :   -0.007871
  62 C :   -0.003952
  63 C :   -0.028330
  64 C :    0.068790
  65 C :    0.068713
  66 C :   -0.031697
  67 F :   -0.046611
  68 F :   -0.045846
  69 C :    0.019444
  70 C :   -0.021108
  71 C :    0.059663
  72 C :   -0.129840
  73 C :   -0.030557
  74 N :   -0.044688
  75 C :   -0.019136
  76 N :   -0.039388
  77 H :    0.049145
  78 H :    0.046316
  79 H :    0.041092
  80 H :    0.042018
  81 H :    0.049908
  82 H :    0.045353
  83 H :    0.042819
  84 H :    0.039547
  85 H :    0.037956
  86 H :    0.037398
  87 H :    0.029814
  88 H :    0.037811
  89 H :    0.064298
  90 H :    0.070666
  91 H :    0.060625
  92 H :    0.042187
  93 H :    0.048419
  94 H :    0.045728
  95 H :    0.041919

  Mayer bond orders larger than 0.100000
B(  0-C ,  1-C ) :   1.4442 B(  0-C ,  5-C ) :   0.1075 B(  0-C ,  7-C ) :   1.1854
B(  0-C , 77-H ) :   1.0065 B(  1-C ,  2-F ) :   1.1392 B(  1-C ,  3-C ) :   1.1871
B(  3-C ,  4-F ) :   1.1381 B(  3-C ,  5-C ) :   1.4450 B(  5-C ,  6-C ) :   1.1921
B(  5-C , 78-H ) :   1.0069 B(  6-C ,  7-C ) :   1.2500 B(  6-C , 11-C ) :   1.1967
B(  7-C ,  8-C ) :   1.2252 B(  8-C ,  9-C ) :   1.4413 B(  8-C , 79-H ) :   0.9910
B(  9-C , 10-C ) :   1.2145 B(  9-C , 15-C ) :   1.0023 B( 10-C , 11-C ) :   1.4683
B( 10-C , 12-C ) :   0.9477 B( 11-C , 80-H ) :   1.0159 B( 12-C , 13-O ) :   2.2325
B( 12-C , 14-C ) :   0.9182 B( 14-C , 15-C ) :   1.0224 B( 14-C , 21-C ) :   1.7266
B( 15-C , 16-C ) :   1.6806 B( 16-C , 17-C ) :   1.1339 B( 16-C , 19-C ) :   1.1368
B( 17-C , 18-N ) :   2.9991 B( 19-C , 20-N ) :   2.9727 B( 21-C , 22-C ) :   1.0319
B( 21-C , 81-H ) :   0.9495 B( 22-C , 23-C ) :   1.2936 B( 22-C , 30-C ) :   1.3435
B( 23-C , 24-C ) :   1.3748 B( 23-C , 82-H ) :   0.9984 B( 24-C , 25-N ) :   0.8819
B( 24-C , 28-C ) :   1.3675 B( 25-N , 26-O ) :   1.5603 B( 25-N , 27-O ) :   1.5210
B( 26-O , 27-O ) :   0.2632 B( 28-C , 29-C ) :   1.3922 B( 28-C , 31-C ) :   0.9406
B( 29-C , 30-C ) :   1.3821 B( 29-C , 83-H ) :   0.9982 B( 30-C , 84-H ) :   0.9845
B( 31-C , 32-C ) :   1.6572 B( 31-C , 35-C ) :   1.0384 B( 32-C , 33-C ) :   1.0792
B( 32-C , 85-H ) :   1.0043 B( 33-C , 34-C ) :   1.1086 B( 33-C , 38-C ) :   1.4539
B( 34-C , 35-C ) :   1.6875 B( 34-C , 36-C ) :   1.0910 B( 35-C , 86-H ) :   1.0134
B( 36-C , 37-N ) :   2.9570 B( 38-C , 39-C ) :   1.1140 B( 38-C , 42-C ) :   1.1069
B( 39-C , 40-C ) :   1.5517 B( 39-C , 87-H ) :   0.9864 B( 40-C , 41-C ) :   1.0737
B( 40-C , 45-C ) :   1.1118 B( 41-C , 42-C ) :   1.6516 B( 41-C , 88-H ) :   1.0012
B( 42-C , 43-C ) :   1.0941 B( 43-C , 44-N ) :   2.9687 B( 45-C , 46-S ) :   1.1738
B( 45-C , 49-C ) :   1.4636 B( 46-S , 47-C ) :   1.1406 B( 47-C , 48-C ) :   1.4822
B( 47-C , 55-C ) :   1.0885 B( 48-C , 49-C ) :   1.2158 B( 48-C , 53-C ) :   0.9273
B( 49-C , 50-C ) :   0.9250 B( 50-C , 51-O ) :   2.1756 B( 50-C , 52-C ) :   1.0043
B( 52-C , 53-C ) :   0.9946 B( 52-C , 89-H ) :   0.8974 B( 52-C , 90-H ) :   0.8909
B( 53-C , 54-O ) :   2.2399 B( 55-C , 56-C ) :   1.6978 B( 55-C , 91-H ) :   0.9433
B( 56-C , 57-C ) :   0.9217 B( 56-C , 71-C ) :   1.0168 B( 57-C , 58-O ) :   2.2961
B( 57-C , 59-C ) :   0.9180 B( 59-C , 60-C ) :   1.4707 B( 59-C , 70-C ) :   1.2193
B( 60-C , 61-C ) :   1.2000 B( 60-C , 92-H ) :   1.0159 B( 61-C , 62-C ) :   1.2549
B( 61-C , 66-C ) :   1.1911 B( 62-C , 63-C ) :   1.1882 B( 62-C , 69-C ) :   1.2185
B( 63-C , 64-C ) :   1.4435 B( 63-C , 66-C ) :   0.1084 B( 63-C , 93-H ) :   1.0070
B( 64-C , 65-C ) :   1.1891 B( 64-C , 68-F ) :   1.1374 B( 65-C , 66-C ) :   1.4453
B( 65-C , 67-F ) :   1.1365 B( 66-C , 94-H ) :   1.0070 B( 69-C , 70-C ) :   1.4524
B( 69-C , 95-H ) :   0.9944 B( 70-C , 71-C ) :   1.0036 B( 71-C , 72-C ) :   1.6781
B( 72-C , 73-C ) :   1.1542 B( 72-C , 75-C ) :   1.1329 B( 73-C , 74-N ) :   3.0132
B( 75-C , 76-N ) :   2.9949

-----------------------------------------------------------------------------
         ABSORPTION SPECTRUM VIA TRANSITION ELECTRIC DIPOLE MOMENTS
-----------------------------------------------------------------------------
State   Energy  Wavelength   fosc         T2         TX        TY        TZ
        (cm-1)    (nm)                  (au**2)     (au)      (au)      (au)
-----------------------------------------------------------------------------
   0   16737.2    597.5   0.424827153   8.35615   0.63873   2.43278   1.42469
   1   20095.1    497.6   0.022879070   0.37482   0.18116  -0.34241  -0.47408
   2   21989.1    454.8   0.330718192   4.95137   1.46336   1.63760  -0.35807
   3   23826.4    419.7   0.099225614   1.37101  -0.34733  -0.13207   1.11038
   4   25027.2    399.6   0.629641738   8.28241   0.08847  -2.50474  -1.41452
   5   26072.3    383.5   0.076409991   0.96482   0.17689  -0.75550  -0.60228
   6   26190.5    381.8   0.047599366   0.59832  -0.15585  -0.74385  -0.14393
   7   26654.0    375.2   0.027782591   0.34315   0.18651  -0.54287  -0.11689
   8   27786.8    359.9   0.093514087   1.10794   0.68414  -0.72513  -0.33774
   9   27829.6    359.3   0.016824839   0.19903   0.37579   0.09843  -0.21937
  10   28471.4    351.2   0.043672632   0.50498   0.30147   0.21760  -0.60560
  11   28658.6    348.9   0.018205924   0.20914   0.11019   0.43209   0.10146
  12   28981.5    345.0   0.408107821   4.63586  -0.78711   1.25747   1.56048
  13   29317.3    341.1   0.040395377   0.45361  -0.35438  -0.46038  -0.34069
  14   29694.1    336.8   0.073350540   0.81322  -0.17666   0.66338  -0.58476
  15   30681.4    325.9   0.105537852   1.13242  -0.05410   0.99603   0.37071
  16   31141.4    321.1   0.021758662   0.23002  -0.00432   0.42077   0.23013
  17   31326.9    319.2   0.113861304   1.19656  -0.11839  -1.07249   0.17975
  18   31581.0    316.6   0.067285014   0.70140   0.34081   0.72286   0.25046
  19   31702.1    315.4   0.044172367   0.45871   0.04498  -0.28444   0.61301
  20   31967.2    312.8   0.172074560   1.77210  -0.38484  -0.31494   1.23483
  21   32144.1    311.1   0.149063841   1.52668  -0.88419   0.19388   0.84101
  22   32414.3    308.5   0.127638767   1.29635  -0.95316  -0.04038   0.62145
  23   32827.7    304.6   0.075353548   0.75568   0.59450  -0.47587   0.41929
  24   32887.0    304.1   0.256372890   2.56639   1.37702  -0.34471  -0.74256
  25   33202.1    301.2   0.007152463   0.07092   0.11538  -0.13433   0.19890
  26   33606.2    297.6   0.020718820   0.20296   0.12246   0.25305  -0.35205
  27   33902.8    295.0   0.392807064   3.81433  -1.54606   0.97049   0.69439
  28   34015.4    294.0   0.273429293   2.64634   1.20404   0.79478  -0.75164
  29   34158.8    292.8   0.288992944   2.78522  -0.55803   0.50528  -1.48947
  30   34747.3    287.8   0.265433796   2.51484   0.18003  -0.84600   1.32918
  31   34845.7    287.0   0.319750784   3.02091  -0.51389  -0.97380   1.34482
  32   35410.8    282.4   0.317616028   2.95285   1.71377  -0.06823  -0.10576
  33   35706.0    280.1   0.147913622   1.36377  -0.34485   1.05587   0.36055
  34   35924.0    278.4   0.054931620   0.50340   0.65134   0.24215  -0.14324
  35   36036.7    277.5   0.030955186   0.28279  -0.46521   0.16139   0.20081
  36   36261.2    275.8   0.031090304   0.28227  -0.12538  -0.05208   0.51365
  37   36571.9    273.4   0.135638189   1.22098  -0.34633   1.04444   0.10087
  38   36628.9    273.0   0.007848719   0.07054   0.07422   0.09023  -0.23852
  39   36797.5    271.8   0.071494220   0.63963   0.26991  -0.16913  -0.73360
  40   37019.7    270.1   0.001404326   0.01249  -0.04265   0.06521   0.08011
  41   37324.2    267.9   0.023742216   0.20941   0.20743  -0.38116  -0.14529
  42   37599.1    266.0   0.025901028   0.22679  -0.02245  -0.41428  -0.23378
  43   37783.8    264.7   0.009232705   0.08045  -0.24713   0.13728   0.02293
  44   37890.0    263.9   0.041473536   0.36035   0.45945   0.05709   0.38209
  45   38251.1    261.4   0.009464930   0.08146  -0.06783  -0.25166   0.11631
  46   38335.4    260.9   0.001148956   0.00987   0.04814  -0.08542  -0.01590
  47   38729.5    258.2   0.045006022   0.38256   0.27581  -0.12530  -0.53925
  48   38772.7    257.9   0.184244167   1.56438   0.14362  -1.17627  -0.40018
  49   38965.5    256.6   0.032624125   0.27563   0.11854  -0.48109  -0.17359
  50   39234.0    254.9   0.040013570   0.33575  -0.14067   0.42593   0.36681
  51   39399.7    253.8   0.291611660   2.43662   0.91429  -1.20289  -0.39211
  52   39563.1    252.8   0.114887691   0.95600  -0.28459  -0.69286  -0.62845
  53   40093.0    249.4   0.005989549   0.04918   0.00987   0.21343  -0.05942

FINAL SINGLE POINT ENERGY     -3887.222297267001

DIPOLE MOMENT
-------------
                                X             Y             Z
Electronic contribution:    -21.36281      -1.77383      20.54632
Nuclear contribution   :     19.94316       2.02653     -19.29843
                        -----------------------------------------
Total Dipole Moment    :     -1.41965       0.25269       1.24789
                        -----------------------------------------
Magnitude (a.u.)       :      1.90695
Magnitude (Debye)      :      4.84709

Rotational constants in cm-1:     0.001139     0.000244     0.000218
Rotational constants in MHz :    34.142850     7.306871     6.527630

                             ****ORCA TERMINATED NORMALLY****
TOTAL RUN TIME: 0 days 0 hours 9 minutes 50 seconds 505 msec
