                         Program Version 4.2.0 -  RELEASE  -
|  1> # ORCA input file
|  2> # SCF done       -210.458589003866          0.000270964613
|  3> ! CAM-B3LYP def2-SVP def2/J RIJCOSX Grid4 TightSCF
|  4> %maxcore 5000
|  5> %tddft
|  6>     Mode sTDDFT
|  7>     Ethresh 5.0
|  8>     maxcore 5000
|  9> end
| 10>
| 11> %pal
| 12>   nprocs 6
| 13>   end
| 14> * xyz 0 1
| 15>    C       -7.49660         1.48104         0.80979
| 16>    C       -6.53075         1.61054         1.76791
| 17>    F       -6.57394         2.63292         2.63030
| 18>    C       -5.47951         0.67486         1.86214
| 19>    F       -4.54932         0.83346         2.80997
| 20>    C       -5.40552        -0.37582         0.99172
| 21>    C       -6.38607        -0.53631        -0.00570
| 22>    C       -7.45416         0.40416        -0.09854
| 23>    C       -8.46344         0.24736        -1.07519
| 24>    C       -8.42169        -0.83071        -1.92153
| 25>    C       -7.34999        -1.76419        -1.82060
| 26>    C       -6.34582        -1.62220        -0.90465
| 27>    C       -7.56664        -2.85790        -2.77531
| 28>    O       -6.80904        -3.75908        -3.06005
| 29>    C       -8.92279        -2.61779        -3.35055
| 30>    C       -9.36427        -1.29503        -2.93451
| 31>    C      -10.48277        -0.63636        -3.36025
| 32>    C      -10.84712         0.65703        -2.92569
| 33>    N      -11.18695         1.70594        -2.60905
| 34>    C      -11.42544        -1.16195        -4.27182
| 35>    N      -12.25235        -1.54838        -4.96650
| 36>    C       -9.59209        -3.57261        -4.03969
| 37>    C       -9.09995        -4.91767        -4.13350
| 38>    C       -8.84143        -5.60006        -5.29984
| 39>    N       -9.07850        -5.10272        -6.59621
| 40>    O       -8.88106        -5.85294        -7.53229
| 41>    O       -9.47555        -3.95359        -6.69419
| 42>    C       -8.15304        -6.82832        -5.00105
| 43>    C       -7.96767        -6.89437        -3.66067
| 44>    C       -8.59172        -5.75671        -3.03369
| 45>    C       -8.71652        -5.42411        -1.69980
| 46>    C       -9.51522        -4.33326        -1.20347
| 47>    C       -8.93123        -3.83461        -0.08613
| 48>    C       -7.77059        -4.62497         0.21365
| 49>    N       -6.90100        -4.31034         1.25560
| 50>    O       -5.98395        -5.07835         1.52695
| 51>    O       -7.07723        -3.24249         1.82886
| 52>    C       -7.71206        -5.71827        -0.65785
| 53>    C       -6.84233        -6.81520        -0.52141
| 54>    C       -7.16635        -8.10542        -0.83860
| 55>    C       -6.33851        -9.21616        -0.60566
| 56>    N       -5.04882        -9.15481        -0.11232
| 57>    C       -4.49874       -10.37788         0.03340
| 58>    C       -5.43463       -11.31536        -0.37632
| 59>    C       -6.58718       -10.58647        -0.77564
| 60>    N       -7.54304       -11.46735        -1.16484
| 61>    C       -7.05091       -12.72973        -1.01987
| 62>    C       -5.75388       -12.70490        -0.54028
| 63>    C       -4.92986       -13.83052        -0.24681
| 64>    S       -5.56243       -15.44852        -0.30809
| 65>    C       -4.03770       -16.12344         0.18271
| 66>    C       -3.09598       -15.10812         0.36686
| 67>    C       -3.60515       -13.82297         0.12770
| 68>    C       -1.77020       -15.36031         0.76041
| 69>    N       -0.68583       -15.55713         1.07704
| 70>    C       -3.84202       -17.50216         0.41101
| 71>    C       -4.82446       -18.43773         0.31532
| 72>    C       -4.61815       -19.79253         0.64810
| 73>    C       -5.56466       -20.75921         0.82511
| 74>    C       -5.15608       -22.19031         0.82778
| 75>    O       -4.02768       -22.61903         0.89395
| 76>    C       -6.41114       -22.95413         0.68027
| 77>    C       -6.58207       -24.30096         0.53971
| 78>    C       -7.88970       -24.81631         0.39613
| 79>    C       -8.99672       -23.91878         0.38963
| 80>    C      -10.29885       -24.43779         0.24272
| 81>    C      -10.49287       -25.78438         0.11337
| 82>    C       -9.39723       -26.67130         0.12146
| 83>    C       -8.12214       -26.19865         0.25910
| 84>    F       -9.61752       -27.98587        -0.00791
| 85>    F      -11.73096       -26.27575        -0.02279
| 86>    C       -8.78830       -22.52849         0.53873
| 87>    C       -7.51346       -22.05220         0.69261
| 88>    C       -7.00642       -20.69885         0.91890
| 89>    C       -7.76638       -19.64259         1.35237
| 90>    C       -7.26151       -18.42338         1.85095
| 91>    N       -6.93177       -17.42448         2.31130
| 92>    C       -9.17355       -19.67752         1.45128
| 93>    N      -10.31818       -19.63243         1.52599
| 94>    H       -8.29512         2.20454         0.75565
| 95>    H       -4.60212        -1.08926         1.08228
| 96>    H       -9.25917         0.97391        -1.11575
| 97>    H       -5.54438        -2.34354        -0.85205
| 98>    H      -10.51231        -3.34240        -4.56304
| 99>    H       -7.82795        -7.52420        -5.75051
|100>    H       -7.46787        -7.68564        -3.14116
|101>    H      -10.42570        -3.99330        -1.65682
|102>    H       -9.25262        -3.00520         0.51517
|103>    H       -5.92825        -6.61391         0.02001
|104>    H       -8.15318        -8.32311        -1.22471
|105>    H       -4.59327        -8.28953         0.13199
|106>    H       -3.50372       -10.49592         0.41363
|107>    H       -8.46806       -11.24487        -1.49424
|108>    H       -7.64559       -13.58792        -1.26623
|109>    H       -3.02091       -12.92678         0.22443
|110>    H       -2.85336       -17.79327         0.74473
|111>    H       -5.80508       -18.12710        -0.01854
|112>    H       -3.59096       -20.13243         0.73371
|113>    H       -5.73091       -24.96464         0.54152
|114>    H      -11.14894       -23.77354         0.23847
|115>    H       -7.29428       -26.89023         0.26365
|116>    H       -9.64524       -21.87438         0.52200
|117> *
|118>
|119>                          ****END OF INPUT****

CARTESIAN COORDINATES (ANGSTROEM)
---------------------------------
  C     -7.496600    1.481040    0.809790
  C     -6.530750    1.610540    1.767910
  F     -6.573940    2.632920    2.630300
  C     -5.479510    0.674860    1.862140
  F     -4.549320    0.833460    2.809970
  C     -5.405520   -0.375820    0.991720
  C     -6.386070   -0.536310   -0.005700
  C     -7.454160    0.404160   -0.098540
  C     -8.463440    0.247360   -1.075190
  C     -8.421690   -0.830710   -1.921530
  C     -7.349990   -1.764190   -1.820600
  C     -6.345820   -1.622200   -0.904650
  C     -7.566640   -2.857900   -2.775310
  O     -6.809040   -3.759080   -3.060050
  C     -8.922790   -2.617790   -3.350550
  C     -9.364270   -1.295030   -2.934510
  C    -10.482770   -0.636360   -3.360250
  C    -10.847120    0.657030   -2.925690
  N    -11.186950    1.705940   -2.609050
  C    -11.425440   -1.161950   -4.271820
  N    -12.252350   -1.548380   -4.966500
  C     -9.592090   -3.572610   -4.039690
  C     -9.099950   -4.917670   -4.133500
  C     -8.841430   -5.600060   -5.299840
  N     -9.078500   -5.102720   -6.596210
  O     -8.881060   -5.852940   -7.532290
  O     -9.475550   -3.953590   -6.694190
  C     -8.153040   -6.828320   -5.001050
  C     -7.967670   -6.894370   -3.660670
  C     -8.591720   -5.756710   -3.033690
  C     -8.716520   -5.424110   -1.699800
  C     -9.515220   -4.333260   -1.203470
  C     -8.931230   -3.834610   -0.086130
  C     -7.770590   -4.624970    0.213650
  N     -6.901000   -4.310340    1.255600
  O     -5.983950   -5.078350    1.526950
  O     -7.077230   -3.242490    1.828860
  C     -7.712060   -5.718270   -0.657850
  C     -6.842330   -6.815200   -0.521410
  C     -7.166350   -8.105420   -0.838600
  C     -6.338510   -9.216160   -0.605660
  N     -5.048820   -9.154810   -0.112320
  C     -4.498740  -10.377880    0.033400
  C     -5.434630  -11.315360   -0.376320
  C     -6.587180  -10.586470   -0.775640
  N     -7.543040  -11.467350   -1.164840
  C     -7.050910  -12.729730   -1.019870
  C     -5.753880  -12.704900   -0.540280
  C     -4.929860  -13.830520   -0.246810
  S     -5.562430  -15.448520   -0.308090
  C     -4.037700  -16.123440    0.182710
  C     -3.095980  -15.108120    0.366860
  C     -3.605150  -13.822970    0.127700
  C     -1.770200  -15.360310    0.760410
  N     -0.685830  -15.557130    1.077040
  C     -3.842020  -17.502160    0.411010
  C     -4.824460  -18.437730    0.315320
  C     -4.618150  -19.792530    0.648100
  C     -5.564660  -20.759210    0.825110
  C     -5.156080  -22.190310    0.827780
  O     -4.027680  -22.619030    0.893950
  C     -6.411140  -22.954130    0.680270
  C     -6.582070  -24.300960    0.539710
  C     -7.889700  -24.816310    0.396130
  C     -8.996720  -23.918780    0.389630
  C    -10.298850  -24.437790    0.242720
  C    -10.492870  -25.784380    0.113370
  C     -9.397230  -26.671300    0.121460
  C     -8.122140  -26.198650    0.259100
  F     -9.617520  -27.985870   -0.007910
  F    -11.730960  -26.275750   -0.022790
  C     -8.788300  -22.528490    0.538730
  C     -7.513460  -22.052200    0.692610
  C     -7.006420  -20.698850    0.918900
  C     -7.766380  -19.642590    1.352370
  C     -7.261510  -18.423380    1.850950
  N     -6.931770  -17.424480    2.311300
  C     -9.173550  -19.677520    1.451280
  N    -10.318180  -19.632430    1.525990
  H     -8.295120    2.204540    0.755650
  H     -4.602120   -1.089260    1.082280
  H     -9.259170    0.973910   -1.115750
  H     -5.544380   -2.343540   -0.852050
  H    -10.512310   -3.342400   -4.563040
  H     -7.827950   -7.524200   -5.750510
  H     -7.467870   -7.685640   -3.141160
  H    -10.425700   -3.993300   -1.656820
  H     -9.252620   -3.005200    0.515170
  H     -5.928250   -6.613910    0.020010
  H     -8.153180   -8.323110   -1.224710
  H     -4.593270   -8.289530    0.131990
  H     -3.503720  -10.495920    0.413630
  H     -8.468060  -11.244870   -1.494240
  H     -7.645590  -13.587920   -1.266230
  H     -3.020910  -12.926780    0.224430
  H     -2.853360  -17.793270    0.744730
  H     -5.805080  -18.127100   -0.018540
  H     -3.590960  -20.132430    0.733710
  H     -5.730910  -24.964640    0.541520
  H    -11.148940  -23.773540    0.238470
  H     -7.294280  -26.890230    0.263650
  H     -9.645240  -21.874380    0.522000

 Total Charge           Charge          ....    0
 Multiplicity           Mult            ....    1
 Number of Electrons    NEL             ....  540
 Basis Dimension        Dim             .... 1225

ORBITAL ENERGIES
----------------

  NO   OCC          E(Eh)            E(eV)
   0   2.0000     -88.986204     -2421.4377
   1   2.0000     -24.801535      -674.8841
   2   2.0000     -24.801006      -674.8697
   3   2.0000     -24.799573      -674.8307
   4   2.0000     -24.799172      -674.8198
   5   2.0000     -19.249613      -523.8086
   6   2.0000     -19.248831      -523.7873
   7   2.0000     -19.237889      -523.4896
   8   2.0000     -19.237793      -523.4870
   9   2.0000     -19.233515      -523.3706
  10   2.0000     -19.219433      -522.9874
  11   2.0000     -14.656831      -398.8326
  12   2.0000     -14.646818      -398.5602
  13   2.0000     -14.499526      -394.5522
  14   2.0000     -14.499425      -394.5494
  15   2.0000     -14.425649      -392.5419
  16   2.0000     -14.425365      -392.5341
  17   2.0000     -14.423368      -392.4798
  18   2.0000     -14.421961      -392.4415
  19   2.0000     -14.420186      -392.3932
  20   2.0000     -10.384909      -282.5877
  21   2.0000     -10.384421      -282.5745
  22   2.0000     -10.383511      -282.5497
  23   2.0000     -10.382929      -282.5339
  24   2.0000     -10.381173      -282.4861
  25   2.0000     -10.370408      -282.1932
  26   2.0000     -10.356046      -281.8023
  27   2.0000     -10.352812      -281.7143
  28   2.0000     -10.351390      -281.6756
  29   2.0000     -10.349457      -281.6230
  30   2.0000     -10.343420      -281.4588
  31   2.0000     -10.342135      -281.4238
  32   2.0000     -10.341196      -281.3982
  33   2.0000     -10.339486      -281.3517
  34   2.0000     -10.338114      -281.3144
  35   2.0000     -10.336862      -281.2803
  36   2.0000     -10.336370      -281.2669
  37   2.0000     -10.335274      -281.2371
  38   2.0000     -10.333690      -281.1940
  39   2.0000     -10.333416      -281.1865
  40   2.0000     -10.332848      -281.1711
  41   2.0000     -10.332397      -281.1588
  42   2.0000     -10.330241      -281.1001
  43   2.0000     -10.327495      -281.0254
  44   2.0000     -10.326603      -281.0011
  45   2.0000     -10.326110      -280.9878
  46   2.0000     -10.325634      -280.9748
  47   2.0000     -10.325265      -280.9647
  48   2.0000     -10.324920      -280.9554
  49   2.0000     -10.322507      -280.8897
  50   2.0000     -10.322175      -280.8807
  51   2.0000     -10.319704      -280.8134
  52   2.0000     -10.316476      -280.7256
  53   2.0000     -10.315718      -280.7050
  54   2.0000     -10.315099      -280.6881
  55   2.0000     -10.314534      -280.6727
  56   2.0000     -10.314157      -280.6625
  57   2.0000     -10.313904      -280.6556
  58   2.0000     -10.312725      -280.6235
  59   2.0000     -10.309718      -280.5417
  60   2.0000     -10.309037      -280.5232
  61   2.0000     -10.307934      -280.4932
  62   2.0000     -10.307729      -280.4876
  63   2.0000     -10.306878      -280.4644
  64   2.0000     -10.306500      -280.4541
  65   2.0000     -10.305960      -280.4394
  66   2.0000     -10.304954      -280.4120
  67   2.0000     -10.304650      -280.4038
  68   2.0000     -10.304193      -280.3914
  69   2.0000     -10.304106      -280.3890
  70   2.0000     -10.302760      -280.3523
  71   2.0000     -10.302496      -280.3452
  72   2.0000     -10.301999      -280.3316
  73   2.0000     -10.301977      -280.3311
  74   2.0000     -10.298901      -280.2473
  75   2.0000     -10.298027      -280.2236
  76   2.0000     -10.297616      -280.2124
  77   2.0000     -10.293999      -280.1139
  78   2.0000     -10.290024      -280.0058
  79   2.0000      -8.081589      -219.9112
  80   2.0000      -6.050785      -164.6502
  81   2.0000      -6.046774      -164.5411
  82   2.0000      -6.043724      -164.4581
  83   2.0000      -1.328476       -36.1497
  84   2.0000      -1.324406       -36.0389
  85   2.0000      -1.322924       -35.9986
  86   2.0000      -1.314311       -35.7642
  87   2.0000      -1.309534       -35.6342
  88   2.0000      -1.307949       -35.5911
  89   2.0000      -1.149265       -31.2731
  90   2.0000      -1.147068       -31.2133
  91   2.0000      -1.134953       -30.8837
  92   2.0000      -1.130966       -30.7751
  93   2.0000      -1.126826       -30.6625
  94   2.0000      -1.096850       -29.8468
  95   2.0000      -1.030542       -28.0425
  96   2.0000      -1.026563       -27.9342
  97   2.0000      -1.025501       -27.9053
  98   2.0000      -1.024653       -27.8822
  99   2.0000      -1.011366       -27.5207
 100   2.0000      -1.009332       -27.4653
 101   2.0000      -1.005767       -27.3683
 102   2.0000      -1.003732       -27.3129
 103   2.0000      -1.001416       -27.2499
 104   2.0000      -0.998303       -27.1652
 105   2.0000      -0.987788       -26.8791
 106   2.0000      -0.986205       -26.8360
 107   2.0000      -0.946702       -25.7611
 108   2.0000      -0.939738       -25.5716
 109   2.0000      -0.936929       -25.4951
 110   2.0000      -0.930324       -25.3154
 111   2.0000      -0.920660       -25.0524
 112   2.0000      -0.919124       -25.0106
 113   2.0000      -0.915697       -24.9174
 114   2.0000      -0.903162       -24.5763
 115   2.0000      -0.898217       -24.4417
 116   2.0000      -0.896480       -24.3944
 117   2.0000      -0.893150       -24.3038
 118   2.0000      -0.891404       -24.2563
 119   2.0000      -0.885605       -24.0985
 120   2.0000      -0.876569       -23.8526
 121   2.0000      -0.873030       -23.7564
 122   2.0000      -0.855393       -23.2764
 123   2.0000      -0.845998       -23.0208
 124   2.0000      -0.844735       -22.9864
 125   2.0000      -0.840166       -22.8621
 126   2.0000      -0.834224       -22.7004
 127   2.0000      -0.819604       -22.3026
 128   2.0000      -0.799927       -21.7671
 129   2.0000      -0.796385       -21.6707
 130   2.0000      -0.782990       -21.3062
 131   2.0000      -0.776015       -21.1164
 132   2.0000      -0.772556       -21.0223
 133   2.0000      -0.764676       -20.8079
 134   2.0000      -0.756024       -20.5725
 135   2.0000      -0.741437       -20.1755
 136   2.0000      -0.740519       -20.1505
 137   2.0000      -0.737598       -20.0711
 138   2.0000      -0.730697       -19.8833
 139   2.0000      -0.725773       -19.7493
 140   2.0000      -0.723873       -19.6976
 141   2.0000      -0.722411       -19.6578
 142   2.0000      -0.710510       -19.3340
 143   2.0000      -0.702095       -19.1050
 144   2.0000      -0.695443       -18.9240
 145   2.0000      -0.693362       -18.8673
 146   2.0000      -0.689518       -18.7627
 147   2.0000      -0.681742       -18.5512
 148   2.0000      -0.671404       -18.2698
 149   2.0000      -0.670034       -18.2326
 150   2.0000      -0.662785       -18.0353
 151   2.0000      -0.659651       -17.9500
 152   2.0000      -0.658327       -17.9140
 153   2.0000      -0.655977       -17.8501
 154   2.0000      -0.647908       -17.6305
 155   2.0000      -0.647253       -17.6126
 156   2.0000      -0.646149       -17.5826
 157   2.0000      -0.639252       -17.3949
 158   2.0000      -0.638047       -17.3622
 159   2.0000      -0.633933       -17.2502
 160   2.0000      -0.629911       -17.1408
 161   2.0000      -0.628885       -17.1128
 162   2.0000      -0.628533       -17.1032
 163   2.0000      -0.623089       -16.9551
 164   2.0000      -0.621945       -16.9240
 165   2.0000      -0.618740       -16.8368
 166   2.0000      -0.616372       -16.7723
 167   2.0000      -0.614789       -16.7293
 168   2.0000      -0.599101       -16.3024
 169   2.0000      -0.595236       -16.1972
 170   2.0000      -0.591698       -16.1009
 171   2.0000      -0.589339       -16.0367
 172   2.0000      -0.588870       -16.0240
 173   2.0000      -0.587092       -15.9756
 174   2.0000      -0.585464       -15.9313
 175   2.0000      -0.583530       -15.8787
 176   2.0000      -0.579651       -15.7731
 177   2.0000      -0.575064       -15.6483
 178   2.0000      -0.570387       -15.5210
 179   2.0000      -0.566302       -15.4099
 180   2.0000      -0.561155       -15.2698
 181   2.0000      -0.559147       -15.2152
 182   2.0000      -0.559080       -15.2133
 183   2.0000      -0.556767       -15.1504
 184   2.0000      -0.554505       -15.0888
 185   2.0000      -0.551696       -15.0124
 186   2.0000      -0.550467       -14.9790
 187   2.0000      -0.548416       -14.9231
 188   2.0000      -0.546505       -14.8711
 189   2.0000      -0.543940       -14.8014
 190   2.0000      -0.542291       -14.7565
 191   2.0000      -0.540536       -14.7087
 192   2.0000      -0.538365       -14.6497
 193   2.0000      -0.537011       -14.6128
 194   2.0000      -0.535864       -14.5816
 195   2.0000      -0.531661       -14.4672
 196   2.0000      -0.530026       -14.4228
 197   2.0000      -0.527548       -14.3553
 198   2.0000      -0.525807       -14.3079
 199   2.0000      -0.522441       -14.2163
 200   2.0000      -0.521536       -14.1917
 201   2.0000      -0.517005       -14.0684
 202   2.0000      -0.516393       -14.0518
 203   2.0000      -0.514994       -14.0137
 204   2.0000      -0.510237       -13.8843
 205   2.0000      -0.508501       -13.8370
 206   2.0000      -0.504926       -13.7397
 207   2.0000      -0.504261       -13.7216
 208   2.0000      -0.502381       -13.6705
 209   2.0000      -0.500707       -13.6249
 210   2.0000      -0.498704       -13.5704
 211   2.0000      -0.497790       -13.5456
 212   2.0000      -0.493470       -13.4280
 213   2.0000      -0.489213       -13.3122
 214   2.0000      -0.485816       -13.2197
 215   2.0000      -0.484636       -13.1876
 216   2.0000      -0.482609       -13.1324
 217   2.0000      -0.475395       -12.9362
 218   2.0000      -0.470690       -12.8081
 219   2.0000      -0.469682       -12.7807
 220   2.0000      -0.467687       -12.7264
 221   2.0000      -0.467164       -12.7122
 222   2.0000      -0.463271       -12.6062
 223   2.0000      -0.458591       -12.4789
 224   2.0000      -0.457904       -12.4602
 225   2.0000      -0.456032       -12.4093
 226   2.0000      -0.453297       -12.3348
 227   2.0000      -0.452131       -12.3031
 228   2.0000      -0.451900       -12.2968
 229   2.0000      -0.450327       -12.2540
 230   2.0000      -0.449937       -12.2434
 231   2.0000      -0.448781       -12.2119
 232   2.0000      -0.447440       -12.1755
 233   2.0000      -0.441346       -12.0096
 234   2.0000      -0.438810       -11.9406
 235   2.0000      -0.436764       -11.8849
 236   2.0000      -0.434420       -11.8212
 237   2.0000      -0.432168       -11.7599
 238   2.0000      -0.431714       -11.7475
 239   2.0000      -0.426653       -11.6098
 240   2.0000      -0.422358       -11.4930
 241   2.0000      -0.419947       -11.4273
 242   2.0000      -0.419228       -11.4078
 243   2.0000      -0.413113       -11.2414
 244   2.0000      -0.407944       -11.1007
 245   2.0000      -0.402010       -10.9393
 246   2.0000      -0.396028       -10.7765
 247   2.0000      -0.390863       -10.6359
 248   2.0000      -0.389832       -10.6079
 249   2.0000      -0.387149       -10.5349
 250   2.0000      -0.386180       -10.5085
 251   2.0000      -0.377516       -10.2727
 252   2.0000      -0.376646       -10.2491
 253   2.0000      -0.373853       -10.1731
 254   2.0000      -0.364792        -9.9265
 255   2.0000      -0.360110        -9.7991
 256   2.0000      -0.351464        -9.5638
 257   2.0000      -0.349457        -9.5092
 258   2.0000      -0.346526        -9.4294
 259   2.0000      -0.343890        -9.3577
 260   2.0000      -0.339834        -9.2474
 261   2.0000      -0.334478        -9.1016
 262   2.0000      -0.322866        -8.7856
 263   2.0000      -0.320777        -8.7288
 264   2.0000      -0.318900        -8.6777
 265   2.0000      -0.307776        -8.3750
 266   2.0000      -0.304950        -8.2981
 267   2.0000      -0.302673        -8.2362
 268   2.0000      -0.280250        -7.6260
 269   2.0000      -0.253080        -6.8867
 270   0.0000      -0.135047        -3.6748
 271   0.0000      -0.109987        -2.9929
 272   0.0000      -0.098257        -2.6737
 273   0.0000      -0.068769        -1.8713
 274   0.0000      -0.066388        -1.8065

MULLIKEN ATOMIC CHARGES
-----------------------
   0 C :   -0.111610
   1 C :    0.244446
   2 F :   -0.169388
   3 C :    0.237444
   4 F :   -0.168539
   5 C :   -0.083850
   6 C :    0.134061
   7 C :    0.118908
   8 C :   -0.096467
   9 C :    0.048649
  10 C :    0.004608
  11 C :   -0.086037
  12 C :    0.153681
  13 O :   -0.138410
  14 C :   -0.094855
  15 C :    0.330901
  16 C :   -0.337239
  17 C :   -0.186553
  18 N :    0.163225
  19 C :   -0.190258
  20 N :    0.165937
  21 C :   -0.033294
  22 C :   -0.003985
  23 C :    0.114407
  24 N :    0.269634
  25 O :   -0.237716
  26 O :   -0.237308
  27 C :    0.010063
  28 C :    0.012942
  29 C :    0.118976
  30 C :   -0.021556
  31 C :    0.003162
  32 C :    0.023710
  33 C :    0.033882
  34 N :    0.279083
  35 O :   -0.275275
  36 O :   -0.265424
  37 C :    0.054335
  38 C :   -0.086135
  39 C :    0.037803
  40 C :   -0.046847
  41 N :   -0.033562
  42 C :   -0.027225
  43 C :    0.043639
  44 C :    0.069740
  45 N :   -0.021781
  46 C :    0.012755
  47 C :    0.073975
  48 C :   -0.037485
  49 S :    0.151390
  50 C :   -0.041426
  51 C :   -0.030539
  52 C :   -0.010456
  53 C :   -0.197172
  54 N :    0.143313
  55 C :    0.012888
  56 C :   -0.001358
  57 C :    0.020158
  58 C :   -0.111113
  59 C :    0.142327
  60 O :   -0.137869
  61 C :    0.003060
  62 C :   -0.079191
  63 C :    0.113552
  64 C :    0.111936
  65 C :   -0.107412
  66 C :    0.240502
  67 C :    0.238462
  68 C :   -0.103510
  69 F :   -0.171100
  70 F :   -0.170414
  71 C :   -0.082685
  72 C :    0.038913
  73 C :    0.296930
  74 C :   -0.340394
  75 C :   -0.221287
  76 N :    0.171819
  77 C :   -0.179193
  78 N :    0.144856
  79 H :    0.008190
  80 H :    0.002931
  81 H :   -0.003880
  82 H :   -0.008388
  83 H :    0.050117
  84 H :    0.001993
  85 H :   -0.024679
  86 H :   -0.003395
  87 H :    0.004546
  88 H :   -0.000132
  89 H :   -0.005338
  90 H :    0.144300
  91 H :    0.018327
  92 H :    0.134740
  93 H :    0.014556
  94 H :   -0.023590
  95 H :    0.028069
  96 H :    0.025069
  97 H :    0.024953
  98 H :   -0.007050
  99 H :    0.007609
 100 H :    0.001273
 101 H :   -0.004373
Sum of atomic charges:   -0.0000000

LOEWDIN ATOMIC CHARGES
----------------------
   0 C :   -0.031197
   1 C :    0.070416
   2 F :   -0.046540
   3 C :    0.071239
   4 F :   -0.045350
   5 C :   -0.021958
   6 C :   -0.001811
   7 C :   -0.004187
   8 C :    0.018745
   9 C :   -0.024928
  10 C :   -0.053738
  11 C :    0.033646
  12 C :    0.086350
  13 O :   -0.130290
  14 C :   -0.061771
  15 C :    0.071674
  16 C :   -0.124883
  17 C :   -0.018005
  18 N :   -0.042673
  19 C :   -0.021108
  20 N :   -0.035015
  21 C :    0.067785
  22 C :    0.008207
  23 C :   -0.023983
  24 N :    0.285051
  25 O :   -0.201659
  26 O :   -0.198077
  27 C :    0.009974
  28 C :   -0.028374
  29 C :    0.034717
  30 C :    0.040734
  31 C :   -0.057862
  32 C :    0.019378
  33 C :   -0.079703
  34 N :    0.288069
  35 O :   -0.239243
  36 O :   -0.233214
  37 C :    0.037348
  38 C :   -0.057425
  39 C :    0.008084
  40 C :   -0.058832
  41 N :    0.114749
  42 C :    0.024803
  43 C :   -0.074385
  44 C :    0.000094
  45 N :    0.083481
  46 C :    0.028290
  47 C :   -0.093017
  48 C :   -0.129328
  49 S :    0.473917
  50 C :   -0.153159
  51 C :   -0.079525
  52 C :   -0.045693
  53 C :   -0.033067
  54 N :   -0.044509
  55 C :    0.019534
  56 C :   -0.035811
  57 C :    0.070178
  58 C :   -0.094543
  59 C :    0.081193
  60 O :   -0.140317
  61 C :   -0.053701
  62 C :    0.030881
  63 C :   -0.008918
  64 C :   -0.006127
  65 C :   -0.030312
  66 C :    0.066919
  67 C :    0.067510
  68 C :   -0.032516
  69 F :   -0.048452
  70 F :   -0.048146
  71 C :    0.013965
  72 C :   -0.020965
  73 C :    0.071239
  74 C :   -0.140519
  75 C :   -0.025726
  76 N :   -0.052422
  77 C :   -0.018404
  78 N :   -0.053484
  79 H :    0.047569
  80 H :    0.046983
  81 H :    0.040406
  82 H :    0.039432
  83 H :    0.052471
  84 H :    0.038675
  85 H :    0.028011
  86 H :    0.029081
  87 H :    0.037578
  88 H :    0.025893
  89 H :    0.034167
  90 H :    0.100694
  91 H :    0.028737
  92 H :    0.097552
  93 H :    0.026630
  94 H :    0.035519
  95 H :    0.048966
  96 H :    0.026504
  97 H :    0.048511
  98 H :    0.041251
  99 H :    0.047420
 100 H :    0.045312
 101 H :    0.039332

  Mayer bond orders larger than 0.100000
B(  0-C ,  1-C ) :   1.4442 B(  0-C ,  5-C ) :   0.1069 B(  0-C ,  7-C ) :   1.1853
B(  0-C , 79-H ) :   1.0065 B(  1-C ,  2-F ) :   1.1363 B(  1-C ,  3-C ) :   1.1860
B(  3-C ,  4-F ) :   1.1361 B(  3-C ,  5-C ) :   1.4472 B(  5-C ,  6-C ) :   1.1954
B(  5-C , 80-H ) :   1.0046 B(  6-C ,  7-C ) :   1.2505 B(  6-C , 11-C ) :   1.1941
B(  7-C ,  8-C ) :   1.2232 B(  8-C ,  9-C ) :   1.4380 B(  8-C , 81-H ) :   0.9909
B(  9-C , 10-C ) :   1.2188 B(  9-C , 15-C ) :   0.9944 B( 10-C , 11-C ) :   1.4601
B( 10-C , 12-C ) :   0.9435 B( 11-C , 82-H ) :   1.0153 B( 12-C , 13-O ) :   2.2118
B( 12-C , 14-C ) :   0.9172 B( 14-C , 15-C ) :   1.0344 B( 14-C , 21-C ) :   1.7154
B( 15-C , 16-C ) :   1.6690 B( 16-C , 17-C ) :   1.1373 B( 16-C , 19-C ) :   1.1438
B( 17-C , 18-N ) :   2.9725 B( 19-C , 20-N ) :   2.9722 B( 21-C , 22-C ) :   1.0515
B( 21-C , 83-H ) :   0.9137 B( 22-C , 23-C ) :   1.6124 B( 22-C , 29-C ) :   1.0484
B( 23-C , 24-N ) :   0.9309 B( 23-C , 27-C ) :   1.1251 B( 24-N , 25-O ) :   1.5322
B( 24-N , 26-O ) :   1.5044 B( 25-O , 26-O ) :   0.2695 B( 27-C , 28-C ) :   1.6071
B( 27-C , 84-H ) :   1.0120 B( 28-C , 29-C ) :   1.0908 B( 28-C , 85-H ) :   1.0058
B( 29-C , 30-C ) :   1.5326 B( 30-C , 31-C ) :   1.1270 B( 30-C , 37-C ) :   1.0148
B( 31-C , 32-C ) :   1.5734 B( 31-C , 86-H ) :   0.9815 B( 32-C , 33-C ) :   1.1193
B( 32-C , 87-H ) :   1.0126 B( 33-C , 34-N ) :   0.9921 B( 33-C , 37-C ) :   1.4693
B( 34-N , 35-O ) :   1.4679 B( 34-N , 36-O ) :   1.5071 B( 35-O , 36-O ) :   0.2342
B( 37-C , 38-C ) :   1.2421 B( 38-C , 39-C ) :   1.4848 B( 38-C , 88-H ) :   0.9422
B( 39-C , 40-C ) :   1.2373 B( 39-C , 89-H ) :   0.9628 B( 40-C , 41-N ) :   1.2056
B( 40-C , 42-C ) :   0.1006 B( 40-C , 44-C ) :   1.1839 B( 41-N , 42-C ) :   1.2960
B( 41-N , 90-H ) :   0.9237 B( 42-C , 43-C ) :   1.3401 B( 42-C , 91-H ) :   0.9889
B( 43-C , 44-C ) :   1.3279 B( 43-C , 47-C ) :   1.1233 B( 44-C , 45-N ) :   1.2034
B( 45-N , 46-C ) :   1.1945 B( 45-N , 92-H ) :   0.9371 B( 46-C , 47-C ) :   1.5098
B( 46-C , 93-H ) :   0.9807 B( 47-C , 48-C ) :   1.1014 B( 48-C , 49-S ) :   1.1492
B( 48-C , 52-C ) :   1.4856 B( 49-S , 50-C ) :   1.1049 B( 50-C , 51-C ) :   1.4398
B( 50-C , 55-C ) :   1.1871 B( 51-C , 52-C ) :   1.2812 B( 51-C , 53-C ) :   1.0967
B( 52-C , 94-H ) :   1.0047 B( 53-C , 54-N ) :   3.0223 B( 55-C , 56-C ) :   1.6009
B( 55-C , 95-H ) :   0.9729 B( 56-C , 57-C ) :   1.1477 B( 56-C , 96-H ) :   0.9600
B( 57-C , 58-C ) :   1.5904 B( 57-C , 97-H ) :   0.9587 B( 58-C , 59-C ) :   0.9417
B( 58-C , 73-C ) :   1.0462 B( 59-C , 60-O ) :   2.2734 B( 59-C , 61-C ) :   0.9188
B( 61-C , 62-C ) :   1.4786 B( 61-C , 72-C ) :   1.2200 B( 62-C , 63-C ) :   1.1936
B( 62-C , 98-H ) :   1.0160 B( 63-C , 64-C ) :   1.2541 B( 63-C , 68-C ) :   1.1940
B( 64-C , 65-C ) :   1.1897 B( 64-C , 71-C ) :   1.2182 B( 65-C , 66-C ) :   1.4432
B( 65-C , 68-C ) :   0.1081 B( 65-C , 99-H ) :   1.0067 B( 66-C , 67-C ) :   1.1897
B( 66-C , 70-F ) :   1.1358 B( 67-C , 68-C ) :   1.4442 B( 67-C , 69-F ) :   1.1337
B( 68-C ,100-H ) :   1.0070 B( 71-C , 72-C ) :   1.4538 B( 71-C ,101-H ) :   0.9916
B( 72-C , 73-C ) :   0.9996 B( 73-C , 74-C ) :   1.6320 B( 74-C , 75-C ) :   1.1602
B( 74-C , 77-C ) :   1.1322 B( 75-C , 76-N ) :   3.0112 B( 77-C , 78-N ) :   2.9779

-----------------------------------------------------------------------------
         ABSORPTION SPECTRUM VIA TRANSITION ELECTRIC DIPOLE MOMENTS
-----------------------------------------------------------------------------
State   Energy  Wavelength   fosc         T2         TX        TY        TZ
        (cm-1)    (nm)                  (au**2)     (au)      (au)      (au)
-----------------------------------------------------------------------------
   0    8956.4   1116.5   0.247179058   9.08562  -0.89006   2.77490  -0.77029
   1   16856.8    593.2   0.445310875   8.69687   0.14040   2.92781  -0.32414
   2   17716.7    564.4   0.524286566   9.74229  -0.69086  -3.01008   0.45214
   3   19067.3    524.5   0.015159721   0.26174   0.43997   0.23433  -0.11517
   4   19410.4    515.2   0.036544619   0.61982   0.50498  -0.60246   0.04315
   5   20745.3    482.0   0.004389771   0.06966   0.00169   0.10349   0.24280
   6   22605.7    442.4   0.021699396   0.31601  -0.21634   0.40281   0.32704
   7   23413.0    427.1   0.203112653   2.85599   1.61719   0.48317  -0.08497
   8   23952.1    417.5   0.077383855   1.06361   0.17299  -0.66569   0.76846
   9   24537.1    407.5   0.125183365   1.67958  -0.41538   1.21217  -0.19411
  10   25100.0    398.4   0.099977023   1.31130  -0.47597   1.01080  -0.25106
  11   25667.0    389.6   0.294418060   3.77628   0.52665  -1.77537  -0.58904
  12   25964.5    385.1   0.002246085   0.02848  -0.05126   0.14776   0.06340
  13   26294.1    380.3   0.072708096   0.91033   0.39290   0.79482   0.35245
  14   26957.7    371.0   0.020876961   0.25495   0.12866   0.48657   0.04056
  15   27308.4    366.2   0.081801547   0.98614  -0.12397  -0.96818  -0.18277
  16   27678.5    361.3   0.057986953   0.68970  -0.37933  -0.17461  -0.71786
  17   27835.4    359.3   0.013142831   0.15544  -0.13632  -0.36677   0.04834
  18   27941.7    357.9   0.018835210   0.22192   0.03408  -0.46921   0.02452
  19   28366.1    352.5   0.175042844   2.03151  -0.36536   1.37634  -0.06088
  20   28703.1    348.4   0.084105018   0.96465  -0.61457  -0.61116  -0.46200
  21   29233.0    342.1   0.171350618   1.92969  -0.10062  -1.35252  -0.30042
  22   29655.2    337.2   0.020080955   0.22292  -0.07872   0.13461   0.44565
  23   29817.5    335.4   0.025446387   0.28095  -0.39874   0.25725  -0.23618
  24   30419.0    328.7   0.172425542   1.86609   0.31503  -0.04521  -1.32846
  25   30654.7    326.2   0.027377810   0.29402   0.01327  -0.52747  -0.12496
  26   31297.6    319.5   0.085194923   0.89615  -0.39168  -0.81466  -0.28117
  27   31336.0    319.1   0.228444447   2.40001  -0.12942   1.03011   1.14984
  28   32326.9    309.3   0.029430679   0.29972   0.33935  -0.03713  -0.42800
  29   32452.9    308.1   0.055353033   0.56152   0.73923  -0.12258   0.00509
  30   32538.1    307.3   0.070350118   0.71178   0.52567   0.36480   0.54989
  31   32869.3    304.2   0.478130460   4.78885  -1.09546  -0.99578  -1.61159
  32   33168.4    301.5   0.061699559   0.61240   0.66890  -0.39970  -0.07218
  33   33362.0    299.7   0.049804569   0.49147   0.09535   0.66030   0.21537
  34   33500.4    298.5   0.290439153   2.85417   0.26755  -1.55814   0.59565
  35   33742.9    296.4   0.231896446   2.26249  -0.51265  -1.08954  -0.90143
  36   33835.1    295.6   0.070852336   0.68939  -0.36593   0.74472   0.02950
  37   34182.4    292.5   0.144846197   1.39502   0.14214   1.15571   0.19785
  38   34210.7    292.3   0.183195907   1.76291   0.25748   1.30004   0.08061
  39   34383.3    290.8   0.018764049   0.17966  -0.26100  -0.28930   0.16688
  40   34769.8    287.6   0.200809536   1.90133   1.09849   0.30770   0.77458
  41   34898.7    286.5   0.045058822   0.42506  -0.13911  -0.63628  -0.02912
  42   35063.6    285.2   0.049073304   0.46075   0.33754  -0.58857   0.01999
  43   35124.5    284.7   0.085211102   0.79866   0.75366   0.21902   0.42742
  44   35321.7    283.1   0.001424961   0.01328   0.01679  -0.11399  -0.00230
  45   35608.6    280.8   0.238820993   2.20797  -1.35755   0.03680  -0.60306
  46   35819.5    279.2   0.077467105   0.71199  -0.61944  -0.19377  -0.53920
  47   36006.7    277.7   0.038731430   0.35412   0.35631  -0.46483  -0.10534
  48   36030.5    277.5   0.052831991   0.48273  -0.50764  -0.08270  -0.46711
  49   36256.8    275.8   0.148232412   1.34595  -0.13602  -0.96856  -0.62398
  50   36307.7    275.4   0.045369287   0.41138   0.18525  -0.14720  -0.59615
  51   36530.9    273.7   0.391177319   3.52525  -1.06260  -0.42181  -1.48936
  52   36722.3    272.3   0.038725110   0.34717   0.07302  -0.55110  -0.19526
  53   37163.9    269.1   0.011189575   0.09912  -0.03221   0.14188   0.27920
  54   37311.9    268.0   0.067788596   0.59812  -0.21606  -0.44064  -0.59772
  55   37537.0    266.4   0.007274606   0.06380   0.07514  -0.03950   0.23790
  56   37774.6    264.7   0.015321526   0.13353  -0.17672   0.06588   0.31298
  57   38003.1    263.1   0.136076629   1.17880  -0.62577   0.83286   0.30587
  58   38356.1    260.7   0.006085475   0.05223   0.06488  -0.19536  -0.09928
  59   38424.3    260.3   0.091313654   0.78236   0.06028  -0.83218  -0.29359
  60   38614.3    259.0   0.012914417   0.11010   0.19965  -0.26469  -0.01352
  61   38699.1    258.4   0.203201289   1.72863  -0.45701   1.15451   0.43229
  62   39083.5    255.9   0.196513993   1.65530  -0.22513  -0.34127  -1.21990
  63   39209.0    255.0   0.052142092   0.43780  -0.47275  -0.29724  -0.35491
  64   39606.7    252.5   0.073868181   0.61399   0.00866   0.26847  -0.73610
  65   39779.6    251.4   0.063921562   0.52901  -0.27662  -0.11031  -0.66357
  66   39875.5    250.8   0.066908352   0.55239   0.00439  -0.46930  -0.57631
  67   40217.9    248.6   0.021641144   0.17715   0.09318   0.26260   0.31545

FINAL SINGLE POINT ENERGY     -3998.851284936765

DIPOLE MOMENT
-------------
                                X             Y             Z
Electronic contribution:     -9.62315      -4.58389       6.66112
Nuclear contribution   :     10.21759       2.46545      -6.77622
                        -----------------------------------------
Total Dipole Moment    :      0.59444      -2.11844      -0.11511
                        -----------------------------------------
Magnitude (a.u.)       :      2.20327
Magnitude (Debye)      :      5.60027

Rotational constants in cm-1:     0.001643     0.000185     0.000175
Rotational constants in MHz :    49.254088     5.531883     5.248613

                             ****ORCA TERMINATED NORMALLY****
TOTAL RUN TIME: 0 days 0 hours 13 minutes 58 seconds 92 msec
