                         Program Version 4.2.0 -  RELEASE  -
|  1> # ORCA input file
|  2> # SCF done       -210.031132124927          0.000402779069
|  3> ! CAM-B3LYP def2-SVP def2/J RIJCOSX Grid4 TightSCF
|  4> %maxcore 5000
|  5> %tddft
|  6>     Mode sTDDFT
|  7>     Ethresh 5.0
|  8>     maxcore 5000
|  9> end
| 10>
| 11> %pal
| 12>   nprocs 6
| 13>   end
| 14> * xyz 0 1
| 15>    C        6.90470        -4.03783         7.26024
| 16>    O        5.71524        -4.57979         7.09098
| 17>    C        4.95779        -4.29176         8.19105
| 18>    C        5.70105        -3.54110         9.07428
| 19>    C        6.97700        -3.37074         8.47216
| 20>    C        8.14684        -2.66262         8.95005
| 21>    O        9.20421        -2.57807         8.38282
| 22>    C        7.94344        -1.96497        10.32827
| 23>    F        6.93541        -1.07750        10.28233
| 24>    F        7.63369        -2.85197        11.28777
| 25>    F        9.03088        -1.31207        10.72407
| 26>    C        3.61087        -4.74662         8.29303
| 27>    C        3.00319        -5.45272         7.30791
| 28>    C        1.67874        -5.96916         7.28465
| 29>    C        0.80379        -6.36651         8.28819
| 30>    N        0.87820        -6.24401         9.68800
| 31>    O        0.18387        -7.00329        10.34147
| 32>    O        1.60022        -5.39374        10.18367
| 33>    C       -0.29998        -7.08409         7.69821
| 34>    C       -0.12466        -7.15087         6.35645
| 35>    C        1.07350        -6.44027         6.01828
| 36>    C        1.49539        -6.10863         4.74762
| 37>    C        2.23752        -4.94655         4.36725
| 38>    C        2.24446        -4.86218         3.01051
| 39>    C        1.55221        -5.99187         2.45686
| 40>    N        1.52588        -6.17851         1.06550
| 41>    O        0.81174        -7.04642         0.58277
| 42>    O        2.23201        -5.44459         0.39519
| 43>    C        1.09074        -6.79921         3.50223
| 44>    C        0.56553        -8.10626         3.55813
| 45>    C       -0.12070        -8.78626         2.58897
| 46>    C       -0.58086       -10.10030         2.79596
| 47>    N       -1.28994       -10.81169         1.85945
| 48>    C       -1.61500       -10.38238         0.51751
| 49>    C       -0.40183       -10.40622        -0.40736
| 50>    C       -1.65799       -12.08040         2.32536
| 51>    O       -2.29674       -12.88304         1.67576
| 52>    C       -1.12367       -12.13875         3.67380
| 53>    C       -0.46599       -10.91902         3.93215
| 54>    C        0.06554       -10.97720         5.27756
| 55>    O        0.71036       -10.18458         5.93550
| 56>    N       -0.31461       -12.24691         5.74844
| 57>    C       -0.00628       -12.66057         7.09684
| 58>    C       -1.20472       -12.49521         8.02776
| 59>    C       -1.02624       -12.95137         4.81017
| 60>    C       -1.52825       -14.26148         5.01569
| 61>    C       -2.25923       -14.90519         4.07223
| 62>    C       -2.81072       -16.22769         4.17430
| 63>    C       -3.62953       -16.68635         3.13718
| 64>    C       -4.18246       -17.95274         3.16393
| 65>    N       -4.97978       -18.32761         2.01951
| 66>    O       -5.53153       -17.43273         1.41811
| 67>    O       -5.04524       -19.50157         1.72089
| 68>    C       -3.95256       -18.83874         4.23827
| 69>    C       -3.13417       -18.35943         5.27514
| 70>    C       -2.57778       -17.10442         5.24751
| 71>    C       -4.56184       -20.14053         4.31687
| 72>    C       -4.09514       -21.16153         5.06979
| 73>    C       -4.72946       -22.43301         5.11279
| 74>    O       -5.82613       -22.68869         4.39442
| 75>    C       -6.19854       -23.97344         4.61554
| 76>    C       -5.33130       -24.56812         5.49836
| 77>    C       -4.36577       -23.58407         5.83530
| 78>    C       -3.23876       -23.68564         6.72283
| 79>    O       -2.45967       -22.80628         7.00990
| 80>    C       -3.05352       -25.09665         7.35255
| 81>    F       -4.12013       -25.45536         8.08880
| 82>    F       -2.89914       -26.04533         6.41328
| 83>    F       -1.98917       -25.15040         8.14785
| 84>    C       -7.35582       -24.51372         3.95037
| 85>    C       -8.09226       -23.83141         3.07738
| 86>    H        7.64329        -4.15853         6.49112
| 87>    H        5.36812        -3.17293        10.02209
| 88>    H        3.09402        -4.48214         9.20204
| 89>    H        3.57905        -5.65482         6.41362
| 90>    H       -1.11666        -7.47473         8.27516
| 91>    H       -0.82204        -7.55177         5.64830
| 92>    H        2.60783        -4.20243         5.04481
| 93>    H        2.67885        -4.08823         2.40596
| 94>    H        0.72888        -8.61216         4.50126
| 95>    H       -0.34269        -8.31345         1.64650
| 96>    H       -2.05147        -9.38079         0.55046
| 97>    H       -2.37010       -11.08648         0.15707
| 98>    H        0.33518        -9.66487        -0.11083
| 99>    H       -0.71947       -10.18448        -1.42188
|100>    H        0.05986       -11.39067        -0.39590
|101>    H        0.80872       -12.01382         7.43309
|102>    H        0.34654       -13.69536         7.09071
|103>    H       -1.50736       -11.45171         8.06069
|104>    H       -0.93415       -12.80706         9.03234
|105>    H       -2.05005       -13.09096         7.69003
|106>    H       -1.30939       -14.73030         5.96363
|107>    H       -2.46864       -14.38913         3.14417
|108>    H       -3.83276       -16.04811         2.28900
|109>    H       -2.95722       -18.99526         6.12782
|110>    H       -1.95035       -16.79514         6.06844
|111>    H       -5.43628       -20.32444         3.70865
|112>    H       -3.19214       -21.08584         5.65579
|113>    H       -5.38556       -25.57618         5.85325
|114>    H       -7.58901       -25.53569         4.21098
|115>    H       -7.85336       -22.81474         2.81535
|116>    H       -8.94957       -24.27089         2.60017
|117> *
|118>
|119>                          ****END OF INPUT****

CARTESIAN COORDINATES (ANGSTROEM)
---------------------------------
  C      6.904700   -4.037830    7.260240
  O      5.715240   -4.579790    7.090980
  C      4.957790   -4.291760    8.191050
  C      5.701050   -3.541100    9.074280
  C      6.977000   -3.370740    8.472160
  C      8.146840   -2.662620    8.950050
  O      9.204210   -2.578070    8.382820
  C      7.943440   -1.964970   10.328270
  F      6.935410   -1.077500   10.282330
  F      7.633690   -2.851970   11.287770
  F      9.030880   -1.312070   10.724070
  C      3.610870   -4.746620    8.293030
  C      3.003190   -5.452720    7.307910
  C      1.678740   -5.969160    7.284650
  C      0.803790   -6.366510    8.288190
  N      0.878200   -6.244010    9.688000
  O      0.183870   -7.003290   10.341470
  O      1.600220   -5.393740   10.183670
  C     -0.299980   -7.084090    7.698210
  C     -0.124660   -7.150870    6.356450
  C      1.073500   -6.440270    6.018280
  C      1.495390   -6.108630    4.747620
  C      2.237520   -4.946550    4.367250
  C      2.244460   -4.862180    3.010510
  C      1.552210   -5.991870    2.456860
  N      1.525880   -6.178510    1.065500
  O      0.811740   -7.046420    0.582770
  O      2.232010   -5.444590    0.395190
  C      1.090740   -6.799210    3.502230
  C      0.565530   -8.106260    3.558130
  C     -0.120700   -8.786260    2.588970
  C     -0.580860  -10.100300    2.795960
  N     -1.289940  -10.811690    1.859450
  C     -1.615000  -10.382380    0.517510
  C     -0.401830  -10.406220   -0.407360
  C     -1.657990  -12.080400    2.325360
  O     -2.296740  -12.883040    1.675760
  C     -1.123670  -12.138750    3.673800
  C     -0.465990  -10.919020    3.932150
  C      0.065540  -10.977200    5.277560
  O      0.710360  -10.184580    5.935500
  N     -0.314610  -12.246910    5.748440
  C     -0.006280  -12.660570    7.096840
  C     -1.204720  -12.495210    8.027760
  C     -1.026240  -12.951370    4.810170
  C     -1.528250  -14.261480    5.015690
  C     -2.259230  -14.905190    4.072230
  C     -2.810720  -16.227690    4.174300
  C     -3.629530  -16.686350    3.137180
  C     -4.182460  -17.952740    3.163930
  N     -4.979780  -18.327610    2.019510
  O     -5.531530  -17.432730    1.418110
  O     -5.045240  -19.501570    1.720890
  C     -3.952560  -18.838740    4.238270
  C     -3.134170  -18.359430    5.275140
  C     -2.577780  -17.104420    5.247510
  C     -4.561840  -20.140530    4.316870
  C     -4.095140  -21.161530    5.069790
  C     -4.729460  -22.433010    5.112790
  O     -5.826130  -22.688690    4.394420
  C     -6.198540  -23.973440    4.615540
  C     -5.331300  -24.568120    5.498360
  C     -4.365770  -23.584070    5.835300
  C     -3.238760  -23.685640    6.722830
  O     -2.459670  -22.806280    7.009900
  C     -3.053520  -25.096650    7.352550
  F     -4.120130  -25.455360    8.088800
  F     -2.899140  -26.045330    6.413280
  F     -1.989170  -25.150400    8.147850
  C     -7.355820  -24.513720    3.950370
  C     -8.092260  -23.831410    3.077380
  H      7.643290   -4.158530    6.491120
  H      5.368120   -3.172930   10.022090
  H      3.094020   -4.482140    9.202040
  H      3.579050   -5.654820    6.413620
  H     -1.116660   -7.474730    8.275160
  H     -0.822040   -7.551770    5.648300
  H      2.607830   -4.202430    5.044810
  H      2.678850   -4.088230    2.405960
  H      0.728880   -8.612160    4.501260
  H     -0.342690   -8.313450    1.646500
  H     -2.051470   -9.380790    0.550460
  H     -2.370100  -11.086480    0.157070
  H      0.335180   -9.664870   -0.110830
  H     -0.719470  -10.184480   -1.421880
  H      0.059860  -11.390670   -0.395900
  H      0.808720  -12.013820    7.433090
  H      0.346540  -13.695360    7.090710
  H     -1.507360  -11.451710    8.060690
  H     -0.934150  -12.807060    9.032340
  H     -2.050050  -13.090960    7.690030
  H     -1.309390  -14.730300    5.963630
  H     -2.468640  -14.389130    3.144170
  H     -3.832760  -16.048110    2.289000
  H     -2.957220  -18.995260    6.127820
  H     -1.950350  -16.795140    6.068440
  H     -5.436280  -20.324440    3.708650
  H     -3.192140  -21.085840    5.655790
  H     -5.385560  -25.576180    5.853250
  H     -7.589010  -25.535690    4.210980
  H     -7.853360  -22.814740    2.815350
  H     -8.949570  -24.270890    2.600170

 Total Charge           Charge          ....    0
 Multiplicity           Mult            ....    1
 Number of Electrons    NEL             ....  504
 Basis Dimension        Dim             .... 1149

ORBITAL ENERGIES
----------------

  NO   OCC          E(Eh)            E(eV)
   0   2.0000     -24.810996      -675.1415
   1   2.0000     -24.810294      -675.1224
   2   2.0000     -24.809788      -675.1087
   3   2.0000     -24.809433      -675.0990
   4   2.0000     -24.806046      -675.0068
   5   2.0000     -24.805025      -674.9790
   6   2.0000     -19.325532      -525.8745
   7   2.0000     -19.314383      -525.5711
   8   2.0000     -19.251579      -523.8621
   9   2.0000     -19.250390      -523.8297
  10   2.0000     -19.241284      -523.5820
  11   2.0000     -19.240051      -523.5484
  12   2.0000     -19.239791      -523.5413
  13   2.0000     -19.239019      -523.5203
  14   2.0000     -19.237980      -523.4920
  15   2.0000     -19.237007      -523.4656
  16   2.0000     -19.210388      -522.7412
  17   2.0000     -19.199511      -522.4453
  18   2.0000     -14.656599      -398.8263
  19   2.0000     -14.648210      -398.5981
  20   2.0000     -14.646867      -398.5615
  21   2.0000     -14.469445      -393.7336
  22   2.0000     -14.461941      -393.5294
  23   2.0000     -10.520257      -286.2708
  24   2.0000     -10.519480      -286.2496
  25   2.0000     -10.394381      -282.8455
  26   2.0000     -10.392003      -282.7808
  27   2.0000     -10.390810      -282.7483
  28   2.0000     -10.383220      -282.5418
  29   2.0000     -10.367115      -282.1035
  30   2.0000     -10.364785      -282.0401
  31   2.0000     -10.355756      -281.7944
  32   2.0000     -10.351566      -281.6804
  33   2.0000     -10.347413      -281.5674
  34   2.0000     -10.346518      -281.5431
  35   2.0000     -10.342554      -281.4352
  36   2.0000     -10.330812      -281.1157
  37   2.0000     -10.328637      -281.0565
  38   2.0000     -10.325898      -280.9820
  39   2.0000     -10.324815      -280.9525
  40   2.0000     -10.324744      -280.9506
  41   2.0000     -10.324364      -280.9402
  42   2.0000     -10.322264      -280.8831
  43   2.0000     -10.321614      -280.8654
  44   2.0000     -10.310991      -280.5763
  45   2.0000     -10.309641      -280.5396
  46   2.0000     -10.308567      -280.5104
  47   2.0000     -10.308349      -280.5044
  48   2.0000     -10.305814      -280.4354
  49   2.0000     -10.304673      -280.4044
  50   2.0000     -10.304459      -280.3986
  51   2.0000     -10.303455      -280.3713
  52   2.0000     -10.302300      -280.3398
  53   2.0000     -10.302057      -280.3332
  54   2.0000     -10.301558      -280.3196
  55   2.0000     -10.300682      -280.2958
  56   2.0000     -10.300095      -280.2798
  57   2.0000     -10.299459      -280.2625
  58   2.0000     -10.299351      -280.2596
  59   2.0000     -10.299138      -280.2538
  60   2.0000     -10.297792      -280.2172
  61   2.0000     -10.293923      -280.1119
  62   2.0000     -10.291990      -280.0593
  63   2.0000     -10.291695      -280.0513
  64   2.0000     -10.286737      -279.9163
  65   2.0000     -10.282235      -279.7938
  66   2.0000     -10.279168      -279.7104
  67   2.0000     -10.278588      -279.6946
  68   2.0000     -10.275424      -279.6085
  69   2.0000     -10.274333      -279.5788
  70   2.0000     -10.260146      -279.1928
  71   2.0000      -1.399002       -38.0688
  72   2.0000      -1.397750       -38.0347
  73   2.0000      -1.332728       -36.2654
  74   2.0000      -1.318019       -35.8651
  75   2.0000      -1.317632       -35.8546
  76   2.0000      -1.301914       -35.4269
  77   2.0000      -1.301443       -35.4141
  78   2.0000      -1.300403       -35.3858
  79   2.0000      -1.300236       -35.3812
  80   2.0000      -1.245965       -33.9044
  81   2.0000      -1.236218       -33.6392
  82   2.0000      -1.158499       -31.5244
  83   2.0000      -1.154656       -31.4198
  84   2.0000      -1.151248       -31.3271
  85   2.0000      -1.149268       -31.2732
  86   2.0000      -1.138824       -30.9890
  87   2.0000      -1.134341       -30.8670
  88   2.0000      -1.134189       -30.8629
  89   2.0000      -1.078464       -29.3465
  90   2.0000      -1.067231       -29.0408
  91   2.0000      -1.016683       -27.6653
  92   2.0000      -1.001833       -27.2613
  93   2.0000      -0.995707       -27.0946
  94   2.0000      -0.944582       -25.7034
  95   2.0000      -0.938710       -25.5436
  96   2.0000      -0.935561       -25.4579
  97   2.0000      -0.931245       -25.3405
  98   2.0000      -0.927611       -25.2416
  99   2.0000      -0.925939       -25.1961
 100   2.0000      -0.917336       -24.9620
 101   2.0000      -0.911181       -24.7945
 102   2.0000      -0.905533       -24.6408
 103   2.0000      -0.897631       -24.4258
 104   2.0000      -0.881790       -23.9947
 105   2.0000      -0.879819       -23.9411
 106   2.0000      -0.868789       -23.6409
 107   2.0000      -0.867646       -23.6098
 108   2.0000      -0.848922       -23.1003
 109   2.0000      -0.835657       -22.7394
 110   2.0000      -0.833378       -22.6774
 111   2.0000      -0.828850       -22.5542
 112   2.0000      -0.826841       -22.4995
 113   2.0000      -0.819317       -22.2948
 114   2.0000      -0.803904       -21.8753
 115   2.0000      -0.792794       -21.5730
 116   2.0000      -0.788966       -21.4689
 117   2.0000      -0.768581       -20.9142
 118   2.0000      -0.767669       -20.8893
 119   2.0000      -0.757594       -20.6152
 120   2.0000      -0.754663       -20.5354
 121   2.0000      -0.744309       -20.2537
 122   2.0000      -0.729897       -19.8615
 123   2.0000      -0.728764       -19.8307
 124   2.0000      -0.724112       -19.7041
 125   2.0000      -0.721703       -19.6385
 126   2.0000      -0.721239       -19.6259
 127   2.0000      -0.716914       -19.5082
 128   2.0000      -0.713712       -19.4211
 129   2.0000      -0.704116       -19.1600
 130   2.0000      -0.687565       -18.7096
 131   2.0000      -0.686460       -18.6795
 132   2.0000      -0.685265       -18.6470
 133   2.0000      -0.682098       -18.5608
 134   2.0000      -0.681000       -18.5310
 135   2.0000      -0.677073       -18.4241
 136   2.0000      -0.672726       -18.3058
 137   2.0000      -0.663370       -18.0512
 138   2.0000      -0.659668       -17.9505
 139   2.0000      -0.658607       -17.9216
 140   2.0000      -0.655738       -17.8435
 141   2.0000      -0.654792       -17.8178
 142   2.0000      -0.647434       -17.6176
 143   2.0000      -0.643422       -17.5084
 144   2.0000      -0.635485       -17.2924
 145   2.0000      -0.631031       -17.1712
 146   2.0000      -0.628165       -17.0932
 147   2.0000      -0.627160       -17.0659
 148   2.0000      -0.621570       -16.9138
 149   2.0000      -0.620520       -16.8852
 150   2.0000      -0.614703       -16.7269
 151   2.0000      -0.611669       -16.6444
 152   2.0000      -0.603328       -16.4174
 153   2.0000      -0.600464       -16.3394
 154   2.0000      -0.598531       -16.2869
 155   2.0000      -0.596173       -16.2227
 156   2.0000      -0.591835       -16.1046
 157   2.0000      -0.589386       -16.0380
 158   2.0000      -0.589102       -16.0303
 159   2.0000      -0.586547       -15.9608
 160   2.0000      -0.584101       -15.8942
 161   2.0000      -0.582628       -15.8541
 162   2.0000      -0.581996       -15.8369
 163   2.0000      -0.576920       -15.6988
 164   2.0000      -0.575100       -15.6493
 165   2.0000      -0.568763       -15.4768
 166   2.0000      -0.561908       -15.2903
 167   2.0000      -0.561513       -15.2796
 168   2.0000      -0.557983       -15.1835
 169   2.0000      -0.557082       -15.1590
 170   2.0000      -0.556006       -15.1297
 171   2.0000      -0.555095       -15.1049
 172   2.0000      -0.550304       -14.9745
 173   2.0000      -0.547892       -14.9089
 174   2.0000      -0.545122       -14.8335
 175   2.0000      -0.541758       -14.7420
 176   2.0000      -0.541032       -14.7222
 177   2.0000      -0.539066       -14.6687
 178   2.0000      -0.538051       -14.6411
 179   2.0000      -0.536141       -14.5892
 180   2.0000      -0.532444       -14.4885
 181   2.0000      -0.526711       -14.3325
 182   2.0000      -0.526590       -14.3293
 183   2.0000      -0.525787       -14.3074
 184   2.0000      -0.524931       -14.2841
 185   2.0000      -0.522469       -14.2171
 186   2.0000      -0.517891       -14.0925
 187   2.0000      -0.517679       -14.0868
 188   2.0000      -0.516223       -14.0471
 189   2.0000      -0.512348       -13.9417
 190   2.0000      -0.507926       -13.8214
 191   2.0000      -0.506323       -13.7777
 192   2.0000      -0.505909       -13.7665
 193   2.0000      -0.502017       -13.6606
 194   2.0000      -0.500725       -13.6254
 195   2.0000      -0.500394       -13.6164
 196   2.0000      -0.497139       -13.5278
 197   2.0000      -0.496170       -13.5015
 198   2.0000      -0.494826       -13.4649
 199   2.0000      -0.493609       -13.4318
 200   2.0000      -0.492495       -13.4015
 201   2.0000      -0.491495       -13.3743
 202   2.0000      -0.489655       -13.3242
 203   2.0000      -0.487703       -13.2711
 204   2.0000      -0.486752       -13.2452
 205   2.0000      -0.480889       -13.0856
 206   2.0000      -0.474957       -12.9242
 207   2.0000      -0.473862       -12.8945
 208   2.0000      -0.472600       -12.8601
 209   2.0000      -0.467957       -12.7338
 210   2.0000      -0.467194       -12.7130
 211   2.0000      -0.466184       -12.6855
 212   2.0000      -0.462999       -12.5989
 213   2.0000      -0.462425       -12.5832
 214   2.0000      -0.461218       -12.5504
 215   2.0000      -0.454095       -12.3565
 216   2.0000      -0.452877       -12.3234
 217   2.0000      -0.451663       -12.2904
 218   2.0000      -0.448936       -12.2162
 219   2.0000      -0.445347       -12.1185
 220   2.0000      -0.441531       -12.0147
 221   2.0000      -0.437401       -11.9023
 222   2.0000      -0.427827       -11.6418
 223   2.0000      -0.425740       -11.5850
 224   2.0000      -0.413505       -11.2520
 225   2.0000      -0.404634       -11.0107
 226   2.0000      -0.394048       -10.7226
 227   2.0000      -0.389418       -10.5966
 228   2.0000      -0.388427       -10.5696
 229   2.0000      -0.386696       -10.5225
 230   2.0000      -0.385396       -10.4872
 231   2.0000      -0.383912       -10.4468
 232   2.0000      -0.383687       -10.4407
 233   2.0000      -0.379704       -10.3323
 234   2.0000      -0.377464       -10.2713
 235   2.0000      -0.373496       -10.1634
 236   2.0000      -0.365472        -9.9450
 237   2.0000      -0.364045        -9.9062
 238   2.0000      -0.363434        -9.8895
 239   2.0000      -0.362659        -9.8684
 240   2.0000      -0.361436        -9.8352
 241   2.0000      -0.360605        -9.8126
 242   2.0000      -0.354659        -9.6508
 243   2.0000      -0.344356        -9.3704
 244   2.0000      -0.340550        -9.2668
 245   2.0000      -0.333668        -9.0796
 246   2.0000      -0.329000        -8.9525
 247   2.0000      -0.325355        -8.8534
 248   2.0000      -0.305365        -8.3094
 249   2.0000      -0.276661        -7.5283
 250   2.0000      -0.273203        -7.4342
 251   2.0000      -0.242825        -6.6076
 252   0.0000      -0.139098        -3.7851
 253   0.0000      -0.097497        -2.6530
 254   0.0000      -0.074098        -2.0163
 255   0.0000      -0.050048        -1.3619
 256   0.0000      -0.045586        -1.2404

MULLIKEN ATOMIC CHARGES
-----------------------
   0 C :    0.145239
   1 O :   -0.165590
   2 C :    0.155176
   3 C :   -0.008151
   4 C :   -0.074094
   5 C :    0.043909
   6 O :   -0.128580
   7 C :    0.472836
   8 F :   -0.168269
   9 F :   -0.166594
  10 F :   -0.133090
  11 C :    0.008383
  12 C :   -0.086725
  13 C :    0.088596
  14 C :    0.063421
  15 N :    0.275658
  16 O :   -0.249222
  17 O :   -0.257201
  18 C :    0.018870
  19 C :    0.028574
  20 C :    0.030183
  21 C :    0.018842
  22 C :   -0.005159
  23 C :    0.015820
  24 C :    0.065198
  25 N :    0.279153
  26 O :   -0.263634
  27 O :   -0.248595
  28 C :    0.091074
  29 C :   -0.108363
  30 C :    0.003638
  31 C :    0.127385
  32 N :   -0.249415
  33 C :    0.096131
  34 C :    0.003484
  35 C :    0.166402
  36 O :   -0.210435
  37 C :   -0.071515
  38 C :   -0.052696
  39 C :    0.160330
  40 O :   -0.198150
  41 N :   -0.252812
  42 C :    0.098052
  43 C :    0.005838
  44 C :    0.136275
  45 C :   -0.001131
  46 C :    0.012016
  47 C :    0.105156
  48 C :   -0.064517
  49 C :    0.151133
  50 N :    0.240047
  51 O :   -0.224318
  52 O :   -0.232403
  53 C :    0.071668
  54 C :   -0.029692
  55 C :    0.021648
  56 C :    0.015300
  57 C :   -0.035882
  58 C :    0.118043
  59 O :   -0.180229
  60 C :    0.168374
  61 C :   -0.025177
  62 C :   -0.033187
  63 C :    0.022477
  64 O :   -0.153135
  65 C :    0.475209
  66 F :   -0.168990
  67 F :   -0.167150
  68 F :   -0.135496
  69 C :   -0.023884
  70 C :    0.007099
  71 H :    0.039896
  72 H :    0.016086
  73 H :    0.034485
  74 H :    0.019215
  75 H :   -0.000093
  76 H :   -0.003669
  77 H :    0.000335
  78 H :    0.006387
  79 H :    0.041647
  80 H :    0.007656
  81 H :    0.029819
  82 H :    0.044317
  83 H :    0.029771
  84 H :    0.026335
  85 H :    0.020482
  86 H :    0.048075
  87 H :    0.025713
  88 H :    0.030280
  89 H :    0.028650
  90 H :    0.015619
  91 H :   -0.030421
  92 H :    0.013780
  93 H :    0.023179
  94 H :   -0.003675
  95 H :   -0.014720
  96 H :    0.020106
  97 H :    0.024193
  98 H :    0.003288
  99 H :    0.002164
 100 H :    0.037210
 101 H :    0.030735
Sum of atomic charges:   -0.0000000

LOEWDIN ATOMIC CHARGES
----------------------
   0 C :    0.110542
   1 O :    0.043685
   2 C :    0.022321
   3 C :   -0.023203
   4 C :   -0.130093
   5 C :    0.036441
   6 O :   -0.100758
   7 C :    0.138690
   8 F :   -0.060521
   9 F :   -0.058910
  10 F :   -0.033695
  11 C :    0.006766
  12 C :   -0.034994
  13 C :    0.012955
  14 C :   -0.045953
  15 N :    0.286700
  16 O :   -0.212652
  17 O :   -0.214368
  18 C :    0.017738
  19 C :   -0.034642
  20 C :    0.048876
  21 C :    0.034064
  22 C :   -0.047647
  23 C :    0.019121
  24 C :   -0.054055
  25 N :    0.287729
  26 O :   -0.222877
  27 O :   -0.212558
  28 C :    0.012464
  29 C :    0.002092
  30 C :   -0.005165
  31 C :    0.063966
  32 N :    0.006640
  33 C :    0.037772
  34 C :   -0.059764
  35 C :    0.078475
  36 O :   -0.199094
  37 C :   -0.121424
  38 C :   -0.105161
  39 C :    0.082025
  40 O :   -0.185103
  41 N :    0.003149
  42 C :    0.036989
  43 C :   -0.059698
  44 C :    0.085592
  45 C :   -0.050604
  46 C :    0.045133
  47 C :   -0.031018
  48 C :    0.023655
  49 C :   -0.023787
  50 N :    0.283291
  51 O :   -0.192446
  52 O :   -0.193300
  53 C :    0.000077
  54 C :   -0.000553
  55 C :    0.014963
  56 C :    0.007793
  57 C :   -0.030068
  58 C :    0.081671
  59 O :    0.038925
  60 C :    0.039238
  61 C :   -0.044577
  62 C :   -0.118614
  63 C :    0.037160
  64 O :   -0.119365
  65 C :    0.142579
  66 F :   -0.061539
  67 F :   -0.060275
  68 F :   -0.036007
  69 C :   -0.041303
  70 C :   -0.020047
  71 H :    0.038296
  72 H :    0.039370
  73 H :    0.040737
  74 H :    0.036318
  75 H :    0.035898
  76 H :    0.030495
  77 H :    0.031515
  78 H :    0.038252
  79 H :    0.040521
  80 H :    0.030485
  81 H :    0.026481
  82 H :    0.037390
  83 H :    0.026024
  84 H :    0.033626
  85 H :    0.028906
  86 H :    0.039659
  87 H :    0.023822
  88 H :    0.032762
  89 H :    0.033176
  90 H :    0.021933
  91 H :    0.026478
  92 H :    0.039766
  93 H :    0.049033
  94 H :    0.038603
  95 H :    0.032721
  96 H :    0.032156
  97 H :    0.038246
  98 H :    0.033909
  99 H :    0.040027
 100 H :    0.029773
 101 H :    0.030178

  Mayer bond orders larger than 0.100000
B(  0-C ,  1-O ) :   1.2251 B(  0-C ,  4-C ) :   1.4614 B(  0-C , 71-H ) :   1.0043
B(  1-O ,  2-C ) :   1.1093 B(  2-C ,  3-C ) :   1.4714 B(  2-C , 11-C ) :   1.1238
B(  3-C ,  4-C ) :   1.2172 B(  3-C , 72-H ) :   0.9992 B(  4-C ,  5-C ) :   0.9489
B(  5-C ,  6-O ) :   2.2439 B(  5-C ,  7-C ) :   0.8745 B(  7-C ,  8-F ) :   1.1285
B(  7-C ,  9-F ) :   1.1294 B(  7-C , 10-F ) :   1.1932 B( 11-C , 12-C ) :   1.6386
B( 11-C , 73-H ) :   0.9480 B( 12-C , 13-C ) :   1.1336 B( 12-C , 74-H ) :   0.9589
B( 13-C , 14-C ) :   1.5141 B( 13-C , 20-C ) :   1.0222 B( 14-C , 15-N ) :   0.9535
B( 14-C , 18-C ) :   1.1276 B( 15-N , 16-O ) :   1.5375 B( 15-N , 17-O ) :   1.4746
B( 16-O , 17-O ) :   0.2530 B( 18-C , 19-C ) :   1.5841 B( 18-C , 75-H ) :   1.0069
B( 19-C , 20-C ) :   1.1289 B( 19-C , 76-H ) :   1.0007 B( 20-C , 21-C ) :   1.5074
B( 21-C , 22-C ) :   1.1314 B( 21-C , 28-C ) :   1.0260 B( 22-C , 23-C ) :   1.5578
B( 22-C , 77-H ) :   1.0048 B( 23-C , 24-C ) :   1.1489 B( 23-C , 78-H ) :   1.0060
B( 24-C , 25-N ) :   0.9669 B( 24-C , 28-C ) :   1.4514 B( 25-N , 26-O ) :   1.4585
B( 25-N , 27-O ) :   1.5383 B( 26-O , 27-O ) :   0.2463 B( 28-C , 29-C ) :   1.1719
B( 29-C , 30-C ) :   1.5383 B( 29-C , 79-H ) :   0.9349 B( 30-C , 31-C ) :   1.1741
B( 30-C , 80-H ) :   0.9528 B( 31-C , 32-N ) :   1.1630 B( 31-C , 38-C ) :   1.2925
B( 32-N , 33-C ) :   0.9351 B( 32-N , 35-C ) :   1.0748 B( 33-C , 34-C ) :   1.1231
B( 33-C , 81-H ) :   0.9487 B( 33-C , 82-H ) :   0.9280 B( 34-C , 83-H ) :   0.9652
B( 34-C , 84-H ) :   0.9665 B( 34-C , 85-H ) :   0.9623 B( 35-C , 36-O ) :   2.0176
B( 35-C , 37-C ) :   0.9836 B( 36-O , 92-H ) :   0.1209 B( 37-C , 38-C ) :   1.2850
B( 37-C , 44-C ) :   1.3124 B( 38-C , 39-C ) :   0.9812 B( 39-C , 40-O ) :   2.0207
B( 39-C , 41-N ) :   1.0584 B( 40-O , 79-H ) :   0.1067 B( 41-N , 42-C ) :   0.9405
B( 41-N , 44-C ) :   1.1724 B( 42-C , 43-C ) :   1.1212 B( 42-C , 86-H ) :   0.9276
B( 42-C , 87-H ) :   0.9493 B( 43-C , 88-H ) :   0.9636 B( 43-C , 89-H ) :   0.9680
B( 43-C , 90-H ) :   0.9683 B( 44-C , 45-C ) :   1.1642 B( 45-C , 46-C ) :   1.5875
B( 45-C , 91-H ) :   0.9578 B( 46-C , 47-C ) :   1.0889 B( 46-C , 92-H ) :   0.9627
B( 47-C , 48-C ) :   1.2855 B( 47-C , 55-C ) :   1.2927 B( 48-C , 49-C ) :   1.3639
B( 48-C , 93-H ) :   1.0053 B( 49-C , 50-N ) :   0.8725 B( 49-C , 53-C ) :   1.3398
B( 50-N , 51-O ) :   1.5615 B( 50-N , 52-O ) :   1.5174 B( 51-O , 52-O ) :   0.2673
B( 53-C , 54-C ) :   1.3219 B( 53-C , 56-C ) :   1.0679 B( 54-C , 55-C ) :   1.4376
B( 54-C , 94-H ) :   0.9858 B( 55-C , 95-H ) :   0.9909 B( 56-C , 57-C ) :   1.6504
B( 56-C , 96-H ) :   0.9639 B( 57-C , 58-C ) :   1.1870 B( 57-C , 97-H ) :   0.9411
B( 58-C , 59-O ) :   1.2080 B( 58-C , 62-C ) :   1.3732 B( 59-O , 60-C ) :   1.1136
B( 60-C , 61-C ) :   1.4833 B( 60-C , 69-C ) :   1.1128 B( 61-C , 62-C ) :   1.2017
B( 61-C , 98-H ) :   0.9921 B( 62-C , 63-C ) :   0.9774 B( 63-C , 64-O ) :   2.1561
B( 63-C , 65-C ) :   0.8880 B( 65-C , 66-F ) :   1.1278 B( 65-C , 67-F ) :   1.1334
B( 65-C , 68-F ) :   1.1899 B( 69-C , 70-C ) :   1.9202 B( 69-C , 99-H ) :   0.9584
B( 70-C ,100-H ) :   0.9597 B( 70-C ,101-H ) :   0.9465

-----------------------------------------------------------------------------
         ABSORPTION SPECTRUM VIA TRANSITION ELECTRIC DIPOLE MOMENTS
-----------------------------------------------------------------------------
State   Energy  Wavelength   fosc         T2         TX        TY        TZ
        (cm-1)    (nm)                  (au**2)     (au)      (au)      (au)
-----------------------------------------------------------------------------
   0    7019.4   1424.6   0.323842259  15.18835   1.59441   3.51589   0.53357
   1   11861.4    843.1   0.046072055   1.27872   0.87402  -0.12567   0.70641
   2   16728.3    597.8   0.606945826  11.94469   0.64445   3.03534  -1.52187
   3   17849.3    560.2   0.014003399   0.25828   0.15069   0.40710   0.26427
   4   20751.3    481.9   0.331853838   5.26475  -0.98934  -2.06850  -0.08519
   5   22478.0    444.9   0.131701070   1.92889   0.66938   1.21687  -0.00632
   6   23688.0    422.2   0.040407975   0.56158  -0.36797  -0.65059   0.05404
   7   24519.9    407.8   0.112983612   1.51696  -1.15545  -0.38744  -0.17825
   8   24943.3    400.9   0.031653080   0.41777  -0.12518  -0.39106  -0.49917
   9   25094.6    398.5   0.151890037   1.99262   0.88862   0.59891  -0.91885
  10   25152.8    397.6   0.163019431   2.13367  -0.08241  -1.32003   0.62001
  11   25780.9    387.9   0.187791397   2.39803   0.40752   0.42105   1.43341
  12   26920.8    371.5   0.010142921   0.12404  -0.07117  -0.02495  -0.34402
  13   27139.3    368.5   0.054868760   0.66558   0.43209   0.66794   0.18093
  14   27848.8    359.1   0.107417430   1.26983   0.58753   0.56445   0.77848
  15   28957.5    345.3   0.082029388   0.93258   0.44127   0.85848  -0.02929
  16   29107.9    343.5   0.198919786   2.24979  -0.52511  -1.32605  -0.46436
  17   29253.4    341.8   0.021396053   0.24079   0.22367   0.43047  -0.07386
  18   30026.5    333.0   0.069557028   0.76263  -0.13864  -0.82236   0.25907
  19   30851.6    324.1   0.031528884   0.33644  -0.45673  -0.32540  -0.14816
  20   31209.1    320.4   0.087937185   0.92761  -0.42441  -0.26941  -0.82153
  21   31494.4    317.5   0.013545405   0.14159   0.31468   0.18556  -0.09018
  22   31776.4    314.7   0.556519318   5.76569  -1.27080  -0.89752   1.82899
  23   31925.2    313.2   0.187329606   1.93174   0.43348   0.29698  -1.28672
  24   32599.0    306.8   0.020814642   0.21020  -0.01625  -0.07062   0.45272
  25   32747.9    305.4   0.027377893   0.27523  -0.35711  -0.02648  -0.38340
  26   32957.1    303.4   0.006727625   0.06720   0.05534  -0.05957  -0.24615
  27   33239.0    300.9   0.005498192   0.05446  -0.22426  -0.02354   0.06009
  28   33618.0    297.5   0.008000014   0.07834   0.03374   0.19419   0.19873
  29   33749.9    296.3   0.004391248   0.04283  -0.01945   0.20244  -0.03839
  30   33876.9    295.2   0.011213975   0.10898   0.00622   0.01143  -0.32986
  31   34729.8    287.9   0.140883329   1.33547  -0.58465  -0.78294   0.61697
  32   35072.8    285.1   0.038029877   0.35697   0.16859  -0.18400  -0.54285
  33   35121.3    284.7   0.012240096   0.11473   0.03877   0.05532   0.33192
  34   35537.5    281.4   0.046750241   0.43309  -0.10131   0.63791  -0.12606
  35   36065.6    277.3   0.022295834   0.20352  -0.31512  -0.32262  -0.01148
  36   36270.4    275.7   0.000488663   0.00444   0.03239  -0.03810   0.04398
  37   36559.4    273.5   0.040064863   0.36078  -0.12890  -0.07851  -0.58138
  38   36909.0    270.9   0.010466014   0.09335   0.12716   0.27698   0.02157
  39   37060.3    269.8   0.000407516   0.00362  -0.00586  -0.04765  -0.03626
  40   37214.3    268.7   0.063859010   0.56492  -0.52802  -0.27942  -0.45611
  41   37366.0    267.6   0.102127697   0.89979  -0.84318  -0.42382   0.09600
  42   37815.9    264.4   0.009921862   0.08638  -0.28225  -0.08114   0.01141
  43   37871.7    264.0   0.072477848   0.63004   0.58786   0.49310   0.20326
  44   37924.4    263.7   0.155321245   1.34830   0.75885   0.68273   0.55347
  45   38211.2    261.7   0.222933388   1.92070  -0.97034  -0.79413  -0.59034
  46   38601.8    259.1   0.052680925   0.44928   0.45851   0.14334  -0.46745
  47   38881.7    257.2   0.051459501   0.43571  -0.44467  -0.38889   0.29451
  48   38930.2    256.9   0.023945366   0.20249   0.15575  -0.10660  -0.40850
  49   39327.2    254.3   0.042332292   0.35437   0.42915   0.06337   0.40765
  50   39663.7    252.1   0.002489262   0.02066  -0.08647  -0.10481   0.04690
  51   39702.8    251.9   0.023144951   0.19192  -0.28782  -0.29856  -0.14121
  52   40008.2    249.9   0.047150117   0.38798   0.21584   0.05055  -0.58210

FINAL SINGLE POINT ENERGY     -3618.604163553726

DIPOLE MOMENT
-------------
                                X             Y             Z
Electronic contribution:     42.80783       4.28302      44.27155
Nuclear contribution   :    -44.22055      -5.60629     -44.13412
                        -----------------------------------------
Total Dipole Moment    :     -1.41272      -1.32327       0.13743
                        -----------------------------------------
Magnitude (a.u.)       :      1.94055
Magnitude (Debye)      :      4.93247

Rotational constants in cm-1:     0.001561     0.000226     0.000205
Rotational constants in MHz :    46.792936     6.765921     6.154054

                             ****ORCA TERMINATED NORMALLY****
TOTAL RUN TIME: 0 days 0 hours 9 minutes 39 seconds 34 msec
