                         Program Version 4.2.0 -  RELEASE  -
|  1> # ORCA input file
|  2> # SCF done       -202.576416362896          0.000678025954
|  3> ! CAM-B3LYP def2-SVP def2/J RIJCOSX Grid4 TightSCF
|  4> %maxcore 5000
|  5> %tddft
|  6>     Mode sTDDFT
|  7>     Ethresh 5.0
|  8>     maxcore 5000
|  9> end
| 10>
| 11> %pal
| 12>   nprocs 6
| 13>   end
| 14> * xyz 0 1
| 15>    C        5.80215        -7.94797         5.46011
| 16>    O        4.91498        -7.83775         4.48946
| 17>    C        4.05171        -8.88943         4.58433
| 18>    C        4.40816        -9.68260         5.64764
| 19>    C        5.55622        -9.07303         6.22736
| 20>    C        6.35067        -9.48267         7.36538
| 21>    O        7.31951        -8.91485         7.79718
| 22>    C        5.84887       -10.79158         8.04600
| 23>    F        5.85199       -11.82486         7.18617
| 24>    F        6.60032       -11.13725         9.08570
| 25>    F        4.58585       -10.66344         8.48694
| 26>    C        2.98448        -9.03558         3.64473
| 27>    C        2.75732        -8.17917         2.62862
| 28>    C        1.71578        -8.32187         1.66809
| 29>    S        0.57931        -9.63990         1.69749
| 30>    C       -0.21511        -9.07328         0.26118
| 31>    C        0.38926        -7.89672        -0.19646
| 32>    C        1.46910        -7.48487         0.60144
| 33>    C       -0.01696        -7.16096        -1.32161
| 34>    N       -0.31800        -6.52620        -2.22947
| 35>    C       -1.29711        -9.82191        -0.25901
| 36>    C       -1.93533        -9.56215        -1.43210
| 37>    C       -2.99292       -10.36941        -1.91322
| 38>    N       -3.62878       -10.15060        -3.11076
| 39>    C       -3.39687        -9.05717        -4.02525
| 40>    C       -4.03673        -7.75988        -3.53867
| 41>    C       -4.62363       -11.11206        -3.36275
| 42>    O       -5.33412       -11.10464        -4.34496
| 43>    C       -4.55976       -12.00009        -2.21790
| 44>    C       -3.56565       -11.50778        -1.34001
| 45>    C       -3.52368       -12.37625        -0.18391
| 46>    O       -2.83484       -12.36166         0.81873
| 47>    N       -4.50358       -13.34674        -0.44249
| 48>    C       -4.81688       -14.37236         0.52446
| 49>    C       -6.10646       -14.06650         1.28234
| 50>    C       -5.12104       -13.14412        -1.65456
| 51>    C       -6.11274       -14.00882        -2.18684
| 52>    C       -6.58943       -13.86665        -3.44605
| 53>    C       -7.57274       -14.70040        -4.06992
| 54>    C       -8.68096       -15.32670        -3.46026
| 55>    C       -9.12407       -15.30487        -2.04422
| 56>    O       -8.68282       -14.72843        -1.09701
| 57>    O      -10.22809       -16.10957        -1.94635
| 58>    C      -10.56937       -16.64004        -3.16558
| 59>    O      -11.44535       -17.43747        -3.28404
| 60>    C       -9.62398       -16.08033        -4.16656
| 61>    C       -9.56426       -16.29705        -5.55602
| 62>    C       -8.42799       -15.71594        -6.14971
| 63>    C       -7.50060       -14.95471        -5.45402
| 64>    C       -6.43694       -14.56875        -6.41307
| 65>    O       -5.41182       -13.99100        -6.23999
| 66>    O       -6.80946       -15.06349        -7.64608
| 67>    C       -7.98398       -15.76247        -7.56584
| 68>    O       -8.48649       -16.29211        -8.50861
| 69>    C      -10.50246       -17.03085        -6.35785
| 70>    C      -11.82954       -17.13205        -6.12880
| 71>    C      -12.69262       -17.87839        -6.97794
| 72>    O      -12.21022       -18.65176        -7.95599
| 73>    C      -13.24519       -19.27116        -8.57177
| 74>    C      -14.43077       -18.89664        -7.98391
| 75>    C      -14.09359       -17.98973        -6.94917
| 76>    C      -14.96727       -17.28046        -6.04617
| 77>    O      -14.65078       -16.42934        -5.25242
| 78>    C      -16.46582       -17.68864        -6.16966
| 79>    F      -16.64223       -19.00829        -5.98806
| 80>    F      -17.22934       -17.06018        -5.28226
| 81>    F      -16.95541       -17.40311        -7.39025
| 82>    C      -12.94314       -20.15788        -9.66558
| 83>    C      -13.85040       -20.84732       -10.35127
| 84>    H        6.56994        -7.20367         5.54645
| 85>    H        3.91406       -10.57681         5.96486
| 86>    H        2.35253        -9.89984         3.78992
| 87>    H        3.40069        -7.31882         2.50153
| 88>    H        2.04896        -6.60235         0.39529
| 89>    H       -1.61035       -10.67247         0.33394
| 90>    H       -1.62636        -8.72698        -2.04125
| 91>    H       -3.85041        -9.35836        -4.97352
| 92>    H       -2.32192        -8.92475        -4.17388
| 93>    H       -5.10918        -7.89425        -3.42024
| 94>    H       -3.86160        -6.97291        -4.26623
| 95>    H       -3.61578        -7.44852        -2.58546
| 96>    H       -3.97418       -14.39164         1.22161
| 97>    H       -4.88024       -15.34224         0.02312
| 98>    H       -6.02331       -13.10372         1.78072
| 99>    H       -6.27577       -14.83163         2.03486
|100>    H       -6.96344       -14.04066         0.61395
|101>    H       -6.44643       -14.82210        -1.56275
|102>    H       -6.16391       -13.10284        -4.08614
|103>    H      -10.09539       -17.46255        -7.26301
|104>    H      -12.31623       -16.63512        -5.30467
|105>    H      -15.40925       -19.22389        -8.26561
|106>    H      -11.89096       -20.22931        -9.90364
|107>    H      -14.90115       -20.78946       -10.12730
|108>    H      -13.56292       -21.49533       -11.15963
|109> *
|110>
|111>                          ****END OF INPUT****

CARTESIAN COORDINATES (ANGSTROEM)
---------------------------------
  C      5.802150   -7.947970    5.460110
  O      4.914980   -7.837750    4.489460
  C      4.051710   -8.889430    4.584330
  C      4.408160   -9.682600    5.647640
  C      5.556220   -9.073030    6.227360
  C      6.350670   -9.482670    7.365380
  O      7.319510   -8.914850    7.797180
  C      5.848870  -10.791580    8.046000
  F      5.851990  -11.824860    7.186170
  F      6.600320  -11.137250    9.085700
  F      4.585850  -10.663440    8.486940
  C      2.984480   -9.035580    3.644730
  C      2.757320   -8.179170    2.628620
  C      1.715780   -8.321870    1.668090
  S      0.579310   -9.639900    1.697490
  C     -0.215110   -9.073280    0.261180
  C      0.389260   -7.896720   -0.196460
  C      1.469100   -7.484870    0.601440
  C     -0.016960   -7.160960   -1.321610
  N     -0.318000   -6.526200   -2.229470
  C     -1.297110   -9.821910   -0.259010
  C     -1.935330   -9.562150   -1.432100
  C     -2.992920  -10.369410   -1.913220
  N     -3.628780  -10.150600   -3.110760
  C     -3.396870   -9.057170   -4.025250
  C     -4.036730   -7.759880   -3.538670
  C     -4.623630  -11.112060   -3.362750
  O     -5.334120  -11.104640   -4.344960
  C     -4.559760  -12.000090   -2.217900
  C     -3.565650  -11.507780   -1.340010
  C     -3.523680  -12.376250   -0.183910
  O     -2.834840  -12.361660    0.818730
  N     -4.503580  -13.346740   -0.442490
  C     -4.816880  -14.372360    0.524460
  C     -6.106460  -14.066500    1.282340
  C     -5.121040  -13.144120   -1.654560
  C     -6.112740  -14.008820   -2.186840
  C     -6.589430  -13.866650   -3.446050
  C     -7.572740  -14.700400   -4.069920
  C     -8.680960  -15.326700   -3.460260
  C     -9.124070  -15.304870   -2.044220
  O     -8.682820  -14.728430   -1.097010
  O    -10.228090  -16.109570   -1.946350
  C    -10.569370  -16.640040   -3.165580
  O    -11.445350  -17.437470   -3.284040
  C     -9.623980  -16.080330   -4.166560
  C     -9.564260  -16.297050   -5.556020
  C     -8.427990  -15.715940   -6.149710
  C     -7.500600  -14.954710   -5.454020
  C     -6.436940  -14.568750   -6.413070
  O     -5.411820  -13.991000   -6.239990
  O     -6.809460  -15.063490   -7.646080
  C     -7.983980  -15.762470   -7.565840
  O     -8.486490  -16.292110   -8.508610
  C    -10.502460  -17.030850   -6.357850
  C    -11.829540  -17.132050   -6.128800
  C    -12.692620  -17.878390   -6.977940
  O    -12.210220  -18.651760   -7.955990
  C    -13.245190  -19.271160   -8.571770
  C    -14.430770  -18.896640   -7.983910
  C    -14.093590  -17.989730   -6.949170
  C    -14.967270  -17.280460   -6.046170
  O    -14.650780  -16.429340   -5.252420
  C    -16.465820  -17.688640   -6.169660
  F    -16.642230  -19.008290   -5.988060
  F    -17.229340  -17.060180   -5.282260
  F    -16.955410  -17.403110   -7.390250
  C    -12.943140  -20.157880   -9.665580
  C    -13.850400  -20.847320  -10.351270
  H      6.569940   -7.203670    5.546450
  H      3.914060  -10.576810    5.964860
  H      2.352530   -9.899840    3.789920
  H      3.400690   -7.318820    2.501530
  H      2.048960   -6.602350    0.395290
  H     -1.610350  -10.672470    0.333940
  H     -1.626360   -8.726980   -2.041250
  H     -3.850410   -9.358360   -4.973520
  H     -2.321920   -8.924750   -4.173880
  H     -5.109180   -7.894250   -3.420240
  H     -3.861600   -6.972910   -4.266230
  H     -3.615780   -7.448520   -2.585460
  H     -3.974180  -14.391640    1.221610
  H     -4.880240  -15.342240    0.023120
  H     -6.023310  -13.103720    1.780720
  H     -6.275770  -14.831630    2.034860
  H     -6.963440  -14.040660    0.613950
  H     -6.446430  -14.822100   -1.562750
  H     -6.163910  -13.102840   -4.086140
  H    -10.095390  -17.462550   -7.263010
  H    -12.316230  -16.635120   -5.304670
  H    -15.409250  -19.223890   -8.265610
  H    -11.890960  -20.229310   -9.903640
  H    -14.901150  -20.789460  -10.127300
  H    -13.562920  -21.495330  -11.159630

 Total Charge           Charge          ....    0
 Multiplicity           Mult            ....    1
 Number of Electrons    NEL             ....  494
 Basis Dimension        Dim             .... 1095

ORBITAL ENERGIES
----------------

  NO   OCC          E(Eh)            E(eV)
   0   2.0000     -88.982147     -2421.3273
   1   2.0000     -24.811299      -675.1498
   2   2.0000     -24.810921      -675.1395
   3   2.0000     -24.809137      -675.0909
   4   2.0000     -24.808881      -675.0840
   5   2.0000     -24.806678      -675.0240
   6   2.0000     -24.804577      -674.9669
   7   2.0000     -19.324445      -525.8449
   8   2.0000     -19.317141      -525.6461
   9   2.0000     -19.301617      -525.2237
  10   2.0000     -19.297282      -525.1057
  11   2.0000     -19.249692      -523.8108
  12   2.0000     -19.247200      -523.7429
  13   2.0000     -19.246233      -523.7166
  14   2.0000     -19.244378      -523.6662
  15   2.0000     -19.240675      -523.5654
  16   2.0000     -19.240414      -523.5583
  17   2.0000     -19.197149      -522.3810
  18   2.0000     -19.193644      -522.2856
  19   2.0000     -14.456857      -393.3911
  20   2.0000     -14.455945      -393.3663
  21   2.0000     -14.419320      -392.3696
  22   2.0000     -10.520499      -286.2773
  23   2.0000     -10.519121      -286.2398
  24   2.0000     -10.444636      -284.2130
  25   2.0000     -10.441901      -284.1386
  26   2.0000     -10.440011      -284.0871
  27   2.0000     -10.437345      -284.0146
  28   2.0000     -10.393649      -282.8256
  29   2.0000     -10.392970      -282.8071
  30   2.0000     -10.379004      -282.4271
  31   2.0000     -10.376546      -282.3602
  32   2.0000     -10.363820      -282.0139
  33   2.0000     -10.362994      -281.9914
  34   2.0000     -10.353078      -281.7216
  35   2.0000     -10.351327      -281.6739
  36   2.0000     -10.345638      -281.5191
  37   2.0000     -10.345044      -281.5030
  38   2.0000     -10.344486      -281.4878
  39   2.0000     -10.339845      -281.3615
  40   2.0000     -10.339514      -281.3525
  41   2.0000     -10.338930      -281.3366
  42   2.0000     -10.336731      -281.2767
  43   2.0000     -10.335031      -281.2305
  44   2.0000     -10.334254      -281.2093
  45   2.0000     -10.327778      -281.0331
  46   2.0000     -10.326114      -280.9878
  47   2.0000     -10.320403      -280.8325
  48   2.0000     -10.308114      -280.4980
  49   2.0000     -10.306720      -280.4601
  50   2.0000     -10.306530      -280.4550
  51   2.0000     -10.305359      -280.4231
  52   2.0000     -10.305285      -280.4210
  53   2.0000     -10.305198      -280.4187
  54   2.0000     -10.305173      -280.4180
  55   2.0000     -10.303545      -280.3737
  56   2.0000     -10.302903      -280.3563
  57   2.0000     -10.301650      -280.3222
  58   2.0000     -10.300992      -280.3042
  59   2.0000     -10.298772      -280.2438
  60   2.0000     -10.298399      -280.2337
  61   2.0000     -10.296809      -280.1904
  62   2.0000     -10.295142      -280.1451
  63   2.0000     -10.293941      -280.1124
  64   2.0000     -10.284888      -279.8660
  65   2.0000     -10.268218      -279.4124
  66   2.0000     -10.265584      -279.3408
  67   2.0000     -10.259375      -279.1718
  68   2.0000     -10.257903      -279.1317
  69   2.0000      -8.077670      -219.8046
  70   2.0000      -6.046755      -164.5406
  71   2.0000      -6.042734      -164.4311
  72   2.0000      -6.040016      -164.3572
  73   2.0000      -1.399351       -38.0783
  74   2.0000      -1.397266       -38.0215
  75   2.0000      -1.302117       -35.4324
  76   2.0000      -1.301830       -35.4246
  77   2.0000      -1.299944       -35.3733
  78   2.0000      -1.299459       -35.3601
  79   2.0000      -1.252999       -34.0958
  80   2.0000      -1.247051       -33.9340
  81   2.0000      -1.244891       -33.8752
  82   2.0000      -1.238385       -33.6982
  83   2.0000      -1.177295       -32.0358
  84   2.0000      -1.173225       -31.9251
  85   2.0000      -1.157549       -31.4985
  86   2.0000      -1.156942       -31.4820
  87   2.0000      -1.138829       -30.9891
  88   2.0000      -1.138070       -30.9685
  89   2.0000      -1.135302       -30.8931
  90   2.0000      -1.130807       -30.7708
  91   2.0000      -1.068108       -29.0647
  92   2.0000      -1.059273       -28.8243
  93   2.0000      -1.021396       -27.7936
  94   2.0000      -1.020960       -27.7817
  95   2.0000      -0.997541       -27.1445
  96   2.0000      -0.950151       -25.8549
  97   2.0000      -0.938786       -25.5457
  98   2.0000      -0.933448       -25.4004
  99   2.0000      -0.933125       -25.3916
 100   2.0000      -0.932669       -25.3792
 101   2.0000      -0.930889       -25.3308
 102   2.0000      -0.926760       -25.2184
 103   2.0000      -0.915438       -24.9103
 104   2.0000      -0.902281       -24.5523
 105   2.0000      -0.882591       -24.0165
 106   2.0000      -0.879227       -23.9250
 107   2.0000      -0.871424       -23.7127
 108   2.0000      -0.865817       -23.5601
 109   2.0000      -0.839888       -22.8545
 110   2.0000      -0.836360       -22.7585
 111   2.0000      -0.832950       -22.6657
 112   2.0000      -0.828756       -22.5516
 113   2.0000      -0.819677       -22.3045
 114   2.0000      -0.809041       -22.0151
 115   2.0000      -0.808318       -21.9955
 116   2.0000      -0.795576       -21.6487
 117   2.0000      -0.786248       -21.3949
 118   2.0000      -0.776076       -21.1181
 119   2.0000      -0.759355       -20.6631
 120   2.0000      -0.758622       -20.6431
 121   2.0000      -0.757837       -20.6218
 122   2.0000      -0.752603       -20.4794
 123   2.0000      -0.746203       -20.3052
 124   2.0000      -0.739701       -20.1283
 125   2.0000      -0.731079       -19.8937
 126   2.0000      -0.721622       -19.6363
 127   2.0000      -0.719637       -19.5823
 128   2.0000      -0.709588       -19.3089
 129   2.0000      -0.706118       -19.2144
 130   2.0000      -0.691754       -18.8236
 131   2.0000      -0.686602       -18.6834
 132   2.0000      -0.684664       -18.6306
 133   2.0000      -0.682455       -18.5705
 134   2.0000      -0.680332       -18.5128
 135   2.0000      -0.679024       -18.4772
 136   2.0000      -0.675701       -18.3868
 137   2.0000      -0.661537       -18.0013
 138   2.0000      -0.659401       -17.9432
 139   2.0000      -0.657470       -17.8907
 140   2.0000      -0.657335       -17.8870
 141   2.0000      -0.654380       -17.8066
 142   2.0000      -0.650490       -17.7007
 143   2.0000      -0.639653       -17.4058
 144   2.0000      -0.635799       -17.3010
 145   2.0000      -0.627618       -17.0784
 146   2.0000      -0.620129       -16.8746
 147   2.0000      -0.616863       -16.7857
 148   2.0000      -0.613183       -16.6856
 149   2.0000      -0.604661       -16.4537
 150   2.0000      -0.604076       -16.4377
 151   2.0000      -0.595091       -16.1933
 152   2.0000      -0.592107       -16.1121
 153   2.0000      -0.589055       -16.0290
 154   2.0000      -0.585612       -15.9353
 155   2.0000      -0.584215       -15.8973
 156   2.0000      -0.581031       -15.8107
 157   2.0000      -0.580610       -15.7992
 158   2.0000      -0.578462       -15.7408
 159   2.0000      -0.572350       -15.5744
 160   2.0000      -0.566228       -15.4078
 161   2.0000      -0.565472       -15.3873
 162   2.0000      -0.561516       -15.2796
 163   2.0000      -0.561190       -15.2708
 164   2.0000      -0.557544       -15.1715
 165   2.0000      -0.556692       -15.1484
 166   2.0000      -0.555430       -15.1140
 167   2.0000      -0.553060       -15.0495
 168   2.0000      -0.552601       -15.0370
 169   2.0000      -0.549938       -14.9646
 170   2.0000      -0.548676       -14.9302
 171   2.0000      -0.543142       -14.7796
 172   2.0000      -0.537083       -14.6148
 173   2.0000      -0.534521       -14.5451
 174   2.0000      -0.533073       -14.5057
 175   2.0000      -0.530951       -14.4479
 176   2.0000      -0.528028       -14.3684
 177   2.0000      -0.527135       -14.3441
 178   2.0000      -0.526562       -14.3285
 179   2.0000      -0.524570       -14.2743
 180   2.0000      -0.524010       -14.2590
 181   2.0000      -0.522722       -14.2240
 182   2.0000      -0.521031       -14.1780
 183   2.0000      -0.520529       -14.1643
 184   2.0000      -0.518427       -14.1071
 185   2.0000      -0.515877       -14.0377
 186   2.0000      -0.513292       -13.9674
 187   2.0000      -0.512984       -13.9590
 188   2.0000      -0.512000       -13.9322
 189   2.0000      -0.510140       -13.8816
 190   2.0000      -0.509009       -13.8508
 191   2.0000      -0.507019       -13.7967
 192   2.0000      -0.505260       -13.7488
 193   2.0000      -0.502147       -13.6641
 194   2.0000      -0.500402       -13.6166
 195   2.0000      -0.498686       -13.5699
 196   2.0000      -0.497930       -13.5494
 197   2.0000      -0.496168       -13.5014
 198   2.0000      -0.494624       -13.4594
 199   2.0000      -0.493751       -13.4356
 200   2.0000      -0.492058       -13.3896
 201   2.0000      -0.490743       -13.3538
 202   2.0000      -0.478865       -13.0306
 203   2.0000      -0.478400       -13.0179
 204   2.0000      -0.477007       -12.9800
 205   2.0000      -0.474570       -12.9137
 206   2.0000      -0.472575       -12.8594
 207   2.0000      -0.471725       -12.8363
 208   2.0000      -0.470064       -12.7911
 209   2.0000      -0.464970       -12.6525
 210   2.0000      -0.459921       -12.5151
 211   2.0000      -0.455339       -12.3904
 212   2.0000      -0.451261       -12.2794
 213   2.0000      -0.451002       -12.2724
 214   2.0000      -0.449729       -12.2377
 215   2.0000      -0.448303       -12.1989
 216   2.0000      -0.442510       -12.0413
 217   2.0000      -0.439459       -11.9583
 218   2.0000      -0.437923       -11.9165
 219   2.0000      -0.429931       -11.6990
 220   2.0000      -0.427367       -11.6293
 221   2.0000      -0.423457       -11.5229
 222   2.0000      -0.422397       -11.4940
 223   2.0000      -0.419630       -11.4187
 224   2.0000      -0.416522       -11.3341
 225   2.0000      -0.413140       -11.2421
 226   2.0000      -0.406181       -11.0528
 227   2.0000      -0.404037       -10.9944
 228   2.0000      -0.399084       -10.8596
 229   2.0000      -0.391137       -10.6434
 230   2.0000      -0.387580       -10.5466
 231   2.0000      -0.383328       -10.4309
 232   2.0000      -0.380788       -10.3618
 233   2.0000      -0.377438       -10.2706
 234   2.0000      -0.375194       -10.2096
 235   2.0000      -0.362895        -9.8749
 236   2.0000      -0.361632        -9.8405
 237   2.0000      -0.357529        -9.7288
 238   2.0000      -0.352145        -9.5823
 239   2.0000      -0.343577        -9.3492
 240   2.0000      -0.336899        -9.1675
 241   2.0000      -0.331455        -9.0193
 242   2.0000      -0.329111        -8.9556
 243   2.0000      -0.318714        -8.6727
 244   2.0000      -0.280973        -7.6457
 245   2.0000      -0.276715        -7.5298
 246   2.0000      -0.239657        -6.5214
 247   0.0000      -0.108584        -2.9547
 248   0.0000      -0.098520        -2.6809
 249   0.0000      -0.083346        -2.2680
 250   0.0000      -0.055589        -1.5127
 251   0.0000      -0.040851        -1.1116

MULLIKEN ATOMIC CHARGES
-----------------------
   0 C :    0.137844
   1 O :   -0.166506
   2 C :    0.159888
   3 C :   -0.020638
   4 C :   -0.072657
   5 C :    0.043401
   6 O :   -0.129710
   7 C :    0.474286
   8 F :   -0.170018
   9 F :   -0.134084
  10 F :   -0.169521
  11 C :   -0.016405
  12 C :    0.032486
  13 C :   -0.036236
  14 S :    0.163873
  15 C :   -0.059939
  16 C :   -0.072277
  17 C :    0.014674
  18 C :   -0.166324
  19 N :    0.117054
  20 C :    0.061761
  21 C :   -0.041518
  22 C :    0.140349
  23 N :   -0.255975
  24 C :    0.092068
  25 C :    0.008062
  26 C :    0.172626
  27 O :   -0.193092
  28 C :   -0.053206
  29 C :   -0.068655
  30 C :    0.165287
  31 O :   -0.215505
  32 N :   -0.254256
  33 C :    0.096648
  34 C :   -0.006024
  35 C :    0.096016
  36 C :    0.040246
  37 C :   -0.053201
  38 C :    0.046629
  39 C :   -0.078792
  40 C :    0.229576
  41 O :   -0.097926
  42 O :   -0.217391
  43 C :    0.225500
  44 O :   -0.093261
  45 C :   -0.068377
  46 C :    0.044333
  47 C :   -0.071912
  48 C :   -0.068986
  49 C :    0.235752
  50 O :   -0.084167
  51 O :   -0.229457
  52 C :    0.237716
  53 O :   -0.104041
  54 C :   -0.044604
  55 C :    0.033779
  56 C :    0.087337
  57 O :   -0.172945
  58 C :    0.178742
  59 C :   -0.044196
  60 C :   -0.021755
  61 C :    0.024487
  62 O :   -0.136247
  63 C :    0.476290
  64 F :   -0.166050
  65 F :   -0.132240
  66 F :   -0.171095
  67 C :    0.002964
  68 C :   -0.009921
  69 H :    0.037946
  70 H :    0.007289
  71 H :    0.010993
  72 H :    0.007306
  73 H :   -0.002994
  74 H :    0.006427
  75 H :   -0.011637
  76 H :    0.044312
  77 H :    0.035990
  78 H :    0.025420
  79 H :    0.030488
  80 H :    0.018339
  81 H :    0.042186
  82 H :    0.020959
  83 H :    0.022956
  84 H :    0.022509
  85 H :    0.033910
  86 H :   -0.014682
  87 H :    0.050108
  88 H :    0.029863
  89 H :    0.031328
  90 H :    0.003179
  91 H :    0.011325
  92 H :    0.026924
  93 H :    0.038990
Sum of atomic charges:   -0.0000000

LOEWDIN ATOMIC CHARGES
----------------------
   0 C :    0.104050
   1 O :    0.042535
   2 C :    0.027303
   3 C :   -0.039555
   4 C :   -0.129394
   5 C :    0.036042
   6 O :   -0.102197
   7 C :    0.139785
   8 F :   -0.061570
   9 F :   -0.033947
  10 F :   -0.061117
  11 C :   -0.034467
  12 C :   -0.030229
  13 C :   -0.161309
  14 S :    0.479277
  15 C :   -0.141183
  16 C :   -0.101717
  17 C :   -0.023136
  18 C :   -0.025379
  19 N :   -0.059314
  20 C :    0.003842
  21 C :   -0.034428
  22 C :    0.082732
  23 N :    0.002870
  24 C :    0.037037
  25 C :   -0.059113
  26 C :    0.084468
  27 O :   -0.182100
  28 C :   -0.105261
  29 C :   -0.121415
  30 C :    0.078192
  31 O :   -0.206236
  32 N :    0.003919
  33 C :    0.036003
  34 C :   -0.063497
  35 C :    0.065176
  36 C :   -0.000176
  37 C :    0.000113
  38 C :    0.024527
  39 C :   -0.045851
  40 C :    0.110233
  41 O :   -0.099346
  42 O :   -0.048844
  43 C :    0.106463
  44 O :   -0.088249
  45 C :   -0.043115
  46 C :    0.023080
  47 C :   -0.041327
  48 C :   -0.039499
  49 C :    0.108845
  50 O :   -0.079780
  51 O :   -0.054754
  52 C :    0.106357
  53 O :   -0.098679
  54 C :   -0.020476
  55 C :    0.007409
  56 C :    0.070531
  57 O :    0.041855
  58 C :    0.040714
  59 C :   -0.040357
  60 C :   -0.105699
  61 C :    0.039322
  62 O :   -0.102643
  63 C :    0.142391
  64 F :   -0.059868
  65 F :   -0.033398
  66 F :   -0.062716
  67 C :   -0.036372
  68 C :   -0.016639
  69 H :    0.037215
  70 H :    0.035308
  71 H :    0.036003
  72 H :    0.040105
  73 H :    0.040770
  74 H :    0.037421
  75 H :    0.035920
  76 H :    0.038503
  77 H :    0.027777
  78 H :    0.030075
  79 H :    0.034396
  80 H :    0.023562
  81 H :    0.036516
  82 H :    0.022106
  83 H :    0.030170
  84 H :    0.030982
  85 H :    0.025883
  86 H :    0.029652
  87 H :    0.043818
  88 H :    0.039122
  89 H :    0.040471
  90 H :    0.032647
  91 H :    0.041251
  92 H :    0.026678
  93 H :    0.032930

  Mayer bond orders larger than 0.100000
B(  0-C ,  1-O ) :   1.2160 B(  0-C ,  4-C ) :   1.4707 B(  0-C , 69-H ) :   1.0044
B(  1-O ,  2-C ) :   1.1239 B(  2-C ,  3-C ) :   1.4922 B(  2-C , 11-C ) :   1.1372
B(  3-C ,  4-C ) :   1.2107 B(  3-C , 70-H ) :   0.9980 B(  4-C ,  5-C ) :   0.9539
B(  5-C ,  6-O ) :   2.2416 B(  5-C ,  7-C ) :   0.8743 B(  7-C ,  8-F ) :   1.1244
B(  7-C ,  9-F ) :   1.1906 B(  7-C , 10-F ) :   1.1259 B( 11-C , 12-C ) :   1.6677
B( 11-C , 71-H ) :   0.9603 B( 12-C , 13-C ) :   1.1300 B( 12-C , 72-H ) :   0.9817
B( 13-C , 14-S ) :   1.1168 B( 13-C , 17-C ) :   1.4601 B( 14-S , 15-C ) :   1.1437
B( 15-C , 16-C ) :   1.4314 B( 15-C , 20-C ) :   1.1650 B( 16-C , 17-C ) :   1.2845
B( 16-C , 18-C ) :   1.1199 B( 17-C , 73-H ) :   1.0117 B( 18-C , 19-N ) :   2.9685
B( 20-C , 21-C ) :   1.6006 B( 20-C , 74-H ) :   0.9199 B( 21-C , 22-C ) :   1.1775
B( 21-C , 75-H ) :   0.9492 B( 22-C , 23-N ) :   1.1709 B( 22-C , 29-C ) :   1.3159
B( 23-N , 24-C ) :   0.9381 B( 23-N , 26-C ) :   1.0540 B( 24-C , 25-C ) :   1.1240
B( 24-C , 76-H ) :   0.9281 B( 24-C , 77-H ) :   0.9478 B( 25-C , 78-H ) :   0.9630
B( 25-C , 79-H ) :   0.9674 B( 25-C , 80-H ) :   0.9672 B( 26-C , 27-O ) :   2.0538
B( 26-C , 28-C ) :   0.9698 B( 28-C , 29-C ) :   1.2655 B( 28-C , 35-C ) :   1.3508
B( 29-C , 30-C ) :   0.9891 B( 30-C , 31-O ) :   2.0126 B( 30-C , 32-N ) :   1.0715
B( 31-O , 74-H ) :   0.1211 B( 32-N , 33-C ) :   0.9407 B( 32-N , 35-C ) :   1.1548
B( 33-C , 34-C ) :   1.1194 B( 33-C , 81-H ) :   0.9284 B( 33-C , 82-H ) :   0.9496
B( 34-C , 83-H ) :   0.9616 B( 34-C , 84-H ) :   0.9664 B( 34-C , 85-H ) :   0.9642
B( 35-C , 36-C ) :   1.1729 B( 36-C , 37-C ) :   1.6332 B( 36-C , 86-H ) :   0.9517
B( 37-C , 38-C ) :   1.1191 B( 37-C , 87-H ) :   0.9238 B( 38-C , 39-C ) :   1.3086
B( 38-C , 48-C ) :   1.3203 B( 39-C , 40-C ) :   0.9064 B( 39-C , 45-C ) :   1.3705
B( 40-C , 41-O ) :   2.2126 B( 40-C , 42-O ) :   1.0679 B( 42-O , 43-C ) :   1.0497
B( 43-C , 44-O ) :   2.2575 B( 43-C , 45-C ) :   0.9006 B( 45-C , 46-C ) :   1.3183
B( 46-C , 47-C ) :   1.3223 B( 46-C , 54-C ) :   1.1027 B( 47-C , 48-C ) :   1.3642
B( 47-C , 52-C ) :   0.9080 B( 48-C , 49-C ) :   0.9074 B( 49-C , 50-O ) :   2.2552
B( 49-C , 51-O ) :   1.0426 B( 51-O , 52-C ) :   1.0699 B( 52-C , 53-O ) :   2.2315
B( 54-C , 55-C ) :   1.6360 B( 54-C , 88-H ) :   0.9574 B( 55-C , 56-C ) :   1.2092
B( 55-C , 89-H ) :   0.9307 B( 56-C , 57-O ) :   1.2021 B( 56-C , 60-C ) :   1.3748
B( 57-O , 58-C ) :   1.1136 B( 58-C , 59-C ) :   1.4913 B( 58-C , 67-C ) :   1.0978
B( 59-C , 60-C ) :   1.2255 B( 59-C , 90-H ) :   0.9887 B( 60-C , 61-C ) :   0.9615
B( 61-C , 62-O ) :   2.1760 B( 61-C , 63-C ) :   0.8848 B( 63-C , 64-F ) :   1.1353
B( 63-C , 65-F ) :   1.1939 B( 63-C , 66-F ) :   1.1190 B( 67-C , 68-C ) :   1.9350
B( 67-C , 91-H ) :   0.9553 B( 68-C , 92-H ) :   0.9554 B( 68-C , 93-H ) :   0.9502

-----------------------------------------------------------------------------
         ABSORPTION SPECTRUM VIA TRANSITION ELECTRIC DIPOLE MOMENTS
-----------------------------------------------------------------------------
State   Energy  Wavelength   fosc         T2         TX        TY        TZ
        (cm-1)    (nm)                  (au**2)     (au)      (au)      (au)
-----------------------------------------------------------------------------
   0   13368.3    748.0   1.111914454  27.38242  -3.85930  -3.03331  -1.81308
   1   15634.0    639.6   0.014607196   0.30759   0.16660   0.00343  -0.52898
   2   20425.8    489.6   0.009797616   0.15791   0.19305   0.17334   0.30099
   3   22268.9    449.1   0.036381742   0.53785  -0.07464  -0.10766  -0.72158
   4   23201.1    431.0   0.401429783   5.69609   1.90473   1.09076   0.93720
   5   23590.9    423.9   0.793634564  11.07520   2.48132   0.66297   2.11630
   6   25420.3    393.4   0.025641942   0.33208  -0.36321   0.12061  -0.43083
   7   26292.7    380.3   0.092228668   1.15480   0.74709  -0.18757   0.74932
   8   27501.8    363.6   0.000861927   0.01032   0.05614  -0.06543   0.05370
   9   29907.3    334.4   0.014100330   0.15521   0.30780  -0.01758  -0.24528
  10   30366.4    329.3   0.013307179   0.14427   0.02809  -0.11970   0.35937
  11   30548.1    327.4   0.389395150   4.19646  -1.07499   0.31745  -1.71466
  12   30959.2    323.0   0.042019297   0.44682  -0.43721   0.09106  -0.49737
  13   31574.7    316.7   0.040967538   0.42715   0.46219   0.32232  -0.33112
  14   32029.6    312.2   0.047196569   0.48510  -0.36582   0.18080  -0.56444
  15   32621.1    306.6   0.042819022   0.43213  -0.38258  -0.52685   0.09053
  16   33085.3    302.2   0.293452077   2.91997   1.20424   0.52020   1.09507
  17   33353.4    299.8   0.002064874   0.02038   0.02880   0.09777  -0.09996
  18   33656.4    297.1   0.005280304   0.05165  -0.12218  -0.15955  -0.10614
  19   34063.1    293.6   0.010258971   0.09915  -0.16677   0.05029   0.26231
  20   34891.2    286.6   0.086970537   0.82060  -0.12579  -0.68876  -0.57479
  21   35355.4    282.8   0.027149758   0.25280  -0.02244   0.25519  -0.43264
  22   35645.9    280.5   0.001373635   0.01269   0.07756   0.00121   0.08166
  23   35980.9    277.9   0.000367542   0.00336  -0.01735   0.01283   0.05383
  24   36198.5    276.3   0.041522559   0.37763  -0.27593   0.05672  -0.54615
  25   36351.4    275.1   0.000688837   0.00624  -0.04546   0.03953   0.05108
  26   36469.7    274.2   0.114300741   1.03179   0.27225  -0.59829   0.77442
  27   36712.1    272.4   0.006113695   0.05482  -0.18554  -0.04523  -0.13547
  28   37609.3    265.9   0.041972232   0.36740   0.06695   0.33569  -0.50024
  29   37799.5    264.6   0.147989252   1.28890   0.91367  -0.00764   0.67383
  30   38467.2    260.0   0.048065081   0.41135   0.09588  -0.38500  -0.50392
  31   38786.2    257.8   0.007650817   0.06494  -0.02179  -0.19589   0.16153
  32   38975.4    256.6   0.009615419   0.08122   0.14227  -0.09260   0.22892
  33   39490.9    253.2   0.029258264   0.24391  -0.43486   0.08607  -0.21771
  34   39893.2    250.7   0.042206362   0.34830  -0.04894  -0.39742  -0.43355
  35   40150.3    249.1   0.012015400   0.09852   0.09183  -0.27134  -0.12831
  36   40269.4    248.3   0.022709364   0.18565  -0.19038   0.03800   0.38466

FINAL SINGLE POINT ENERGY     -3866.061208373855

DIPOLE MOMENT
-------------
                                X             Y             Z
Electronic contribution:     -5.87646     -19.82495      25.02148
Nuclear contribution   :      6.49476      19.22360     -25.59998
                        -----------------------------------------
Total Dipole Moment    :      0.61831      -0.60135      -0.57850
                        -----------------------------------------
Magnitude (a.u.)       :      1.03855
Magnitude (Debye)      :      2.63978

Rotational constants in cm-1:     0.002363     0.000210     0.000202
Rotational constants in MHz :    70.850817     6.305294     6.046836

                             ****ORCA TERMINATED NORMALLY****
TOTAL RUN TIME: 0 days 0 hours 14 minutes 48 seconds 34 msec
