                         Program Version 4.2.0 -  RELEASE  -
|  1> # ORCA input file
|  2> # SCF done       -188.823747098760          0.000778646052
|  3> ! CAM-B3LYP def2-SVP def2/J RIJCOSX Grid4 TightSCF
|  4> %maxcore 5000
|  5> %tddft
|  6>     Mode sTDDFT
|  7>     Ethresh 5.0
|  8>     maxcore 5000
|  9> end
| 10>
| 11> %pal
| 12>   nprocs 6
| 13>   end
| 14> * xyz 0 1
| 15>    C       -4.88555        -3.01634        -3.96059
| 16>    O       -4.73976        -4.36545        -4.06321
| 17>    C       -4.08720        -4.74375        -2.96610
| 18>    C       -3.80417        -3.64843        -2.14060
| 19>    C       -4.33506        -2.52390        -2.81076
| 20>    C       -3.09904        -4.08926        -0.94992
| 21>    S       -2.55563        -3.19563         0.29776
| 22>    C       -2.98450        -5.54145        -1.13045
| 23>    C       -3.57822        -5.91643        -2.34351
| 24>    O       -3.49305        -7.22985        -2.54200
| 25>    C       -2.84192        -7.74087        -1.45163
| 26>    C       -2.51044        -6.72100        -0.55513
| 27>    C       -2.60868        -9.13402        -1.34905
| 28>    C       -2.96374       -10.01015        -2.32814
| 29>    C       -2.83296       -11.41347        -2.35936
| 30>    S       -3.18307       -12.17457        -3.88602
| 31>    C       -2.85402       -13.76723        -3.29934
| 32>    C       -2.47671       -13.70685        -1.94465
| 33>    C       -2.48343       -12.38593        -1.40384
| 34>    C       -2.18906       -12.21750        -0.03886
| 35>    C       -1.86702       -13.28844         0.75386
| 36>    C       -1.55725       -13.08290         2.20340
| 37>    C       -1.83291       -14.59915         0.20394
| 38>    C       -1.47466       -15.76291         1.07237
| 39>    C       -2.14592       -14.79191        -1.11611
| 40>    C       -2.87397       -14.92174        -4.11469
| 41>    C       -3.41766       -15.08234        -5.34862
| 42>    C       -4.29920       -14.18640        -6.02996
| 43>    C       -4.27732       -14.03117        -7.42738
| 44>    C       -3.43315       -14.74192        -8.40717
| 45>    O       -2.63085       -15.61194        -8.24684
| 46>    O       -3.72030       -14.22200        -9.64567
| 47>    C       -4.67644       -13.23609        -9.55157
| 48>    O       -5.07820       -12.65981       -10.51954
| 49>    C       -5.03773       -13.09773        -8.13069
| 50>    C       -5.90819       -12.18483        -7.49124
| 51>    C       -6.09520       -12.49992        -6.12078
| 52>    C       -5.33798       -13.43783        -5.43153
| 53>    C       -5.91700       -13.56238        -4.07785
| 54>    O       -5.59337       -14.24772        -3.15377
| 55>    O       -7.00320       -12.72266        -4.02007
| 56>    C       -7.18847       -12.07482        -5.22266
| 57>    O       -8.12847       -11.36559        -5.41901
| 58>    C       -6.52334       -11.05450        -8.08835
| 59>    S       -7.10576       -11.04964        -9.71779
| 60>    C       -7.75333        -9.45489        -9.57617
| 61>    C       -7.45890        -8.90341        -8.31234
| 62>    C       -6.75719        -9.80897        -7.47063
| 63>    C       -6.30190        -9.36283        -6.21980
| 64>    C       -6.59797        -8.09975        -5.77568
| 65>    C       -6.12281        -7.64441        -4.43393
| 66>    C       -7.35079        -7.21456        -6.59336
| 67>    C       -7.67363        -5.84067        -6.09570
| 68>    C       -7.75300        -7.61333        -7.84229
| 69>    C       -8.45259        -8.83607       -10.63327
| 70>    C       -8.64449        -9.40087       -11.85478
| 71>    C       -9.33521        -8.79359       -12.92877
| 72>    O       -9.42597        -9.49149       -14.10516
| 73>    C      -10.10373        -8.72213       -14.94817
| 74>    C      -10.47301        -7.50680       -14.34704
| 75>    C       -9.97636        -7.55617       -13.04511
| 76>    C      -11.21257        -6.68271       -15.30475
| 77>    S      -11.84122        -5.20013       -15.06981
| 78>    C      -11.24884        -7.50052       -16.50865
| 79>    C      -10.58384        -8.71690       -16.28443
| 80>    O      -10.60124        -9.48207       -17.36811
| 81>    C      -11.27978        -8.77856       -18.32846
| 82>    C      -11.69647        -7.55078       -17.83677
| 83>    C      -11.43335        -9.39928       -19.61431
| 84>    C      -12.05731        -8.85497       -20.65693
| 85>    H       -5.39571        -2.52835        -4.76659
| 86>    H       -4.31723        -1.50147        -2.49566
| 87>    H       -1.99796        -6.84648         0.37631
| 88>    H       -2.11584        -9.45002        -0.44557
| 89>    H       -3.38897        -9.58127        -3.22800
| 90>    H       -2.23663       -11.23569         0.40162
| 91>    H       -2.24026       -13.65840         2.82671
| 92>    H       -1.64522       -12.03353         2.47242
| 93>    H       -0.54433       -13.41437         2.42958
| 94>    H       -0.48516       -15.62735         1.50748
| 95>    H       -1.47849       -16.68611         0.49924
| 96>    H       -2.18561       -15.86200         1.89184
| 97>    H       -2.15066       -15.79034        -1.52515
| 98>    H       -2.32401       -15.76237        -3.71205
| 99>    H       -3.13667       -15.96100        -5.91268
|100>    H       -5.69693       -10.01624        -5.60744
|101>    H       -5.47363        -6.77619        -4.53368
|102>    H       -5.57378        -8.43418        -3.92867
|103>    H       -6.96725        -7.35852        -3.80806
|104>    H       -8.28588        -5.89649        -5.19626
|105>    H       -8.21710        -5.27567        -6.84859
|106>    H       -6.76233        -5.30044        -5.84198
|107>    H       -8.29340        -6.92675        -8.47640
|108>    H       -8.84711        -7.84960       -10.43814
|109>    H       -8.24258       -10.38455       -12.05672
|110>    H      -10.05929        -6.81185       -12.28104
|111>    H      -12.24547        -6.80518       -18.37278
|112>    H      -10.98888       -10.38254       -19.68827
|113>    H      -12.50619        -7.87849       -20.60722
|114>    H      -12.13494        -9.37615       -21.59401
|115> *
|116>
|117>                          ****END OF INPUT****

CARTESIAN COORDINATES (ANGSTROEM)
---------------------------------
  C     -4.885550   -3.016340   -3.960590
  O     -4.739760   -4.365450   -4.063210
  C     -4.087200   -4.743750   -2.966100
  C     -3.804170   -3.648430   -2.140600
  C     -4.335060   -2.523900   -2.810760
  C     -3.099040   -4.089260   -0.949920
  S     -2.555630   -3.195630    0.297760
  C     -2.984500   -5.541450   -1.130450
  C     -3.578220   -5.916430   -2.343510
  O     -3.493050   -7.229850   -2.542000
  C     -2.841920   -7.740870   -1.451630
  C     -2.510440   -6.721000   -0.555130
  C     -2.608680   -9.134020   -1.349050
  C     -2.963740  -10.010150   -2.328140
  C     -2.832960  -11.413470   -2.359360
  S     -3.183070  -12.174570   -3.886020
  C     -2.854020  -13.767230   -3.299340
  C     -2.476710  -13.706850   -1.944650
  C     -2.483430  -12.385930   -1.403840
  C     -2.189060  -12.217500   -0.038860
  C     -1.867020  -13.288440    0.753860
  C     -1.557250  -13.082900    2.203400
  C     -1.832910  -14.599150    0.203940
  C     -1.474660  -15.762910    1.072370
  C     -2.145920  -14.791910   -1.116110
  C     -2.873970  -14.921740   -4.114690
  C     -3.417660  -15.082340   -5.348620
  C     -4.299200  -14.186400   -6.029960
  C     -4.277320  -14.031170   -7.427380
  C     -3.433150  -14.741920   -8.407170
  O     -2.630850  -15.611940   -8.246840
  O     -3.720300  -14.222000   -9.645670
  C     -4.676440  -13.236090   -9.551570
  O     -5.078200  -12.659810  -10.519540
  C     -5.037730  -13.097730   -8.130690
  C     -5.908190  -12.184830   -7.491240
  C     -6.095200  -12.499920   -6.120780
  C     -5.337980  -13.437830   -5.431530
  C     -5.917000  -13.562380   -4.077850
  O     -5.593370  -14.247720   -3.153770
  O     -7.003200  -12.722660   -4.020070
  C     -7.188470  -12.074820   -5.222660
  O     -8.128470  -11.365590   -5.419010
  C     -6.523340  -11.054500   -8.088350
  S     -7.105760  -11.049640   -9.717790
  C     -7.753330   -9.454890   -9.576170
  C     -7.458900   -8.903410   -8.312340
  C     -6.757190   -9.808970   -7.470630
  C     -6.301900   -9.362830   -6.219800
  C     -6.597970   -8.099750   -5.775680
  C     -6.122810   -7.644410   -4.433930
  C     -7.350790   -7.214560   -6.593360
  C     -7.673630   -5.840670   -6.095700
  C     -7.753000   -7.613330   -7.842290
  C     -8.452590   -8.836070  -10.633270
  C     -8.644490   -9.400870  -11.854780
  C     -9.335210   -8.793590  -12.928770
  O     -9.425970   -9.491490  -14.105160
  C    -10.103730   -8.722130  -14.948170
  C    -10.473010   -7.506800  -14.347040
  C     -9.976360   -7.556170  -13.045110
  C    -11.212570   -6.682710  -15.304750
  S    -11.841220   -5.200130  -15.069810
  C    -11.248840   -7.500520  -16.508650
  C    -10.583840   -8.716900  -16.284430
  O    -10.601240   -9.482070  -17.368110
  C    -11.279780   -8.778560  -18.328460
  C    -11.696470   -7.550780  -17.836770
  C    -11.433350   -9.399280  -19.614310
  C    -12.057310   -8.854970  -20.656930
  H     -5.395710   -2.528350   -4.766590
  H     -4.317230   -1.501470   -2.495660
  H     -1.997960   -6.846480    0.376310
  H     -2.115840   -9.450020   -0.445570
  H     -3.388970   -9.581270   -3.228000
  H     -2.236630  -11.235690    0.401620
  H     -2.240260  -13.658400    2.826710
  H     -1.645220  -12.033530    2.472420
  H     -0.544330  -13.414370    2.429580
  H     -0.485160  -15.627350    1.507480
  H     -1.478490  -16.686110    0.499240
  H     -2.185610  -15.862000    1.891840
  H     -2.150660  -15.790340   -1.525150
  H     -2.324010  -15.762370   -3.712050
  H     -3.136670  -15.961000   -5.912680
  H     -5.696930  -10.016240   -5.607440
  H     -5.473630   -6.776190   -4.533680
  H     -5.573780   -8.434180   -3.928670
  H     -6.967250   -7.358520   -3.808060
  H     -8.285880   -5.896490   -5.196260
  H     -8.217100   -5.275670   -6.848590
  H     -6.762330   -5.300440   -5.841980
  H     -8.293400   -6.926750   -8.476400
  H     -8.847110   -7.849600  -10.438140
  H     -8.242580  -10.384550  -12.056720
  H    -10.059290   -6.811850  -12.281040
  H    -12.245470   -6.805180  -18.372780
  H    -10.988880  -10.382540  -19.688270
  H    -12.506190   -7.878490  -20.607220
  H    -12.134940   -9.376150  -21.594010

 Total Charge           Charge          ....    0
 Multiplicity           Mult            ....    1
 Number of Electrons    NEL             ....  510
 Basis Dimension        Dim             .... 1146

ORBITAL ENERGIES
----------------

  NO   OCC          E(Eh)            E(eV)
   0   2.0000     -88.964881     -2420.8575
   1   2.0000     -88.961236     -2420.7583
   2   2.0000     -88.916603     -2419.5438
   3   2.0000     -88.913294     -2419.4537
   4   2.0000     -19.319741      -525.7169
   5   2.0000     -19.315999      -525.6150
   6   2.0000     -19.312010      -525.5065
   7   2.0000     -19.310953      -525.4777
   8   2.0000     -19.283672      -524.7354
   9   2.0000     -19.278161      -524.5854
  10   2.0000     -19.231917      -523.3271
  11   2.0000     -19.231519      -523.3162
  12   2.0000     -19.224431      -523.1234
  13   2.0000     -19.223897      -523.1088
  14   2.0000     -10.425951      -283.7046
  15   2.0000     -10.423881      -283.6482
  16   2.0000     -10.418220      -283.4942
  17   2.0000     -10.417657      -283.4789
  18   2.0000     -10.354963      -281.7729
  19   2.0000     -10.353727      -281.7392
  20   2.0000     -10.350927      -281.6630
  21   2.0000     -10.349625      -281.6276
  22   2.0000     -10.347767      -281.5771
  23   2.0000     -10.344676      -281.4929
  24   2.0000     -10.341545      -281.4077
  25   2.0000     -10.338441      -281.3233
  26   2.0000     -10.335881      -281.2536
  27   2.0000     -10.335065      -281.2314
  28   2.0000     -10.331102      -281.1236
  29   2.0000     -10.320827      -280.8440
  30   2.0000     -10.317278      -280.7474
  31   2.0000     -10.316958      -280.7387
  32   2.0000     -10.316511      -280.7265
  33   2.0000     -10.314642      -280.6757
  34   2.0000     -10.309849      -280.5453
  35   2.0000     -10.306946      -280.4662
  36   2.0000     -10.300964      -280.3035
  37   2.0000     -10.299805      -280.2720
  38   2.0000     -10.290648      -280.0228
  39   2.0000     -10.290468      -280.0179
  40   2.0000     -10.290209      -280.0108
  41   2.0000     -10.289734      -279.9979
  42   2.0000     -10.289389      -279.9885
  43   2.0000     -10.289171      -279.9826
  44   2.0000     -10.288649      -279.9684
  45   2.0000     -10.286949      -279.9221
  46   2.0000     -10.284404      -279.8529
  47   2.0000     -10.284254      -279.8488
  48   2.0000     -10.283367      -279.8246
  49   2.0000     -10.282793      -279.8090
  50   2.0000     -10.282030      -279.7883
  51   2.0000     -10.281637      -279.7776
  52   2.0000     -10.280991      -279.7600
  53   2.0000     -10.280047      -279.7343
  54   2.0000     -10.279933      -279.7312
  55   2.0000     -10.279263      -279.7130
  56   2.0000     -10.278479      -279.6916
  57   2.0000     -10.275339      -279.6062
  58   2.0000     -10.274835      -279.5925
  59   2.0000     -10.274551      -279.5847
  60   2.0000     -10.272738      -279.5354
  61   2.0000     -10.271403      -279.4991
  62   2.0000     -10.270060      -279.4625
  63   2.0000     -10.269286      -279.4415
  64   2.0000     -10.267925      -279.4044
  65   2.0000     -10.266966      -279.3784
  66   2.0000     -10.266045      -279.3533
  67   2.0000     -10.265670      -279.3431
  68   2.0000     -10.261841      -279.2389
  69   2.0000     -10.259501      -279.1752
  70   2.0000      -8.059179      -219.3014
  71   2.0000      -8.055782      -219.2090
  72   2.0000      -8.012472      -218.0304
  73   2.0000      -8.009157      -217.9402
  74   2.0000      -6.028175      -164.0350
  75   2.0000      -6.024761      -163.9421
  76   2.0000      -6.024172      -163.9260
  77   2.0000      -6.022002      -163.8670
  78   2.0000      -6.020544      -163.8273
  79   2.0000      -6.018566      -163.7735
  80   2.0000      -5.982269      -162.7858
  81   2.0000      -5.980623      -162.7410
  82   2.0000      -5.978933      -162.6950
  83   2.0000      -5.977313      -162.6510
  84   2.0000      -5.971094      -162.4817
  85   2.0000      -5.967822      -162.3927
  86   2.0000      -1.233959       -33.5777
  87   2.0000      -1.233455       -33.5640
  88   2.0000      -1.228592       -33.4317
  89   2.0000      -1.227629       -33.4055
  90   2.0000      -1.226864       -33.3847
  91   2.0000      -1.222660       -33.2703
  92   2.0000      -1.158844       -31.5337
  93   2.0000      -1.151370       -31.3304
  94   2.0000      -1.120551       -30.4917
  95   2.0000      -1.113165       -30.2908
  96   2.0000      -1.007622       -27.4188
  97   2.0000      -0.996032       -27.1034
  98   2.0000      -0.989654       -26.9299
  99   2.0000      -0.988548       -26.8998
 100   2.0000      -0.986144       -26.8343
 101   2.0000      -0.942480       -25.6462
 102   2.0000      -0.938625       -25.5413
 103   2.0000      -0.927692       -25.2438
 104   2.0000      -0.919704       -25.0264
 105   2.0000      -0.915103       -24.9012
 106   2.0000      -0.911304       -24.7978
 107   2.0000      -0.907680       -24.6992
 108   2.0000      -0.900934       -24.5157
 109   2.0000      -0.892821       -24.2949
 110   2.0000      -0.884896       -24.0792
 111   2.0000      -0.873480       -23.7686
 112   2.0000      -0.868722       -23.6391
 113   2.0000      -0.866339       -23.5743
 114   2.0000      -0.863582       -23.4993
 115   2.0000      -0.858559       -23.3626
 116   2.0000      -0.856722       -23.3126
 117   2.0000      -0.851786       -23.1783
 118   2.0000      -0.848639       -23.0926
 119   2.0000      -0.831816       -22.6349
 120   2.0000      -0.820147       -22.3173
 121   2.0000      -0.804860       -21.9014
 122   2.0000      -0.794866       -21.6294
 123   2.0000      -0.789357       -21.4795
 124   2.0000      -0.788071       -21.4445
 125   2.0000      -0.771195       -20.9853
 126   2.0000      -0.770853       -20.9760
 127   2.0000      -0.769445       -20.9377
 128   2.0000      -0.766983       -20.8707
 129   2.0000      -0.765422       -20.8282
 130   2.0000      -0.755732       -20.5645
 131   2.0000      -0.750023       -20.4092
 132   2.0000      -0.737053       -20.0562
 133   2.0000      -0.727812       -19.8048
 134   2.0000      -0.722602       -19.6630
 135   2.0000      -0.701432       -19.0869
 136   2.0000      -0.693108       -18.8604
 137   2.0000      -0.691568       -18.8185
 138   2.0000      -0.689460       -18.7612
 139   2.0000      -0.687104       -18.6970
 140   2.0000      -0.685384       -18.6503
 141   2.0000      -0.676888       -18.4191
 142   2.0000      -0.664760       -18.0890
 143   2.0000      -0.661532       -18.0012
 144   2.0000      -0.659534       -17.9468
 145   2.0000      -0.653090       -17.7715
 146   2.0000      -0.650271       -17.6948
 147   2.0000      -0.648825       -17.6554
 148   2.0000      -0.641345       -17.4519
 149   2.0000      -0.640069       -17.4172
 150   2.0000      -0.631539       -17.1851
 151   2.0000      -0.630143       -17.1471
 152   2.0000      -0.621986       -16.9251
 153   2.0000      -0.611681       -16.6447
 154   2.0000      -0.605034       -16.4638
 155   2.0000      -0.600780       -16.3481
 156   2.0000      -0.598971       -16.2988
 157   2.0000      -0.594780       -16.1848
 158   2.0000      -0.589515       -16.0415
 159   2.0000      -0.588517       -16.0144
 160   2.0000      -0.587394       -15.9838
 161   2.0000      -0.584715       -15.9109
 162   2.0000      -0.580635       -15.7999
 163   2.0000      -0.578840       -15.7510
 164   2.0000      -0.574274       -15.6268
 165   2.0000      -0.565191       -15.3796
 166   2.0000      -0.559363       -15.2210
 167   2.0000      -0.556078       -15.1316
 168   2.0000      -0.555494       -15.1157
 169   2.0000      -0.553645       -15.0654
 170   2.0000      -0.550932       -14.9916
 171   2.0000      -0.550166       -14.9708
 172   2.0000      -0.543269       -14.7831
 173   2.0000      -0.541385       -14.7318
 174   2.0000      -0.535392       -14.5687
 175   2.0000      -0.531865       -14.4728
 176   2.0000      -0.528636       -14.3849
 177   2.0000      -0.523679       -14.2500
 178   2.0000      -0.522262       -14.2115
 179   2.0000      -0.521178       -14.1820
 180   2.0000      -0.517220       -14.0743
 181   2.0000      -0.515483       -14.0270
 182   2.0000      -0.514275       -13.9941
 183   2.0000      -0.513014       -13.9598
 184   2.0000      -0.511540       -13.9197
 185   2.0000      -0.508068       -13.8252
 186   2.0000      -0.506080       -13.7711
 187   2.0000      -0.504200       -13.7200
 188   2.0000      -0.502671       -13.6784
 189   2.0000      -0.500575       -13.6213
 190   2.0000      -0.499798       -13.6002
 191   2.0000      -0.498279       -13.5589
 192   2.0000      -0.497566       -13.5395
 193   2.0000      -0.495573       -13.4852
 194   2.0000      -0.493617       -13.4320
 195   2.0000      -0.492862       -13.4115
 196   2.0000      -0.489621       -13.3233
 197   2.0000      -0.486434       -13.2366
 198   2.0000      -0.483999       -13.1703
 199   2.0000      -0.482859       -13.1393
 200   2.0000      -0.480171       -13.0661
 201   2.0000      -0.479697       -13.0532
 202   2.0000      -0.477842       -13.0028
 203   2.0000      -0.473584       -12.8869
 204   2.0000      -0.472546       -12.8586
 205   2.0000      -0.471498       -12.8301
 206   2.0000      -0.465562       -12.6686
 207   2.0000      -0.464216       -12.6320
 208   2.0000      -0.461709       -12.5638
 209   2.0000      -0.460717       -12.5368
 210   2.0000      -0.457780       -12.4568
 211   2.0000      -0.456788       -12.4298
 212   2.0000      -0.455441       -12.3932
 213   2.0000      -0.454117       -12.3572
 214   2.0000      -0.453892       -12.3510
 215   2.0000      -0.446749       -12.1567
 216   2.0000      -0.438271       -11.9260
 217   2.0000      -0.435307       -11.8453
 218   2.0000      -0.431159       -11.7324
 219   2.0000      -0.427953       -11.6452
 220   2.0000      -0.423069       -11.5123
 221   2.0000      -0.420044       -11.4300
 222   2.0000      -0.419291       -11.4095
 223   2.0000      -0.417767       -11.3680
 224   2.0000      -0.417131       -11.3507
 225   2.0000      -0.412577       -11.2268
 226   2.0000      -0.409029       -11.1302
 227   2.0000      -0.407152       -11.0792
 228   2.0000      -0.405137       -11.0243
 229   2.0000      -0.399352       -10.8669
 230   2.0000      -0.396574       -10.7913
 231   2.0000      -0.393924       -10.7192
 232   2.0000      -0.386961       -10.5297
 233   2.0000      -0.385503       -10.4901
 234   2.0000      -0.380600       -10.3567
 235   2.0000      -0.373046       -10.1511
 236   2.0000      -0.369302       -10.0492
 237   2.0000      -0.362748        -9.8709
 238   2.0000      -0.360913        -9.8209
 239   2.0000      -0.357012        -9.7148
 240   2.0000      -0.353692        -9.6244
 241   2.0000      -0.342521        -9.3205
 242   2.0000      -0.338585        -9.2134
 243   2.0000      -0.334764        -9.1094
 244   2.0000      -0.328570        -8.9408
 245   2.0000      -0.313556        -8.5323
 246   2.0000      -0.312034        -8.4909
 247   2.0000      -0.305050        -8.3008
 248   2.0000      -0.299350        -8.1457
 249   2.0000      -0.297812        -8.1039
 250   2.0000      -0.296316        -8.0632
 251   2.0000      -0.272375        -7.4117
 252   2.0000      -0.260855        -7.0982
 253   2.0000      -0.227010        -6.1773
 254   2.0000      -0.214762        -5.8440
 255   0.0000      -0.093766        -2.5515
 256   0.0000      -0.087034        -2.3683
 257   0.0000      -0.083423        -2.2701
 258   0.0000      -0.079169        -2.1543
 259   0.0000      -0.061441        -1.6719

MULLIKEN ATOMIC CHARGES
-----------------------
   0 C :    0.143436
   1 O :   -0.173835
   2 C :    0.097794
   3 C :    0.015921
   4 C :   -0.034741
   5 C :   -0.008738
   6 S :   -0.077208
   7 C :    0.033922
   8 C :    0.125308
   9 O :   -0.182523
  10 C :    0.174277
  11 C :   -0.078505
  12 C :   -0.035754
  13 C :    0.045666
  14 C :   -0.095101
  15 S :    0.109824
  16 C :   -0.111664
  17 C :    0.161854
  18 C :    0.127309
  19 C :   -0.100346
  20 C :   -0.073895
  21 C :    0.119948
  22 C :   -0.072332
  23 C :    0.118137
  24 C :   -0.097058
  25 C :    0.047177
  26 C :   -0.049978
  27 C :    0.022596
  28 C :   -0.065736
  29 C :    0.226091
  30 O :   -0.110227
  31 O :   -0.231735
  32 C :    0.228087
  33 O :   -0.113737
  34 C :   -0.097014
  35 C :    0.084724
  36 C :   -0.098408
  37 C :   -0.116949
  38 C :    0.229644
  39 O :   -0.099003
  40 O :   -0.230909
  41 C :    0.202619
  42 O :   -0.095976
  43 C :   -0.206677
  44 S :    0.204556
  45 C :   -0.071270
  46 C :    0.102209
  47 C :    0.192990
  48 C :   -0.100246
  49 C :   -0.080351
  50 C :    0.124342
  51 C :   -0.078824
  52 C :    0.123348
  53 C :   -0.099481
  54 C :   -0.017963
  55 C :   -0.004380
  56 C :    0.183951
  57 O :   -0.162900
  58 C :    0.111561
  59 C :    0.029299
  60 C :   -0.091636
  61 C :    0.002752
  62 S :   -0.082792
  63 C :    0.019468
  64 C :    0.103969
  65 O :   -0.164254
  66 C :    0.162953
  67 C :   -0.080038
  68 C :   -0.006798
  69 C :   -0.020718
  70 H :    0.013356
  71 H :    0.000584
  72 H :   -0.008036
  73 H :   -0.009040
  74 H :   -0.006168
  75 H :   -0.056475
  76 H :    0.022803
  77 H :    0.007090
  78 H :    0.021152
  79 H :    0.019446
  80 H :    0.010672
  81 H :    0.024719
  82 H :   -0.040464
  83 H :   -0.001663
  84 H :    0.015684
  85 H :   -0.046150
  86 H :    0.020717
  87 H :    0.005127
  88 H :    0.019901
  89 H :    0.022960
  90 H :    0.004044
  91 H :    0.015236
  92 H :   -0.048773
  93 H :   -0.013765
  94 H :    0.011249
  95 H :   -0.006206
  96 H :   -0.008442
  97 H :    0.005130
  98 H :    0.018467
  99 H :    0.030814
Sum of atomic charges:    0.0000000

LOEWDIN ATOMIC CHARGES
----------------------
   0 C :    0.035529
   1 O :    0.035460
   2 C :    0.023134
   3 C :   -0.094489
   4 C :   -0.038311
   5 C :   -0.126518
   6 S :    0.116819
   7 C :   -0.084847
   8 C :    0.023409
   9 O :    0.034902
  10 C :    0.032165
  11 C :   -0.029846
  12 C :   -0.040579
  13 C :   -0.047892
  14 C :   -0.156375
  15 S :    0.486016
  16 C :   -0.188324
  17 C :   -0.020950
  18 C :   -0.044921
  19 C :   -0.025801
  20 C :   -0.018697
  21 C :   -0.042707
  22 C :   -0.014284
  23 C :   -0.042433
  24 C :   -0.021883
  25 C :   -0.002390
  26 C :   -0.057228
  27 C :   -0.001417
  28 C :   -0.042480
  29 C :    0.106321
  30 O :   -0.103873
  31 O :   -0.058225
  32 C :    0.103404
  33 O :   -0.115923
  34 C :   -0.061275
  35 C :    0.007576
  36 C :   -0.059501
  37 C :   -0.059942
  38 C :    0.091140
  39 O :   -0.100319
  40 O :   -0.059290
  41 C :    0.100089
  42 O :   -0.097181
  43 C :   -0.209779
  44 S :    0.525056
  45 C :   -0.156680
  46 C :   -0.047322
  47 C :   -0.017649
  48 C :   -0.027684
  49 C :   -0.008403
  50 C :   -0.046243
  51 C :   -0.021829
  52 C :   -0.045178
  53 C :   -0.023275
  54 C :   -0.041417
  55 C :   -0.029477
  56 C :    0.025363
  57 O :    0.037906
  58 C :    0.026834
  59 C :   -0.085460
  60 C :   -0.025629
  61 C :   -0.126689
  62 S :    0.112316
  63 C :   -0.087721
  64 C :    0.024077
  65 O :    0.037570
  66 C :    0.027231
  67 C :   -0.029249
  68 C :   -0.036616
  69 C :   -0.037309
  70 H :    0.024806
  71 H :    0.039724
  72 H :    0.037288
  73 H :    0.035580
  74 H :    0.027503
  75 H :    0.021867
  76 H :    0.034968
  77 H :    0.028943
  78 H :    0.034393
  79 H :    0.034240
  80 H :    0.030776
  81 H :    0.035941
  82 H :    0.025565
  83 H :    0.039973
  84 H :    0.039504
  85 H :    0.018531
  86 H :    0.029361
  87 H :    0.026523
  88 H :    0.036726
  89 H :    0.035355
  90 H :    0.027741
  91 H :    0.031151
  92 H :    0.022225
  93 H :    0.031730
  94 H :    0.035243
  95 H :    0.035962
  96 H :    0.036803
  97 H :    0.038805
  98 H :    0.022905
  99 H :    0.029058

  Mayer bond orders larger than 0.100000
B(  0-C ,  1-O ) :   1.0787 B(  0-C ,  4-C ) :   1.5406 B(  0-C , 70-H ) :   1.0054
B(  1-O ,  2-C ) :   1.1905 B(  2-C ,  3-C ) :   1.4614 B(  2-C ,  8-C ) :   1.0882
B(  3-C ,  4-C ) :   1.2342 B(  3-C ,  5-C ) :   1.0229 B(  4-C , 71-H ) :   1.0114
B(  5-C ,  6-S ) :   1.7737 B(  5-C ,  7-C ) :   0.9883 B(  7-C ,  8-C ) :   1.4445
B(  7-C , 11-C ) :   1.2542 B(  8-C ,  9-O ) :   1.1854 B(  8-C , 10-C ) :   0.1016
B(  9-O , 10-C ) :   1.0920 B( 10-C , 11-C ) :   1.3924 B( 10-C , 12-C ) :   1.1825
B( 11-C , 72-H ) :   1.0206 B( 12-C , 13-C ) :   1.6146 B( 12-C , 73-H ) :   0.9565
B( 13-C , 14-C ) :   1.1735 B( 13-C , 74-H ) :   0.9458 B( 14-C , 15-S ) :   1.1451
B( 14-C , 16-C ) :   0.1037 B( 14-C , 18-C ) :   1.3155 B( 15-S , 16-C ) :   1.1232
B( 16-C , 17-C ) :   1.3111 B( 16-C , 25-C ) :   1.1492 B( 17-C , 18-C ) :   1.2220
B( 17-C , 24-C ) :   1.1985 B( 18-C , 19-C ) :   1.1787 B( 19-C , 20-C ) :   1.5507
B( 19-C , 75-H ) :   0.9939 B( 20-C , 21-C ) :   1.0908 B( 20-C , 22-C ) :   1.2270
B( 21-C , 76-H ) :   0.9408 B( 21-C , 77-H ) :   0.9511 B( 21-C , 78-H ) :   0.9411
B( 22-C , 23-C ) :   1.0900 B( 22-C , 24-C ) :   1.5425 B( 23-C , 79-H ) :   0.9412
B( 23-C , 80-H ) :   0.9519 B( 23-C , 81-H ) :   0.9410 B( 24-C , 82-H ) :   0.9915
B( 25-C , 26-C ) :   1.7068 B( 25-C , 83-H ) :   0.9528 B( 26-C , 27-C ) :   1.1164
B( 26-C , 84-H ) :   0.9415 B( 27-C , 28-C ) :   1.3449 B( 27-C , 37-C ) :   1.2764
B( 28-C , 29-C ) :   0.9151 B( 28-C , 34-C ) :   1.3501 B( 29-C , 30-O ) :   2.2340
B( 29-C , 31-O ) :   1.0560 B( 31-O , 32-C ) :   1.0552 B( 32-C , 33-O ) :   2.2252
B( 32-C , 34-C ) :   0.9204 B( 34-C , 35-C ) :   1.3100 B( 35-C , 36-C ) :   1.2938
B( 35-C , 43-C ) :   1.1420 B( 36-C , 37-C ) :   1.3670 B( 36-C , 41-C ) :   0.9178
B( 37-C , 38-C ) :   0.9040 B( 38-C , 39-O ) :   2.2535 B( 38-C , 40-O ) :   1.0617
B( 40-O , 41-C ) :   1.0435 B( 41-C , 42-O ) :   2.2589 B( 43-C , 44-S ) :   1.1463
B( 43-C , 45-C ) :   0.1076 B( 43-C , 47-C ) :   1.3076 B( 44-S , 45-C ) :   1.1739
B( 45-C , 46-C ) :   1.2703 B( 45-C , 54-C ) :   1.2027 B( 46-C , 47-C ) :   1.2440
B( 46-C , 53-C ) :   1.1989 B( 47-C , 48-C ) :   1.1916 B( 48-C , 49-C ) :   1.5549
B( 48-C , 85-H ) :   0.9693 B( 49-C , 50-C ) :   1.0860 B( 49-C , 51-C ) :   1.2357
B( 50-C , 86-H ) :   0.9391 B( 50-C , 87-H ) :   0.9477 B( 50-C , 88-H ) :   0.9294
B( 51-C , 52-C ) :   1.0933 B( 51-C , 53-C ) :   1.5444 B( 52-C , 89-H ) :   0.9384
B( 52-C , 90-H ) :   0.9489 B( 52-C , 91-H ) :   0.9383 B( 53-C , 92-H ) :   0.9878
B( 54-C , 55-C ) :   1.6096 B( 54-C , 93-H ) :   0.9689 B( 55-C , 56-C ) :   1.1497
B( 55-C , 94-H ) :   0.9645 B( 56-C , 57-O ) :   1.0776 B( 56-C , 58-C ) :   0.1051
B( 56-C , 60-C ) :   1.4137 B( 57-O , 58-C ) :   1.2238 B( 58-C , 59-C ) :   1.4147
B( 58-C , 64-C ) :   1.0975 B( 59-C , 60-C ) :   1.2761 B( 59-C , 61-C ) :   0.9865
B( 60-C , 95-H ) :   1.0118 B( 61-C , 62-S ) :   1.7716 B( 61-C , 63-C ) :   1.0006
B( 63-C , 64-C ) :   1.4299 B( 63-C , 67-C ) :   1.2513 B( 64-C , 65-O ) :   1.2217
B( 64-C , 66-C ) :   0.1024 B( 65-O , 66-C ) :   1.0771 B( 66-C , 67-C ) :   1.4654
B( 66-C , 68-C ) :   1.1058 B( 67-C , 96-H ) :   1.0128 B( 68-C , 69-C ) :   1.9288
B( 68-C , 97-H ) :   0.9564 B( 69-C , 98-H ) :   0.9546 B( 69-C , 99-H ) :   0.9505

-----------------------------------------------------------------------------
         ABSORPTION SPECTRUM VIA TRANSITION ELECTRIC DIPOLE MOMENTS
-----------------------------------------------------------------------------
State   Energy  Wavelength   fosc         T2         TX        TY        TZ
        (cm-1)    (nm)                  (au**2)     (au)      (au)      (au)
-----------------------------------------------------------------------------
   0   10755.4    929.8   0.250431933   7.66547  -1.29064  -0.51587  -2.39449
   1   11126.2    898.8   0.072585140   2.14771  -0.06211  -1.46259   0.06843
   2   12397.4    806.6   0.093971126   2.49539   1.26784  -0.22298   0.91556
   3   13743.5    727.6   0.645192052  15.45489   1.64484  -0.14402   3.56772
   4   15243.4    656.0   0.084307243   1.82078   0.42825  -1.22481   0.37043
   5   17108.2    584.5   0.400192870   7.70090   0.89612  -2.35815   1.15628
   6   18372.7    544.3   0.440992320   7.90194  -1.09825   2.02299  -1.61348
   7   18493.9    540.7   0.000299608   0.00533   0.02838  -0.05078   0.04415
   8   18680.1    535.3   0.000000347   0.00001  -0.00100   0.00214  -0.00074
   9   20100.1    497.5   0.144917845   2.37356  -0.48220   1.32899  -0.61224
  10   21424.4    466.8   0.028978118   0.44528   0.15444   0.34519   0.54979
  11   22307.9    448.3   0.033492951   0.49428   0.22122   0.43469   0.50634
  12   22968.4    435.4   0.211299967   3.02862  -0.02912   1.58185   0.72494
  13   23961.4    417.3   0.167976312   2.30787  -0.12196   1.40312   0.56943
  14   25130.1    397.9   0.071335068   0.93451   0.49208  -0.77837   0.29411
  15   25610.9    390.5   0.114818363   1.47592  -0.36351  -0.05214  -1.15804
  16   25966.0    385.1   0.137617224   1.74479   0.03881  -1.30942  -0.16940
  17   26820.2    372.9   0.249307323   3.06019  -0.11533  -1.38047  -1.06827
  18   27497.2    363.7   0.168947874   2.02274   0.46194  -0.34503   1.30011
  19   28127.6    355.5   0.060691461   0.71035  -0.33021   0.48202  -0.60743
  20   28301.8    353.3   0.096485658   1.12234  -0.38389   0.34688  -0.92447
  21   28656.4    349.0   0.008693711   0.09988  -0.17494   0.24317  -0.10069
  22   29659.8    337.2   0.048805685   0.54172   0.20157  -0.70636   0.04641
  23   29713.7    336.5   0.340328928   3.77066  -0.58182  -0.13322  -1.84781
  24   30544.4    327.4   0.200769402   2.16392  -0.73064   0.84010  -0.96141
  25   31055.6    322.0   0.007738998   0.08204  -0.05715  -0.22761  -0.16421
  26   31625.7    316.2   0.069495141   0.72342   0.05915   0.45308   0.71738
  27   31659.8    315.9   0.023464406   0.24399  -0.11622   0.40037  -0.26493
  28   31838.0    314.1   0.132924058   1.37446  -0.41624   0.38896  -1.02466
  29   32213.5    310.4   0.137636941   1.40661   0.35071  -0.23236   1.10888
  30   32482.4    307.9   0.106499234   1.07938  -0.14753   1.02811  -0.02456
  31   32668.2    306.1   0.013772288   0.13879   0.02971   0.17850   0.32564
  32   32788.0    305.0   0.013513916   0.13569   0.18310   0.21200  -0.23920
  33   32957.9    303.4   0.074026316   0.73944  -0.23168  -0.36427  -0.74369
  34   33519.7    298.3   0.001349737   0.01326   0.04906  -0.10033  -0.02799
  35   33829.9    295.6   0.000001672   0.00002   0.00266   0.00044  -0.00300
  36   34051.1    293.7   0.081560830   0.78854   0.03781  -0.87791   0.12802
  37   34281.0    291.7   0.000130824   0.00126  -0.00679   0.00956   0.03345
  38   34346.8    291.1   0.003732998   0.03578   0.03576  -0.18068   0.04307
  39   34690.1    288.3   0.046615352   0.44238  -0.25371   0.17337   0.58988
  40   34781.9    287.5   0.018012716   0.17049   0.09177   0.11245  -0.38656
  41   34895.5    286.6   0.028646472   0.27026   0.39593  -0.16686   0.29266
  42   35474.9    281.9   0.011640752   0.10803   0.06407   0.01034   0.32220
  43   35555.3    281.3   0.007619083   0.07055  -0.08528  -0.25141  -0.00829
  44   35988.5    277.9   0.068552393   0.62710   0.04667  -0.60291  -0.51129
  45   36356.5    275.1   0.007136255   0.06462  -0.16887  -0.08645  -0.16920
  46   36611.6    273.1   0.040797812   0.36685  -0.14333  -0.34205  -0.47887
  47   36935.5    270.7   0.035543189   0.31680  -0.07719  -0.27816  -0.48319
  48   37544.3    266.4   0.027004485   0.23679   0.26021  -0.19083   0.36423
  49   37852.0    264.2   0.000008933   0.00008   0.00218  -0.00044   0.00853
  50   38032.2    262.9   0.073835241   0.63913   0.24429   0.06719   0.75824
  51   38159.5    262.1   0.004768447   0.04114   0.08549  -0.18141  -0.03035
  52   38343.1    260.8   0.071947384   0.61774  -0.15200  -0.10485  -0.76396
  53   38531.7    259.5   0.013474183   0.11512   0.13850  -0.27428   0.14391
  54   38691.0    258.5   0.025460533   0.21664  -0.03538   0.41961   0.19827
  55   38751.6    258.1   0.000004575   0.00004  -0.00244  -0.00565  -0.00098
  56   38770.8    257.9   0.000005428   0.00005  -0.00118  -0.00153  -0.00651
  57   38910.4    257.0   0.019515026   0.16511   0.08818  -0.39656   0.00882
  58   39128.6    255.6   0.105310479   0.88604  -0.43908   0.79522  -0.24671
  59   39338.9    254.2   0.007804453   0.06531  -0.08744  -0.15708  -0.18164
  60   39563.4    252.8   0.022887224   0.19045   0.14085  -0.32444   0.25563
  61   39844.1    251.0   0.008255696   0.06821   0.09408  -0.06028   0.23607
  62   40182.7    248.9   0.010701633   0.08768  -0.07750   0.23717  -0.15945
  63   40304.2    248.1   0.000237121   0.00194  -0.02136   0.03200  -0.02137

FINAL SINGLE POINT ENERGY     -4492.828975029155

DIPOLE MOMENT
-------------
                                X             Y             Z
Electronic contribution:     -9.44181      -1.79912     -36.08169
Nuclear contribution   :      9.74666       3.05335      36.88611
                        -----------------------------------------
Total Dipole Moment    :      0.30485       1.25423       0.80442
                        -----------------------------------------
Magnitude (a.u.)       :      1.52089
Magnitude (Debye)      :      3.86580

Rotational constants in cm-1:     0.001231     0.000404     0.000317
Rotational constants in MHz :    36.891814    12.125611     9.501568

                             ****ORCA TERMINATED NORMALLY****
TOTAL RUN TIME: 0 days 0 hours 10 minutes 59 seconds 674 msec
