                         Program Version 4.2.0 -  RELEASE  -
|  1> # ORCA input file
|  2> # SCF done       -180.261558327171          0.000712307010
|  3> ! CAM-B3LYP def2-SVP def2/J RIJCOSX Grid4 TightSCF
|  4> %maxcore 5000
|  5> %tddft
|  6>     Mode sTDDFT
|  7>     Ethresh 5.0
|  8>     maxcore 5000
|  9> end
| 10>
| 11> %pal
| 12>   nprocs 6
| 13>   end
| 14> * xyz 0 1
| 15>    C       10.57288        -2.61175        -4.35563
| 16>    O       10.60572        -1.40669        -3.78798
| 17>    C        9.45145        -1.23904        -3.08992
| 18>    C        8.66973        -2.36442        -3.21793
| 19>    C        9.40115        -3.25934        -4.04341
| 20>    C        9.00602        -4.54406        -4.44908
| 21>    N        8.66851        -5.59164        -4.76865
| 22>    C        9.27091        -0.01446        -2.37705
| 23>    C        8.19018         0.28441        -1.62686
| 24>    C        8.03858         1.48646        -0.88420
| 25>    S        9.25256         2.73275        -0.90973
| 26>    C        8.37056         3.69282         0.24397
| 27>    C        7.19166         3.06236         0.60885
| 28>    C        6.99750         1.83178        -0.03800
| 29>    C        5.78402         0.98322         0.18578
| 30>    C        4.65105         1.79216         0.82256
| 31>    C        4.03439         2.73871        -0.19882
| 32>    O        4.50982         2.98023        -1.26852
| 33>    O        2.88484         3.31850         0.19220
| 34>    C        5.17665         2.60933         2.03110
| 35>    O        5.70123         1.76828         3.02410
| 36>    C        6.19195         3.65341         1.55493
| 37>    C        8.88640         4.92383         0.72442
| 38>    C        9.94489         5.56768         0.18065
| 39>    C       10.53658         6.74221         0.71097
| 40>    S       10.14564         7.32291         2.30289
| 41>    C       11.31554         8.61054         2.18450
| 42>    C       11.92485         8.60891         0.93670
| 43>    C       11.50085         7.54763         0.12200
| 44>    C       12.00688         7.32226        -1.27206
| 45>    C       13.22701         8.20002        -1.60171
| 46>    C       14.52414         7.58349        -1.08973
| 47>    O       15.24990         8.07987        -0.27739
| 48>    O       14.83794         6.40471        -1.64830
| 49>    C       13.02582         9.63255        -1.06634
| 50>    O       11.92418        10.24927        -1.68643
| 51>    C       12.90461         9.63299         0.46059
| 52>    C       11.53125         9.40232         3.34384
| 53>    C       12.60971        10.18200         3.59352
| 54>    C       12.82955        10.87450         4.81277
| 55>    S       11.67103        10.87454         6.10499
| 56>    C       12.71428        11.83532         7.12191
| 57>    C       13.89458        12.15132         6.45970
| 58>    C       13.95834        11.60028         5.17027
| 59>    C       15.13923        11.78053         4.26377
| 60>    C       16.38752        12.21792         5.04662
| 61>    C       17.00098        11.03782         5.79321
| 62>    O       17.05668        10.92812         6.98241
| 63>    O       17.51272        10.08413         4.99819
| 64>    C       16.04019        13.38626         5.99120
| 65>    O       15.62694        14.51184         5.25125
| 66>    C       14.99953        12.97513         7.03781
| 67>    C       12.23724        12.12220         8.42715
| 68>    C       12.90051        12.70579         9.45406
| 69>    C       12.30419        12.90893        10.72867
| 70>    O       11.04210        12.52497        10.99829
| 71>    C       10.76608        12.84045        12.28992
| 72>    C       11.85944        13.44015        12.86906
| 73>    C       12.85882        13.49047        11.87038
| 74>    C       14.14760        14.02377        11.98383
| 75>    N       15.20102        14.46929        12.07589
| 76>    C        9.46098        12.51240        12.79749
| 77>    C        9.04621        12.75068        14.03884
| 78>    H       11.41156        -2.91623        -4.95030
| 79>    H        7.70569        -2.54427        -2.79018
| 80>    H       10.08653         0.69129        -2.45613
| 81>    H        7.38174        -0.42786        -1.54838
| 82>    H        6.03161         0.13280         0.83008
| 83>    H        5.43659         0.58582        -0.76996
| 84>    H        3.87698         1.10353         1.18185
| 85>    H        2.58016         3.01593         1.05770
| 86>    H        4.34103         3.12235         2.52429
| 87>    H        6.54477         1.41619         2.71626
| 88>    H        6.69395         4.07370         2.43032
| 89>    H        5.66291         4.46920         1.05264
| 90>    H        8.39222         5.35786         1.58356
| 91>    H       10.39109         5.16179        -0.71798
| 92>    H       11.20565         7.54818        -1.98464
| 93>    H       12.25038         6.26233        -1.39747
| 94>    H       13.31849         8.26691        -2.69412
| 95>    H       14.20304         6.11940        -2.31927
| 96>    H       13.89124        10.23845        -1.35558
| 97>    H       11.11574         9.87298        -1.31863
| 98>    H       12.59273        10.62934         0.78398
| 99>    H       13.89267         9.42239         0.87504
|100>    H       10.78485         9.29748         4.12197
|101>    H       13.39542        10.26507         2.86136
|102>    H       14.91116        12.54105         3.50811
|103>    H       15.33412        10.84730         3.72775
|104>    H       17.13772        12.58157         4.33234
|105>    H       17.44419        10.28902         4.05591
|106>    H       16.95272        13.70497         6.50554
|107>    H       14.72107        14.36731         4.95436
|108>    H       14.59721        13.88603         7.48879
|109>    H       15.50291        12.39847         7.81680
|110>    H       11.21957        11.80103         8.61425
|111>    H       13.92459        13.02978         9.37902
|112>    H       11.94804        13.80012        13.87307
|113>    H        8.80902        12.03762        12.07681
|114>    H        9.67905        13.22074        14.77120
|115>    H        8.05594        12.48005        14.35845
|116> *
|117>
|118>                          ****END OF INPUT****

CARTESIAN COORDINATES (ANGSTROEM)
---------------------------------
  C     10.572880   -2.611750   -4.355630
  O     10.605720   -1.406690   -3.787980
  C      9.451450   -1.239040   -3.089920
  C      8.669730   -2.364420   -3.217930
  C      9.401150   -3.259340   -4.043410
  C      9.006020   -4.544060   -4.449080
  N      8.668510   -5.591640   -4.768650
  C      9.270910   -0.014460   -2.377050
  C      8.190180    0.284410   -1.626860
  C      8.038580    1.486460   -0.884200
  S      9.252560    2.732750   -0.909730
  C      8.370560    3.692820    0.243970
  C      7.191660    3.062360    0.608850
  C      6.997500    1.831780   -0.038000
  C      5.784020    0.983220    0.185780
  C      4.651050    1.792160    0.822560
  C      4.034390    2.738710   -0.198820
  O      4.509820    2.980230   -1.268520
  O      2.884840    3.318500    0.192200
  C      5.176650    2.609330    2.031100
  O      5.701230    1.768280    3.024100
  C      6.191950    3.653410    1.554930
  C      8.886400    4.923830    0.724420
  C      9.944890    5.567680    0.180650
  C     10.536580    6.742210    0.710970
  S     10.145640    7.322910    2.302890
  C     11.315540    8.610540    2.184500
  C     11.924850    8.608910    0.936700
  C     11.500850    7.547630    0.122000
  C     12.006880    7.322260   -1.272060
  C     13.227010    8.200020   -1.601710
  C     14.524140    7.583490   -1.089730
  O     15.249900    8.079870   -0.277390
  O     14.837940    6.404710   -1.648300
  C     13.025820    9.632550   -1.066340
  O     11.924180   10.249270   -1.686430
  C     12.904610    9.632990    0.460590
  C     11.531250    9.402320    3.343840
  C     12.609710   10.182000    3.593520
  C     12.829550   10.874500    4.812770
  S     11.671030   10.874540    6.104990
  C     12.714280   11.835320    7.121910
  C     13.894580   12.151320    6.459700
  C     13.958340   11.600280    5.170270
  C     15.139230   11.780530    4.263770
  C     16.387520   12.217920    5.046620
  C     17.000980   11.037820    5.793210
  O     17.056680   10.928120    6.982410
  O     17.512720   10.084130    4.998190
  C     16.040190   13.386260    5.991200
  O     15.626940   14.511840    5.251250
  C     14.999530   12.975130    7.037810
  C     12.237240   12.122200    8.427150
  C     12.900510   12.705790    9.454060
  C     12.304190   12.908930   10.728670
  O     11.042100   12.524970   10.998290
  C     10.766080   12.840450   12.289920
  C     11.859440   13.440150   12.869060
  C     12.858820   13.490470   11.870380
  C     14.147600   14.023770   11.983830
  N     15.201020   14.469290   12.075890
  C      9.460980   12.512400   12.797490
  C      9.046210   12.750680   14.038840
  H     11.411560   -2.916230   -4.950300
  H      7.705690   -2.544270   -2.790180
  H     10.086530    0.691290   -2.456130
  H      7.381740   -0.427860   -1.548380
  H      6.031610    0.132800    0.830080
  H      5.436590    0.585820   -0.769960
  H      3.876980    1.103530    1.181850
  H      2.580160    3.015930    1.057700
  H      4.341030    3.122350    2.524290
  H      6.544770    1.416190    2.716260
  H      6.693950    4.073700    2.430320
  H      5.662910    4.469200    1.052640
  H      8.392220    5.357860    1.583560
  H     10.391090    5.161790   -0.717980
  H     11.205650    7.548180   -1.984640
  H     12.250380    6.262330   -1.397470
  H     13.318490    8.266910   -2.694120
  H     14.203040    6.119400   -2.319270
  H     13.891240   10.238450   -1.355580
  H     11.115740    9.872980   -1.318630
  H     12.592730   10.629340    0.783980
  H     13.892670    9.422390    0.875040
  H     10.784850    9.297480    4.121970
  H     13.395420   10.265070    2.861360
  H     14.911160   12.541050    3.508110
  H     15.334120   10.847300    3.727750
  H     17.137720   12.581570    4.332340
  H     17.444190   10.289020    4.055910
  H     16.952720   13.704970    6.505540
  H     14.721070   14.367310    4.954360
  H     14.597210   13.886030    7.488790
  H     15.502910   12.398470    7.816800
  H     11.219570   11.801030    8.614250
  H     13.924590   13.029780    9.379020
  H     11.948040   13.800120   13.873070
  H      8.809020   12.037620   12.076810
  H      9.679050   13.220740   14.771200
  H      8.055940   12.480050   14.358450

 Total Charge           Charge          ....    0
 Multiplicity           Mult            ....    1
 Number of Electrons    NEL             ....  470
 Basis Dimension        Dim             .... 1084

ORBITAL ENERGIES
----------------

  NO   OCC          E(Eh)            E(eV)
   0   2.0000     -88.959158     -2420.7018
   1   2.0000     -88.958412     -2420.6814
   2   2.0000     -88.955452     -2420.6009
   3   2.0000     -19.311864      -525.5025
   4   2.0000     -19.302214      -525.2399
   5   2.0000     -19.272708      -524.4371
   6   2.0000     -19.271380      -524.4009
   7   2.0000     -19.261032      -524.1193
   8   2.0000     -19.230407      -523.2860
   9   2.0000     -19.220504      -523.0165
  10   2.0000     -19.214050      -522.8409
  11   2.0000     -19.213351      -522.8219
  12   2.0000     -19.209857      -522.7268
  13   2.0000     -19.201946      -522.5115
  14   2.0000     -14.404614      -391.9695
  15   2.0000     -14.397656      -391.7801
  16   2.0000     -10.412538      -283.3396
  17   2.0000     -10.408748      -283.2364
  18   2.0000     -10.401241      -283.0322
  19   2.0000     -10.350753      -281.6583
  20   2.0000     -10.348625      -281.6004
  21   2.0000     -10.345697      -281.5207
  22   2.0000     -10.345522      -281.5160
  23   2.0000     -10.337529      -281.2985
  24   2.0000     -10.329500      -281.0800
  25   2.0000     -10.321702      -280.8678
  26   2.0000     -10.313003      -280.6311
  27   2.0000     -10.307317      -280.4764
  28   2.0000     -10.307273      -280.4751
  29   2.0000     -10.307114      -280.4708
  30   2.0000     -10.307102      -280.4705
  31   2.0000     -10.305654      -280.4311
  32   2.0000     -10.304482      -280.3992
  33   2.0000     -10.304092      -280.3886
  34   2.0000     -10.303084      -280.3612
  35   2.0000     -10.302685      -280.3503
  36   2.0000     -10.302557      -280.3468
  37   2.0000     -10.302174      -280.3364
  38   2.0000     -10.299805      -280.2719
  39   2.0000     -10.297366      -280.2056
  40   2.0000     -10.296482      -280.1815
  41   2.0000     -10.293365      -280.0967
  42   2.0000     -10.293199      -280.0922
  43   2.0000     -10.292782      -280.0808
  44   2.0000     -10.292672      -280.0778
  45   2.0000     -10.292574      -280.0752
  46   2.0000     -10.292125      -280.0630
  47   2.0000     -10.291460      -280.0449
  48   2.0000     -10.290378      -280.0154
  49   2.0000     -10.289932      -280.0033
  50   2.0000     -10.289175      -279.9827
  51   2.0000     -10.288727      -279.9705
  52   2.0000     -10.288030      -279.9515
  53   2.0000     -10.287297      -279.9316
  54   2.0000     -10.286981      -279.9230
  55   2.0000     -10.286719      -279.9159
  56   2.0000     -10.285833      -279.8917
  57   2.0000     -10.285328      -279.8780
  58   2.0000     -10.284088      -279.8443
  59   2.0000     -10.284075      -279.8439
  60   2.0000     -10.275522      -279.6112
  61   2.0000     -10.273490      -279.5559
  62   2.0000     -10.266597      -279.3683
  63   2.0000      -8.054764      -219.1813
  64   2.0000      -8.053790      -219.1548
  65   2.0000      -8.051004      -219.0790
  66   2.0000      -6.023875      -163.9180
  67   2.0000      -6.022920      -163.8920
  68   2.0000      -6.020086      -163.8149
  69   2.0000      -6.020070      -163.8144
  70   2.0000      -6.019193      -163.7906
  71   2.0000      -6.016930      -163.7290
  72   2.0000      -6.016321      -163.7124
  73   2.0000      -6.015888      -163.7006
  74   2.0000      -6.013208      -163.6277
  75   2.0000      -1.230833       -33.4927
  76   2.0000      -1.220482       -33.2110
  77   2.0000      -1.196687       -32.5635
  78   2.0000      -1.193521       -32.4774
  79   2.0000      -1.184916       -32.2432
  80   2.0000      -1.124892       -30.6099
  81   2.0000      -1.114824       -30.3359
  82   2.0000      -1.110692       -30.2235
  83   2.0000      -1.109109       -30.1804
  84   2.0000      -1.107216       -30.1289
  85   2.0000      -1.099938       -29.9308
  86   2.0000      -1.000132       -27.2150
  87   2.0000      -0.996662       -27.1206
  88   2.0000      -0.993116       -27.0241
  89   2.0000      -0.990233       -26.9456
  90   2.0000      -0.983375       -26.7590
  91   2.0000      -0.930529       -25.3210
  92   2.0000      -0.929507       -25.2932
  93   2.0000      -0.928097       -25.2548
  94   2.0000      -0.925347       -25.1800
  95   2.0000      -0.920750       -25.0549
  96   2.0000      -0.917698       -24.9718
  97   2.0000      -0.915707       -24.9177
  98   2.0000      -0.910676       -24.7807
  99   2.0000      -0.898238       -24.4423
 100   2.0000      -0.884474       -24.0678
 101   2.0000      -0.873821       -23.7779
 102   2.0000      -0.861555       -23.4441
 103   2.0000      -0.855110       -23.2687
 104   2.0000      -0.845952       -23.0195
 105   2.0000      -0.843097       -22.9418
 106   2.0000      -0.840027       -22.8583
 107   2.0000      -0.839232       -22.8367
 108   2.0000      -0.820460       -22.3258
 109   2.0000      -0.810972       -22.0677
 110   2.0000      -0.791529       -21.5386
 111   2.0000      -0.771498       -20.9935
 112   2.0000      -0.755126       -20.5480
 113   2.0000      -0.751529       -20.4501
 114   2.0000      -0.748206       -20.3597
 115   2.0000      -0.747566       -20.3423
 116   2.0000      -0.745751       -20.2929
 117   2.0000      -0.741913       -20.1885
 118   2.0000      -0.730927       -19.8895
 119   2.0000      -0.726188       -19.7606
 120   2.0000      -0.721874       -19.6432
 121   2.0000      -0.714092       -19.4314
 122   2.0000      -0.706059       -19.2128
 123   2.0000      -0.704542       -19.1716
 124   2.0000      -0.691260       -18.8101
 125   2.0000      -0.688672       -18.7397
 126   2.0000      -0.685298       -18.6479
 127   2.0000      -0.676278       -18.4025
 128   2.0000      -0.669835       -18.2271
 129   2.0000      -0.660900       -17.9840
 130   2.0000      -0.658083       -17.9073
 131   2.0000      -0.649188       -17.6653
 132   2.0000      -0.642969       -17.4961
 133   2.0000      -0.638564       -17.3762
 134   2.0000      -0.627050       -17.0629
 135   2.0000      -0.623806       -16.9746
 136   2.0000      -0.620261       -16.8781
 137   2.0000      -0.608298       -16.5526
 138   2.0000      -0.606095       -16.4927
 139   2.0000      -0.600194       -16.3321
 140   2.0000      -0.596219       -16.2240
 141   2.0000      -0.591144       -16.0858
 142   2.0000      -0.588710       -16.0196
 143   2.0000      -0.582558       -15.8522
 144   2.0000      -0.573745       -15.6124
 145   2.0000      -0.572913       -15.5897
 146   2.0000      -0.569724       -15.5030
 147   2.0000      -0.568879       -15.4800
 148   2.0000      -0.567824       -15.4513
 149   2.0000      -0.565420       -15.3859
 150   2.0000      -0.560864       -15.2619
 151   2.0000      -0.559814       -15.2333
 152   2.0000      -0.557603       -15.1731
 153   2.0000      -0.551240       -15.0000
 154   2.0000      -0.549707       -14.9583
 155   2.0000      -0.548774       -14.9329
 156   2.0000      -0.542912       -14.7734
 157   2.0000      -0.542143       -14.7525
 158   2.0000      -0.537589       -14.6285
 159   2.0000      -0.534271       -14.5383
 160   2.0000      -0.533410       -14.5148
 161   2.0000      -0.529747       -14.4152
 162   2.0000      -0.525008       -14.2862
 163   2.0000      -0.523326       -14.2404
 164   2.0000      -0.521516       -14.1912
 165   2.0000      -0.516558       -14.0562
 166   2.0000      -0.514563       -14.0020
 167   2.0000      -0.513451       -13.9717
 168   2.0000      -0.510562       -13.8931
 169   2.0000      -0.508835       -13.8461
 170   2.0000      -0.507637       -13.8135
 171   2.0000      -0.504955       -13.7405
 172   2.0000      -0.501892       -13.6572
 173   2.0000      -0.499243       -13.5851
 174   2.0000      -0.498430       -13.5630
 175   2.0000      -0.494120       -13.4457
 176   2.0000      -0.492939       -13.4136
 177   2.0000      -0.489907       -13.3310
 178   2.0000      -0.488416       -13.2905
 179   2.0000      -0.487208       -13.2576
 180   2.0000      -0.481894       -13.1130
 181   2.0000      -0.480989       -13.0884
 182   2.0000      -0.478406       -13.0181
 183   2.0000      -0.473239       -12.8775
 184   2.0000      -0.470023       -12.7900
 185   2.0000      -0.466061       -12.6822
 186   2.0000      -0.464336       -12.6352
 187   2.0000      -0.459811       -12.5121
 188   2.0000      -0.455782       -12.4025
 189   2.0000      -0.454371       -12.3641
 190   2.0000      -0.453378       -12.3370
 191   2.0000      -0.451803       -12.2942
 192   2.0000      -0.451234       -12.2787
 193   2.0000      -0.448404       -12.2017
 194   2.0000      -0.445589       -12.1251
 195   2.0000      -0.444384       -12.0923
 196   2.0000      -0.439681       -11.9643
 197   2.0000      -0.437095       -11.8940
 198   2.0000      -0.434640       -11.8272
 199   2.0000      -0.434274       -11.8172
 200   2.0000      -0.433275       -11.7900
 201   2.0000      -0.427654       -11.6371
 202   2.0000      -0.426394       -11.6028
 203   2.0000      -0.423312       -11.5189
 204   2.0000      -0.419279       -11.4092
 205   2.0000      -0.417123       -11.3505
 206   2.0000      -0.414525       -11.2798
 207   2.0000      -0.409388       -11.1400
 208   2.0000      -0.407814       -11.0972
 209   2.0000      -0.405307       -11.0290
 210   2.0000      -0.405080       -11.0228
 211   2.0000      -0.403359       -10.9759
 212   2.0000      -0.400391       -10.8952
 213   2.0000      -0.399451       -10.8696
 214   2.0000      -0.397121       -10.8062
 215   2.0000      -0.393759       -10.7147
 216   2.0000      -0.391041       -10.6408
 217   2.0000      -0.386216       -10.5095
 218   2.0000      -0.372204       -10.1282
 219   2.0000      -0.368234       -10.0201
 220   2.0000      -0.361192        -9.8285
 221   2.0000      -0.357358        -9.7242
 222   2.0000      -0.353452        -9.6179
 223   2.0000      -0.352812        -9.6005
 224   2.0000      -0.351365        -9.5611
 225   2.0000      -0.347716        -9.4618
 226   2.0000      -0.344311        -9.3692
 227   2.0000      -0.330688        -8.9985
 228   2.0000      -0.320036        -8.7086
 229   2.0000      -0.317249        -8.6328
 230   2.0000      -0.315351        -8.5811
 231   2.0000      -0.305474        -8.3124
 232   2.0000      -0.278552        -7.5798
 233   2.0000      -0.250664        -6.8209
 234   2.0000      -0.226660        -6.1677
 235   0.0000      -0.077219        -2.1012
 236   0.0000      -0.052923        -1.4401
 237   0.0000      -0.022617        -0.6154
 238   0.0000       0.000222         0.0060
 239   0.0000       0.011537         0.3139

MULLIKEN ATOMIC CHARGES
-----------------------
   0 C :    0.125530
   1 O :   -0.175043
   2 C :    0.175887
   3 C :   -0.053219
   4 C :   -0.133278
   5 C :   -0.125782
   6 N :    0.136000
   7 C :    0.002945
   8 C :   -0.005404
   9 C :   -0.090136
  10 S :    0.088084
  11 C :   -0.078521
  12 C :   -0.093930
  13 C :   -0.059366
  14 C :    0.148809
  15 C :   -0.122890
  16 C :    0.127569
  17 O :   -0.164132
  18 O :   -0.155146
  19 C :    0.119005
  20 O :   -0.282703
  21 C :    0.140684
  22 C :   -0.019587
  23 C :   -0.016997
  24 C :   -0.089628
  25 S :    0.114436
  26 C :   -0.124541
  27 C :   -0.100987
  28 C :   -0.091070
  29 C :    0.114079
  30 C :   -0.125920
  31 C :    0.153657
  32 O :   -0.175019
  33 O :   -0.147863
  34 C :    0.156476
  35 O :   -0.289625
  36 C :    0.119912
  37 C :    0.041663
  38 C :   -0.025373
  39 C :   -0.084453
  40 S :    0.112742
  41 C :   -0.119317
  42 C :   -0.084942
  43 C :   -0.100981
  44 C :    0.112996
  45 C :   -0.121905
  46 C :    0.157046
  47 O :   -0.168962
  48 O :   -0.151997
  49 C :    0.158835
  50 O :   -0.290814
  51 C :    0.119358
  52 C :    0.052556
  53 C :   -0.072835
  54 C :    0.155130
  55 O :   -0.193417
  56 C :    0.175305
  57 C :   -0.049919
  58 C :   -0.097092
  59 C :   -0.190198
  60 N :    0.144068
  61 C :   -0.000858
  62 C :   -0.014143
  63 H :    0.021746
  64 H :   -0.006782
  65 H :   -0.000316
  66 H :   -0.010963
  67 H :    0.021425
  68 H :    0.033281
  69 H :    0.018807
  70 H :    0.184985
  71 H :   -0.012478
  72 H :    0.175244
  73 H :    0.028502
  74 H :    0.042987
  75 H :   -0.005531
  76 H :   -0.008499
  77 H :    0.034105
  78 H :    0.004636
  79 H :    0.029265
  80 H :    0.186286
  81 H :    0.003622
  82 H :    0.171481
  83 H :    0.021812
  84 H :    0.062515
  85 H :   -0.012274
  86 H :   -0.023933
  87 H :    0.029111
  88 H :    0.008794
  89 H :    0.024658
  90 H :    0.186795
  91 H :    0.010342
  92 H :    0.168875
  93 H :    0.030147
  94 H :    0.067646
  95 H :   -0.007348
  96 H :    0.010257
  97 H :   -0.010959
  98 H :    0.002965
  99 H :    0.021945
 100 H :    0.032068
Sum of atomic charges:   -0.0000000

LOEWDIN ATOMIC CHARGES
----------------------
   0 C :    0.072270
   1 O :    0.032887
   2 C :    0.031465
   3 C :   -0.042889
   4 C :   -0.113726
   5 C :   -0.031790
   6 N :   -0.053805
   7 C :   -0.047049
   8 C :   -0.022171
   9 C :   -0.170142
  10 S :    0.427371
  11 C :   -0.163237
  12 C :   -0.066485
  13 C :   -0.053152
  14 C :   -0.020590
  15 C :   -0.083557
  16 C :    0.077422
  17 O :   -0.144443
  18 O :   -0.031509
  19 C :    0.066764
  20 O :   -0.114584
  21 C :   -0.040049
  22 C :   -0.044486
  23 C :   -0.046754
  24 C :   -0.174764
  25 S :    0.433914
  26 C :   -0.166714
  27 C :   -0.062121
  28 C :   -0.070461
  29 C :   -0.023960
  30 C :   -0.085766
  31 C :    0.087609
  32 O :   -0.151684
  33 O :   -0.025374
  34 C :    0.075067
  35 O :   -0.118991
  36 C :   -0.046991
  37 C :   -0.044524
  38 C :   -0.041698
  39 C :   -0.169883
  40 S :    0.435640
  41 C :   -0.171083
  42 C :   -0.049523
  43 C :   -0.069426
  44 C :   -0.023918
  45 C :   -0.084826
  46 C :    0.086013
  47 O :   -0.145061
  48 O :   -0.027431
  49 C :    0.076555
  50 O :   -0.119803
  51 C :   -0.045320
  52 C :   -0.021004
  53 C :   -0.048788
  54 C :    0.063223
  55 O :    0.022053
  56 C :    0.031191
  57 C :   -0.032289
  58 C :   -0.113050
  59 C :   -0.035228
  60 N :   -0.058386
  61 C :   -0.036243
  62 C :   -0.028747
  63 H :    0.032673
  64 H :    0.035435
  65 H :    0.030190
  66 H :    0.032678
  67 H :    0.032680
  68 H :    0.040996
  69 H :    0.035838
  70 H :    0.094576
  71 H :    0.015920
  72 H :    0.076008
  73 H :    0.037196
  74 H :    0.043668
  75 H :    0.026138
  76 H :    0.022972
  77 H :    0.037619
  78 H :    0.025899
  79 H :    0.041004
  80 H :    0.094111
  81 H :    0.027332
  82 H :    0.073456
  83 H :    0.034278
  84 H :    0.038294
  85 H :    0.021907
  86 H :    0.030950
  87 H :    0.034921
  88 H :    0.026061
  89 H :    0.038840
  90 H :    0.094697
  91 H :    0.030120
  92 H :    0.071799
  93 H :    0.036539
  94 H :    0.047165
  95 H :    0.030739
  96 H :    0.041975
  97 H :    0.036994
  98 H :    0.037921
  99 H :    0.024562
 100 H :    0.029878

  Mayer bond orders larger than 0.100000
B(  0-C ,  1-O ) :   1.1884 B(  0-C ,  4-C ) :   1.5149 B(  0-C , 63-H ) :   1.0105
B(  1-O ,  2-C ) :   1.1246 B(  2-C ,  3-C ) :   1.5138 B(  2-C ,  7-C ) :   1.0982
B(  3-C ,  4-C ) :   1.2463 B(  3-C , 64-H ) :   1.0106 B(  4-C ,  5-C ) :   1.0804
B(  5-C ,  6-N ) :   3.0548 B(  7-C ,  8-C ) :   1.6718 B(  7-C , 65-H ) :   0.9581
B(  8-C ,  9-C ) :   1.1731 B(  8-C , 66-H ) :   0.9656 B(  9-C , 10-S ) :   1.1000
B(  9-C , 13-C ) :   1.4977 B( 10-S , 11-C ) :   1.1080 B( 11-C , 12-C ) :   1.4861
B( 11-C , 22-C ) :   1.1653 B( 12-C , 13-C ) :   1.3088 B( 12-C , 21-C ) :   1.0337
B( 13-C , 14-C ) :   1.0413 B( 14-C , 15-C ) :   1.0364 B( 14-C , 67-H ) :   0.9093
B( 14-C , 68-H ) :   0.9018 B( 15-C , 16-C ) :   0.9085 B( 15-C , 19-C ) :   0.9762
B( 15-C , 69-H ) :   0.8941 B( 16-C , 17-O ) :   2.1841 B( 16-C , 18-O ) :   1.2128
B( 18-O , 70-H ) :   0.9544 B( 19-C , 20-O ) :   1.0826 B( 19-C , 21-C ) :   1.0430
B( 19-C , 71-H ) :   0.9241 B( 20-O , 72-H ) :   0.9763 B( 21-C , 73-H ) :   0.9032
B( 21-C , 74-H ) :   0.8932 B( 22-C , 23-C ) :   1.6467 B( 22-C , 75-H ) :   0.9674
B( 23-C , 24-C ) :   1.1637 B( 23-C , 76-H ) :   0.9634 B( 24-C , 25-S ) :   1.1148
B( 24-C , 28-C ) :   1.4726 B( 25-S , 26-C ) :   1.1152 B( 26-C , 27-C ) :   1.4867
B( 26-C , 37-C ) :   1.1390 B( 27-C , 28-C ) :   1.3243 B( 27-C , 36-C ) :   1.0421
B( 28-C , 29-C ) :   1.0454 B( 29-C , 30-C ) :   1.0259 B( 29-C , 77-H ) :   0.9115
B( 29-C , 78-H ) :   0.9027 B( 30-C , 31-C ) :   0.9111 B( 30-C , 34-C ) :   0.9851
B( 30-C , 79-H ) :   0.8953 B( 31-C , 32-O ) :   2.1420 B( 31-C , 33-O ) :   1.2288
B( 33-O , 80-H ) :   0.9521 B( 34-C , 35-O ) :   1.0675 B( 34-C , 36-C ) :   1.0259
B( 34-C , 81-H ) :   0.9214 B( 35-O , 82-H ) :   0.9789 B( 36-C , 83-H ) :   0.9070
B( 36-C , 84-H ) :   0.8724 B( 37-C , 38-C ) :   1.6555 B( 37-C , 85-H ) :   0.9501
B( 38-C , 39-C ) :   1.1672 B( 38-C , 86-H ) :   0.9562 B( 39-C , 40-S ) :   1.1184
B( 39-C , 41-C ) :   0.1001 B( 39-C , 43-C ) :   1.4718 B( 40-S , 41-C ) :   1.1114
B( 41-C , 42-C ) :   1.4838 B( 41-C , 52-C ) :   1.1270 B( 42-C , 43-C ) :   1.3325
B( 42-C , 51-C ) :   1.0478 B( 43-C , 44-C ) :   1.0406 B( 44-C , 45-C ) :   1.0290
B( 44-C , 87-H ) :   0.9113 B( 44-C , 88-H ) :   0.9053 B( 45-C , 46-C ) :   0.9085
B( 45-C , 49-C ) :   0.9825 B( 45-C , 89-H ) :   0.8948 B( 46-C , 47-O ) :   2.1590
B( 46-C , 48-O ) :   1.2215 B( 48-O , 90-H ) :   0.9523 B( 49-C , 50-O ) :   1.0636
B( 49-C , 51-C ) :   1.0278 B( 49-C , 91-H ) :   0.9217 B( 50-O , 92-H ) :   0.9794
B( 51-C , 93-H ) :   0.9037 B( 51-C , 94-H ) :   0.8774 B( 52-C , 53-C ) :   1.6398
B( 52-C , 95-H ) :   0.9565 B( 53-C , 54-C ) :   1.1968 B( 53-C , 96-H ) :   0.9450
B( 54-C , 55-O ) :   1.1808 B( 54-C , 58-C ) :   1.4077 B( 55-O , 56-C ) :   1.0961
B( 56-C , 57-C ) :   1.5032 B( 56-C , 61-C ) :   1.0992 B( 57-C , 58-C ) :   1.2308
B( 57-C , 97-H ) :   1.0157 B( 58-C , 59-C ) :   1.1086 B( 59-C , 60-N ) :   3.0279
B( 61-C , 62-C ) :   1.9391 B( 61-C , 98-H ) :   0.9506 B( 62-C , 99-H ) :   0.9555
B( 62-C ,100-H ) :   0.9495

-----------------------------------------------------------------------------
         ABSORPTION SPECTRUM VIA TRANSITION ELECTRIC DIPOLE MOMENTS
-----------------------------------------------------------------------------
State   Energy  Wavelength   fosc         T2         TX        TY        TZ
        (cm-1)    (nm)                  (au**2)     (au)      (au)      (au)
-----------------------------------------------------------------------------
   0   18406.4    543.3   2.336451584  41.78907  -1.39555  -4.56537  -4.35877
   1   24463.6    408.8   0.432758995   5.82373  -0.56487  -1.39601   1.88569
   2   25287.1    395.5   0.019667227   0.25605   0.05492   0.50278   0.01570
   3   29781.7    335.8   0.002370154   0.02620  -0.02098  -0.15868  -0.02412
   4   30605.7    326.7   0.659449115   7.09341  -1.68480   0.77202   1.91281
   5   33505.3    298.5   0.066678341   0.65516   0.65367   0.41828   0.23002
   6   33962.1    294.4   0.023520031   0.22799  -0.42665  -0.18400   0.11001
   7   35488.2    281.8   0.016931507   0.15707  -0.00662  -0.39622  -0.00577
   8   36057.7    277.3   0.018101150   0.16527   0.37982  -0.14485  -0.00459
   9   36408.7    274.7   0.315141801   2.84955  -1.47858  -0.70156   0.41371
  10   36944.6    270.7   0.129969681   1.15816   0.49542  -0.50448  -0.81131
  11   38109.8    262.4   0.075155491   0.64923  -0.79605  -0.11260   0.05341
  12   38718.0    258.3   0.002745897   0.02335   0.05089   0.13228   0.05710
  13   39322.5    254.3   0.094880196   0.79435  -0.38297  -0.01354   0.80467
  14   40207.4    248.7   0.001073777   0.00879  -0.03098   0.08471  -0.02564

FINAL SINGLE POINT ENERGY     -3941.641534342141

DIPOLE MOMENT
-------------
                                X             Y             Z
Electronic contribution:      1.99497     -17.69423      -5.93423
Nuclear contribution   :     -4.63927      17.62188       5.12760
                        -----------------------------------------
Total Dipole Moment    :     -2.64430      -0.07235      -0.80664
                        -----------------------------------------
Magnitude (a.u.)       :      2.76554
Magnitude (Debye)      :      7.02945

Rotational constants in cm-1:     0.001504     0.000342     0.000300
Rotational constants in MHz :    45.081588    10.237956     8.996750

                             ****ORCA TERMINATED NORMALLY****
TOTAL RUN TIME: 0 days 0 hours 7 minutes 55 seconds 902 msec
