                         Program Version 4.2.0 -  RELEASE  -
|  1> # ORCA input file
|  2> # SCF done       -152.783273454522          0.000702383810
|  3> ! CAM-B3LYP def2-SVP def2/J RIJCOSX Grid4 TightSCF
|  4> %maxcore 5000
|  5> %tddft
|  6>     Mode sTDDFT
|  7>     Ethresh 5.0
|  8>     maxcore 5000
|  9> end
| 10>
| 11> %pal
| 12>   nprocs 6
| 13>   end
| 14> * xyz 0 1
| 15>    C        0.80008        -0.29177         1.97307
| 16>    O        1.83144         0.54612         1.87964
| 17>    C        2.83940        -0.10466         1.23516
| 18>    C        2.43363        -1.38124         0.91630
| 19>    C        1.10380        -1.50346         1.39712
| 20>    C        0.26708        -2.62750         1.30548
| 21>    N       -0.40890        -3.54914         1.22592
| 22>    C        4.08459         0.54036         0.98070
| 23>    C        4.35531         1.81631         1.34203
| 24>    C        5.60149         2.44022         1.06832
| 25>    N        5.90570         3.73508         1.43067
| 26>    C        5.07505         4.63507         2.19076
| 27>    C        5.08640         4.30141         3.68093
| 28>    C        7.19789         4.10681         1.02503
| 29>    O        7.67800         5.20431         1.25367
| 30>    C        7.71014         2.94272         0.34782
| 31>    C        6.70842         1.93363         0.39909
| 32>    C        7.21663         0.76873        -0.28373
| 33>    O        6.73698        -0.33097        -0.49491
| 34>    N        8.49400         1.15076        -0.72104
| 35>    C        9.35899         0.21715        -1.39831
| 36>    C       10.42535        -0.35053        -0.46395
| 37>    C        8.80459         2.44357        -0.35387
| 38>    C       10.02134         3.08490        -0.69994
| 39>    C       10.31835         4.33664        -0.27374
| 40>    C       11.50748         5.07757        -0.59219
| 41>    C       11.89857         6.17188         0.20986
| 42>    C       11.11050         6.57441         1.41726
| 43>    C       13.04942         6.85687        -0.12014
| 44>    C       13.83404         6.53457        -1.23366
| 45>    C       13.42254         5.46450        -2.05533
| 46>    C       12.29042         4.75907        -1.71050
| 47>    C       14.20820         5.07449        -3.27119
| 48>    C       15.02006         7.29107        -1.55352
| 49>    C       15.75960         7.96503        -0.64736
| 50>    C       16.94071         8.73617        -0.89256
| 51>    C       17.71341         9.13439         0.22543
| 52>    C       18.93047         9.86083         0.06713
| 53>    N       19.64750        10.19807         1.14929
| 54>    C       19.22674         9.85731         2.33562
| 55>    C       18.01983         9.15016         2.49002
| 56>    N       17.29190         8.80471         1.46528
| 57>    C       19.43320        10.24660        -1.20542
| 58>    C       18.63047         9.88927        -2.32571
| 59>    C       17.40761         9.14794        -2.16379
| 60>    N       16.66317         8.85155        -3.25011
| 61>    C       17.07738         9.21953        -4.42932
| 62>    C       18.28038         9.92285        -4.59204
| 63>    N       19.02094        10.24903        -3.56424
| 64>    C       20.67214        10.93440        -1.26716
| 65>    S       21.57975        11.26937         0.20822
| 66>    C       22.86406        12.05093        -0.62265
| 67>    C       22.63960        12.08219        -1.97441
| 68>    C       21.40414        11.45002        -2.33463
| 69>    N       21.31796        11.55764        -3.67608
| 70>    N       22.37992        12.19342        -4.19673
| 71>    C       23.18096        12.51746        -3.21670
| 72>    H       -0.09203         0.05471         2.45742
| 73>    H        3.00621        -2.12885         0.40792
| 74>    H        4.82620        -0.05464         0.46677
| 75>    H        3.59815         2.39349         1.85363
| 76>    H        4.05508         4.61643         1.79583
| 77>    H        5.49424         5.63364         2.03634
| 78>    H        4.71433         3.29461         3.85765
| 79>    H        4.46160         5.00678         4.22216
| 80>    H        6.10087         4.36747         4.06646
| 81>    H        9.81889         0.70144        -2.26485
| 82>    H        8.71168        -0.59111        -1.75058
| 83>    H       11.05552         0.44139        -0.06484
| 84>    H       11.04966        -1.05857        -1.00223
| 85>    H        9.95136        -0.86649         0.36746
| 86>    H       10.71858         2.52944        -1.30998
| 87>    H        9.60593         4.82356         0.37557
| 88>    H       10.07638         6.79401         1.15676
| 89>    H       11.54688         7.45727         1.87759
| 90>    H       11.09901         5.77102         2.15277
| 91>    H       13.34575         7.69812         0.48877
| 92>    H       11.97585         3.94546        -2.34780
| 93>    H       14.21854         5.88685        -3.99730
| 94>    H       13.76992         4.19909        -3.74448
| 95>    H       15.23972         4.84644        -3.00724
| 96>    H       15.33848         7.29374        -2.58358
| 97>    H       15.51317         7.89504         0.40362
| 98>    H       19.83918        10.15008         3.17639
| 99>    H       17.64758         8.87203         3.46682
|100>    H       16.44595         8.96700        -5.27066
|101>    H       18.63204        10.23247        -5.56777
|102>    H       23.69695        12.44615        -0.07584
|103>    H       20.55240        11.20238        -4.23170
|104>    H       24.09805        13.03811        -3.40379
|105> *
|106>
|107>                          ****END OF INPUT****

CARTESIAN COORDINATES (ANGSTROEM)
---------------------------------
  C      0.800080   -0.291770    1.973070
  O      1.831440    0.546120    1.879640
  C      2.839400   -0.104660    1.235160
  C      2.433630   -1.381240    0.916300
  C      1.103800   -1.503460    1.397120
  C      0.267080   -2.627500    1.305480
  N     -0.408900   -3.549140    1.225920
  C      4.084590    0.540360    0.980700
  C      4.355310    1.816310    1.342030
  C      5.601490    2.440220    1.068320
  N      5.905700    3.735080    1.430670
  C      5.075050    4.635070    2.190760
  C      5.086400    4.301410    3.680930
  C      7.197890    4.106810    1.025030
  O      7.678000    5.204310    1.253670
  C      7.710140    2.942720    0.347820
  C      6.708420    1.933630    0.399090
  C      7.216630    0.768730   -0.283730
  O      6.736980   -0.330970   -0.494910
  N      8.494000    1.150760   -0.721040
  C      9.358990    0.217150   -1.398310
  C     10.425350   -0.350530   -0.463950
  C      8.804590    2.443570   -0.353870
  C     10.021340    3.084900   -0.699940
  C     10.318350    4.336640   -0.273740
  C     11.507480    5.077570   -0.592190
  C     11.898570    6.171880    0.209860
  C     11.110500    6.574410    1.417260
  C     13.049420    6.856870   -0.120140
  C     13.834040    6.534570   -1.233660
  C     13.422540    5.464500   -2.055330
  C     12.290420    4.759070   -1.710500
  C     14.208200    5.074490   -3.271190
  C     15.020060    7.291070   -1.553520
  C     15.759600    7.965030   -0.647360
  C     16.940710    8.736170   -0.892560
  C     17.713410    9.134390    0.225430
  C     18.930470    9.860830    0.067130
  N     19.647500   10.198070    1.149290
  C     19.226740    9.857310    2.335620
  C     18.019830    9.150160    2.490020
  N     17.291900    8.804710    1.465280
  C     19.433200   10.246600   -1.205420
  C     18.630470    9.889270   -2.325710
  C     17.407610    9.147940   -2.163790
  N     16.663170    8.851550   -3.250110
  C     17.077380    9.219530   -4.429320
  C     18.280380    9.922850   -4.592040
  N     19.020940   10.249030   -3.564240
  C     20.672140   10.934400   -1.267160
  S     21.579750   11.269370    0.208220
  C     22.864060   12.050930   -0.622650
  C     22.639600   12.082190   -1.974410
  C     21.404140   11.450020   -2.334630
  N     21.317960   11.557640   -3.676080
  N     22.379920   12.193420   -4.196730
  C     23.180960   12.517460   -3.216700
  H     -0.092030    0.054710    2.457420
  H      3.006210   -2.128850    0.407920
  H      4.826200   -0.054640    0.466770
  H      3.598150    2.393490    1.853630
  H      4.055080    4.616430    1.795830
  H      5.494240    5.633640    2.036340
  H      4.714330    3.294610    3.857650
  H      4.461600    5.006780    4.222160
  H      6.100870    4.367470    4.066460
  H      9.818890    0.701440   -2.264850
  H      8.711680   -0.591110   -1.750580
  H     11.055520    0.441390   -0.064840
  H     11.049660   -1.058570   -1.002230
  H      9.951360   -0.866490    0.367460
  H     10.718580    2.529440   -1.309980
  H      9.605930    4.823560    0.375570
  H     10.076380    6.794010    1.156760
  H     11.546880    7.457270    1.877590
  H     11.099010    5.771020    2.152770
  H     13.345750    7.698120    0.488770
  H     11.975850    3.945460   -2.347800
  H     14.218540    5.886850   -3.997300
  H     13.769920    4.199090   -3.744480
  H     15.239720    4.846440   -3.007240
  H     15.338480    7.293740   -2.583580
  H     15.513170    7.895040    0.403620
  H     19.839180   10.150080    3.176390
  H     17.647580    8.872030    3.466820
  H     16.445950    8.967000   -5.270660
  H     18.632040   10.232470   -5.567770
  H     23.696950   12.446150   -0.075840
  H     20.552400   11.202380   -4.231700
  H     24.098050   13.038110   -3.403790

 Total Charge           Charge          ....    0
 Multiplicity           Mult            ....    1
 Number of Electrons    NEL             ....  400
 Basis Dimension        Dim             ....  967

ORBITAL ENERGIES
----------------

  NO   OCC          E(Eh)            E(eV)
   0   2.0000     -88.950450     -2420.4648
   1   2.0000     -19.311378      -525.4893
   2   2.0000     -19.184855      -522.0465
   3   2.0000     -19.178988      -521.8868
   4   2.0000     -14.457728      -393.4148
   5   2.0000     -14.445582      -393.0843
   6   2.0000     -14.444327      -393.0501
   7   2.0000     -14.440451      -392.9447
   8   2.0000     -14.434038      -392.7702
   9   2.0000     -14.429122      -392.6364
  10   2.0000     -14.428927      -392.6311
  11   2.0000     -14.422229      -392.4488
  12   2.0000     -14.402501      -391.9120
  13   2.0000     -10.366578      -282.0889
  14   2.0000     -10.362339      -281.9736
  15   2.0000     -10.353367      -281.7294
  16   2.0000     -10.341160      -281.3973
  17   2.0000     -10.329571      -281.0819
  18   2.0000     -10.329522      -281.0806
  19   2.0000     -10.329457      -281.0788
  20   2.0000     -10.327920      -281.0370
  21   2.0000     -10.327848      -281.0350
  22   2.0000     -10.327313      -281.0205
  23   2.0000     -10.326223      -280.9908
  24   2.0000     -10.324669      -280.9485
  25   2.0000     -10.321879      -280.8726
  26   2.0000     -10.321125      -280.8521
  27   2.0000     -10.312037      -280.6048
  28   2.0000     -10.307022      -280.4683
  29   2.0000     -10.305280      -280.4209
  30   2.0000     -10.305007      -280.4135
  31   2.0000     -10.302737      -280.3517
  32   2.0000     -10.302117      -280.3348
  33   2.0000     -10.296546      -280.1833
  34   2.0000     -10.290603      -280.0215
  35   2.0000     -10.290542      -280.0199
  36   2.0000     -10.288608      -279.9673
  37   2.0000     -10.285728      -279.8889
  38   2.0000     -10.283241      -279.8212
  39   2.0000     -10.283151      -279.8188
  40   2.0000     -10.276453      -279.6365
  41   2.0000     -10.274285      -279.5775
  42   2.0000     -10.267597      -279.3955
  43   2.0000     -10.266422      -279.3635
  44   2.0000     -10.266122      -279.3554
  45   2.0000     -10.265883      -279.3489
  46   2.0000     -10.264977      -279.3242
  47   2.0000     -10.260716      -279.2083
  48   2.0000     -10.259900      -279.1861
  49   2.0000     -10.259321      -279.1703
  50   2.0000     -10.259263      -279.1687
  51   2.0000     -10.258031      -279.1352
  52   2.0000     -10.255621      -279.0696
  53   2.0000     -10.254299      -279.0337
  54   2.0000     -10.251189      -278.9490
  55   2.0000     -10.248600      -278.8786
  56   2.0000     -10.248066      -278.8640
  57   2.0000      -8.042863      -218.8574
  58   2.0000      -6.012650      -163.6125
  59   2.0000      -6.007465      -163.4714
  60   2.0000      -6.005292      -163.4123
  61   2.0000      -1.229712       -33.4622
  62   2.0000      -1.126864       -30.6635
  63   2.0000      -1.124737       -30.6056
  64   2.0000      -1.116748       -30.3883
  65   2.0000      -1.093152       -29.7462
  66   2.0000      -1.086298       -29.5597
  67   2.0000      -1.054146       -28.6848
  68   2.0000      -1.045899       -28.4604
  69   2.0000      -1.017143       -27.6779
  70   2.0000      -1.010162       -27.4879
  71   2.0000      -0.988276       -26.8923
  72   2.0000      -0.970346       -26.4045
  73   2.0000      -0.953887       -25.9566
  74   2.0000      -0.947131       -25.7727
  75   2.0000      -0.922716       -25.1084
  76   2.0000      -0.920530       -25.0489
  77   2.0000      -0.913797       -24.8657
  78   2.0000      -0.904173       -24.6038
  79   2.0000      -0.901640       -24.5349
  80   2.0000      -0.886022       -24.1099
  81   2.0000      -0.873008       -23.7558
  82   2.0000      -0.872662       -23.7463
  83   2.0000      -0.865053       -23.5393
  84   2.0000      -0.853507       -23.2251
  85   2.0000      -0.852608       -23.2006
  86   2.0000      -0.832019       -22.6404
  87   2.0000      -0.820527       -22.3277
  88   2.0000      -0.813729       -22.1427
  89   2.0000      -0.802708       -21.8428
  90   2.0000      -0.794667       -21.6240
  91   2.0000      -0.788892       -21.4668
  92   2.0000      -0.781281       -21.2597
  93   2.0000      -0.770135       -20.9564
  94   2.0000      -0.762325       -20.7439
  95   2.0000      -0.754793       -20.5390
  96   2.0000      -0.746554       -20.3148
  97   2.0000      -0.732966       -19.9450
  98   2.0000      -0.731075       -19.8936
  99   2.0000      -0.724597       -19.7173
 100   2.0000      -0.710734       -19.3400
 101   2.0000      -0.705922       -19.2091
 102   2.0000      -0.701317       -19.0838
 103   2.0000      -0.692901       -18.8548
 104   2.0000      -0.686979       -18.6937
 105   2.0000      -0.683908       -18.6101
 106   2.0000      -0.677522       -18.4363
 107   2.0000      -0.675211       -18.3734
 108   2.0000      -0.655965       -17.8497
 109   2.0000      -0.652204       -17.7474
 110   2.0000      -0.646376       -17.5888
 111   2.0000      -0.642591       -17.4858
 112   2.0000      -0.635640       -17.2966
 113   2.0000      -0.629528       -17.1303
 114   2.0000      -0.618401       -16.8276
 115   2.0000      -0.608306       -16.5529
 116   2.0000      -0.600264       -16.3340
 117   2.0000      -0.599203       -16.3051
 118   2.0000      -0.597031       -16.2460
 119   2.0000      -0.585171       -15.9233
 120   2.0000      -0.583648       -15.8819
 121   2.0000      -0.581344       -15.8192
 122   2.0000      -0.573939       -15.6177
 123   2.0000      -0.571684       -15.5563
 124   2.0000      -0.565176       -15.3792
 125   2.0000      -0.561422       -15.2771
 126   2.0000      -0.559293       -15.2191
 127   2.0000      -0.550911       -14.9911
 128   2.0000      -0.547365       -14.8946
 129   2.0000      -0.541229       -14.7276
 130   2.0000      -0.539341       -14.6762
 131   2.0000      -0.536874       -14.6091
 132   2.0000      -0.527492       -14.3538
 133   2.0000      -0.525304       -14.2943
 134   2.0000      -0.524363       -14.2686
 135   2.0000      -0.522484       -14.2175
 136   2.0000      -0.521691       -14.1959
 137   2.0000      -0.520645       -14.1675
 138   2.0000      -0.520111       -14.1529
 139   2.0000      -0.516676       -14.0595
 140   2.0000      -0.513511       -13.9733
 141   2.0000      -0.510394       -13.8885
 142   2.0000      -0.506314       -13.7775
 143   2.0000      -0.505665       -13.7599
 144   2.0000      -0.503593       -13.7035
 145   2.0000      -0.498629       -13.5684
 146   2.0000      -0.493814       -13.4374
 147   2.0000      -0.487762       -13.2727
 148   2.0000      -0.486039       -13.2258
 149   2.0000      -0.479610       -13.0509
 150   2.0000      -0.478851       -13.0302
 151   2.0000      -0.473524       -12.8852
 152   2.0000      -0.471518       -12.8307
 153   2.0000      -0.470756       -12.8099
 154   2.0000      -0.466121       -12.6838
 155   2.0000      -0.465098       -12.6560
 156   2.0000      -0.460370       -12.5273
 157   2.0000      -0.458291       -12.4707
 158   2.0000      -0.454774       -12.3750
 159   2.0000      -0.452808       -12.3215
 160   2.0000      -0.450287       -12.2529
 161   2.0000      -0.447687       -12.1822
 162   2.0000      -0.442972       -12.0539
 163   2.0000      -0.441292       -12.0082
 164   2.0000      -0.440003       -11.9731
 165   2.0000      -0.438950       -11.9444
 166   2.0000      -0.437954       -11.9173
 167   2.0000      -0.435697       -11.8559
 168   2.0000      -0.432600       -11.7716
 169   2.0000      -0.432386       -11.7658
 170   2.0000      -0.429453       -11.6860
 171   2.0000      -0.424310       -11.5461
 172   2.0000      -0.422163       -11.4876
 173   2.0000      -0.420332       -11.4378
 174   2.0000      -0.414586       -11.2815
 175   2.0000      -0.411545       -11.1987
 176   2.0000      -0.408167       -11.1068
 177   2.0000      -0.405318       -11.0293
 178   2.0000      -0.399076       -10.8594
 179   2.0000      -0.388526       -10.5723
 180   2.0000      -0.382742       -10.4149
 181   2.0000      -0.376593       -10.2476
 182   2.0000      -0.372119       -10.1259
 183   2.0000      -0.363167        -9.8823
 184   2.0000      -0.354200        -9.6383
 185   2.0000      -0.349858        -9.5201
 186   2.0000      -0.342840        -9.3292
 187   2.0000      -0.339934        -9.2501
 188   2.0000      -0.337878        -9.1941
 189   2.0000      -0.328028        -8.9261
 190   2.0000      -0.323391        -8.7999
 191   2.0000      -0.314035        -8.5453
 192   2.0000      -0.311658        -8.4806
 193   2.0000      -0.306226        -8.3328
 194   2.0000      -0.299359        -8.1460
 195   2.0000      -0.299228        -8.1424
 196   2.0000      -0.298338        -8.1182
 197   2.0000      -0.275707        -7.5024
 198   2.0000      -0.233417        -6.3516
 199   2.0000      -0.218761        -5.9528
 200   0.0000      -0.092149        -2.5075
 201   0.0000      -0.070289        -1.9127
 202   0.0000      -0.024328        -0.6620
 203   0.0000      -0.013124        -0.3571
 204   0.0000      -0.011521        -0.3135

MULLIKEN ATOMIC CHARGES
-----------------------
   0 C :    0.135286
   1 O :   -0.177182
   2 C :    0.164492
   3 C :   -0.020929
   4 C :   -0.128130
   5 C :   -0.127614
   6 N :    0.133665
   7 C :   -0.008825
   8 C :   -0.027695
   9 C :    0.132897
  10 N :   -0.256109
  11 C :    0.101891
  12 C :    0.006220
  13 C :    0.155320
  14 O :   -0.227368
  15 C :   -0.066177
  16 C :   -0.064213
  17 C :    0.160521
  18 O :   -0.220162
  19 N :   -0.258471
  20 C :    0.102792
  21 C :    0.004051
  22 C :    0.136274
  23 C :   -0.018765
  24 C :   -0.025644
  25 C :    0.108641
  26 C :   -0.078846
  27 C :    0.114703
  28 C :   -0.097340
  29 C :    0.119962
  30 C :   -0.083420
  31 C :   -0.091285
  32 C :    0.111139
  33 C :   -0.008678
  34 C :   -0.069114
  35 C :    0.064801
  36 C :   -0.039442
  37 C :   -0.057055
  38 N :   -0.078378
  39 C :    0.048666
  40 C :    0.025720
  41 N :   -0.014133
  42 C :    0.197848
  43 C :   -0.057219
  44 C :   -0.041134
  45 N :   -0.024317
  46 C :    0.042563
  47 C :    0.038291
  48 N :   -0.093507
  49 C :   -0.308290
  50 S :    0.167047
  51 C :   -0.100393
  52 C :    0.013263
  53 C :    0.159461
  54 N :   -0.020784
  55 N :   -0.055445
  56 C :    0.005737
  57 H :    0.022635
  58 H :    0.008174
  59 H :    0.021704
  60 H :   -0.017627
  61 H :    0.020571
  62 H :    0.040811
  63 H :    0.013795
  64 H :    0.020431
  65 H :    0.027358
  66 H :    0.020686
  67 H :    0.040511
  68 H :    0.018751
  69 H :    0.020511
  70 H :    0.026877
  71 H :   -0.034871
  72 H :    0.013336
  73 H :    0.052041
  74 H :   -0.000219
  75 H :    0.026341
  76 H :   -0.037902
  77 H :   -0.047857
  78 H :    0.030766
  79 H :   -0.000148
  80 H :    0.026647
  81 H :   -0.008599
  82 H :   -0.009104
  83 H :    0.012595
  84 H :    0.016076
  85 H :    0.014267
  86 H :    0.015087
  87 H :    0.018880
  88 H :    0.133551
  89 H :   -0.011264
Sum of atomic charges:   -0.0000000

LOEWDIN ATOMIC CHARGES
----------------------
   0 C :    0.082260
   1 O :    0.030558
   2 C :    0.027418
   3 C :   -0.021977
   4 C :   -0.116086
   5 C :   -0.031758
   6 N :   -0.052072
   7 C :    0.006568
   8 C :   -0.043138
   9 C :    0.066480
  10 N :   -0.000103
  11 C :    0.035757
  12 C :   -0.061274
  13 C :    0.077290
  14 O :   -0.217386
  15 C :   -0.132412
  16 C :   -0.120960
  17 C :    0.080964
  18 O :   -0.208976
  19 N :   -0.001344
  20 C :    0.035783
  21 C :   -0.061436
  22 C :    0.083970
  23 C :   -0.063773
  24 C :    0.048437
  25 C :   -0.042308
  26 C :   -0.006775
  27 C :   -0.046518
  28 C :   -0.020313
  29 C :   -0.014951
  30 C :   -0.024305
  31 C :   -0.013835
  32 C :   -0.046493
  33 C :   -0.009267
  34 C :   -0.018663
  35 C :   -0.040684
  36 C :    0.000331
  37 C :   -0.023092
  38 N :   -0.046711
  39 C :    0.012520
  40 C :    0.011372
  41 N :   -0.028538
  42 C :   -0.019305
  43 C :   -0.011411
  44 C :    0.001042
  45 N :   -0.020566
  46 C :    0.011465
  47 C :    0.000092
  48 N :   -0.034240
  49 C :   -0.219639
  50 S :    0.491104
  51 C :   -0.171163
  52 C :   -0.110688
  53 C :   -0.003693
  54 N :    0.096628
  55 N :   -0.061139
  56 C :   -0.039286
  57 H :    0.033445
  58 H :    0.044345
  59 H :    0.044565
  60 H :    0.029284
  61 H :    0.022017
  62 H :    0.036550
  63 H :    0.021711
  64 H :    0.029204
  65 H :    0.031449
  66 H :    0.021748
  67 H :    0.036324
  68 H :    0.023234
  69 H :    0.029347
  70 H :    0.031300
  71 H :    0.023935
  72 H :    0.036547
  73 H :    0.042550
  74 H :    0.027455
  75 H :    0.036721
  76 H :    0.024721
  77 H :    0.020493
  78 H :    0.034461
  79 H :    0.026527
  80 H :    0.034404
  81 H :    0.020649
  82 H :    0.026990
  83 H :    0.027527
  84 H :    0.027937
  85 H :    0.027781
  86 H :    0.024704
  87 H :    0.024305
  88 H :    0.064015
  89 H :    0.019989

  Mayer bond orders larger than 0.100000
B(  0-C ,  1-O ) :   1.1922 B(  0-C ,  4-C ) :   1.5095 B(  0-C , 57-H ) :   1.0116
B(  1-O ,  2-C ) :   1.1249 B(  2-C ,  3-C ) :   1.4777 B(  2-C ,  7-C ) :   1.1226
B(  3-C ,  4-C ) :   1.2327 B(  3-C , 58-H ) :   1.0209 B(  4-C ,  5-C ) :   1.0796
B(  5-C ,  6-N ) :   3.0554 B(  7-C ,  8-C ) :   1.6148 B(  7-C , 59-H ) :   0.9375
B(  8-C ,  9-C ) :   1.1375 B(  8-C , 60-H ) :   0.9697 B(  9-C , 10-N ) :   1.1505
B(  9-C , 16-C ) :   1.3619 B( 10-N , 11-C ) :   0.9511 B( 10-N , 13-C ) :   1.0650
B( 11-C , 12-C ) :   1.1206 B( 11-C , 61-H ) :   0.9493 B( 11-C , 62-H ) :   0.9281
B( 12-C , 63-H ) :   0.9688 B( 12-C , 64-H ) :   0.9677 B( 12-C , 65-H ) :   0.9637
B( 13-C , 14-O ) :   2.0049 B( 13-C , 15-C ) :   1.0051 B( 14-O , 72-H ) :   0.1028
B( 15-C , 16-C ) :   1.2361 B( 15-C , 22-C ) :   1.3361 B( 16-C , 17-C ) :   0.9885
B( 17-C , 18-O ) :   2.0156 B( 17-C , 19-N ) :   1.0644 B( 18-O , 59-H ) :   0.1149
B( 19-N , 20-C ) :   0.9507 B( 19-N , 22-C ) :   1.1516 B( 20-C , 21-C ) :   1.1199
B( 20-C , 66-H ) :   0.9491 B( 20-C , 67-H ) :   0.9280 B( 21-C , 68-H ) :   0.9686
B( 21-C , 69-H ) :   0.9680 B( 21-C , 70-H ) :   0.9634 B( 22-C , 23-C ) :   1.1552
B( 23-C , 24-C ) :   1.6107 B( 23-C , 71-H ) :   0.9613 B( 24-C , 25-C ) :   1.0869
B( 24-C , 72-H ) :   0.9482 B( 25-C , 26-C ) :   1.3230 B( 25-C , 31-C ) :   1.2986
B( 26-C , 27-C ) :   1.0940 B( 26-C , 28-C ) :   1.4005 B( 27-C , 73-H ) :   0.9336
B( 27-C , 74-H ) :   0.9489 B( 27-C , 75-H ) :   0.9405 B( 28-C , 29-C ) :   1.3208
B( 28-C , 76-H ) :   0.9926 B( 29-C , 30-C ) :   1.3253 B( 29-C , 33-C ) :   1.0616
B( 30-C , 31-C ) :   1.4196 B( 30-C , 32-C ) :   1.0876 B( 31-C , 77-H ) :   0.9893
B( 32-C , 78-H ) :   0.9395 B( 32-C , 79-H ) :   0.9508 B( 32-C , 80-H ) :   0.9433
B( 33-C , 34-C ) :   1.6569 B( 33-C , 81-H ) :   0.9437 B( 34-C , 35-C ) :   1.1740
B( 34-C , 82-H ) :   0.9523 B( 35-C , 36-C ) :   1.2307 B( 35-C , 42-C ) :   0.1240
B( 35-C , 44-C ) :   1.2319 B( 36-C , 37-C ) :   1.1658 B( 36-C , 41-N ) :   1.4624
B( 37-C , 38-N ) :   1.4027 B( 37-C , 42-C ) :   1.2145 B( 38-N , 39-C ) :   1.6352
B( 39-C , 40-C ) :   1.2071 B( 39-C , 83-H ) :   0.9723 B( 40-C , 41-N ) :   1.6835
B( 40-C , 84-H ) :   0.9763 B( 42-C , 43-C ) :   1.2056 B( 42-C , 49-C ) :   1.2476
B( 43-C , 44-C ) :   1.1412 B( 43-C , 48-N ) :   1.4620 B( 44-C , 45-N ) :   1.4498
B( 45-N , 46-C ) :   1.6688 B( 46-C , 47-C ) :   1.2250 B( 46-C , 85-H ) :   0.9748
B( 47-C , 48-N ) :   1.5982 B( 47-C , 86-H ) :   0.9666 B( 49-C , 50-S ) :   1.1017
B( 49-C , 51-C ) :   0.1020 B( 49-C , 53-C ) :   1.3485 B( 50-S , 51-C ) :   1.1788
B( 51-C , 52-C ) :   1.3999 B( 51-C , 87-H ) :   0.9756 B( 52-C , 53-C ) :   1.2350
B( 52-C , 56-C ) :   1.1150 B( 53-C , 54-N ) :   1.2158 B( 54-N , 55-N ) :   1.1114
B( 54-N , 88-H ) :   0.9122 B( 55-N , 56-C ) :   1.7493 B( 56-C , 89-H ) :   1.0009

-----------------------------------------------------------------------------
         ABSORPTION SPECTRUM VIA TRANSITION ELECTRIC DIPOLE MOMENTS
-----------------------------------------------------------------------------
State   Energy  Wavelength   fosc         T2         TX        TY        TZ
        (cm-1)    (nm)                  (au**2)     (au)      (au)      (au)
-----------------------------------------------------------------------------
   0   12317.1    811.9   0.741379339  19.81561  -3.80527  -2.25863   0.48389
   1   17260.5    579.4   0.768984487  14.66694   3.47294   1.28379  -0.97853
   2   20115.5    497.1   0.099751967   1.63255   1.14760   0.41358  -0.38014
   3   23405.6    427.2   0.243572556   3.42598   1.09951   1.47369   0.21280
   4   24512.8    408.0   0.006986857   0.09384  -0.30222  -0.01536   0.04755
   5   24822.6    402.9   0.013414402   0.17791  -0.26707  -0.23524   0.22638
   6   25736.5    388.6   0.004413443   0.05646  -0.12366  -0.08395   0.18470
   7   26325.2    379.9   0.025438948   0.31813  -0.29789  -0.17330   0.44649
   8   26924.5    371.4   0.014954096   0.18285  -0.06528  -0.14114   0.39833
   9   27270.7    366.7   0.017841185   0.21538  -0.28919  -0.26636  -0.24658
  10   27368.8    365.4   0.027787788   0.33425  -0.52236  -0.24680  -0.02205
  11   28792.1    347.3   0.056075035   0.64117  -0.61084  -0.51534  -0.04969
  12   29653.1    337.2   0.056705806   0.62955  -0.43319  -0.64129  -0.17504
  13   30418.6    328.7   0.094530558   1.02308   0.91492   0.42921   0.04227
  14   30690.3    325.8   0.198627813   2.13066   1.25645   0.72754  -0.15064
  15   31323.0    319.3   0.447630868   4.70471  -1.64874  -1.39987   0.16346
  16   32396.7    308.7   0.148057145   1.50454   1.00491   0.68435  -0.16236
  17   32757.4    305.3   0.030858023   0.31012  -0.36057  -0.38996  -0.16745
  18   33430.0    299.1   0.061922771   0.60980  -0.47268  -0.62091   0.02914
  19   34035.1    293.8   0.005946275   0.05752  -0.16883  -0.17017   0.00754
  20   34341.7    291.2   0.003814070   0.03656   0.14129   0.00445  -0.12877
  21   35077.4    285.1   0.007102252   0.06666  -0.09560   0.14430  -0.19156
  22   35388.7    282.6   0.655854017   6.10123  -0.37709   0.12261  -2.43803
  23   36133.0    276.8   0.457094122   4.16464   1.26156   1.45020   0.68559
  24   36633.3    273.0   0.039767962   0.35738  -0.01762   0.12880  -0.58351
  25   37105.8    269.5   0.038947200   0.34555   0.30344   0.44636  -0.23289
  26   38125.7    262.3   0.003009265   0.02598  -0.01095   0.08596  -0.13593
  27   38347.7    260.8   0.003630541   0.03117   0.13755   0.01693  -0.10937
  28   38990.4    256.5   0.025707800   0.21706  -0.25410  -0.39049  -0.00354
  29   39173.9    255.3   0.007772215   0.06532  -0.02273   0.25456   0.00060
  30   39593.8    252.6   0.008955523   0.07446   0.06290   0.26150   0.04606
  31   40120.6    249.2   0.000400442   0.00329   0.00384  -0.02729  -0.05026

FINAL SINGLE POINT ENERGY     -2809.989819430702

DIPOLE MOMENT
-------------
                                X             Y             Z
Electronic contribution:     31.72539      24.60423      -5.23441
Nuclear contribution   :    -29.85042     -22.97198       5.67630
                        -----------------------------------------
Total Dipole Moment    :      1.87498       1.63224       0.44190
                        -----------------------------------------
Magnitude (a.u.)       :      2.52488
Magnitude (Debye)      :      6.41774

Rotational constants in cm-1:     0.005422     0.000320     0.000312
Rotational constants in MHz :   162.538259     9.593398     9.341249

                             ****ORCA TERMINATED NORMALLY****
TOTAL RUN TIME: 0 days 0 hours 6 minutes 16 seconds 438 msec
