                         Program Version 4.2.0 -  RELEASE  -
|  1> # ORCA input file
|  2> # SCF done       -162.590018029454          0.000676332015
|  3> ! CAM-B3LYP def2-SVP def2/J RIJCOSX Grid4 TightSCF
|  4> %maxcore 5000
|  5> %tddft
|  6>     Mode sTDDFT
|  7>     Ethresh 5.0
|  8>     maxcore 5000
|  9> end
| 10>
| 11> %pal
| 12>   nprocs 6
| 13>   end
| 14> * xyz 0 1
| 15>    C        2.23534        -2.92715        -0.55240
| 16>    O        3.35443        -2.25676        -0.80149
| 17>    C        3.45781        -1.25176         0.10702
| 18>    C        2.37012        -1.28951         0.95494
| 19>    C        1.57386        -2.38171         0.52540
| 20>    C        0.35973        -2.81220         1.08438
| 21>    N       -0.63013        -3.15054         1.55255
| 22>    C        4.59079        -0.38960         0.02924
| 23>    C        4.80771         0.65468         0.86367
| 24>    C        5.94343         1.49842         0.75509
| 25>    N        6.16981         2.58214         1.57268
| 26>    C        5.30613         3.07680         2.61564
| 27>    C        4.12841         3.86819         2.05071
| 28>    C        7.36356         3.25002         1.24604
| 29>    O        7.74576         4.25406         1.81700
| 30>    C        7.91267         2.48291         0.15460
| 31>    C        7.01557         1.42508        -0.13280
| 32>    C        7.55067         0.68098        -1.25183
| 33>    O        7.14021        -0.29333        -1.85448
| 34>    N        8.73804         1.34987        -1.57944
| 35>    C        9.61825         0.85828        -2.61025
| 36>    C       10.81092         0.10600        -2.02459
| 37>    C        8.98017         2.42090        -0.74458
| 38>    C       10.09711         3.27050        -0.84583
| 39>    C       10.35719         4.22654         0.09499
| 40>    C       11.41041         5.15046         0.01249
| 41>    S       12.23507         5.42211        -1.49731
| 42>    C       13.09263         6.78915        -0.88577
| 43>    C       12.67119         7.10004         0.42194
| 44>    C       11.81117         6.09993         0.97315
| 45>    C       11.46498         6.18035         2.34556
| 46>    N       10.95087         5.08217         3.09810
| 47>    O       11.16818         3.95429         2.69210
| 48>    O       10.39691         5.33131         4.15180
| 49>    C       11.78397         7.32735         3.05352
| 50>    C       12.42170         8.39452         2.44861
| 51>    C       12.87124         8.31722         1.13346
| 52>    N       13.43847         9.39931         0.55148
| 53>    C       14.14899         7.34091        -1.66526
| 54>    C       14.12289         7.23224        -3.07916
| 55>    C       15.15323         7.77374        -3.91517
| 56>    N       15.03877         7.64405        -5.24972
| 57>    C       14.00367         7.01066        -5.74624
| 58>    C       13.00252         6.47785        -4.92344
| 59>    N       13.06826         6.60433        -3.62511
| 60>    C       16.28559         8.42339        -3.34338
| 61>    C       16.36041         8.40953        -1.92148
| 62>    C       15.33569         7.86271        -1.09157
| 63>    N       15.52442         7.77962         0.23869
| 64>    C       16.63219         8.25105         0.74701
| 65>    C       17.60069         8.87713        -0.05423
| 66>    N       17.45465         8.93306        -1.35146
| 67>    C       17.32773         9.04311        -4.07339
| 68>    S       18.68893         9.78882        -3.23436
| 69>    C       19.43961        10.31701        -4.68650
| 70>    C       18.71152         9.95133        -5.78961
| 71>    C       17.52279         9.23100        -5.44098
| 72>    N       16.91409         8.94226        -6.60856
| 73>    N       17.60562         9.40793        -7.66062
| 74>    C       18.67382        10.01190        -7.21126
| 75>    H        1.99086        -3.76257        -1.17919
| 76>    H        2.15560        -0.63672         1.77553
| 77>    H        5.29526        -0.61200        -0.76134
| 78>    H        4.09860         0.86892         1.64974
| 79>    H        5.92590         3.73389         3.23251
| 80>    H        4.95716         2.24275         3.23095
| 81>    H        4.49486         4.72055         1.48405
| 82>    H        3.50530         4.23279         2.86271
| 83>    H        3.52204         3.25020         1.39168
| 84>    H        9.95389         1.69277        -3.23316
| 85>    H        9.01733         0.17966        -3.22235
| 86>    H       11.39157         0.75096        -1.36900
| 87>    H       11.45246        -0.25202        -2.82529
| 88>    H       10.46315        -0.74793        -1.44855
| 89>    H       10.76972         3.14999        -1.68386
| 90>    H        9.69317         4.29445         0.94342
| 91>    H       11.51131         7.37471         4.09694
| 92>    H       12.59358         9.30196         3.00709
| 93>    H       13.46074        10.26593         1.05841
| 94>    H       13.59769         9.41710        -0.43870
| 95>    H       13.95785         6.92431        -6.82374
| 96>    H       12.14406         5.95731        -5.32303
| 97>    H       16.76147         8.13560         1.81386
| 98>    H       18.49828         9.31722         0.35542
| 99>    H       20.36466        10.85701        -4.64784
|100>    H       16.05708         8.41277        -6.69403
|101>    H       19.37483        10.46370        -7.88307
|102> *
|103>
|104>                          ****END OF INPUT****

CARTESIAN COORDINATES (ANGSTROEM)
---------------------------------
  C      2.235340   -2.927150   -0.552400
  O      3.354430   -2.256760   -0.801490
  C      3.457810   -1.251760    0.107020
  C      2.370120   -1.289510    0.954940
  C      1.573860   -2.381710    0.525400
  C      0.359730   -2.812200    1.084380
  N     -0.630130   -3.150540    1.552550
  C      4.590790   -0.389600    0.029240
  C      4.807710    0.654680    0.863670
  C      5.943430    1.498420    0.755090
  N      6.169810    2.582140    1.572680
  C      5.306130    3.076800    2.615640
  C      4.128410    3.868190    2.050710
  C      7.363560    3.250020    1.246040
  O      7.745760    4.254060    1.817000
  C      7.912670    2.482910    0.154600
  C      7.015570    1.425080   -0.132800
  C      7.550670    0.680980   -1.251830
  O      7.140210   -0.293330   -1.854480
  N      8.738040    1.349870   -1.579440
  C      9.618250    0.858280   -2.610250
  C     10.810920    0.106000   -2.024590
  C      8.980170    2.420900   -0.744580
  C     10.097110    3.270500   -0.845830
  C     10.357190    4.226540    0.094990
  C     11.410410    5.150460    0.012490
  S     12.235070    5.422110   -1.497310
  C     13.092630    6.789150   -0.885770
  C     12.671190    7.100040    0.421940
  C     11.811170    6.099930    0.973150
  C     11.464980    6.180350    2.345560
  N     10.950870    5.082170    3.098100
  O     11.168180    3.954290    2.692100
  O     10.396910    5.331310    4.151800
  C     11.783970    7.327350    3.053520
  C     12.421700    8.394520    2.448610
  C     12.871240    8.317220    1.133460
  N     13.438470    9.399310    0.551480
  C     14.148990    7.340910   -1.665260
  C     14.122890    7.232240   -3.079160
  C     15.153230    7.773740   -3.915170
  N     15.038770    7.644050   -5.249720
  C     14.003670    7.010660   -5.746240
  C     13.002520    6.477850   -4.923440
  N     13.068260    6.604330   -3.625110
  C     16.285590    8.423390   -3.343380
  C     16.360410    8.409530   -1.921480
  C     15.335690    7.862710   -1.091570
  N     15.524420    7.779620    0.238690
  C     16.632190    8.251050    0.747010
  C     17.600690    8.877130   -0.054230
  N     17.454650    8.933060   -1.351460
  C     17.327730    9.043110   -4.073390
  S     18.688930    9.788820   -3.234360
  C     19.439610   10.317010   -4.686500
  C     18.711520    9.951330   -5.789610
  C     17.522790    9.231000   -5.440980
  N     16.914090    8.942260   -6.608560
  N     17.605620    9.407930   -7.660620
  C     18.673820   10.011900   -7.211260
  H      1.990860   -3.762570   -1.179190
  H      2.155600   -0.636720    1.775530
  H      5.295260   -0.612000   -0.761340
  H      4.098600    0.868920    1.649740
  H      5.925900    3.733890    3.232510
  H      4.957160    2.242750    3.230950
  H      4.494860    4.720550    1.484050
  H      3.505300    4.232790    2.862710
  H      3.522040    3.250200    1.391680
  H      9.953890    1.692770   -3.233160
  H      9.017330    0.179660   -3.222350
  H     11.391570    0.750960   -1.369000
  H     11.452460   -0.252020   -2.825290
  H     10.463150   -0.747930   -1.448550
  H     10.769720    3.149990   -1.683860
  H      9.693170    4.294450    0.943420
  H     11.511310    7.374710    4.096940
  H     12.593580    9.301960    3.007090
  H     13.460740   10.265930    1.058410
  H     13.597690    9.417100   -0.438700
  H     13.957850    6.924310   -6.823740
  H     12.144060    5.957310   -5.323030
  H     16.761470    8.135600    1.813860
  H     18.498280    9.317220    0.355420
  H     20.364660   10.857010   -4.647840
  H     16.057080    8.412770   -6.694030
  H     19.374830   10.463700   -7.883070

 Total Charge           Charge          ....    0
 Multiplicity           Mult            ....    1
 Number of Electrons    NEL             ....  428
 Basis Dimension        Dim             ....  983

ORBITAL ENERGIES
----------------

  NO   OCC          E(Eh)            E(eV)
   0   2.0000     -88.963310     -2420.8147
   1   2.0000     -88.960472     -2420.7375
   2   2.0000     -19.304623      -525.3055
   3   2.0000     -19.208245      -522.6829
   4   2.0000     -19.207828      -522.6716
   5   2.0000     -19.177804      -521.8546
   6   2.0000     -19.170139      -521.6460
   7   2.0000     -14.615884      -397.7184
   8   2.0000     -14.470881      -393.7727
   9   2.0000     -14.454777      -393.3345
  10   2.0000     -14.445072      -393.0704
  11   2.0000     -14.444662      -393.0592
  12   2.0000     -14.438447      -392.8901
  13   2.0000     -14.438266      -392.8852
  14   2.0000     -14.437118      -392.8540
  15   2.0000     -14.436853      -392.8467
  16   2.0000     -14.433460      -392.7544
  17   2.0000     -14.398935      -391.8149
  18   2.0000     -10.360161      -281.9143
  19   2.0000     -10.353483      -281.7326
  20   2.0000     -10.345831      -281.5244
  21   2.0000     -10.344474      -281.4874
  22   2.0000     -10.342963      -281.4463
  23   2.0000     -10.342294      -281.4281
  24   2.0000     -10.341064      -281.3947
  25   2.0000     -10.338342      -281.3206
  26   2.0000     -10.338174      -281.3160
  27   2.0000     -10.336572      -281.2724
  28   2.0000     -10.335276      -281.2372
  29   2.0000     -10.335038      -281.2307
  30   2.0000     -10.334211      -281.2082
  31   2.0000     -10.322014      -280.8763
  32   2.0000     -10.321741      -280.8688
  33   2.0000     -10.321051      -280.8501
  34   2.0000     -10.318478      -280.7801
  35   2.0000     -10.314619      -280.6750
  36   2.0000     -10.310066      -280.5512
  37   2.0000     -10.306983      -280.4673
  38   2.0000     -10.304598      -280.4024
  39   2.0000     -10.304503      -280.3998
  40   2.0000     -10.301563      -280.3198
  41   2.0000     -10.298179      -280.2277
  42   2.0000     -10.296386      -280.1789
  43   2.0000     -10.295383      -280.1516
  44   2.0000     -10.294853      -280.1372
  45   2.0000     -10.293157      -280.0911
  46   2.0000     -10.289921      -280.0030
  47   2.0000     -10.287949      -279.9493
  48   2.0000     -10.285769      -279.8900
  49   2.0000     -10.283133      -279.8183
  50   2.0000     -10.282445      -279.7996
  51   2.0000     -10.282167      -279.7920
  52   2.0000     -10.277416      -279.6627
  53   2.0000     -10.276541      -279.6389
  54   2.0000     -10.270271      -279.4683
  55   2.0000     -10.265095      -279.3274
  56   2.0000     -10.253818      -279.0206
  57   2.0000     -10.253615      -279.0150
  58   2.0000     -10.245323      -278.7894
  59   2.0000     -10.241367      -278.6818
  60   2.0000      -8.055677      -219.2061
  61   2.0000      -8.054351      -219.1700
  62   2.0000      -6.025453      -163.9609
  63   2.0000      -6.023410      -163.9053
  64   2.0000      -6.020297      -163.8206
  65   2.0000      -6.019081      -163.7875
  66   2.0000      -6.018102      -163.7609
  67   2.0000      -6.017208      -163.7366
  68   2.0000      -1.287882       -35.0451
  69   2.0000      -1.224868       -33.3304
  70   2.0000      -1.139302       -31.0020
  71   2.0000      -1.118042       -30.4235
  72   2.0000      -1.109371       -30.1875
  73   2.0000      -1.108058       -30.1518
  74   2.0000      -1.105684       -30.0872
  75   2.0000      -1.099433       -29.9171
  76   2.0000      -1.047520       -28.5045
  77   2.0000      -1.039214       -28.2784
  78   2.0000      -1.038715       -28.2649
  79   2.0000      -1.029589       -28.0165
  80   2.0000      -1.020806       -27.7775
  81   2.0000      -0.989821       -26.9344
  82   2.0000      -0.984564       -26.7913
  83   2.0000      -0.982105       -26.7244
  84   2.0000      -0.961256       -26.1571
  85   2.0000      -0.934640       -25.4328
  86   2.0000      -0.918731       -24.9999
  87   2.0000      -0.914992       -24.8982
  88   2.0000      -0.913986       -24.8708
  89   2.0000      -0.907396       -24.6915
  90   2.0000      -0.902350       -24.5542
  91   2.0000      -0.887606       -24.1530
  92   2.0000      -0.882623       -24.0174
  93   2.0000      -0.866777       -23.5862
  94   2.0000      -0.859967       -23.4009
  95   2.0000      -0.848186       -23.0803
  96   2.0000      -0.845593       -23.0098
  97   2.0000      -0.833721       -22.6867
  98   2.0000      -0.831313       -22.6212
  99   2.0000      -0.811546       -22.0833
 100   2.0000      -0.807907       -21.9843
 101   2.0000      -0.801142       -21.8002
 102   2.0000      -0.783524       -21.3208
 103   2.0000      -0.778426       -21.1821
 104   2.0000      -0.765799       -20.8385
 105   2.0000      -0.751983       -20.4625
 106   2.0000      -0.748476       -20.3671
 107   2.0000      -0.745303       -20.2807
 108   2.0000      -0.744549       -20.2602
 109   2.0000      -0.730083       -19.8666
 110   2.0000      -0.717865       -19.5341
 111   2.0000      -0.704699       -19.1758
 112   2.0000      -0.702436       -19.1143
 113   2.0000      -0.698497       -19.0071
 114   2.0000      -0.691884       -18.8271
 115   2.0000      -0.686211       -18.6728
 116   2.0000      -0.685782       -18.6611
 117   2.0000      -0.678869       -18.4730
 118   2.0000      -0.668105       -18.1801
 119   2.0000      -0.663261       -18.0483
 120   2.0000      -0.660593       -17.9756
 121   2.0000      -0.647387       -17.6163
 122   2.0000      -0.639183       -17.3931
 123   2.0000      -0.638176       -17.3657
 124   2.0000      -0.632871       -17.2213
 125   2.0000      -0.624355       -16.9896
 126   2.0000      -0.618513       -16.8306
 127   2.0000      -0.612910       -16.6781
 128   2.0000      -0.610087       -16.6013
 129   2.0000      -0.602858       -16.4046
 130   2.0000      -0.598269       -16.2797
 131   2.0000      -0.595078       -16.1929
 132   2.0000      -0.594470       -16.1764
 133   2.0000      -0.584697       -15.9104
 134   2.0000      -0.579242       -15.7620
 135   2.0000      -0.574160       -15.6237
 136   2.0000      -0.567857       -15.4522
 137   2.0000      -0.566063       -15.4033
 138   2.0000      -0.563181       -15.3249
 139   2.0000      -0.562140       -15.2966
 140   2.0000      -0.557087       -15.1591
 141   2.0000      -0.555252       -15.1092
 142   2.0000      -0.551532       -15.0080
 143   2.0000      -0.547691       -14.9034
 144   2.0000      -0.540832       -14.7168
 145   2.0000      -0.537278       -14.6201
 146   2.0000      -0.535355       -14.5678
 147   2.0000      -0.533596       -14.5199
 148   2.0000      -0.531683       -14.4678
 149   2.0000      -0.530846       -14.4451
 150   2.0000      -0.528041       -14.3687
 151   2.0000      -0.521008       -14.1774
 152   2.0000      -0.519280       -14.1303
 153   2.0000      -0.515427       -14.0255
 154   2.0000      -0.512535       -13.9468
 155   2.0000      -0.508644       -13.8409
 156   2.0000      -0.507866       -13.8197
 157   2.0000      -0.506133       -13.7726
 158   2.0000      -0.501175       -13.6377
 159   2.0000      -0.499446       -13.5906
 160   2.0000      -0.495665       -13.4877
 161   2.0000      -0.493694       -13.4341
 162   2.0000      -0.485763       -13.2183
 163   2.0000      -0.484722       -13.1899
 164   2.0000      -0.479480       -13.0473
 165   2.0000      -0.477327       -12.9887
 166   2.0000      -0.470927       -12.8146
 167   2.0000      -0.463980       -12.6255
 168   2.0000      -0.458534       -12.4773
 169   2.0000      -0.455681       -12.3997
 170   2.0000      -0.454881       -12.3780
 171   2.0000      -0.453090       -12.3292
 172   2.0000      -0.452799       -12.3213
 173   2.0000      -0.450416       -12.2565
 174   2.0000      -0.448817       -12.2129
 175   2.0000      -0.447950       -12.1893
 176   2.0000      -0.443719       -12.0742
 177   2.0000      -0.442749       -12.0478
 178   2.0000      -0.437384       -11.9018
 179   2.0000      -0.435394       -11.8477
 180   2.0000      -0.434272       -11.8171
 181   2.0000      -0.429970       -11.7001
 182   2.0000      -0.428934       -11.6719
 183   2.0000      -0.426105       -11.5949
 184   2.0000      -0.425037       -11.5658
 185   2.0000      -0.421661       -11.4740
 186   2.0000      -0.413583       -11.2542
 187   2.0000      -0.405749       -11.0410
 188   2.0000      -0.401373       -10.9219
 189   2.0000      -0.400863       -10.9080
 190   2.0000      -0.393419       -10.7055
 191   2.0000      -0.380823       -10.3627
 192   2.0000      -0.376143       -10.2354
 193   2.0000      -0.374353       -10.1867
 194   2.0000      -0.364701        -9.9240
 195   2.0000      -0.360054        -9.7976
 196   2.0000      -0.353252        -9.6125
 197   2.0000      -0.351772        -9.5722
 198   2.0000      -0.348343        -9.4789
 199   2.0000      -0.347132        -9.4460
 200   2.0000      -0.344093        -9.3632
 201   2.0000      -0.336128        -9.1465
 202   2.0000      -0.331871        -9.0307
 203   2.0000      -0.327257        -8.9051
 204   2.0000      -0.325118        -8.8469
 205   2.0000      -0.315120        -8.5749
 206   2.0000      -0.311828        -8.4853
 207   2.0000      -0.309864        -8.4318
 208   2.0000      -0.300287        -8.1712
 209   2.0000      -0.297692        -8.1006
 210   2.0000      -0.291522        -7.9327
 211   2.0000      -0.265110        -7.2140
 212   2.0000      -0.239000        -6.5035
 213   2.0000      -0.207902        -5.6573
 214   0.0000      -0.109896        -2.9904
 215   0.0000      -0.067932        -1.8485
 216   0.0000      -0.039519        -1.0754
 217   0.0000      -0.027686        -0.7534
 218   0.0000      -0.025174        -0.6850

MULLIKEN ATOMIC CHARGES
-----------------------
   0 C :    0.131622
   1 O :   -0.156226
   2 C :    0.164915
   3 C :   -0.049404
   4 C :   -0.138284
   5 C :   -0.124656
   6 N :    0.134733
   7 C :    0.019398
   8 C :   -0.023654
   9 C :    0.122036
  10 N :   -0.257060
  11 C :    0.101378
  12 C :    0.004202
  13 C :    0.160743
  14 O :   -0.218734
  15 C :   -0.062411
  16 C :   -0.063962
  17 C :    0.158129
  18 O :   -0.216056
  19 N :   -0.257640
  20 C :    0.103349
  21 C :    0.002340
  22 C :    0.149836
  23 C :   -0.075192
  24 C :    0.039560
  25 C :   -0.121142
  26 S :    0.175460
  27 C :   -0.248138
  28 C :    0.159094
  29 C :    0.096360
  30 C :    0.070313
  31 N :    0.248478
  32 O :   -0.255134
  33 O :   -0.252725
  34 C :    0.014068
  35 C :   -0.054659
  36 C :    0.021741
  37 N :   -0.016718
  38 C :    0.055228
  39 C :   -0.036386
  40 C :   -0.063026
  41 N :   -0.089215
  42 C :    0.036765
  43 C :    0.053726
  44 N :   -0.047363
  45 C :    0.193428
  46 C :   -0.041590
  47 C :   -0.131531
  48 N :    0.020692
  49 C :    0.026665
  50 C :    0.049511
  51 N :   -0.079948
  52 C :   -0.309410
  53 S :    0.173418
  54 C :   -0.091979
  55 C :    0.009596
  56 C :    0.163384
  57 N :   -0.021248
  58 N :   -0.053662
  59 C :    0.009676
  60 H :    0.023016
  61 H :   -0.002725
  62 H :    0.023055
  63 H :   -0.031673
  64 H :    0.048120
  65 H :    0.018744
  66 H :    0.029316
  67 H :    0.019769
  68 H :    0.012080
  69 H :    0.014921
  70 H :    0.039649
  71 H :    0.024085
  72 H :    0.016128
  73 H :    0.028967
  74 H :   -0.031225
  75 H :    0.025787
  76 H :    0.005178
  77 H :   -0.047251
  78 H :    0.113947
  79 H :    0.123802
  80 H :    0.021975
  81 H :    0.021903
  82 H :    0.021200
  83 H :    0.015284
  84 H :    0.023952
  85 H :    0.135262
  86 H :   -0.005957
Sum of atomic charges:   -0.0000000

LOEWDIN ATOMIC CHARGES
----------------------
   0 C :    0.078093
   1 O :    0.045369
   2 C :    0.026276
   3 C :   -0.033644
   4 C :   -0.116438
   5 C :   -0.031731
   6 N :   -0.055049
   7 C :    0.004909
   8 C :   -0.038519
   9 C :    0.063717
  10 N :    0.000276
  11 C :    0.036333
  12 C :   -0.062123
  13 C :    0.077182
  14 O :   -0.207548
  15 C :   -0.126097
  16 C :   -0.118974
  17 C :    0.079988
  18 O :   -0.206940
  19 N :   -0.003454
  20 C :    0.036091
  21 C :   -0.061748
  22 C :    0.079458
  23 C :   -0.073017
  24 C :    0.027744
  25 C :   -0.183868
  26 S :    0.519295
  27 C :   -0.154817
  28 C :   -0.057839
  29 C :   -0.021009
  30 C :   -0.073717
  31 N :    0.289122
  32 O :   -0.214842
  33 O :   -0.218068
  34 C :    0.027864
  35 C :   -0.098966
  36 C :    0.071108
  37 N :    0.020240
  38 C :   -0.089453
  39 C :   -0.002255
  40 C :   -0.013046
  41 N :   -0.032425
  42 C :    0.002933
  43 C :    0.022143
  44 N :   -0.047009
  45 C :   -0.018436
  46 C :   -0.025469
  47 C :   -0.013471
  48 N :   -0.016289
  49 C :    0.012240
  50 C :    0.014849
  51 N :   -0.050810
  52 C :   -0.217779
  53 S :    0.493881
  54 C :   -0.161930
  55 C :   -0.110449
  56 C :   -0.001527
  57 N :    0.099988
  58 N :   -0.058734
  59 C :   -0.034693
  60 H :    0.033550
  61 H :    0.036435
  62 H :    0.044521
  63 H :    0.027012
  64 H :    0.039689
  65 H :    0.021017
  66 H :    0.032171
  67 H :    0.028905
  68 H :    0.020266
  69 H :    0.019745
  70 H :    0.035527
  71 H :    0.025035
  72 H :    0.027467
  73 H :    0.032056
  74 H :    0.016660
  75 H :    0.036127
  76 H :    0.041263
  77 H :    0.023677
  78 H :    0.078508
  79 H :    0.071784
  80 H :    0.027613
  81 H :    0.031872
  82 H :    0.030144
  83 H :    0.028657
  84 H :    0.026613
  85 H :    0.064621
  86 H :    0.022147

  Mayer bond orders larger than 0.100000
B(  0-C ,  1-O ) :   1.2060 B(  0-C ,  4-C ) :   1.4984 B(  0-C , 60-H ) :   1.0114
B(  1-O ,  2-C ) :   1.1335 B(  2-C ,  3-C ) :   1.4935 B(  2-C ,  7-C ) :   1.0968
B(  3-C ,  4-C ) :   1.2573 B(  3-C , 61-H ) :   1.0111 B(  4-C ,  5-C ) :   1.0807
B(  5-C ,  6-N ) :   3.0554 B(  7-C ,  8-C ) :   1.6252 B(  7-C , 62-H ) :   0.9388
B(  8-C ,  9-C ) :   1.1606 B(  8-C , 63-H ) :   0.9612 B(  9-C , 10-N ) :   1.1567
B(  9-C , 16-C ) :   1.3451 B( 10-N , 11-C ) :   0.9511 B( 10-N , 13-C ) :   1.0582
B( 11-C , 12-C ) :   1.1191 B( 11-C , 64-H ) :   0.9277 B( 11-C , 65-H ) :   0.9496
B( 12-C , 66-H ) :   0.9636 B( 12-C , 67-H ) :   0.9681 B( 12-C , 68-H ) :   0.9684
B( 13-C , 14-O ) :   2.0118 B( 13-C , 15-C ) :   1.0024 B( 14-O , 75-H ) :   0.1114
B( 15-C , 16-C ) :   1.2523 B( 15-C , 22-C ) :   1.3176 B( 16-C , 17-C ) :   0.9846
B( 17-C , 18-O ) :   2.0278 B( 17-C , 19-N ) :   1.0653 B( 18-O , 62-H ) :   0.1058
B( 19-N , 20-C ) :   0.9531 B( 19-N , 22-C ) :   1.1464 B( 20-C , 21-C ) :   1.1196
B( 20-C , 69-H ) :   0.9490 B( 20-C , 70-H ) :   0.9293 B( 21-C , 71-H ) :   0.9683
B( 21-C , 72-H ) :   0.9677 B( 21-C , 73-H ) :   0.9637 B( 22-C , 23-C ) :   1.1933
B( 23-C , 24-C ) :   1.5560 B( 23-C , 74-H ) :   0.9619 B( 24-C , 25-C ) :   1.2104
B( 24-C , 75-H ) :   0.9353 B( 25-C , 26-S ) :   1.0925 B( 25-C , 27-C ) :   0.1059
B( 25-C , 29-C ) :   1.3305 B( 26-S , 27-C ) :   1.2007 B( 27-C , 28-C ) :   1.3071
B( 27-C , 38-C ) :   1.1377 B( 28-C , 29-C ) :   1.2588 B( 28-C , 36-C ) :   1.1512
B( 29-C , 30-C ) :   1.1708 B( 30-C , 31-N ) :   0.9236 B( 30-C , 34-C ) :   1.4648
B( 31-N , 32-O ) :   1.5159 B( 31-N , 33-O ) :   1.5360 B( 32-O , 33-O ) :   0.2463
B( 34-C , 35-C ) :   1.2654 B( 34-C , 76-H ) :   0.9734 B( 35-C , 36-C ) :   1.3669
B( 35-C , 77-H ) :   0.9911 B( 36-C , 37-N ) :   1.3406 B( 37-N , 78-H ) :   0.9351
B( 37-N , 79-H ) :   0.9359 B( 38-C , 39-C ) :   1.2411 B( 38-C , 45-C ) :   0.1147
B( 38-C , 47-C ) :   1.2407 B( 39-C , 40-C ) :   1.1591 B( 39-C , 44-N ) :   1.4472
B( 40-C , 41-N ) :   1.4690 B( 40-C , 45-C ) :   1.1869 B( 41-N , 42-C ) :   1.5867
B( 42-C , 43-C ) :   1.2411 B( 42-C , 80-H ) :   0.9684 B( 43-C , 44-N ) :   1.6419
B( 43-C , 81-H ) :   0.9756 B( 45-C , 46-C ) :   1.2078 B( 45-C , 52-C ) :   1.2697
B( 46-C , 47-C ) :   1.1547 B( 46-C , 51-N ) :   1.4126 B( 47-C , 48-N ) :   1.4789
B( 48-N , 49-C ) :   1.6517 B( 49-C , 50-C ) :   1.2133 B( 49-C , 82-H ) :   0.9772
B( 50-C , 51-N ) :   1.6248 B( 50-C , 83-H ) :   0.9731 B( 52-C , 53-S ) :   1.0993
B( 52-C , 56-C ) :   1.3345 B( 53-S , 54-C ) :   1.1808 B( 54-C , 55-C ) :   1.3984
B( 54-C , 84-H ) :   0.9746 B( 55-C , 56-C ) :   1.2370 B( 55-C , 59-C ) :   1.1150
B( 56-C , 57-N ) :   1.2213 B( 57-N , 58-N ) :   1.1123 B( 57-N , 85-H ) :   0.9113
B( 58-N , 59-C ) :   1.7496 B( 59-C , 86-H ) :   1.0010

-----------------------------------------------------------------------------
         ABSORPTION SPECTRUM VIA TRANSITION ELECTRIC DIPOLE MOMENTS
-----------------------------------------------------------------------------
State   Energy  Wavelength   fosc         T2         TX        TY        TZ
        (cm-1)    (nm)                  (au**2)     (au)      (au)      (au)
-----------------------------------------------------------------------------
   0    7875.7   1269.7   0.568134282  23.74851   3.72354   2.39409  -2.03767
   1   14240.1    702.2   0.042301751   0.97796  -0.54188  -0.41295  -0.71679
   2   15338.4    652.0   0.672758704  14.43962  -3.05927  -2.16327   0.63304
   3   17142.2    583.4   0.026894939   0.51651  -0.43352  -0.21203   0.53255
   4   20596.4    485.5   0.034269296   0.54776   0.02607  -0.54143   0.50392
   5   22279.5    448.8   0.033585069   0.49627  -0.12719  -0.53610  -0.43896
   6   23160.4    431.8   0.017407444   0.24744   0.31936   0.08825  -0.37102
   7   23397.6    427.4   0.018985772   0.26714   0.07410  -0.37330  -0.34970
   8   24123.0    414.5   0.000337927   0.00461  -0.01347   0.04724  -0.04689
   9   24483.9    408.4   0.033786989   0.45430   0.58830   0.29040   0.15453
  10   25123.2    398.0   0.016397261   0.21487  -0.24857  -0.38483  -0.07062
  11   25312.2    395.1   0.044767677   0.58225   0.10816   0.06418  -0.75262
  12   25397.8    393.7   0.000309018   0.00401   0.01727   0.00903  -0.06021
  13   27079.8    369.3   0.013437095   0.16336   0.25568   0.11134  -0.29255
  14   27248.8    367.0   0.232164664   2.80494  -0.92907   0.03615   1.39301
  15   28256.1    353.9   0.078752992   0.91755   0.43453   0.50309  -0.68966
  16   28770.1    347.6   0.004746705   0.05432  -0.04968   0.09089  -0.20877
  17   29063.1    344.1   0.045382703   0.51407   0.60851   0.31320  -0.21376
  18   29518.5    338.8   0.049432474   0.55131   0.14152   0.45437   0.56993
  19   29728.8    336.4   0.308416113   3.41535  -1.38973  -1.19418   0.24071
  20   30762.2    325.1   0.004563552   0.04884   0.00504  -0.00981   0.22072
  21   31012.0    322.5   0.005278059   0.05603  -0.18080   0.14437  -0.04999
  22   31131.4    321.2   0.018429956   0.19490   0.11286   0.11466   0.41111
  23   32036.2    312.1   0.039244677   0.40329  -0.44867  -0.38107   0.23826
  24   32447.6    308.2   0.010593192   0.10748  -0.05058  -0.08951   0.31130
  25   32606.3    306.7   0.002756093   0.02783   0.06708   0.14982  -0.02969
  26   32817.2    304.7   0.014338012   0.14383   0.16336   0.33305   0.07890
  27   33334.5    300.0   0.013309394   0.13144  -0.22195   0.19870  -0.20664
  28   33547.4    298.1   0.025756454   0.25276   0.06271   0.02591   0.49815
  29   33974.9    294.3   0.016140819   0.15640  -0.25460  -0.28343  -0.10608
  30   34067.1    293.5   0.253443522   2.44918  -1.12397  -1.06221  -0.23999
  31   34333.8    291.3   0.010714106   0.10273  -0.21460   0.02785  -0.23644
  32   34638.9    288.7   0.020706119   0.19679   0.14804   0.29706  -0.29434
  33   34865.6    286.8   0.114889155   1.08482   0.79178   0.11723   0.66645
  34   35178.5    284.3   0.236437415   2.21266   0.90760   0.29842   1.14011
  35   35247.2    283.7   0.068353421   0.63843   0.51921   0.48716   0.36266
  36   35672.0    280.3   0.113732818   1.04963  -0.19347  -0.69557   0.72689
  37   35885.9    278.7   0.004248409   0.03897  -0.14438   0.10583   0.08324
  38   36476.5    274.1   0.071857800   0.64854   0.60226   0.47250  -0.25014
  39   36570.2    273.4   0.218546632   1.96740   0.34132   0.80929   1.09359
  40   36884.4    271.1   0.137504966   1.22730  -0.27234  -0.76572  -0.75287
  41   37581.3    266.1   0.165859484   1.45293   0.32553   0.79619   0.84442
  42   37664.0    265.5   0.013236202   0.11569   0.07016   0.17381   0.28383
  43   37913.9    263.8   0.010758918   0.09342   0.17124   0.15413   0.20085
  44   38532.3    259.5   0.010734785   0.09172  -0.07775   0.01707   0.29220
  45   38772.1    257.9   0.004864217   0.04130  -0.19853  -0.03375   0.02733
  46   38925.4    256.9   0.038442600   0.32513   0.38882   0.38566  -0.15880
  47   39291.8    254.5   0.050672162   0.42456   0.33042   0.45560  -0.32834
  48   39348.6    254.1   0.086815782   0.72635  -0.52851  -0.58061  -0.33153
  49   39930.2    250.4   0.166917637   1.37618   0.27211   0.85652   0.75400

FINAL SINGLE POINT ENERGY     -3387.896182759578

DIPOLE MOMENT
-------------
                                X             Y             Z
Electronic contribution:     27.34062      16.06424      -8.04757
Nuclear contribution   :    -23.47152     -12.40866       6.12553
                        -----------------------------------------
Total Dipole Moment    :      3.86909       3.65558      -1.92204
                        -----------------------------------------
Magnitude (a.u.)       :      5.65927
Magnitude (Debye)      :     14.38473

Rotational constants in cm-1:     0.003126     0.000458     0.000414
Rotational constants in MHz :    93.726285    13.736421    12.403593

                             ****ORCA TERMINATED NORMALLY****
TOTAL RUN TIME: 0 days 0 hours 8 minutes 21 seconds 981 msec
