                         Program Version 4.2.0 -  RELEASE  -
|  1> # ORCA input file
|  2> # SCF done       -149.035066738277          0.000886465058
|  3> ! CAM-B3LYP def2-SVP def2/J RIJCOSX Grid4 TightSCF
|  4> %maxcore 5000
|  5> %tddft
|  6>     Mode sTDDFT
|  7>     Ethresh 5.0
|  8>     maxcore 5000
|  9> end
| 10>
| 11> %pal
| 12>   nprocs 6
| 13>   end
| 14> * xyz 0 1
| 15>    C        1.76047         7.36586        -4.19712
| 16>    O        2.90657         6.78988        -3.84539
| 17>    C        2.65076         5.94124        -2.81352
| 18>    C        1.31281         5.98006        -2.50189
| 19>    C        0.73209         6.91101        -3.40507
| 20>    C       -0.61130         7.30605        -3.46128
| 21>    N       -1.70856         7.63970        -3.47471
| 22>    C        3.75031         5.19090        -2.28393
| 23>    C        3.65670         4.30769        -1.27580
| 24>    C        4.75057         3.48125        -0.80763
| 25>    C        5.79188         3.14606        -1.68960
| 26>    C        6.76901         2.27288        -1.28040
| 27>    C        6.72383         1.68283        -0.01070
| 28>    C        7.88400         0.77051         0.11386
| 29>    O        8.21467         0.06763         1.03541
| 30>    N        8.55732         0.86754        -1.09577
| 31>    C        7.95947         1.74746        -1.98782
| 32>    O        8.36443         1.98895        -3.09691
| 33>    C        9.78199         0.15300        -1.38532
| 34>    C       11.00696         0.98749        -1.02812
| 35>    C        5.71161         1.98438         0.86567
| 36>    C        4.73119         2.91838         0.48998
| 37>    C        3.76108         3.26957         1.50595
| 38>    C        3.22332         4.48317         1.73025
| 39>    C        2.35256         4.71337         2.83913
| 40>    S        1.91019         6.35661         3.34051
| 41>    C        0.95038         5.81783         4.73657
| 42>    C        1.03097         4.45300         4.75517
| 43>    C        1.78286         3.85020         3.71991
| 44>    C        1.42654         2.50203         4.30707
| 45>    N        0.57087         3.23740         5.26362
| 46>    C        0.37805         6.68718         5.73889
| 47>    C        0.47980         6.22638         7.06370
| 48>    C        0.03352         7.01589         8.09254
| 49>    C       -0.49050         8.29093         7.84407
| 50>    C       -0.84566         8.90069         9.14442
| 51>    O       -1.31359         9.98443         9.38683
| 52>    N       -0.51627         7.94559        10.09949
| 53>    C        0.01290         6.78591         9.55495
| 54>    O        0.36912         5.82152        10.18547
| 55>    C       -0.75417         8.12434        11.51558
| 56>    C       -2.15894         7.67203        11.89890
| 57>    C       -0.61394         8.75620         6.55815
| 58>    C       -0.22603         7.94026         5.48129
| 59>    C       -0.56023         8.43067         4.16265
| 60>    C       -0.84922         7.67989         3.08387
| 61>    C       -1.26472         8.22822         1.83505
| 62>    O       -1.63203         9.51447         1.70540
| 63>    C       -1.99115         9.72205         0.41370
| 64>    C       -1.84557         8.56330        -0.31098
| 65>    C       -1.37209         7.58971         0.60056
| 66>    C       -0.97533         6.27670         0.33436
| 67>    N       -0.59602         5.21383         0.12100
| 68>    C       -2.44485        11.01767        -0.01830
| 69>    C       -2.54550        12.07757         0.77924
| 70>    H        1.77196         8.07054        -5.00546
| 71>    H        0.79836         5.43444        -1.73734
| 72>    H        4.69766         5.39869        -2.76138
| 73>    H        2.70396         4.16425        -0.78549
| 74>    H        5.81206         3.54220        -2.69216
| 75>    H        9.78113        -0.08145        -2.45267
| 76>    H        9.76514        -0.76997        -0.80081
| 77>    H       11.01043         1.91191        -1.60103
| 78>    H       11.91098         0.43050        -1.25721
| 79>    H       11.00243         1.22763         0.03267
| 80>    H        5.68216         1.53044         1.84468
| 81>    H        3.53450         2.48092         2.21268
| 82>    H        3.47764         5.33706         1.11976
| 83>    H        2.26352         1.96664         4.75913
| 84>    H        0.85254         1.83836         3.66039
| 85>    H        0.52198         3.01307         6.24580
| 86>    H        0.93160         5.26885         7.26992
| 87>    H       -0.62244         9.18573        11.73929
| 88>    H       -0.00468         7.53486        12.04904
| 89>    H       -2.90096         8.25774        11.36116
| 90>    H       -2.31166         7.80768        12.96575
| 91>    H       -2.29396         6.62033        11.65640
| 92>    H       -1.04280         9.72884         6.36994
| 93>    H       -0.67981         9.50343         4.08086
| 94>    H       -0.79698         6.60179         3.10839
| 95>    H       -2.05014         8.41977        -1.35275
| 96>    H       -2.70655        11.07165        -1.06522
| 97>    H       -2.28553        12.02065         1.82263
| 98>    H       -2.88956        13.02808         0.41301
| 99> *
|100>
|101>                          ****END OF INPUT****

CARTESIAN COORDINATES (ANGSTROEM)
---------------------------------
  C      1.760470    7.365860   -4.197120
  O      2.906570    6.789880   -3.845390
  C      2.650760    5.941240   -2.813520
  C      1.312810    5.980060   -2.501890
  C      0.732090    6.911010   -3.405070
  C     -0.611300    7.306050   -3.461280
  N     -1.708560    7.639700   -3.474710
  C      3.750310    5.190900   -2.283930
  C      3.656700    4.307690   -1.275800
  C      4.750570    3.481250   -0.807630
  C      5.791880    3.146060   -1.689600
  C      6.769010    2.272880   -1.280400
  C      6.723830    1.682830   -0.010700
  C      7.884000    0.770510    0.113860
  O      8.214670    0.067630    1.035410
  N      8.557320    0.867540   -1.095770
  C      7.959470    1.747460   -1.987820
  O      8.364430    1.988950   -3.096910
  C      9.781990    0.153000   -1.385320
  C     11.006960    0.987490   -1.028120
  C      5.711610    1.984380    0.865670
  C      4.731190    2.918380    0.489980
  C      3.761080    3.269570    1.505950
  C      3.223320    4.483170    1.730250
  C      2.352560    4.713370    2.839130
  S      1.910190    6.356610    3.340510
  C      0.950380    5.817830    4.736570
  C      1.030970    4.453000    4.755170
  C      1.782860    3.850200    3.719910
  C      1.426540    2.502030    4.307070
  N      0.570870    3.237400    5.263620
  C      0.378050    6.687180    5.738890
  C      0.479800    6.226380    7.063700
  C      0.033520    7.015890    8.092540
  C     -0.490500    8.290930    7.844070
  C     -0.845660    8.900690    9.144420
  O     -1.313590    9.984430    9.386830
  N     -0.516270    7.945590   10.099490
  C      0.012900    6.785910    9.554950
  O      0.369120    5.821520   10.185470
  C     -0.754170    8.124340   11.515580
  C     -2.158940    7.672030   11.898900
  C     -0.613940    8.756200    6.558150
  C     -0.226030    7.940260    5.481290
  C     -0.560230    8.430670    4.162650
  C     -0.849220    7.679890    3.083870
  C     -1.264720    8.228220    1.835050
  O     -1.632030    9.514470    1.705400
  C     -1.991150    9.722050    0.413700
  C     -1.845570    8.563300   -0.310980
  C     -1.372090    7.589710    0.600560
  C     -0.975330    6.276700    0.334360
  N     -0.596020    5.213830    0.121000
  C     -2.444850   11.017670   -0.018300
  C     -2.545500   12.077570    0.779240
  H      1.771960    8.070540   -5.005460
  H      0.798360    5.434440   -1.737340
  H      4.697660    5.398690   -2.761380
  H      2.703960    4.164250   -0.785490
  H      5.812060    3.542200   -2.692160
  H      9.781130   -0.081450   -2.452670
  H      9.765140   -0.769970   -0.800810
  H     11.010430    1.911910   -1.601030
  H     11.910980    0.430500   -1.257210
  H     11.002430    1.227630    0.032670
  H      5.682160    1.530440    1.844680
  H      3.534500    2.480920    2.212680
  H      3.477640    5.337060    1.119760
  H      2.263520    1.966640    4.759130
  H      0.852540    1.838360    3.660390
  H      0.521980    3.013070    6.245800
  H      0.931600    5.268850    7.269920
  H     -0.622440    9.185730   11.739290
  H     -0.004680    7.534860   12.049040
  H     -2.900960    8.257740   11.361160
  H     -2.311660    7.807680   12.965750
  H     -2.293960    6.620330   11.656400
  H     -1.042800    9.728840    6.369940
  H     -0.679810    9.503430    4.080860
  H     -0.796980    6.601790    3.108390
  H     -2.050140    8.419770   -1.352750
  H     -2.706550   11.071650   -1.065220
  H     -2.285530   12.020650    1.822630
  H     -2.889560   13.028080    0.413010

 Total Charge           Charge          ....    0
 Multiplicity           Mult            ....    1
 Number of Electrons    NEL             ....  386
 Basis Dimension        Dim             ....  919

ORBITAL ENERGIES
----------------

  NO   OCC          E(Eh)            E(eV)
   0   2.0000     -88.952422     -2420.5185
   1   2.0000     -19.312682      -525.5248
   2   2.0000     -19.305292      -525.3237
   3   2.0000     -19.208537      -522.6909
   4   2.0000     -19.208350      -522.6858
   5   2.0000     -19.207885      -522.6731
   6   2.0000     -19.207037      -522.6501
   7   2.0000     -14.449892      -393.2015
   8   2.0000     -14.448667      -393.1682
   9   2.0000     -14.432134      -392.7183
  10   2.0000     -14.413444      -392.2098
  11   2.0000     -14.411559      -392.1584
  12   2.0000     -10.388540      -282.6865
  13   2.0000     -10.388362      -282.6817
  14   2.0000     -10.387745      -282.6649
  15   2.0000     -10.387030      -282.6454
  16   2.0000     -10.353940      -281.7450
  17   2.0000     -10.353634      -281.7367
  18   2.0000     -10.342610      -281.4367
  19   2.0000     -10.337908      -281.3088
  20   2.0000     -10.326998      -281.0119
  21   2.0000     -10.317802      -280.7617
  22   2.0000     -10.315709      -280.7047
  23   2.0000     -10.314648      -280.6758
  24   2.0000     -10.313647      -280.6486
  25   2.0000     -10.311833      -280.5992
  26   2.0000     -10.309402      -280.5331
  27   2.0000     -10.307607      -280.4843
  28   2.0000     -10.304082      -280.3883
  29   2.0000     -10.303620      -280.3758
  30   2.0000     -10.303048      -280.3602
  31   2.0000     -10.302454      -280.3440
  32   2.0000     -10.301752      -280.3249
  33   2.0000     -10.301712      -280.3238
  34   2.0000     -10.296531      -280.1828
  35   2.0000     -10.296146      -280.1724
  36   2.0000     -10.295644      -280.1587
  37   2.0000     -10.295213      -280.1470
  38   2.0000     -10.295024      -280.1418
  39   2.0000     -10.293654      -280.1046
  40   2.0000     -10.292284      -280.0673
  41   2.0000     -10.291931      -280.0577
  42   2.0000     -10.291575      -280.0480
  43   2.0000     -10.291114      -280.0354
  44   2.0000     -10.290968      -280.0315
  45   2.0000     -10.290417      -280.0165
  46   2.0000     -10.289418      -279.9893
  47   2.0000     -10.288852      -279.9739
  48   2.0000     -10.285576      -279.8847
  49   2.0000     -10.284872      -279.8656
  50   2.0000     -10.281048      -279.7615
  51   2.0000     -10.276779      -279.6454
  52   2.0000     -10.272063      -279.5171
  53   2.0000     -10.256836      -279.1027
  54   2.0000     -10.256472      -279.0928
  55   2.0000      -8.046570      -218.9583
  56   2.0000      -6.016483      -163.7168
  57   2.0000      -6.012191      -163.6000
  58   2.0000      -6.007788      -163.4802
  59   2.0000      -1.231829       -33.5198
  60   2.0000      -1.224263       -33.3139
  61   2.0000      -1.154316       -31.4105
  62   2.0000      -1.153165       -31.3792
  63   2.0000      -1.130664       -30.7669
  64   2.0000      -1.129523       -30.7359
  65   2.0000      -1.071003       -29.1435
  66   2.0000      -1.045318       -28.4445
  67   2.0000      -1.044203       -28.4142
  68   2.0000      -0.999889       -27.2084
  69   2.0000      -0.997261       -27.1369
  70   2.0000      -0.984057       -26.7775
  71   2.0000      -0.982349       -26.7311
  72   2.0000      -0.960018       -26.1234
  73   2.0000      -0.929783       -25.3007
  74   2.0000      -0.927496       -25.2385
  75   2.0000      -0.921823       -25.0841
  76   2.0000      -0.918191       -24.9852
  77   2.0000      -0.914603       -24.8876
  78   2.0000      -0.904957       -24.6251
  79   2.0000      -0.890794       -24.2397
  80   2.0000      -0.880267       -23.9533
  81   2.0000      -0.869387       -23.6572
  82   2.0000      -0.861544       -23.4438
  83   2.0000      -0.847067       -23.0499
  84   2.0000      -0.838754       -22.8237
  85   2.0000      -0.823705       -22.4142
  86   2.0000      -0.817536       -22.2463
  87   2.0000      -0.809921       -22.0391
  88   2.0000      -0.795957       -21.6591
  89   2.0000      -0.772026       -21.0079
  90   2.0000      -0.765951       -20.8426
  91   2.0000      -0.764603       -20.8059
  92   2.0000      -0.759591       -20.6695
  93   2.0000      -0.751868       -20.4594
  94   2.0000      -0.742054       -20.1923
  95   2.0000      -0.739447       -20.1214
  96   2.0000      -0.726679       -19.7740
  97   2.0000      -0.719954       -19.5909
  98   2.0000      -0.706008       -19.2115
  99   2.0000      -0.699031       -19.0216
 100   2.0000      -0.696082       -18.9414
 101   2.0000      -0.694013       -18.8850
 102   2.0000      -0.684573       -18.6282
 103   2.0000      -0.682211       -18.5639
 104   2.0000      -0.680756       -18.5243
 105   2.0000      -0.668673       -18.1955
 106   2.0000      -0.658808       -17.9271
 107   2.0000      -0.639074       -17.3901
 108   2.0000      -0.636448       -17.3186
 109   2.0000      -0.632039       -17.1987
 110   2.0000      -0.614890       -16.7320
 111   2.0000      -0.606672       -16.5084
 112   2.0000      -0.601053       -16.3555
 113   2.0000      -0.599284       -16.3074
 114   2.0000      -0.587563       -15.9884
 115   2.0000      -0.582426       -15.8486
 116   2.0000      -0.576561       -15.6890
 117   2.0000      -0.573728       -15.6119
 118   2.0000      -0.573116       -15.5953
 119   2.0000      -0.570669       -15.5287
 120   2.0000      -0.569141       -15.4871
 121   2.0000      -0.568219       -15.4620
 122   2.0000      -0.566798       -15.4234
 123   2.0000      -0.564217       -15.3531
 124   2.0000      -0.555317       -15.1109
 125   2.0000      -0.550904       -14.9909
 126   2.0000      -0.543268       -14.7831
 127   2.0000      -0.540694       -14.7130
 128   2.0000      -0.537849       -14.6356
 129   2.0000      -0.534495       -14.5444
 130   2.0000      -0.530845       -14.4450
 131   2.0000      -0.529865       -14.4184
 132   2.0000      -0.528203       -14.3731
 133   2.0000      -0.527068       -14.3422
 134   2.0000      -0.522126       -14.2078
 135   2.0000      -0.517976       -14.0948
 136   2.0000      -0.515772       -14.0349
 137   2.0000      -0.514061       -13.9883
 138   2.0000      -0.509148       -13.8546
 139   2.0000      -0.505593       -13.7579
 140   2.0000      -0.504907       -13.7392
 141   2.0000      -0.503983       -13.7141
 142   2.0000      -0.497717       -13.5436
 143   2.0000      -0.492490       -13.4013
 144   2.0000      -0.487839       -13.2748
 145   2.0000      -0.485986       -13.2243
 146   2.0000      -0.482333       -13.1249
 147   2.0000      -0.480561       -13.0767
 148   2.0000      -0.477473       -12.9927
 149   2.0000      -0.476575       -12.9683
 150   2.0000      -0.471976       -12.8431
 151   2.0000      -0.471366       -12.8265
 152   2.0000      -0.466452       -12.6928
 153   2.0000      -0.462768       -12.5926
 154   2.0000      -0.460045       -12.5185
 155   2.0000      -0.459596       -12.5062
 156   2.0000      -0.456577       -12.4241
 157   2.0000      -0.455725       -12.4009
 158   2.0000      -0.452936       -12.3250
 159   2.0000      -0.450568       -12.2606
 160   2.0000      -0.447608       -12.1800
 161   2.0000      -0.446573       -12.1519
 162   2.0000      -0.444910       -12.1066
 163   2.0000      -0.443624       -12.0716
 164   2.0000      -0.443171       -12.0593
 165   2.0000      -0.440506       -11.9868
 166   2.0000      -0.431361       -11.7379
 167   2.0000      -0.423939       -11.5360
 168   2.0000      -0.423344       -11.5198
 169   2.0000      -0.416118       -11.3231
 170   2.0000      -0.414819       -11.2878
 171   2.0000      -0.413299       -11.2464
 172   2.0000      -0.408694       -11.1211
 173   2.0000      -0.404331       -11.0024
 174   2.0000      -0.398539       -10.8448
 175   2.0000      -0.382633       -10.4120
 176   2.0000      -0.371192       -10.1007
 177   2.0000      -0.363586        -9.8937
 178   2.0000      -0.362196        -9.8559
 179   2.0000      -0.361753        -9.8438
 180   2.0000      -0.358587        -9.7577
 181   2.0000      -0.354915        -9.6577
 182   2.0000      -0.346725        -9.4349
 183   2.0000      -0.340603        -9.2683
 184   2.0000      -0.340371        -9.2620
 185   2.0000      -0.339300        -9.2328
 186   2.0000      -0.338877        -9.2213
 187   2.0000      -0.333082        -9.0636
 188   2.0000      -0.318207        -8.6589
 189   2.0000      -0.292998        -7.9729
 190   2.0000      -0.278582        -7.5806
 191   2.0000      -0.268268        -7.3000
 192   2.0000      -0.251749        -6.8504
 193   0.0000      -0.072789        -1.9807
 194   0.0000      -0.058781        -1.5995
 195   0.0000      -0.033117        -0.9012
 196   0.0000      -0.025089        -0.6827
 197   0.0000      -0.012098        -0.3292

MULLIKEN ATOMIC CHARGES
-----------------------
   0 C :    0.127244
   1 O :   -0.170429
   2 C :    0.164289
   3 C :   -0.036664
   4 C :   -0.144218
   5 C :   -0.065766
   6 N :    0.093664
   7 C :    0.015182
   8 C :   -0.058394
   9 C :    0.095790
  10 C :   -0.091704
  11 C :    0.016574
  12 C :    0.012876
  13 C :    0.187919
  14 O :   -0.159094
  15 N :   -0.302671
  16 C :    0.186941
  17 O :   -0.158737
  18 C :    0.134196
  19 C :   -0.007724
  20 C :   -0.087583
  21 C :    0.088402
  22 C :   -0.037273
  23 C :    0.080643
  24 C :   -0.187921
  25 S :    0.114564
  26 C :   -0.342120
  27 C :    0.173349
  28 C :   -0.063441
  29 C :    0.239489
  30 N :   -0.172318
  31 C :    0.135602
  32 C :   -0.099733
  33 C :    0.018601
  34 C :    0.010853
  35 C :    0.187872
  36 O :   -0.158044
  37 N :   -0.302514
  38 C :    0.187445
  39 O :   -0.164190
  40 C :    0.131965
  41 C :   -0.010389
  42 C :   -0.087332
  43 C :    0.077457
  44 C :   -0.027570
  45 C :   -0.023476
  46 C :    0.134453
  47 O :   -0.189194
  48 C :    0.159292
  49 C :   -0.023777
  50 C :   -0.099496
  51 C :   -0.126489
  52 N :    0.098443
  53 C :   -0.024571
  54 C :    0.001881
  55 H :    0.023607
  56 H :   -0.006913
  57 H :    0.003381
  58 H :    0.034960
  59 H :   -0.009842
  60 H :    0.030153
  61 H :    0.030866
  62 H :    0.027370
  63 H :    0.021569
  64 H :    0.024842
  65 H :   -0.012302
  66 H :   -0.003600
  67 H :   -0.000810
  68 H :    0.033403
  69 H :    0.036756
  70 H :    0.121961
  71 H :   -0.027316
  72 H :    0.031064
  73 H :    0.031081
  74 H :    0.027997
  75 H :    0.022730
  76 H :    0.024997
  77 H :   -0.009891
  78 H :    0.005788
  79 H :    0.045474
  80 H :   -0.022501
  81 H :    0.008389
  82 H :    0.027416
  83 H :    0.027216
Sum of atomic charges:   -0.0000000

LOEWDIN ATOMIC CHARGES
----------------------
   0 C :    0.076217
   1 O :    0.036066
   2 C :    0.025252
   3 C :   -0.029290
   4 C :   -0.119447
   5 C :   -0.008447
   6 N :   -0.068023
   7 C :   -0.031718
   8 C :   -0.009022
   9 C :   -0.007160
  10 C :    0.020415
  11 C :   -0.052393
  12 C :   -0.053576
  13 C :    0.087891
  14 O :   -0.161063
  15 N :   -0.036348
  16 C :    0.088177
  17 O :   -0.160516
  18 C :    0.044262
  19 C :   -0.059700
  20 C :    0.017959
  21 C :   -0.007477
  22 C :   -0.014527
  23 C :   -0.019969
  24 C :   -0.154201
  25 S :    0.408454
  26 C :   -0.225352
  27 C :    0.004167
  28 C :   -0.080904
  29 C :    0.073195
  30 N :   -0.051771
  31 C :   -0.008530
  32 C :    0.013182
  33 C :   -0.050572
  34 C :   -0.059796
  35 C :    0.089086
  36 O :   -0.160467
  37 N :   -0.036751
  38 C :    0.087476
  39 O :   -0.165113
  40 C :    0.043820
  41 C :   -0.060300
  42 C :    0.022899
  43 C :   -0.017855
  44 C :   -0.012495
  45 C :   -0.036414
  46 C :    0.065119
  47 O :    0.027098
  48 C :    0.034877
  49 C :   -0.029999
  50 C :   -0.115553
  51 C :   -0.008821
  52 N :   -0.078977
  53 C :   -0.037724
  54 C :   -0.029817
  55 H :    0.033063
  56 H :    0.036007
  57 H :    0.036695
  58 H :    0.039335
  59 H :    0.037544
  60 H :    0.031786
  61 H :    0.031998
  62 H :    0.028129
  63 H :    0.029946
  64 H :    0.027624
  65 H :    0.037667
  66 H :    0.032259
  67 H :    0.034451
  68 H :    0.028108
  69 H :    0.032857
  70 H :    0.067270
  71 H :    0.032819
  72 H :    0.031913
  73 H :    0.031849
  74 H :    0.028291
  75 H :    0.029985
  76 H :    0.027497
  77 H :    0.038603
  78 H :    0.033945
  79 H :    0.042171
  80 H :    0.035588
  81 H :    0.042689
  82 H :    0.025929
  83 H :    0.028460

  Mayer bond orders larger than 0.100000
B(  0-C ,  1-O ) :   1.2016 B(  0-C ,  4-C ) :   1.4968 B(  0-C , 55-H ) :   1.0112
B(  1-O ,  2-C ) :   1.1186 B(  2-C ,  3-C ) :   1.5244 B(  2-C ,  7-C ) :   1.0792
B(  3-C ,  4-C ) :   1.2464 B(  3-C , 56-H ) :   0.9950 B(  4-C ,  5-C ) :   1.0962
B(  5-C ,  6-N ) :   2.9249 B(  7-C ,  8-C ) :   1.7392 B(  7-C , 57-H ) :   0.9558
B(  8-C ,  9-C ) :   1.0563 B(  8-C , 58-H ) :   0.9641 B(  9-C , 10-C ) :   1.3034
B(  9-C , 21-C ) :   1.3393 B( 10-C , 11-C ) :   1.4091 B( 10-C , 59-H ) :   1.0039
B( 11-C , 12-C ) :   1.3377 B( 11-C , 16-C ) :   0.8782 B( 12-C , 13-C ) :   0.8754
B( 12-C , 20-C ) :   1.4101 B( 13-C , 14-O ) :   2.2291 B( 13-C , 15-N ) :   1.0632
B( 15-N , 16-C ) :   1.0626 B( 15-N , 18-C ) :   0.9199 B( 16-C , 17-O ) :   2.2262
B( 18-C , 19-C ) :   1.1244 B( 18-C , 60-H ) :   0.9431 B( 18-C , 61-H ) :   0.9417
B( 19-C , 62-H ) :   0.9695 B( 19-C , 63-H ) :   0.9704 B( 19-C , 64-H ) :   0.9694
B( 20-C , 21-C ) :   1.2847 B( 20-C , 65-H ) :   1.0112 B( 21-C , 22-C ) :   1.0615
B( 22-C , 23-C ) :   1.7313 B( 22-C , 66-H ) :   0.9631 B( 23-C , 24-C ) :   1.1042
B( 23-C , 67-H ) :   0.9657 B( 24-C , 25-S ) :   1.0840 B( 24-C , 28-C ) :   1.5654
B( 25-S , 26-C ) :   1.0602 B( 26-C , 27-C ) :   1.5464 B( 26-C , 31-C ) :   1.0066
B( 27-C , 28-C ) :   1.2065 B( 27-C , 30-N ) :   1.1314 B( 28-C , 29-C ) :   1.0255
B( 29-C , 30-N ) :   1.0335 B( 29-C , 68-H ) :   0.9261 B( 29-C , 69-H ) :   0.9209
B( 30-N , 70-H ) :   0.9290 B( 31-C , 32-C ) :   1.3289 B( 31-C , 43-C ) :   1.3400
B( 32-C , 33-C ) :   1.4008 B( 32-C , 71-H ) :   1.0032 B( 33-C , 34-C ) :   1.3405
B( 33-C , 38-C ) :   0.8752 B( 34-C , 35-C ) :   0.8807 B( 34-C , 42-C ) :   1.4012
B( 35-C , 36-O ) :   2.2300 B( 35-C , 37-N ) :   1.0559 B( 37-N , 38-C ) :   1.0681
B( 37-N , 40-C ) :   0.9207 B( 38-C , 39-O ) :   2.2221 B( 40-C , 41-C ) :   1.1245
B( 40-C , 72-H ) :   0.9429 B( 40-C , 73-H ) :   0.9420 B( 41-C , 74-H ) :   0.9694
B( 41-C , 75-H ) :   0.9703 B( 41-C , 76-H ) :   0.9696 B( 42-C , 43-C ) :   1.2883
B( 42-C , 77-H ) :   1.0107 B( 43-C , 44-C ) :   1.0553 B( 44-C , 45-C ) :   1.6848
B( 44-C , 78-H ) :   0.9758 B( 45-C , 46-C ) :   1.1918 B( 45-C , 79-H ) :   0.9382
B( 46-C , 47-O ) :   1.1893 B( 46-C , 50-C ) :   1.4127 B( 47-O , 48-C ) :   1.1127
B( 48-C , 49-C ) :   1.4754 B( 48-C , 53-C ) :   1.1168 B( 49-C , 50-C ) :   1.2166
B( 49-C , 80-H ) :   1.0041 B( 50-C , 51-C ) :   1.1303 B( 51-C , 52-N ) :   2.9053
B( 53-C , 54-C ) :   1.9178 B( 53-C , 81-H ) :   0.9588 B( 54-C , 82-H ) :   0.9591
B( 54-C , 83-H ) :   0.9464

-----------------------------------------------------------------------------
         ABSORPTION SPECTRUM VIA TRANSITION ELECTRIC DIPOLE MOMENTS
-----------------------------------------------------------------------------
State   Energy  Wavelength   fosc         T2         TX        TY        TZ
        (cm-1)    (nm)                  (au**2)     (au)      (au)      (au)
-----------------------------------------------------------------------------
   0   21959.2    455.4   0.356616385   5.34638   1.52974  -1.61597  -0.62843
   1   26214.7    381.5   0.036292725   0.45577   0.21628   0.41040  -0.49048
   2   26863.2    372.3   0.867310586  10.62902   0.21755  -0.45157   3.22146
   3   28494.9    350.9   0.148602083   1.71685   0.49258  -1.02367   0.65293
   4   30000.5    333.3   0.048656505   0.53393  -0.30778  -0.33745   0.57038
   5   31437.6    318.1   0.489488068   5.12587   0.86233  -0.87742  -1.90063
   6   31717.0    315.3   0.241208048   2.50366   0.85332  -1.00268  -0.87757
   7   32820.9    304.7   0.312669536   3.13625  -0.84583   0.69418  -1.39245
   8   33366.8    299.7   0.017919445   0.17680   0.37006  -0.07427  -0.18532
   9   34532.7    289.6   0.187126839   1.78394  -1.06779   0.72552   0.34262
  10   35494.5    281.7   0.414476531   3.84428   1.60816  -1.06440   0.35375
  11   35959.2    278.1   0.000391241   0.00358   0.02096   0.05555  -0.00754
  12   36095.5    277.0   0.067967927   0.61991   0.47545  -0.62704  -0.02608
  13   36626.5    273.0   0.219046954   1.96887  -1.02403   0.71961  -0.63435
  14   37077.7    269.7   0.013834329   0.12283  -0.19151   0.04582   0.28993
  15   37369.7    267.6   0.111575839   0.98294  -0.04192   0.50569  -0.85174
  16   37728.2    265.1   0.205710747   1.79501  -0.85080   0.74289   0.72059
  17   38723.4    258.2   0.038883637   0.33057   0.06625  -0.13397   0.55519
  18   39642.1    252.3   0.107395332   0.89188  -0.76654   0.40003  -0.37982
  19   40151.2    249.1   0.075335810   0.61770  -0.11209   0.50993  -0.58746

FINAL SINGLE POINT ENERGY     -2776.192601713511

DIPOLE MOMENT
-------------
                                X             Y             Z
Electronic contribution:     -8.20399       4.47581     -14.83921
Nuclear contribution   :      8.59255      -4.16470      14.82279
                        -----------------------------------------
Total Dipole Moment    :      0.38856       0.31111      -0.01642
                        -----------------------------------------
Magnitude (a.u.)       :      0.49803
Magnitude (Debye)      :      1.26590

Rotational constants in cm-1:     0.001804     0.000788     0.000576
Rotational constants in MHz :    54.094576    23.610405    17.256847

                             ****ORCA TERMINATED NORMALLY****
TOTAL RUN TIME: 0 days 0 hours 9 minutes 41 seconds 544 msec
