                         Program Version 4.2.0 -  RELEASE  -
|  1> # ORCA input file
|  2> # SCF done       -188.899920342208          0.000577909087
|  3> ! CAM-B3LYP def2-SVP def2/J RIJCOSX Grid4 TightSCF
|  4> %maxcore 5000
|  5> %tddft
|  6>     Mode sTDDFT
|  7>     Ethresh 5.0
|  8>     maxcore 5000
|  9> end
| 10>
| 11> %pal
| 12>   nprocs 6
| 13>   end
| 14> * xyz 0 1
| 15>    C        1.24640         5.05463         2.58157
| 16>    O        2.48755         4.58430         2.44792
| 17>    C        2.66961         4.26294         1.14009
| 18>    C        1.52620         4.53000         0.43223
| 19>    C        0.59484         5.05084         1.37282
| 20>    C       -0.71801         5.47829         1.11349
| 21>    N       -1.78437         5.82789         0.88341
| 22>    C        3.93221         3.73407         0.69346
| 23>    C        4.99416         3.60934         1.49080
| 24>    C        6.33827         3.09235         1.07824
| 25>    C        6.41824         2.81671        -0.42432
| 26>    O        6.44271         3.62722        -1.30028
| 27>    O        6.47431         1.49589        -0.64960
| 28>    C        6.37530         0.74365         0.55140
| 29>    C        6.75706         1.73207         1.67221
| 30>    C        6.22704         1.36110         3.05277
| 31>    C        4.76234         0.94709         3.05272
| 32>    C        4.46537        -0.16377         2.05977
| 33>    C        4.96545         0.11293         0.63555
| 34>    O        5.00715        -1.17228         0.02519
| 35>    C        5.14983        -2.14527         0.94055
| 36>    O        5.31139        -3.29216         0.66504
| 37>    C        5.09737        -1.52874         2.35079
| 38>    C        4.33609        -2.36191         3.32535
| 39>    C        4.90535        -3.04532         4.30672
| 40>    C        4.18732        -3.89116         5.31791
| 41>    C        2.69432        -4.01816         5.00677
| 42>    O        2.19074        -4.65656         4.13543
| 43>    O        1.97740        -3.29680         5.88789
| 44>    C        2.80850        -2.59818         6.80077
| 45>    C        4.15398        -3.34485         6.76032
| 46>    C        5.33355        -2.52378         7.27033
| 47>    C        5.40177        -1.11525         6.69325
| 48>    C        4.10239        -0.33844         6.84689
| 49>    C        2.84888        -1.10446         6.40374
| 50>    O        1.77665        -0.44012         7.06350
| 51>    C        2.19332         0.18264         8.17247
| 52>    O        1.44368         0.69929         8.94657
| 53>    C        3.72149         0.11559         8.26375
| 54>    C        4.38009         1.40842         8.63988
| 55>    C        3.78834         2.41541         9.27870
| 56>    C        4.42845         3.66028         9.62634
| 57>    S        4.14100         4.28579        11.20945
| 58>    C        5.21395         5.62987        10.98102
| 59>    C        5.72404         5.62717         9.68376
| 60>    C        5.28446         4.49104         8.91290
| 61>    C        5.68056         4.40204         7.54669
| 62>    C        5.23308         3.40419         6.65901
| 63>    N        4.93205         2.66292         5.83476
| 64>    C        6.49979         5.37177         7.00124
| 65>    C        6.89398         6.48825         7.74177
| 66>    C        6.49284         6.64335         9.05308
| 67>    C        6.76307         7.88382         9.67204
| 68>    N        6.96152         8.93323        10.09012
| 69>    C        5.55110         6.46823        12.08567
| 70>    S        7.19909         6.85557        12.44852
| 71>    C        6.78647         7.75281        13.86152
| 72>    C        5.41006         7.70244        14.09164
| 73>    C        4.70506         6.96788        13.07770
| 74>    C        3.30319         6.85400        13.13622
| 75>    C        2.62233         7.39963        14.19495
| 76>    C        1.21404         7.29317        14.26407
| 77>    N        0.07299         7.19922        14.30383
| 78>    C        3.32985         8.06315        15.24804
| 79>    C        2.60978         8.56544        16.35661
| 80>    N        2.04463         8.97818        17.26380
| 81>    C        4.69308         8.21265        15.19207
| 82>    C        7.84551         8.41650        14.57196
| 83>    C        7.72627         9.51029        15.32250
| 84>    H        0.92328         5.35789         3.55808
| 85>    H        1.36230         4.38552        -0.61557
| 86>    H        3.96712         3.46176        -0.35083
| 87>    H        4.92617         3.93775         2.51974
| 88>    H        7.07387         3.86330         1.33011
| 89>    H        7.09959        -0.07459         0.47039
| 90>    H        7.85239         1.73776         1.72473
| 91>    H        6.35525         2.20509         3.73116
| 92>    H        6.83632         0.54228         3.44217
| 93>    H        4.13719         1.80505         2.80973
| 94>    H        4.48838         0.61577         4.05360
| 95>    H        3.37951        -0.30538         2.00660
| 96>    H        4.27276         0.72848         0.05497
| 97>    H        6.13692        -1.42693         2.68090
| 98>    H        3.26578        -2.39028         3.17658
| 99>    H        5.98383        -3.05331         4.40444
|100>    H        4.63756        -4.88764         5.28936
|101>    H        2.33174        -2.67015         7.78471
|102>    H        4.05024        -4.21570         7.41842
|103>    H        6.25967        -3.05442         7.04465
|104>    H        5.25402        -2.46451         8.35856
|105>    H        5.63931        -1.16426         5.63135
|106>    H        6.20451        -0.56390         7.18654
|107>    H        4.17218         0.57149         6.23921
|108>    H        2.66629        -1.02718         5.32844
|109>    H        3.97522        -0.65019         9.00803
|110>    H        5.42133         1.47664         8.35094
|111>    H        2.77367         2.29922         9.63513
|112>    H        6.79997         5.29021         5.96724
|113>    H        7.48031         7.26170         7.26995
|114>    H        2.76299         6.33987        12.35567
|115>    H        5.21174         8.69514        16.00462
|116>    H        8.82760         7.98803        14.41341
|117>    H        6.79343        10.02880        15.45455
|118>    H        8.58526         9.94144        15.80540
|119> *
|120>
|121>                          ****END OF INPUT****

CARTESIAN COORDINATES (ANGSTROEM)
---------------------------------
  C      1.246400    5.054630    2.581570
  O      2.487550    4.584300    2.447920
  C      2.669610    4.262940    1.140090
  C      1.526200    4.530000    0.432230
  C      0.594840    5.050840    1.372820
  C     -0.718010    5.478290    1.113490
  N     -1.784370    5.827890    0.883410
  C      3.932210    3.734070    0.693460
  C      4.994160    3.609340    1.490800
  C      6.338270    3.092350    1.078240
  C      6.418240    2.816710   -0.424320
  O      6.442710    3.627220   -1.300280
  O      6.474310    1.495890   -0.649600
  C      6.375300    0.743650    0.551400
  C      6.757060    1.732070    1.672210
  C      6.227040    1.361100    3.052770
  C      4.762340    0.947090    3.052720
  C      4.465370   -0.163770    2.059770
  C      4.965450    0.112930    0.635550
  O      5.007150   -1.172280    0.025190
  C      5.149830   -2.145270    0.940550
  O      5.311390   -3.292160    0.665040
  C      5.097370   -1.528740    2.350790
  C      4.336090   -2.361910    3.325350
  C      4.905350   -3.045320    4.306720
  C      4.187320   -3.891160    5.317910
  C      2.694320   -4.018160    5.006770
  O      2.190740   -4.656560    4.135430
  O      1.977400   -3.296800    5.887890
  C      2.808500   -2.598180    6.800770
  C      4.153980   -3.344850    6.760320
  C      5.333550   -2.523780    7.270330
  C      5.401770   -1.115250    6.693250
  C      4.102390   -0.338440    6.846890
  C      2.848880   -1.104460    6.403740
  O      1.776650   -0.440120    7.063500
  C      2.193320    0.182640    8.172470
  O      1.443680    0.699290    8.946570
  C      3.721490    0.115590    8.263750
  C      4.380090    1.408420    8.639880
  C      3.788340    2.415410    9.278700
  C      4.428450    3.660280    9.626340
  S      4.141000    4.285790   11.209450
  C      5.213950    5.629870   10.981020
  C      5.724040    5.627170    9.683760
  C      5.284460    4.491040    8.912900
  C      5.680560    4.402040    7.546690
  C      5.233080    3.404190    6.659010
  N      4.932050    2.662920    5.834760
  C      6.499790    5.371770    7.001240
  C      6.893980    6.488250    7.741770
  C      6.492840    6.643350    9.053080
  C      6.763070    7.883820    9.672040
  N      6.961520    8.933230   10.090120
  C      5.551100    6.468230   12.085670
  S      7.199090    6.855570   12.448520
  C      6.786470    7.752810   13.861520
  C      5.410060    7.702440   14.091640
  C      4.705060    6.967880   13.077700
  C      3.303190    6.854000   13.136220
  C      2.622330    7.399630   14.194950
  C      1.214040    7.293170   14.264070
  N      0.072990    7.199220   14.303830
  C      3.329850    8.063150   15.248040
  C      2.609780    8.565440   16.356610
  N      2.044630    8.978180   17.263800
  C      4.693080    8.212650   15.192070
  C      7.845510    8.416500   14.571960
  C      7.726270    9.510290   15.322500
  H      0.923280    5.357890    3.558080
  H      1.362300    4.385520   -0.615570
  H      3.967120    3.461760   -0.350830
  H      4.926170    3.937750    2.519740
  H      7.073870    3.863300    1.330110
  H      7.099590   -0.074590    0.470390
  H      7.852390    1.737760    1.724730
  H      6.355250    2.205090    3.731160
  H      6.836320    0.542280    3.442170
  H      4.137190    1.805050    2.809730
  H      4.488380    0.615770    4.053600
  H      3.379510   -0.305380    2.006600
  H      4.272760    0.728480    0.054970
  H      6.136920   -1.426930    2.680900
  H      3.265780   -2.390280    3.176580
  H      5.983830   -3.053310    4.404440
  H      4.637560   -4.887640    5.289360
  H      2.331740   -2.670150    7.784710
  H      4.050240   -4.215700    7.418420
  H      6.259670   -3.054420    7.044650
  H      5.254020   -2.464510    8.358560
  H      5.639310   -1.164260    5.631350
  H      6.204510   -0.563900    7.186540
  H      4.172180    0.571490    6.239210
  H      2.666290   -1.027180    5.328440
  H      3.975220   -0.650190    9.008030
  H      5.421330    1.476640    8.350940
  H      2.773670    2.299220    9.635130
  H      6.799970    5.290210    5.967240
  H      7.480310    7.261700    7.269950
  H      2.762990    6.339870   12.355670
  H      5.211740    8.695140   16.004620
  H      8.827600    7.988030   14.413410
  H      6.793430   10.028800   15.454550
  H      8.585260    9.941440   15.805400

 Total Charge           Charge          ....    0
 Multiplicity           Mult            ....    1
 Number of Electrons    NEL             ....  492
 Basis Dimension        Dim             .... 1149

ORBITAL ENERGIES
----------------

  NO   OCC          E(Eh)            E(eV)
   0   2.0000     -89.008595     -2422.0470
   1   2.0000     -89.002313     -2421.8761
   2   2.0000     -19.319831      -525.7193
   3   2.0000     -19.275599      -524.5157
   4   2.0000     -19.270905      -524.3880
   5   2.0000     -19.269296      -524.3442
   6   2.0000     -19.266103      -524.2573
   7   2.0000     -19.218570      -522.9639
   8   2.0000     -19.209365      -522.7134
   9   2.0000     -19.206811      -522.6439
  10   2.0000     -19.205454      -522.6070
  11   2.0000     -14.449992      -393.2043
  12   2.0000     -14.435863      -392.8198
  13   2.0000     -14.415286      -392.2599
  14   2.0000     -14.414093      -392.2274
  15   2.0000     -14.407327      -392.0433
  16   2.0000     -10.415200      -283.4120
  17   2.0000     -10.406205      -283.1672
  18   2.0000     -10.403693      -283.0989
  19   2.0000     -10.402006      -283.0530
  20   2.0000     -10.360649      -281.9276
  21   2.0000     -10.359247      -281.8894
  22   2.0000     -10.358464      -281.8681
  23   2.0000     -10.353413      -281.7307
  24   2.0000     -10.353345      -281.7289
  25   2.0000     -10.353234      -281.7258
  26   2.0000     -10.352148      -281.6963
  27   2.0000     -10.351915      -281.6899
  28   2.0000     -10.350899      -281.6623
  29   2.0000     -10.348748      -281.6037
  30   2.0000     -10.347170      -281.5608
  31   2.0000     -10.343742      -281.4675
  32   2.0000     -10.340415      -281.3770
  33   2.0000     -10.339188      -281.3436
  34   2.0000     -10.338447      -281.3234
  35   2.0000     -10.338294      -281.3193
  36   2.0000     -10.338198      -281.3167
  37   2.0000     -10.337559      -281.2993
  38   2.0000     -10.334892      -281.2267
  39   2.0000     -10.334750      -281.2228
  40   2.0000     -10.323222      -280.9092
  41   2.0000     -10.322630      -280.8930
  42   2.0000     -10.321618      -280.8655
  43   2.0000     -10.318479      -280.7801
  44   2.0000     -10.318415      -280.7783
  45   2.0000     -10.316915      -280.7375
  46   2.0000     -10.313348      -280.6405
  47   2.0000     -10.312494      -280.6172
  48   2.0000     -10.312292      -280.6117
  49   2.0000     -10.309682      -280.5407
  50   2.0000     -10.309574      -280.5378
  51   2.0000     -10.309531      -280.5366
  52   2.0000     -10.308914      -280.5198
  53   2.0000     -10.307528      -280.4821
  54   2.0000     -10.307228      -280.4739
  55   2.0000     -10.305323      -280.4221
  56   2.0000     -10.304939      -280.4116
  57   2.0000     -10.303516      -280.3729
  58   2.0000     -10.302785      -280.3530
  59   2.0000     -10.301344      -280.3138
  60   2.0000     -10.301147      -280.3085
  61   2.0000     -10.299189      -280.2552
  62   2.0000     -10.298434      -280.2346
  63   2.0000     -10.297115      -280.1988
  64   2.0000     -10.295540      -280.1559
  65   2.0000     -10.295298      -280.1493
  66   2.0000     -10.294313      -280.1225
  67   2.0000     -10.290937      -280.0306
  68   2.0000     -10.283226      -279.8208
  69   2.0000      -8.103584      -220.5097
  70   2.0000      -8.097068      -220.3324
  71   2.0000      -6.072507      -165.2413
  72   2.0000      -6.068169      -165.1233
  73   2.0000      -6.066650      -165.0819
  74   2.0000      -6.065934      -165.0624
  75   2.0000      -6.061736      -164.9482
  76   2.0000      -6.060158      -164.9053
  77   2.0000      -1.238096       -33.6903
  78   2.0000      -1.215792       -33.0834
  79   2.0000      -1.209995       -32.9256
  80   2.0000      -1.204183       -32.7675
  81   2.0000      -1.200539       -32.6683
  82   2.0000      -1.126685       -30.6587
  83   2.0000      -1.119122       -30.4528
  84   2.0000      -1.115180       -30.3456
  85   2.0000      -1.112787       -30.2805
  86   2.0000      -1.054641       -28.6982
  87   2.0000      -1.038443       -28.2575
  88   2.0000      -1.030126       -28.0311
  89   2.0000      -1.020544       -27.7704
  90   2.0000      -1.008991       -27.4561
  91   2.0000      -0.995136       -27.0790
  92   2.0000      -0.993112       -27.0239
  93   2.0000      -0.986968       -26.8568
  94   2.0000      -0.970700       -26.4141
  95   2.0000      -0.969293       -26.3758
  96   2.0000      -0.964260       -26.2388
  97   2.0000      -0.949774       -25.8447
  98   2.0000      -0.942284       -25.6409
  99   2.0000      -0.934282       -25.4231
 100   2.0000      -0.927620       -25.2418
 101   2.0000      -0.923047       -25.1174
 102   2.0000      -0.917769       -24.9738
 103   2.0000      -0.905749       -24.6467
 104   2.0000      -0.890532       -24.2326
 105   2.0000      -0.888895       -24.1881
 106   2.0000      -0.885518       -24.0962
 107   2.0000      -0.880663       -23.9641
 108   2.0000      -0.876572       -23.8527
 109   2.0000      -0.862634       -23.4735
 110   2.0000      -0.859525       -23.3889
 111   2.0000      -0.855655       -23.2836
 112   2.0000      -0.845857       -23.0169
 113   2.0000      -0.832984       -22.6666
 114   2.0000      -0.814572       -22.1656
 115   2.0000      -0.808153       -21.9910
 116   2.0000      -0.805654       -21.9230
 117   2.0000      -0.793325       -21.5875
 118   2.0000      -0.769635       -20.9428
 119   2.0000      -0.758989       -20.6531
 120   2.0000      -0.754453       -20.5297
 121   2.0000      -0.754190       -20.5225
 122   2.0000      -0.749815       -20.4035
 123   2.0000      -0.746329       -20.3087
 124   2.0000      -0.743062       -20.2198
 125   2.0000      -0.737491       -20.0682
 126   2.0000      -0.724892       -19.7253
 127   2.0000      -0.718969       -19.5641
 128   2.0000      -0.699828       -19.0433
 129   2.0000      -0.696027       -18.9398
 130   2.0000      -0.693654       -18.8753
 131   2.0000      -0.691149       -18.8071
 132   2.0000      -0.689187       -18.7537
 133   2.0000      -0.677044       -18.4233
 134   2.0000      -0.672542       -18.3008
 135   2.0000      -0.667178       -18.1548
 136   2.0000      -0.662876       -18.0378
 137   2.0000      -0.662042       -18.0151
 138   2.0000      -0.655291       -17.8314
 139   2.0000      -0.648702       -17.6521
 140   2.0000      -0.641659       -17.4604
 141   2.0000      -0.637484       -17.3468
 142   2.0000      -0.627174       -17.0663
 143   2.0000      -0.624071       -16.9818
 144   2.0000      -0.619871       -16.8676
 145   2.0000      -0.619106       -16.8467
 146   2.0000      -0.617710       -16.8087
 147   2.0000      -0.616543       -16.7770
 148   2.0000      -0.609211       -16.5775
 149   2.0000      -0.607351       -16.5269
 150   2.0000      -0.592534       -16.1237
 151   2.0000      -0.588886       -16.0244
 152   2.0000      -0.585240       -15.9252
 153   2.0000      -0.581124       -15.8132
 154   2.0000      -0.579994       -15.7824
 155   2.0000      -0.577565       -15.7163
 156   2.0000      -0.573979       -15.6188
 157   2.0000      -0.573425       -15.6037
 158   2.0000      -0.568026       -15.4568
 159   2.0000      -0.563998       -15.3472
 160   2.0000      -0.560293       -15.2464
 161   2.0000      -0.558971       -15.2104
 162   2.0000      -0.558058       -15.1855
 163   2.0000      -0.557754       -15.1773
 164   2.0000      -0.551474       -15.0064
 165   2.0000      -0.550000       -14.9663
 166   2.0000      -0.547709       -14.9039
 167   2.0000      -0.545730       -14.8501
 168   2.0000      -0.540524       -14.7084
 169   2.0000      -0.538840       -14.6626
 170   2.0000      -0.538285       -14.6475
 171   2.0000      -0.534495       -14.5444
 172   2.0000      -0.532493       -14.4899
 173   2.0000      -0.531196       -14.4546
 174   2.0000      -0.527397       -14.3512
 175   2.0000      -0.524460       -14.2713
 176   2.0000      -0.519661       -14.1407
 177   2.0000      -0.518793       -14.1171
 178   2.0000      -0.513592       -13.9756
 179   2.0000      -0.512446       -13.9444
 180   2.0000      -0.507331       -13.8052
 181   2.0000      -0.505732       -13.7617
 182   2.0000      -0.501940       -13.6585
 183   2.0000      -0.501706       -13.6521
 184   2.0000      -0.498755       -13.5718
 185   2.0000      -0.498116       -13.5544
 186   2.0000      -0.494049       -13.4438
 187   2.0000      -0.491399       -13.3716
 188   2.0000      -0.488893       -13.3035
 189   2.0000      -0.488376       -13.2894
 190   2.0000      -0.487353       -13.2616
 191   2.0000      -0.481613       -13.1054
 192   2.0000      -0.479922       -13.0593
 193   2.0000      -0.476385       -12.9631
 194   2.0000      -0.473061       -12.8727
 195   2.0000      -0.471290       -12.8245
 196   2.0000      -0.469632       -12.7793
 197   2.0000      -0.468637       -12.7522
 198   2.0000      -0.465286       -12.6611
 199   2.0000      -0.463946       -12.6246
 200   2.0000      -0.462517       -12.5857
 201   2.0000      -0.461299       -12.5526
 202   2.0000      -0.459164       -12.4945
 203   2.0000      -0.458230       -12.4691
 204   2.0000      -0.456723       -12.4281
 205   2.0000      -0.453717       -12.3463
 206   2.0000      -0.450889       -12.2693
 207   2.0000      -0.449652       -12.2357
 208   2.0000      -0.448386       -12.2012
 209   2.0000      -0.445011       -12.1094
 210   2.0000      -0.443257       -12.0616
 211   2.0000      -0.441942       -12.0258
 212   2.0000      -0.441665       -12.0183
 213   2.0000      -0.441063       -12.0019
 214   2.0000      -0.440445       -11.9851
 215   2.0000      -0.438086       -11.9209
 216   2.0000      -0.436643       -11.8817
 217   2.0000      -0.435597       -11.8532
 218   2.0000      -0.422089       -11.4856
 219   2.0000      -0.419761       -11.4223
 220   2.0000      -0.416930       -11.3452
 221   2.0000      -0.415091       -11.2952
 222   2.0000      -0.413926       -11.2635
 223   2.0000      -0.412708       -11.2304
 224   2.0000      -0.410214       -11.1625
 225   2.0000      -0.409662       -11.1475
 226   2.0000      -0.409226       -11.1356
 227   2.0000      -0.401912       -10.9366
 228   2.0000      -0.400366       -10.8945
 229   2.0000      -0.393369       -10.7041
 230   2.0000      -0.390042       -10.6136
 231   2.0000      -0.370133       -10.0718
 232   2.0000      -0.367866       -10.0101
 233   2.0000      -0.366312        -9.9678
 234   2.0000      -0.365983        -9.9589
 235   2.0000      -0.364045        -9.9062
 236   2.0000      -0.362060        -9.8521
 237   2.0000      -0.360764        -9.8169
 238   2.0000      -0.356702        -9.7064
 239   2.0000      -0.351411        -9.5624
 240   2.0000      -0.349498        -9.5103
 241   2.0000      -0.339609        -9.2412
 242   2.0000      -0.332412        -9.0454
 243   2.0000      -0.315924        -8.5967
 244   2.0000      -0.297195        -8.0871
 245   2.0000      -0.269202        -7.3254
 246   0.0000      -0.109716        -2.9855
 247   0.0000      -0.081620        -2.2210
 248   0.0000      -0.038508        -1.0478
 249   0.0000      -0.028323        -0.7707
 250   0.0000      -0.022629        -0.6158

MULLIKEN ATOMIC CHARGES
-----------------------
   0 C :    0.132834
   1 O :   -0.182465
   2 C :    0.164871
   3 C :   -0.029590
   4 C :   -0.130408
   5 C :   -0.126083
   6 N :    0.140372
   7 C :    0.022998
   8 C :   -0.096761
   9 C :    0.015553
  10 C :    0.158019
  11 O :   -0.155891
  12 O :   -0.253354
  13 C :    0.160969
  14 C :   -0.087404
  15 C :    0.079502
  16 C :    0.147016
  17 C :   -0.093853
  18 C :    0.178300
  19 O :   -0.256305
  20 C :    0.197438
  21 O :   -0.137957
  22 C :   -0.106092
  23 C :    0.066243
  24 C :   -0.090483
  25 C :    0.017997
  26 C :    0.155298
  27 O :   -0.145975
  28 O :   -0.255858
  29 C :    0.166765
  30 C :   -0.098885
  31 C :    0.085652
  32 C :    0.131981
  33 C :   -0.172331
  34 C :    0.183513
  35 O :   -0.249855
  36 C :    0.205918
  37 O :   -0.166161
  38 C :   -0.029465
  39 C :   -0.055380
  40 C :    0.040622
  41 C :   -0.185033
  42 S :    0.232559
  43 C :   -0.206950
  44 C :    0.163377
  45 C :    0.172929
  46 C :   -0.094620
  47 C :   -0.147070
  48 N :    0.093603
  49 C :    0.013245
  50 C :    0.013494
  51 C :   -0.074375
  52 C :   -0.217232
  53 N :    0.143295
  54 C :   -0.159725
  55 S :    0.225308
  56 C :   -0.138510
  57 C :    0.117056
  58 C :    0.150329
  59 C :   -0.055868
  60 C :   -0.061671
  61 C :   -0.179469
  62 N :    0.177193
  63 C :   -0.071835
  64 C :   -0.180546
  65 N :    0.177637
  66 C :   -0.052370
  67 C :    0.023706
  68 C :   -0.015202
  69 H :    0.023428
  70 H :    0.002102
  71 H :    0.029767
  72 H :    0.019179
  73 H :    0.036218
  74 H :    0.019952
  75 H :    0.013587
  76 H :    0.002067
  77 H :   -0.003659
  78 H :    0.015490
  79 H :   -0.007102
  80 H :    0.019150
  81 H :    0.014396
  82 H :    0.023866
  83 H :    0.032114
  84 H :    0.007297
  85 H :    0.041036
  86 H :    0.016433
  87 H :    0.020543
  88 H :    0.008347
  89 H :    0.005107
  90 H :    0.002165
  91 H :   -0.004909
  92 H :    0.059029
  93 H :    0.009738
  94 H :    0.051587
  95 H :    0.012264
  96 H :    0.041857
  97 H :    0.005250
  98 H :    0.012353
  99 H :   -0.004399
 100 H :   -0.003730
 101 H :    0.005660
 102 H :    0.038598
 103 H :    0.040658
Sum of atomic charges:   -0.0000000

LOEWDIN ATOMIC CHARGES
----------------------
   0 C :    0.078736
   1 O :    0.029545
   2 C :    0.027472
   3 C :   -0.033051
   4 C :   -0.113142
   5 C :   -0.032726
   6 N :   -0.047518
   7 C :   -0.041596
   8 C :   -0.009668
   9 C :   -0.057572
  10 C :    0.078568
  11 O :   -0.144180
  12 O :   -0.065117
  13 C :    0.067627
  14 C :   -0.032600
  15 C :   -0.027516
  16 C :   -0.025757
  17 C :   -0.031240
  18 C :    0.068949
  19 O :   -0.070096
  20 C :    0.078094
  21 O :   -0.133816
  22 C :   -0.063712
  23 C :   -0.015193
  24 C :   -0.016880
  25 C :   -0.056048
  26 C :    0.080296
  27 O :   -0.135241
  28 O :   -0.068974
  29 C :    0.066873
  30 C :   -0.033205
  31 C :   -0.027802
  32 C :   -0.027480
  33 C :   -0.037583
  34 C :    0.069715
  35 O :   -0.060029
  36 C :    0.089524
  37 O :   -0.145245
  38 C :   -0.059321
  39 C :    0.006134
  40 C :   -0.058560
  41 C :   -0.163976
  42 S :    0.534872
  43 C :   -0.196765
  44 C :   -0.036815
  45 C :   -0.039850
  46 C :   -0.051871
  47 C :    0.003255
  48 N :   -0.060209
  49 C :    0.015917
  50 C :    0.011726
  51 C :   -0.042900
  52 C :   -0.046141
  53 N :   -0.039227
  54 C :   -0.208265
  55 S :    0.544179
  56 C :   -0.159940
  57 C :   -0.044795
  58 C :   -0.039178
  59 C :    0.021291
  60 C :   -0.049517
  61 C :   -0.033013
  62 N :   -0.030618
  63 C :   -0.055555
  64 C :   -0.033477
  65 N :   -0.033887
  66 C :    0.036741
  67 C :   -0.045641
  68 C :   -0.018116
  69 H :    0.033805
  70 H :    0.041957
  71 H :    0.041715
  72 H :    0.029198
  73 H :    0.050931
  74 H :    0.030328
  75 H :    0.034724
  76 H :    0.026262
  77 H :    0.020996
  78 H :    0.030108
  79 H :    0.027703
  80 H :    0.034767
  81 H :    0.028688
  82 H :    0.037439
  83 H :    0.030767
  84 H :    0.025869
  85 H :    0.052926
  86 H :    0.029485
  87 H :    0.037421
  88 H :    0.031344
  89 H :    0.025202
  90 H :    0.025016
  91 H :    0.026805
  92 H :    0.032303
  93 H :    0.026942
  94 H :    0.047665
  95 H :    0.024940
  96 H :    0.040347
  97 H :    0.044696
  98 H :    0.048129
  99 H :    0.033581
 100 H :    0.043765
 101 H :    0.033942
 102 H :    0.027494
 103 H :    0.033854

  Mayer bond orders larger than 0.100000
B(  0-C ,  1-O ) :   1.1799 B(  0-C ,  4-C ) :   1.5277 B(  0-C , 69-H ) :   1.0111
B(  1-O ,  2-C ) :   1.1349 B(  2-C ,  3-C ) :   1.5096 B(  2-C ,  7-C ) :   1.0864
B(  3-C ,  4-C ) :   1.2252 B(  3-C , 70-H ) :   1.0200 B(  4-C ,  5-C ) :   1.0833
B(  5-C ,  6-N ) :   3.0556 B(  7-C ,  8-C ) :   1.8240 B(  7-C , 71-H ) :   0.9363
B(  8-C ,  9-C ) :   1.0022 B(  8-C , 72-H ) :   0.9691 B(  9-C , 10-C ) :   0.9144
B(  9-C , 14-C ) :   1.0031 B(  9-C , 73-H ) :   0.8734 B( 10-C , 11-O ) :   2.2272
B( 10-C , 12-O ) :   1.1417 B( 12-O , 13-C ) :   0.9624 B( 13-C , 14-C ) :   1.0143
B( 13-C , 18-C ) :   0.9712 B( 13-C , 74-H ) :   0.9179 B( 14-C , 15-C ) :   1.0744
B( 14-C , 75-H ) :   0.9034 B( 15-C , 16-C ) :   1.0660 B( 15-C , 76-H ) :   0.9173
B( 15-C , 77-H ) :   0.9310 B( 16-C , 17-C ) :   1.0646 B( 16-C , 78-H ) :   0.9165
B( 16-C , 79-H ) :   0.9204 B( 17-C , 18-C ) :   1.0077 B( 17-C , 22-C ) :   0.9590
B( 17-C , 80-H ) :   0.9131 B( 18-C , 19-O ) :   0.9548 B( 18-C , 81-H ) :   0.9157
B( 19-O , 20-C ) :   1.1335 B( 20-C , 21-O ) :   2.2705 B( 20-C , 22-C ) :   0.8777
B( 22-C , 23-C ) :   1.0023 B( 22-C , 82-H ) :   0.9049 B( 23-C , 24-C ) :   1.9292
B( 23-C , 83-H ) :   0.9305 B( 24-C , 25-C ) :   1.0035 B( 24-C , 84-H ) :   0.9636
B( 25-C , 26-C ) :   0.9112 B( 25-C , 30-C ) :   1.0023 B( 25-C , 85-H ) :   0.8776
B( 26-C , 27-O ) :   2.2398 B( 26-C , 28-O ) :   1.1254 B( 28-O , 29-C ) :   0.9728
B( 29-C , 30-C ) :   1.0150 B( 29-C , 34-C ) :   0.9693 B( 29-C , 86-H ) :   0.9177
B( 30-C , 31-C ) :   1.0761 B( 30-C , 87-H ) :   0.9056 B( 31-C , 32-C ) :   1.0636
B( 31-C , 88-H ) :   0.9231 B( 31-C , 89-H ) :   0.9347 B( 32-C , 33-C ) :   1.0601
B( 32-C , 90-H ) :   0.9185 B( 32-C , 91-H ) :   0.9201 B( 33-C , 34-C ) :   1.0207
B( 33-C , 38-C ) :   0.9840 B( 33-C , 92-H ) :   0.8945 B( 34-C , 35-O ) :   0.9410
B( 34-C , 93-H ) :   0.9116 B( 35-O , 36-C ) :   1.1636 B( 36-C , 37-O ) :   2.1532
B( 36-C , 38-C ) :   0.9202 B( 38-C , 39-C ) :   1.0151 B( 38-C , 94-H ) :   0.8714
B( 39-C , 40-C ) :   1.8703 B( 39-C , 95-H ) :   0.9694 B( 40-C , 41-C ) :   1.0147
B( 40-C , 96-H ) :   0.9219 B( 41-C , 42-S ) :   1.1906 B( 41-C , 43-C ) :   0.1260
B( 41-C , 45-C ) :   1.4164 B( 42-S , 43-C ) :   1.1760 B( 43-C , 44-C ) :   1.3958
B( 43-C , 54-C ) :   1.0736 B( 44-C , 45-C ) :   1.1525 B( 44-C , 51-C ) :   1.2005
B( 45-C , 46-C ) :   1.1847 B( 46-C , 47-C ) :   1.1020 B( 46-C , 49-C ) :   1.5366
B( 47-C , 48-N ) :   2.9044 B( 49-C , 50-C ) :   1.1908 B( 49-C , 97-H ) :   0.9946
B( 50-C , 51-C ) :   1.5428 B( 50-C , 98-H ) :   0.9951 B( 51-C , 52-C ) :   1.0788
B( 52-C , 53-N ) :   3.0371 B( 54-C , 55-S ) :   1.1891 B( 54-C , 56-C ) :   0.1119
B( 54-C , 58-C ) :   1.3495 B( 55-S , 56-C ) :   1.1975 B( 56-C , 57-C ) :   1.3570
B( 56-C , 67-C ) :   1.0886 B( 57-C , 58-C ) :   1.1942 B( 57-C , 66-C ) :   1.1808
B( 58-C , 59-C ) :   1.1817 B( 59-C , 60-C ) :   1.5816 B( 59-C , 99-H ) :   0.9864
B( 60-C , 61-C ) :   1.0769 B( 60-C , 63-C ) :   1.2313 B( 61-C , 62-N ) :   3.0449
B( 63-C , 64-C ) :   1.0789 B( 63-C , 66-C ) :   1.5689 B( 64-C , 65-N ) :   3.0464
B( 66-C ,100-H ) :   0.9955 B( 67-C , 68-C ) :   1.9340 B( 67-C ,101-H ) :   0.9482
B( 68-C ,102-H ) :   0.9615 B( 68-C ,103-H ) :   0.9477

-----------------------------------------------------------------------------
         ABSORPTION SPECTRUM VIA TRANSITION ELECTRIC DIPOLE MOMENTS
-----------------------------------------------------------------------------
State   Energy  Wavelength   fosc         T2         TX        TY        TZ
        (cm-1)    (nm)                  (au**2)     (au)      (au)      (au)
-----------------------------------------------------------------------------
   0   17262.7    579.3   0.292829020   5.58447   0.26072   1.58059   1.73731
   1   23231.0    430.5   0.285483742   4.04565   0.49242   1.11010   1.60339
   2   26753.9    373.8   0.020773693   0.25562   0.13023   0.48020  -0.08982
   3   28531.9    350.5   0.000023196   0.00027   0.00358   0.00484   0.01521
   4   31795.5    314.5   0.019718412   0.20417  -0.06990   0.30724   0.32385
   5   32592.9    306.8   0.227572914   2.29865   0.99132  -0.72110  -0.89216
   6   33491.5    298.6   0.061772768   0.60721  -0.15333   0.62826   0.43472
   7   34505.4    289.8   0.223752210   2.13479  -0.90908  -1.00000  -0.55531
   8   36418.9    274.6   0.030811078   0.27852  -0.30398   0.07493   0.42485
   9   36889.8    271.1   0.003154431   0.02815   0.14715   0.07502   0.02946
  10   37557.1    266.3   0.072132650   0.63229  -0.28560  -0.55809  -0.48914
  11   37842.5    264.3   0.000042894   0.00037   0.00158   0.01110   0.01573
  12   38791.9    257.8   0.042459493   0.36034   0.09146   0.58732  -0.08387
  13   39102.2    255.7   0.056171968   0.47293   0.21138  -0.34877   0.55372
  14   40055.0    249.7   0.607048943   4.98934  -2.12731  -0.21997   0.64460

FINAL SINGLE POINT ENERGY     -3783.832016803664

DIPOLE MOMENT
-------------
                                X             Y             Z
Electronic contribution:    -17.80002      41.34758      34.13447
Nuclear contribution   :     24.19927     -41.62470     -31.87876
                        -----------------------------------------
Total Dipole Moment    :      6.39925      -0.27712       2.25571
                        -----------------------------------------
Magnitude (a.u.)       :      6.79083
Magnitude (Debye)      :     17.26092

Rotational constants in cm-1:     0.001449     0.000470     0.000428
Rotational constants in MHz :    43.426440    14.100792    12.825804

                             ****ORCA TERMINATED NORMALLY****
TOTAL RUN TIME: 0 days 0 hours 10 minutes 20 seconds 431 msec
