                         Program Version 4.2.0 -  RELEASE  -
|  1> # ORCA input file
|  2> # SCF done       -187.959683962399          0.000768753809
|  3> ! CAM-B3LYP def2-SVP def2/J RIJCOSX Grid4 TightSCF
|  4> %maxcore 5000
|  5> %tddft
|  6>     Mode sTDDFT
|  7>     Ethresh 5.0
|  8>     maxcore 5000
|  9> end
| 10>
| 11> %pal
| 12>   nprocs 6
| 13>   end
| 14> * xyz 0 1
| 15>    C        7.93029         0.31775         1.76284
| 16>    S        7.44818        -1.22140         2.37136
| 17>    C        6.39143        -1.51904         0.99953
| 18>    C        6.44617        -0.44950         0.15233
| 19>    C        7.31234         0.58856         0.58415
| 20>    C        7.27576         1.66484        -0.43041
| 21>    O        7.85261         2.71605        -0.47447
| 22>    N        6.37425         1.20002        -1.38178
| 23>    C        5.81343        -0.04355        -1.11510
| 24>    O        4.97901        -0.59453        -1.78014
| 25>    C        5.67158        -2.74806         0.83461
| 26>    C        5.65827        -3.55727        -0.27897
| 27>    N        6.36949        -3.39469        -1.49290
| 28>    O        6.10399        -4.16729        -2.39085
| 29>    O        7.22404        -2.53110        -1.55232
| 30>    C        4.85948        -4.73007        -0.00540
| 31>    C        4.43282        -4.67194         1.27842
| 32>    C        4.87584        -3.42961         1.85969
| 33>    C        4.48003        -2.88432         3.06371
| 34>    C        4.36092        -1.49534         3.36058
| 35>    C        3.67536        -1.35870         4.53066
| 36>    C        3.36974        -2.64948         5.06458
| 37>    N        2.69539        -2.74424         6.29152
| 38>    O        2.18554        -3.80757         6.62914
| 39>    O        2.63184        -1.73321         6.96721
| 40>    C        3.89633        -3.63130         4.20351
| 41>    C        4.12208        -5.00392         4.34380
| 42>    C        3.53419        -5.86016         5.24919
| 43>    C        3.80985        -7.21728         5.34099
| 44>    S        5.02604        -8.07400         4.40668
| 45>    C        4.64015        -9.63562         5.10476
| 46>    C        3.59672        -9.49140         6.04867
| 47>    C        3.16272        -8.14698         6.17002
| 48>    N        2.17877        -8.08746         7.09226
| 49>    C        1.96726        -9.35909         7.57223
| 50>    C        1.00485        -9.63088         8.55798
| 51>    N        0.22195        -9.85747         9.36371
| 52>    C        2.82486       -10.25208         6.95158
| 53>    C        5.35573       -10.75849         4.70752
| 54>    C        5.01105       -12.04144         5.08140
| 55>    C        5.69850       -13.20877         4.75018
| 56>    C        5.14707       -14.50133         4.70599
| 57>    N        3.87773       -14.91452         5.14693
| 58>    O        3.56915       -16.07513         4.95285
| 59>    O        3.16141       -14.10184         5.71553
| 60>    C        6.07431       -15.38277         4.08449
| 61>    C        7.19655       -14.68075         3.74162
| 62>    C        7.05865       -13.33268         4.19212
| 63>    C        8.08208       -12.41295         4.33670
| 64>    C        8.20897       -11.48281         5.42072
| 65>    C        9.48218       -11.00493         5.44311
| 66>    C       10.19807       -11.54428         4.32280
| 67>    N       11.52800       -11.18485         4.03313
| 68>    O       12.07046       -11.68168         3.05958
| 69>    O       12.06587       -10.39438         4.78731
| 70>    C        9.36121       -12.39276         3.60511
| 71>    C        9.62195       -12.97258         2.34086
| 72>    C        8.66102       -13.34284         1.45452
| 73>    C        8.91247       -13.91712         0.18737
| 74>    S       10.50727       -14.26938        -0.46122
| 75>    C        9.85769       -14.90803        -1.92141
| 76>    C        8.49657       -14.86038        -1.91815
| 77>    C        7.96234       -14.30249        -0.73256
| 78>    C        6.49606       -14.30409        -0.82300
| 79>    O        5.66785       -13.92638        -0.03403
| 80>    N        6.23817       -14.86296        -2.06857
| 81>    C        7.36734       -15.22790        -2.80038
| 82>    O        7.35405       -15.72502        -3.89146
| 83>    H        8.63669         0.90991         2.30969
| 84>    H        6.15170         1.72532        -2.21591
| 85>    H        4.66709        -5.49362        -0.73449
| 86>    H        3.76547        -5.36495         1.75178
| 87>    H        4.64598        -0.69748         2.70436
| 88>    H        3.37629        -0.44271         5.00493
| 89>    H        4.83436        -5.43578         3.65167
| 90>    H        2.78010        -5.47418         5.92108
| 91>    H        1.68684        -7.26062         7.39495
| 92>    H        2.85826       -11.30546         7.14402
| 93>    H        6.18963       -10.59907         4.03725
| 94>    H        4.06966       -12.18445         5.59203
| 95>    H        5.89142       -16.42983         3.93277
| 96>    H        8.09236       -15.09384         3.32119
| 97>    H        7.45570       -11.31241         6.16490
| 98>    H        9.92057       -10.33900         6.16187
| 99>    H       10.66327       -13.03987         2.04892
|100>    H        7.61145       -13.18830         1.67068
|101>    H       10.51590       -15.27554        -2.68371
|102>    H        5.30085       -14.99807        -2.42160
|103> *
|104>
|105>                          ****END OF INPUT****

CARTESIAN COORDINATES (ANGSTROEM)
---------------------------------
  C      7.930290    0.317750    1.762840
  S      7.448180   -1.221400    2.371360
  C      6.391430   -1.519040    0.999530
  C      6.446170   -0.449500    0.152330
  C      7.312340    0.588560    0.584150
  C      7.275760    1.664840   -0.430410
  O      7.852610    2.716050   -0.474470
  N      6.374250    1.200020   -1.381780
  C      5.813430   -0.043550   -1.115100
  O      4.979010   -0.594530   -1.780140
  C      5.671580   -2.748060    0.834610
  C      5.658270   -3.557270   -0.278970
  N      6.369490   -3.394690   -1.492900
  O      6.103990   -4.167290   -2.390850
  O      7.224040   -2.531100   -1.552320
  C      4.859480   -4.730070   -0.005400
  C      4.432820   -4.671940    1.278420
  C      4.875840   -3.429610    1.859690
  C      4.480030   -2.884320    3.063710
  C      4.360920   -1.495340    3.360580
  C      3.675360   -1.358700    4.530660
  C      3.369740   -2.649480    5.064580
  N      2.695390   -2.744240    6.291520
  O      2.185540   -3.807570    6.629140
  O      2.631840   -1.733210    6.967210
  C      3.896330   -3.631300    4.203510
  C      4.122080   -5.003920    4.343800
  C      3.534190   -5.860160    5.249190
  C      3.809850   -7.217280    5.340990
  S      5.026040   -8.074000    4.406680
  C      4.640150   -9.635620    5.104760
  C      3.596720   -9.491400    6.048670
  C      3.162720   -8.146980    6.170020
  N      2.178770   -8.087460    7.092260
  C      1.967260   -9.359090    7.572230
  C      1.004850   -9.630880    8.557980
  N      0.221950   -9.857470    9.363710
  C      2.824860  -10.252080    6.951580
  C      5.355730  -10.758490    4.707520
  C      5.011050  -12.041440    5.081400
  C      5.698500  -13.208770    4.750180
  C      5.147070  -14.501330    4.705990
  N      3.877730  -14.914520    5.146930
  O      3.569150  -16.075130    4.952850
  O      3.161410  -14.101840    5.715530
  C      6.074310  -15.382770    4.084490
  C      7.196550  -14.680750    3.741620
  C      7.058650  -13.332680    4.192120
  C      8.082080  -12.412950    4.336700
  C      8.208970  -11.482810    5.420720
  C      9.482180  -11.004930    5.443110
  C     10.198070  -11.544280    4.322800
  N     11.528000  -11.184850    4.033130
  O     12.070460  -11.681680    3.059580
  O     12.065870  -10.394380    4.787310
  C      9.361210  -12.392760    3.605110
  C      9.621950  -12.972580    2.340860
  C      8.661020  -13.342840    1.454520
  C      8.912470  -13.917120    0.187370
  S     10.507270  -14.269380   -0.461220
  C      9.857690  -14.908030   -1.921410
  C      8.496570  -14.860380   -1.918150
  C      7.962340  -14.302490   -0.732560
  C      6.496060  -14.304090   -0.823000
  O      5.667850  -13.926380   -0.034030
  N      6.238170  -14.862960   -2.068570
  C      7.367340  -15.227900   -2.800380
  O      7.354050  -15.725020   -3.891460
  H      8.636690    0.909910    2.309690
  H      6.151700    1.725320   -2.215910
  H      4.667090   -5.493620   -0.734490
  H      3.765470   -5.364950    1.751780
  H      4.645980   -0.697480    2.704360
  H      3.376290   -0.442710    5.004930
  H      4.834360   -5.435780    3.651670
  H      2.780100   -5.474180    5.921080
  H      1.686840   -7.260620    7.394950
  H      2.858260  -11.305460    7.144020
  H      6.189630  -10.599070    4.037250
  H      4.069660  -12.184450    5.592030
  H      5.891420  -16.429830    3.932770
  H      8.092360  -15.093840    3.321190
  H      7.455700  -11.312410    6.164900
  H      9.920570  -10.339000    6.161870
  H     10.663270  -13.039870    2.048920
  H      7.611450  -13.188300    1.670680
  H     10.515900  -15.275540   -2.683710
  H      5.300850  -14.998070   -2.421600

 Total Charge           Charge          ....    0
 Multiplicity           Mult            ....    1
 Number of Electrons    NEL             ....  490
 Basis Dimension        Dim             .... 1064

ORBITAL ENERGIES
----------------

  NO   OCC          E(Eh)            E(eV)
   0   2.0000     -89.000513     -2421.8271
   1   2.0000     -88.995032     -2421.6779
   2   2.0000     -88.988064     -2421.4883
   3   2.0000     -19.246940      -523.7359
   4   2.0000     -19.246236      -523.7167
   5   2.0000     -19.245460      -523.6956
   6   2.0000     -19.245219      -523.6890
   7   2.0000     -19.244344      -523.6652
   8   2.0000     -19.244207      -523.6615
   9   2.0000     -19.242763      -523.6222
  10   2.0000     -19.241155      -523.5784
  11   2.0000     -19.225206      -523.1444
  12   2.0000     -19.221399      -523.0409
  13   2.0000     -19.211840      -522.7807
  14   2.0000     -19.210966      -522.7570
  15   2.0000     -14.655953      -398.8087
  16   2.0000     -14.654401      -398.7665
  17   2.0000     -14.653634      -398.7457
  18   2.0000     -14.651613      -398.6907
  19   2.0000     -14.511622      -394.8813
  20   2.0000     -14.467026      -393.6678
  21   2.0000     -14.455817      -393.3628
  22   2.0000     -14.435299      -392.8045
  23   2.0000     -10.411768      -283.3186
  24   2.0000     -10.409609      -283.2599
  25   2.0000     -10.399352      -282.9808
  26   2.0000     -10.398504      -282.9577
  27   2.0000     -10.375910      -282.3429
  28   2.0000     -10.358978      -281.8821
  29   2.0000     -10.356003      -281.8012
  30   2.0000     -10.347722      -281.5758
  31   2.0000     -10.345009      -281.5020
  32   2.0000     -10.344209      -281.4802
  33   2.0000     -10.342501      -281.4338
  34   2.0000     -10.340121      -281.3690
  35   2.0000     -10.339525      -281.3528
  36   2.0000     -10.339351      -281.3480
  37   2.0000     -10.339185      -281.3435
  38   2.0000     -10.338208      -281.3169
  39   2.0000     -10.338114      -281.3144
  40   2.0000     -10.336834      -281.2795
  41   2.0000     -10.333982      -281.2020
  42   2.0000     -10.333491      -281.1886
  43   2.0000     -10.333071      -281.1771
  44   2.0000     -10.332601      -281.1644
  45   2.0000     -10.331978      -281.1474
  46   2.0000     -10.329704      -281.0855
  47   2.0000     -10.328288      -281.0470
  48   2.0000     -10.328253      -281.0461
  49   2.0000     -10.322634      -280.8931
  50   2.0000     -10.321405      -280.8597
  51   2.0000     -10.319485      -280.8075
  52   2.0000     -10.317572      -280.7554
  53   2.0000     -10.316862      -280.7361
  54   2.0000     -10.315556      -280.7005
  55   2.0000     -10.311794      -280.5982
  56   2.0000     -10.310121      -280.5527
  57   2.0000     -10.309550      -280.5371
  58   2.0000     -10.308809      -280.5170
  59   2.0000     -10.308132      -280.4985
  60   2.0000     -10.307685      -280.4864
  61   2.0000     -10.303286      -280.3667
  62   2.0000     -10.299280      -280.2576
  63   2.0000     -10.299129      -280.2535
  64   2.0000     -10.298836      -280.2456
  65   2.0000     -10.298589      -280.2388
  66   2.0000     -10.295473      -280.1541
  67   2.0000     -10.290146      -280.0091
  68   2.0000      -8.095144      -220.2801
  69   2.0000      -8.090226      -220.1463
  70   2.0000      -8.083052      -219.9510
  71   2.0000      -6.064455      -165.0222
  72   2.0000      -6.060399      -164.9118
  73   2.0000      -6.059530      -164.8882
  74   2.0000      -6.057243      -164.8260
  75   2.0000      -6.055030      -164.7657
  76   2.0000      -6.052671      -164.7016
  77   2.0000      -6.052464      -164.6959
  78   2.0000      -6.047838      -164.5700
  79   2.0000      -6.045450      -164.5050
  80   2.0000      -1.326249       -36.0891
  81   2.0000      -1.324077       -36.0300
  82   2.0000      -1.323555       -36.0158
  83   2.0000      -1.322785       -35.9948
  84   2.0000      -1.168636       -31.8002
  85   2.0000      -1.157594       -31.4997
  86   2.0000      -1.147747       -31.2318
  87   2.0000      -1.143702       -31.1217
  88   2.0000      -1.141903       -31.0728
  89   2.0000      -1.141430       -31.0599
  90   2.0000      -1.139047       -30.9951
  91   2.0000      -1.136188       -30.9172
  92   2.0000      -1.134941       -30.8833
  93   2.0000      -1.058429       -28.8013
  94   2.0000      -1.047607       -28.5068
  95   2.0000      -1.031372       -28.0651
  96   2.0000      -1.028044       -27.9745
  97   2.0000      -1.021049       -27.7842
  98   2.0000      -1.013655       -27.5830
  99   2.0000      -1.012069       -27.5398
 100   2.0000      -1.008913       -27.4539
 101   2.0000      -1.008027       -27.4298
 102   2.0000      -0.994901       -27.0726
 103   2.0000      -0.953474       -25.9453
 104   2.0000      -0.931725       -25.3535
 105   2.0000      -0.925382       -25.1809
 106   2.0000      -0.919960       -25.0334
 107   2.0000      -0.918411       -24.9912
 108   2.0000      -0.912793       -24.8384
 109   2.0000      -0.891582       -24.2612
 110   2.0000      -0.888956       -24.1897
 111   2.0000      -0.884419       -24.0663
 112   2.0000      -0.882260       -24.0075
 113   2.0000      -0.880047       -23.9473
 114   2.0000      -0.872425       -23.7399
 115   2.0000      -0.869492       -23.6601
 116   2.0000      -0.867319       -23.6009
 117   2.0000      -0.843123       -22.9425
 118   2.0000      -0.829542       -22.5730
 119   2.0000      -0.821900       -22.3650
 120   2.0000      -0.804324       -21.8868
 121   2.0000      -0.797404       -21.6985
 122   2.0000      -0.782800       -21.3011
 123   2.0000      -0.770788       -20.9742
 124   2.0000      -0.760420       -20.6921
 125   2.0000      -0.754359       -20.5272
 126   2.0000      -0.748600       -20.3705
 127   2.0000      -0.745744       -20.2927
 128   2.0000      -0.742808       -20.2128
 129   2.0000      -0.741671       -20.1819
 130   2.0000      -0.737148       -20.0588
 131   2.0000      -0.735947       -20.0261
 132   2.0000      -0.723515       -19.6878
 133   2.0000      -0.712304       -19.3828
 134   2.0000      -0.691203       -18.8086
 135   2.0000      -0.687599       -18.7105
 136   2.0000      -0.682983       -18.5849
 137   2.0000      -0.681961       -18.5571
 138   2.0000      -0.679132       -18.4801
 139   2.0000      -0.674002       -18.3405
 140   2.0000      -0.670419       -18.2430
 141   2.0000      -0.657064       -17.8796
 142   2.0000      -0.650604       -17.7038
 143   2.0000      -0.644862       -17.5476
 144   2.0000      -0.640807       -17.4372
 145   2.0000      -0.637407       -17.3447
 146   2.0000      -0.636534       -17.3210
 147   2.0000      -0.635575       -17.2949
 148   2.0000      -0.634931       -17.2773
 149   2.0000      -0.633903       -17.2494
 150   2.0000      -0.631549       -17.1853
 151   2.0000      -0.628551       -17.1037
 152   2.0000      -0.627860       -17.0849
 153   2.0000      -0.620430       -16.8827
 154   2.0000      -0.614159       -16.7121
 155   2.0000      -0.606242       -16.4967
 156   2.0000      -0.598665       -16.2905
 157   2.0000      -0.598028       -16.2732
 158   2.0000      -0.593461       -16.1489
 159   2.0000      -0.591889       -16.1061
 160   2.0000      -0.589484       -16.0407
 161   2.0000      -0.587274       -15.9805
 162   2.0000      -0.582761       -15.8577
 163   2.0000      -0.577930       -15.7263
 164   2.0000      -0.576294       -15.6818
 165   2.0000      -0.575399       -15.6574
 166   2.0000      -0.572166       -15.5694
 167   2.0000      -0.567756       -15.4494
 168   2.0000      -0.565441       -15.3864
 169   2.0000      -0.562597       -15.3090
 170   2.0000      -0.562390       -15.3034
 171   2.0000      -0.558194       -15.1892
 172   2.0000      -0.555029       -15.1031
 173   2.0000      -0.552104       -15.0235
 174   2.0000      -0.546911       -14.8822
 175   2.0000      -0.544140       -14.8068
 176   2.0000      -0.543084       -14.7781
 177   2.0000      -0.542116       -14.7517
 178   2.0000      -0.534925       -14.5561
 179   2.0000      -0.529150       -14.3989
 180   2.0000      -0.525080       -14.2882
 181   2.0000      -0.519000       -14.1227
 182   2.0000      -0.517480       -14.0813
 183   2.0000      -0.516386       -14.0516
 184   2.0000      -0.515582       -14.0297
 185   2.0000      -0.510795       -13.8994
 186   2.0000      -0.507136       -13.7999
 187   2.0000      -0.504135       -13.7182
 188   2.0000      -0.500743       -13.6259
 189   2.0000      -0.499312       -13.5870
 190   2.0000      -0.497914       -13.5489
 191   2.0000      -0.496800       -13.5186
 192   2.0000      -0.494590       -13.4585
 193   2.0000      -0.493678       -13.4337
 194   2.0000      -0.493259       -13.4223
 195   2.0000      -0.491131       -13.3644
 196   2.0000      -0.489502       -13.3200
 197   2.0000      -0.486424       -13.2363
 198   2.0000      -0.484996       -13.1974
 199   2.0000      -0.482040       -13.1170
 200   2.0000      -0.480002       -13.0615
 201   2.0000      -0.475651       -12.9431
 202   2.0000      -0.469693       -12.7810
 203   2.0000      -0.463227       -12.6050
 204   2.0000      -0.462054       -12.5731
 205   2.0000      -0.458256       -12.4698
 206   2.0000      -0.455984       -12.4080
 207   2.0000      -0.453731       -12.3467
 208   2.0000      -0.450438       -12.2571
 209   2.0000      -0.450261       -12.2522
 210   2.0000      -0.441221       -12.0062
 211   2.0000      -0.440504       -11.9867
 212   2.0000      -0.418479       -11.3874
 213   2.0000      -0.399375       -10.8675
 214   2.0000      -0.394984       -10.7481
 215   2.0000      -0.393299       -10.7022
 216   2.0000      -0.391856       -10.6629
 217   2.0000      -0.391171       -10.6443
 218   2.0000      -0.387649       -10.5485
 219   2.0000      -0.386283       -10.5113
 220   2.0000      -0.383185       -10.4270
 221   2.0000      -0.381756       -10.3881
 222   2.0000      -0.381027       -10.3683
 223   2.0000      -0.378197       -10.2913
 224   2.0000      -0.375761       -10.2250
 225   2.0000      -0.374668       -10.1952
 226   2.0000      -0.373060       -10.1515
 227   2.0000      -0.372073       -10.1246
 228   2.0000      -0.370383       -10.0786
 229   2.0000      -0.366613        -9.9760
 230   2.0000      -0.363617        -9.8945
 231   2.0000      -0.357062        -9.7162
 232   2.0000      -0.356346        -9.6967
 233   2.0000      -0.353830        -9.6282
 234   2.0000      -0.353227        -9.6118
 235   2.0000      -0.350617        -9.5408
 236   2.0000      -0.348510        -9.4834
 237   2.0000      -0.344602        -9.3771
 238   2.0000      -0.342837        -9.3291
 239   2.0000      -0.340273        -9.2593
 240   2.0000      -0.330633        -8.9970
 241   2.0000      -0.307787        -8.3753
 242   2.0000      -0.301479        -8.2037
 243   2.0000      -0.287157        -7.8139
 244   2.0000      -0.252378        -6.8675
 245   0.0000      -0.159751        -4.3470
 246   0.0000      -0.134343        -3.6557
 247   0.0000      -0.099266        -2.7012
 248   0.0000      -0.071084        -1.9343
 249   0.0000      -0.055969        -1.5230

MULLIKEN ATOMIC CHARGES
-----------------------
   0 C :   -0.129627
   1 S :    0.184123
   2 C :   -0.305609
   3 C :    0.089014
   4 C :   -0.008720
   5 C :    0.179365
   6 O :   -0.134711
   7 N :   -0.163043
   8 C :    0.171515
   9 O :   -0.142961
  10 C :    0.054827
  11 C :    0.102586
  12 N :    0.272069
  13 O :   -0.234497
  14 O :   -0.239592
  15 C :    0.011052
  16 C :   -0.009324
  17 C :    0.036373
  18 C :    0.008337
  19 C :    0.007317
  20 C :    0.028064
  21 C :    0.053834
  22 N :    0.280707
  23 O :   -0.280549
  24 O :   -0.248548
  25 C :    0.100470
  26 C :   -0.106397
  27 C :   -0.010698
  28 C :   -0.097245
  29 S :    0.164093
  30 C :   -0.131134
  31 C :    0.130292
  32 C :    0.086608
  33 N :   -0.005099
  34 C :   -0.092589
  35 C :   -0.147432
  36 N :    0.184893
  37 C :   -0.034819
  38 C :    0.054860
  39 C :   -0.054971
  40 C :    0.050919
  41 C :    0.092028
  42 N :    0.275508
  43 O :   -0.240832
  44 O :   -0.263650
  45 C :    0.026224
  46 C :    0.002955
  47 C :    0.020530
  48 C :    0.009193
  49 C :   -0.005716
  50 C :    0.018315
  51 C :    0.089851
  52 N :    0.270977
  53 O :   -0.253254
  54 O :   -0.242856
  55 C :    0.037963
  56 C :   -0.038314
  57 C :   -0.003878
  58 C :   -0.146050
  59 S :    0.171165
  60 C :   -0.110393
  61 C :   -0.001086
  62 C :   -0.012741
  63 C :    0.181236
  64 O :   -0.152633
  65 N :   -0.163706
  66 C :    0.179287
  67 O :   -0.127878
  68 H :    0.046236
  69 H :    0.141335
  70 H :    0.006274
  71 H :   -0.002030
  72 H :    0.006348
  73 H :    0.009614
  74 H :    0.008458
  75 H :    0.018175
  76 H :    0.152305
  77 H :    0.022173
  78 H :    0.007529
  79 H :    0.017003
  80 H :    0.009823
  81 H :    0.002688
  82 H :    0.003384
  83 H :    0.006967
  84 H :    0.028257
  85 H :    0.035799
  86 H :    0.051085
  87 H :    0.142582
Sum of atomic charges:   -0.0000000

LOEWDIN ATOMIC CHARGES
----------------------
   0 C :   -0.137329
   1 S :    0.481339
   2 C :   -0.150712
   3 C :   -0.079466
   4 C :   -0.095909
   5 C :    0.085473
   6 O :   -0.150277
   7 N :   -0.000559
   8 C :    0.083009
   9 O :   -0.155237
  10 C :   -0.019292
  11 C :   -0.018902
  12 N :    0.287436
  13 O :   -0.195826
  14 O :   -0.200385
  15 C :    0.010724
  16 C :   -0.043840
  17 C :    0.018466
  18 C :    0.049491
  19 C :   -0.059570
  20 C :    0.033899
  21 C :   -0.069545
  22 N :    0.288220
  23 O :   -0.238997
  24 O :   -0.211914
  25 C :    0.018427
  26 C :   -0.038987
  27 C :    0.006505
  28 C :   -0.187453
  29 S :    0.462964
  30 C :   -0.139720
  31 C :   -0.060578
  32 C :    0.010165
  33 N :    0.097131
  34 C :   -0.016043
  35 C :   -0.045784
  36 N :   -0.018279
  37 C :   -0.023195
  38 C :   -0.017107
  39 C :   -0.000920
  40 C :    0.004953
  41 C :   -0.046946
  42 N :    0.286128
  43 O :   -0.205253
  44 O :   -0.228872
  45 C :    0.025244
  46 C :   -0.038401
  47 C :    0.044150
  48 C :    0.034557
  49 C :   -0.043287
  50 C :    0.009567
  51 C :   -0.045232
  52 N :    0.284796
  53 O :   -0.216282
  54 O :   -0.207594
  55 C :    0.004620
  56 C :   -0.018909
  57 C :   -0.006411
  58 C :   -0.143926
  59 S :    0.480404
  60 C :   -0.127573
  61 C :   -0.098791
  62 C :   -0.088024
  63 C :    0.084947
  64 O :   -0.162959
  65 N :   -0.003432
  66 C :    0.086314
  67 O :   -0.144208
  68 H :    0.037733
  69 H :    0.096744
  70 H :    0.039239
  71 H :    0.029839
  72 H :    0.029713
  73 H :    0.040318
  74 H :    0.029381
  75 H :    0.031704
  76 H :    0.109898
  77 H :    0.045168
  78 H :    0.035652
  79 H :    0.037964
  80 H :    0.041531
  81 H :    0.032310
  82 H :    0.031836
  83 H :    0.039452
  84 H :    0.033874
  85 H :    0.043448
  86 H :    0.039826
  87 H :    0.097367

  Mayer bond orders larger than 0.100000
B(  0-C ,  1-S ) :   1.1823 B(  0-C ,  4-C ) :   1.5639 B(  0-C , 68-H ) :   0.9679
B(  1-S ,  2-C ) :   1.1628 B(  2-C ,  3-C ) :   1.5711 B(  2-C , 10-C ) :   1.0277
B(  3-C ,  4-C ) :   1.2497 B(  3-C ,  8-C ) :   0.8734 B(  4-C ,  5-C ) :   0.8671
B(  5-C ,  6-O ) :   2.2881 B(  5-C ,  7-N ) :   1.0736 B(  7-N ,  8-C ) :   1.0822
B(  7-N , 69-H ) :   0.9143 B(  8-C ,  9-O ) :   2.2655 B( 10-C , 11-C ) :   1.6200
B( 10-C , 17-C ) :   1.0811 B( 11-C , 12-N ) :   0.9189 B( 11-C , 15-C ) :   1.1223
B( 12-N , 13-O ) :   1.5430 B( 12-N , 14-O ) :   1.5233 B( 13-O , 14-O ) :   0.2705
B( 15-C , 16-C ) :   1.5987 B( 15-C , 70-H ) :   1.0121 B( 16-C , 17-C ) :   1.1034
B( 16-C , 71-H ) :   1.0027 B( 17-C , 18-C ) :   1.4841 B( 18-C , 19-C ) :   1.1598
B( 18-C , 25-C ) :   0.9983 B( 19-C , 20-C ) :   1.5408 B( 19-C , 72-H ) :   1.0015
B( 20-C , 21-C ) :   1.1513 B( 20-C , 73-H ) :   1.0073 B( 21-C , 22-N ) :   0.9805
B( 21-C , 25-C ) :   1.4042 B( 22-N , 23-O ) :   1.4376 B( 22-N , 24-O ) :   1.5401
B( 23-O , 24-O ) :   0.2368 B( 23-O , 75-H ) :   0.1182 B( 25-C , 26-C ) :   1.2571
B( 26-C , 27-C ) :   1.4654 B( 26-C , 74-H ) :   0.9633 B( 27-C , 28-C ) :   1.2612
B( 27-C , 75-H ) :   0.9529 B( 28-C , 29-S ) :   1.0714 B( 28-C , 32-C ) :   1.2855
B( 29-S , 30-C ) :   1.1331 B( 30-C , 31-C ) :   1.2183 B( 30-C , 38-C ) :   1.2696
B( 31-C , 32-C ) :   1.2595 B( 31-C , 37-C ) :   1.2028 B( 32-C , 33-N ) :   1.2296
B( 33-N , 34-C ) :   1.2092 B( 33-N , 76-H ) :   0.9270 B( 34-C , 35-C ) :   1.0589
B( 34-C , 37-C ) :   1.5687 B( 35-C , 36-N ) :   3.0565 B( 37-C , 77-H ) :   1.0057
B( 38-C , 39-C ) :   1.4537 B( 38-C , 78-H ) :   0.9496 B( 39-C , 40-C ) :   1.2743
B( 39-C , 79-H ) :   0.9506 B( 40-C , 41-C ) :   1.4302 B( 40-C , 47-C ) :   0.9989
B( 41-C , 42-N ) :   0.9601 B( 41-C , 45-C ) :   1.1675 B( 42-N , 43-O ) :   1.5397
B( 42-N , 44-O ) :   1.4794 B( 43-O , 44-O ) :   0.2544 B( 45-C , 46-C ) :   1.5240
B( 45-C , 80-H ) :   1.0099 B( 46-C , 47-C ) :   1.1804 B( 46-C , 81-H ) :   0.9988
B( 47-C , 48-C ) :   1.4591 B( 48-C , 49-C ) :   1.1523 B( 48-C , 55-C ) :   1.0189
B( 49-C , 50-C ) :   1.5590 B( 49-C , 82-H ) :   0.9991 B( 50-C , 51-C ) :   1.1393
B( 50-C , 83-H ) :   1.0118 B( 51-C , 52-N ) :   0.9469 B( 51-C , 55-C ) :   1.5014
B( 52-N , 53-O ) :   1.4952 B( 52-N , 54-O ) :   1.5382 B( 53-O , 54-O ) :   0.2622
B( 55-C , 56-C ) :   1.1890 B( 56-C , 57-C ) :   1.5589 B( 56-C , 84-H ) :   0.9559
B( 57-C , 58-C ) :   1.1987 B( 57-C , 85-H ) :   0.9583 B( 58-C , 59-S ) :   1.1286
B( 58-C , 62-C ) :   1.4989 B( 59-S , 60-C ) :   1.1873 B( 60-C , 61-C ) :   1.5661
B( 60-C , 86-H ) :   0.9664 B( 61-C , 62-C ) :   1.2573 B( 61-C , 66-C ) :   0.8695
B( 62-C , 63-C ) :   0.8960 B( 63-C , 64-O ) :   2.2231 B( 63-C , 65-N ) :   1.0938
B( 65-N , 66-C ) :   1.0665 B( 65-N , 87-H ) :   0.9141 B( 66-C , 67-O ) :   2.2936

-----------------------------------------------------------------------------
         ABSORPTION SPECTRUM VIA TRANSITION ELECTRIC DIPOLE MOMENTS
-----------------------------------------------------------------------------
State   Energy  Wavelength   fosc         T2         TX        TY        TZ
        (cm-1)    (nm)                  (au**2)     (au)      (au)      (au)
-----------------------------------------------------------------------------
   0    5455.9   1832.9   0.304363016  18.36554  -1.24214   4.10091  -0.07213
   1    9838.4   1016.4   0.172992883   5.78869   1.11166   1.08333  -1.83829
   2   11667.3    857.1   0.024784838   0.69934   0.18886  -0.27975   0.76512
   3   14553.0    687.1   0.015012794   0.33961  -0.50471  -0.26541   0.12018
   4   16459.1    607.6   0.006514524   0.13030  -0.31981   0.10386  -0.13128
   5   17929.7    557.7   0.420947228   7.72911   0.88109  -2.63495   0.09919
   6   20085.2    497.9   0.011660755   0.19113   0.23322   0.11973   0.34986
   7   20629.5    484.7   0.094297013   1.50482   0.19478  -0.93461  -0.77031
   8   22547.5    443.5   0.068179715   0.99548  -0.05190  -0.99628   0.01453
   9   23032.0    434.2   0.057209191   0.81773  -0.31440  -0.74334   0.40784
  10   23670.2    422.5   0.049637008   0.69037   0.11942  -0.67112  -0.47508
  11   23953.1    417.5   0.087888268   1.20794  -0.55272  -0.31706   0.89549
  12   24865.6    402.2   0.037248557   0.49316   0.39949   0.55236   0.16873
  13   24973.1    400.4   0.075939433   1.00108  -0.21691  -0.39623  -0.89277
  14   25371.9    394.1   0.136146161   1.76656  -0.75244  -0.17474   1.08160
  15   25383.6    394.0   0.154412734   2.00265   0.44266  -0.44766  -1.26740
  16   25924.4    385.7   0.058278140   0.74007  -0.24453  -0.75121  -0.34052
  17   26153.6    382.4   0.020112861   0.25317  -0.19982  -0.42195   0.18762
  18   26253.5    380.9   0.023685336   0.29701   0.19599   0.50816  -0.01927
  19   26388.8    378.9   0.059421185   0.74131   0.50054   0.43540   0.54881
  20   26927.7    371.4   0.006144060   0.07512  -0.16113   0.01083   0.22144
  21   27511.7    363.5   0.002519792   0.03015   0.07586  -0.07559  -0.13669
  22   27921.3    358.1   0.060076932   0.70835  -0.63675  -0.54880  -0.04135
  23   28140.4    355.4   0.217840586   2.54850   0.95230  -0.03771  -1.28070
  24   28198.1    354.6   0.079042866   0.92282   0.13914   0.73086   0.60771
  25   28517.5    350.7   0.100863670   1.16439   0.21631  -0.45459  -0.95444
  26   28885.0    346.2   0.002417080   0.02755  -0.10820   0.10609  -0.06773
  27   29530.7    338.6   0.089383294   0.99646  -0.22784  -0.62632  -0.74314
  28   30045.5    332.8   0.035322118   0.38703   0.58294   0.10182   0.19194
  29   30481.8    328.1   0.146179764   1.57878   0.18640   0.88006   0.87723
  30   30735.9    325.4   0.036523608   0.39120  -0.41852  -0.46331  -0.03725
  31   31006.8    322.5   0.015300652   0.16245  -0.31561  -0.03876   0.24767
  32   31176.0    320.8   0.089992334   0.95030  -0.88762  -0.39593   0.07530
  33   31341.6    319.1   0.051149834   0.53728   0.18027   0.32195   0.63335
  34   31458.5    317.9   0.047170056   0.49363  -0.50195  -0.01607  -0.49134
  35   31615.1    316.3   0.044988982   0.46848  -0.43269  -0.49961  -0.17789
  36   31673.5    315.7   0.158244616   1.64478   0.71157   1.01902   0.31629
  37   31785.4    314.6   0.042293888   0.43805   0.30516   0.55605  -0.18905
  38   31929.9    313.2   0.008790110   0.09063  -0.09046   0.15971   0.23862
  39   32140.6    311.1   0.004081039   0.04180   0.13979   0.00060   0.14920
  40   32448.7    308.2   0.002300415   0.02334   0.05846   0.12366   0.06804
  41   32884.4    304.1   0.184013081   1.84219   0.14510  -0.40817  -1.28629
  42   32956.8    303.4   0.099099677   0.98993   0.83117   0.52511   0.15279
  43   33071.4    302.4   0.182991618   1.82161   0.92074   0.84034   0.51738
  44   33151.6    301.6   0.092998574   0.92352   0.43050   0.58208   0.63196
  45   33370.9    299.7   0.134945202   1.33127   0.67120  -0.26911  -0.89907
  46   33464.9    298.8   0.003923234   0.03859  -0.13951  -0.04374   0.13122
  47   33674.8    297.0   0.007402280   0.07237   0.23158   0.08516  -0.10716
  48   33899.2    295.0   0.019358474   0.18800  -0.28890  -0.07415   0.31471
  49   33991.7    294.2   0.027732109   0.26859   0.44283   0.12388  -0.23905
  50   34094.1    293.3   0.030510695   0.29461   0.28479  -0.06601  -0.45733
  51   34455.4    290.2   0.090343779   0.86321  -0.07142  -0.71665  -0.58696
  52   34570.4    289.3   0.084178945   0.80163  -0.26439   0.64635   0.56032
  53   34599.5    289.0   0.152601123   1.45199   1.02798   0.62786  -0.03221
  54   35280.6    283.4   0.041690506   0.38902   0.59010  -0.06224  -0.19219
  55   35361.7    282.8   0.077846064   0.72473  -0.18649  -0.65853  -0.50625
  56   35530.8    281.4   0.007839603   0.07264  -0.13089  -0.22360  -0.07422
  57   35620.8    280.7   0.041724190   0.38562   0.06690  -0.32824  -0.52288
  58   36538.3    273.7   0.006308975   0.05684  -0.05009  -0.16498   0.16468
  59   36596.0    273.3   0.231194264   2.07979   0.49007   1.08058  -0.81973
  60   36678.7    272.6   0.009322840   0.08368  -0.07984   0.25554  -0.10954
  61   36759.7    272.0   0.039513052   0.35387  -0.50292  -0.31665   0.02593
  62   36875.3    271.2   0.032312065   0.28847   0.03952   0.42544  -0.32544
  63   37010.0    270.2   0.033537247   0.29832   0.27910   0.05776  -0.46593
  64   37463.5    266.9   0.005577940   0.04902   0.02073  -0.09933  -0.19678
  65   37545.9    266.3   0.000490518   0.00430  -0.03952  -0.01661  -0.04963
  66   37906.1    263.8   0.029649787   0.25751   0.11890  -0.16379  -0.46534
  67   38079.8    262.6   0.131348827   1.13555  -0.43685  -0.09117   0.96768
  68   38334.4    260.9   0.010452250   0.08976   0.03225   0.15279   0.25569
  69   38531.0    259.5   0.161505097   1.37991   0.86003   0.33420  -0.72703
  70   38759.6    258.0   0.001022357   0.00868  -0.00266  -0.06584   0.06589
  71   38848.5    257.4   0.041555286   0.35215   0.07727  -0.49890  -0.31190
  72   38990.7    256.5   0.014826383   0.12518  -0.00388  -0.33278   0.12011
  73   39020.0    256.3   0.014996738   0.12653  -0.23264   0.14506   0.22664
  74   39081.6    255.9   0.016425814   0.13837  -0.22820   0.05097   0.28930
  75   39154.9    255.4   0.014828473   0.12468  -0.17341  -0.19276   0.23968
  76   39245.4    254.8   0.008403309   0.07049   0.15597   0.08844  -0.19581
  77   39323.7    254.3   0.004111058   0.03442   0.13476  -0.05865  -0.11322
  78   39464.8    253.4   0.053649886   0.44754  -0.48807   0.28991   0.35395
  79   39804.8    251.2   0.017209135   0.14233  -0.36546  -0.03366  -0.08737
  80   39883.0    250.7   0.098788906   0.81545  -0.75616  -0.26115   0.41890
  81   40010.6    249.9   0.022794927   0.18756   0.17855   0.39421  -0.01672
  82   40087.8    249.5   0.008821862   0.07245  -0.10812   0.02538   0.24518
  83   40268.8    248.3   0.013286260   0.10862  -0.05309   0.24217   0.21716

FINAL SINGLE POINT ENERGY     -4257.485201510149

DIPOLE MOMENT
-------------
                                X             Y             Z
Electronic contribution:      3.32580       8.09164      -6.20643
Nuclear contribution   :     -2.50883      -9.11745       6.71463
                        -----------------------------------------
Total Dipole Moment    :      0.81697      -1.02580       0.50820
                        -----------------------------------------
Magnitude (a.u.)       :      1.40640
Magnitude (Debye)      :      3.57479

Rotational constants in cm-1:     0.001063     0.000496     0.000392
Rotational constants in MHz :    31.867672    14.859146    11.758725

                             ****ORCA TERMINATED NORMALLY****
TOTAL RUN TIME: 0 days 0 hours 9 minutes 57 seconds 777 msec
