                         Program Version 4.2.0 -  RELEASE  -
|  1> # ORCA input file
|  2> # SCF done       -186.290313110304          0.000338168278
|  3> ! CAM-B3LYP def2-SVP def2/J RIJCOSX Grid4 TightSCF
|  4> %maxcore 5000
|  5> %tddft
|  6>     Mode sTDDFT
|  7>     Ethresh 5.0
|  8>     maxcore 5000
|  9> end
| 10>
| 11> %pal
| 12>   nprocs 6
| 13>   end
| 14> * xyz 0 1
| 15>    C       -1.34018         0.20577         5.98119
| 16>    S       -0.55169        -1.31687         5.80068
| 17>    C        0.71167        -0.88583         6.94275
| 18>    C        0.48609         0.38012         7.40307
| 19>    C       -0.67069         0.99746         6.85840
| 20>    C       -0.78786         2.34846         7.44819
| 21>    O       -1.60996         3.20671         7.27841
| 22>    N        0.31829         2.44779         8.28435
| 23>    C        1.14728         1.33105         8.31250
| 24>    O        2.17596         1.23863         8.92557
| 25>    C        1.74698        -1.80313         7.31902
| 26>    C        2.13006        -2.15334         8.59284
| 27>    N        1.57749        -1.72409         9.82330
| 28>    O        2.15904        -2.06154        10.83455
| 29>    O        0.54097        -1.08706         9.80260
| 30>    C        3.15968        -3.16787         8.51860
| 31>    C        3.36116        -3.48537         7.21929
| 32>    C        2.52868        -2.63941         6.40141
| 33>    C        2.56289        -2.49466         5.03065
| 34>    C        2.28961        -1.29114         4.31172
| 35>    C        2.65977        -1.46824         3.01408
| 36>    C        3.12160        -2.81046         2.82690
| 37>    N        3.53413        -3.22333         1.54802
| 38>    O        4.18169        -4.25355         1.42213
| 39>    O        3.23757        -2.50171         0.61212
| 40>    C        3.04428        -3.49573         4.05107
| 41>    C        3.09383        -4.85330         4.40538
| 42>    C        3.49560        -5.91257         3.62677
| 43>    C        3.45141        -7.23726         4.08128
| 44>    N        3.84432        -8.31007         3.32027
| 45>    C        4.38614        -8.26171         1.98034
| 46>    C        5.85365        -7.84501         1.97440
| 47>    C        3.70973        -9.52496         4.00394
| 48>    O        3.99229       -10.60486         3.53136
| 49>    C        3.17825        -9.14829         5.30479
| 50>    C        3.02717        -7.75519         5.32457
| 51>    C        2.49657        -7.38060         6.62301
| 52>    O        2.19059        -6.30499         7.09515
| 53>    N        2.36957        -8.59734         7.31138
| 54>    C        1.91233        -8.63284         8.68109
| 55>    C        3.07437        -8.76473         9.66199
| 56>    C        2.76597        -9.66841         6.54794
| 57>    C        2.72396       -11.00574         6.97706
| 58>    C        3.08529       -12.04977         6.16750
| 59>    C        3.04286       -13.40871         6.53597
| 60>    C        3.35057       -14.46673         5.69601
| 61>    C        3.20694       -15.69002         6.40577
| 62>    C        2.77014       -15.32169         7.76685
| 63>    C        2.66840       -13.96972         7.82922
| 64>    C        2.42314       -16.18737         8.81416
| 65>    N        2.09011       -16.83817         9.69880
| 66>    C        3.42492       -16.96501         5.93402
| 67>    C        3.41244       -18.18305         6.67729
| 68>    C        3.65473       -19.22743         5.81519
| 69>    C        3.81619       -18.68729         4.47220
| 70>    C        3.70355       -17.33603         4.53234
| 71>    C        3.79576       -16.47554         3.43209
| 72>    N        3.87676       -15.80440         2.50378
| 73>    C        3.74002       -20.61076         6.12641
| 74>    S        3.80388       -21.81534         4.84766
| 75>    C        3.86343       -23.12159         5.96327
| 76>    C        3.84203       -22.66417         7.24329
| 77>    C        3.77356       -21.24999         7.34528
| 78>    C        3.80743       -20.88942         8.77330
| 79>    O        3.81363       -19.81651         9.31424
| 80>    N        3.86048       -22.11477         9.43201
| 81>    C        3.88629       -23.23205         8.60736
| 82>    O        3.93751       -24.37268         8.97781
| 83>    H       -2.23990         0.40923         5.43556
| 84>    H        0.50130         3.27063         8.84156
| 85>    H        3.64664        -3.57341         9.38427
| 86>    H        4.09926        -4.16340         6.84055
| 87>    H        1.97793        -0.36675         4.75635
| 88>    H        2.63799        -0.74022         2.22485
| 89>    H        2.74191        -5.07635         5.40369
| 90>    H        3.87433        -5.73426         2.63250
| 91>    H        3.79120        -7.57754         1.37122
| 92>    H        4.28823        -9.27409         1.57935
| 93>    H        5.97483        -6.83575         2.35936
| 94>    H        6.23137        -7.87193         0.95678
| 95>    H        6.44119        -8.52914         2.58216
| 96>    H        1.19829        -9.45108         8.80614
| 97>    H        1.39419        -7.68550         8.85287
| 98>    H        3.63714        -9.67870         9.48489
| 99>    H        2.69473        -8.77877        10.67954
|100>    H        3.74804        -7.91809         9.55621
|101>    H        2.37551       -11.20028         7.98083
|102>    H        3.42344       -11.84174         5.16025
|103>    H        3.66578       -14.37547         4.67488
|104>    H        2.35958       -13.40645         8.68987
|105>    H        3.26420       -18.26115         7.73673
|106>    H        4.00244       -19.27961         3.59521
|107>    H        3.91237       -24.13153         5.60779
|108>    H        3.88842       -22.18183        10.43990
|109> *
|110>
|111>                          ****END OF INPUT****

CARTESIAN COORDINATES (ANGSTROEM)
---------------------------------
  C     -1.340180    0.205770    5.981190
  S     -0.551690   -1.316870    5.800680
  C      0.711670   -0.885830    6.942750
  C      0.486090    0.380120    7.403070
  C     -0.670690    0.997460    6.858400
  C     -0.787860    2.348460    7.448190
  O     -1.609960    3.206710    7.278410
  N      0.318290    2.447790    8.284350
  C      1.147280    1.331050    8.312500
  O      2.175960    1.238630    8.925570
  C      1.746980   -1.803130    7.319020
  C      2.130060   -2.153340    8.592840
  N      1.577490   -1.724090    9.823300
  O      2.159040   -2.061540   10.834550
  O      0.540970   -1.087060    9.802600
  C      3.159680   -3.167870    8.518600
  C      3.361160   -3.485370    7.219290
  C      2.528680   -2.639410    6.401410
  C      2.562890   -2.494660    5.030650
  C      2.289610   -1.291140    4.311720
  C      2.659770   -1.468240    3.014080
  C      3.121600   -2.810460    2.826900
  N      3.534130   -3.223330    1.548020
  O      4.181690   -4.253550    1.422130
  O      3.237570   -2.501710    0.612120
  C      3.044280   -3.495730    4.051070
  C      3.093830   -4.853300    4.405380
  C      3.495600   -5.912570    3.626770
  C      3.451410   -7.237260    4.081280
  N      3.844320   -8.310070    3.320270
  C      4.386140   -8.261710    1.980340
  C      5.853650   -7.845010    1.974400
  C      3.709730   -9.524960    4.003940
  O      3.992290  -10.604860    3.531360
  C      3.178250   -9.148290    5.304790
  C      3.027170   -7.755190    5.324570
  C      2.496570   -7.380600    6.623010
  O      2.190590   -6.304990    7.095150
  N      2.369570   -8.597340    7.311380
  C      1.912330   -8.632840    8.681090
  C      3.074370   -8.764730    9.661990
  C      2.765970   -9.668410    6.547940
  C      2.723960  -11.005740    6.977060
  C      3.085290  -12.049770    6.167500
  C      3.042860  -13.408710    6.535970
  C      3.350570  -14.466730    5.696010
  C      3.206940  -15.690020    6.405770
  C      2.770140  -15.321690    7.766850
  C      2.668400  -13.969720    7.829220
  C      2.423140  -16.187370    8.814160
  N      2.090110  -16.838170    9.698800
  C      3.424920  -16.965010    5.934020
  C      3.412440  -18.183050    6.677290
  C      3.654730  -19.227430    5.815190
  C      3.816190  -18.687290    4.472200
  C      3.703550  -17.336030    4.532340
  C      3.795760  -16.475540    3.432090
  N      3.876760  -15.804400    2.503780
  C      3.740020  -20.610760    6.126410
  S      3.803880  -21.815340    4.847660
  C      3.863430  -23.121590    5.963270
  C      3.842030  -22.664170    7.243290
  C      3.773560  -21.249990    7.345280
  C      3.807430  -20.889420    8.773300
  O      3.813630  -19.816510    9.314240
  N      3.860480  -22.114770    9.432010
  C      3.886290  -23.232050    8.607360
  O      3.937510  -24.372680    8.977810
  H     -2.239900    0.409230    5.435560
  H      0.501300    3.270630    8.841560
  H      3.646640   -3.573410    9.384270
  H      4.099260   -4.163400    6.840550
  H      1.977930   -0.366750    4.756350
  H      2.637990   -0.740220    2.224850
  H      2.741910   -5.076350    5.403690
  H      3.874330   -5.734260    2.632500
  H      3.791200   -7.577540    1.371220
  H      4.288230   -9.274090    1.579350
  H      5.974830   -6.835750    2.359360
  H      6.231370   -7.871930    0.956780
  H      6.441190   -8.529140    2.582160
  H      1.198290   -9.451080    8.806140
  H      1.394190   -7.685500    8.852870
  H      3.637140   -9.678700    9.484890
  H      2.694730   -8.778770   10.679540
  H      3.748040   -7.918090    9.556210
  H      2.375510  -11.200280    7.980830
  H      3.423440  -11.841740    5.160250
  H      3.665780  -14.375470    4.674880
  H      2.359580  -13.406450    8.689870
  H      3.264200  -18.261150    7.736730
  H      4.002440  -19.279610    3.595210
  H      3.912370  -24.131530    5.607790
  H      3.888420  -22.181830   10.439900

 Total Charge           Charge          ....    0
 Multiplicity           Mult            ....    1
 Number of Electrons    NEL             ....  482
 Basis Dimension        Dim             .... 1090

ORBITAL ENERGIES
----------------

  NO   OCC          E(Eh)            E(eV)
   0   2.0000     -88.994446     -2421.6620
   1   2.0000     -88.984376     -2421.3880
   2   2.0000     -19.244375      -523.6661
   3   2.0000     -19.242563      -523.6168
   4   2.0000     -19.240793      -523.5686
   5   2.0000     -19.237384      -523.4758
   6   2.0000     -19.220187      -523.0079
   7   2.0000     -19.216347      -522.9034
   8   2.0000     -19.215956      -522.8927
   9   2.0000     -19.208621      -522.6932
  10   2.0000     -19.207980      -522.6757
  11   2.0000     -19.206291      -522.6297
  12   2.0000     -14.652596      -398.7174
  13   2.0000     -14.647789      -398.5866
  14   2.0000     -14.474361      -393.8674
  15   2.0000     -14.467149      -393.6711
  16   2.0000     -14.461738      -393.5239
  17   2.0000     -14.452814      -393.2811
  18   2.0000     -14.415164      -392.2566
  19   2.0000     -14.412226      -392.1766
  20   2.0000     -10.406848      -283.1847
  21   2.0000     -10.404430      -283.1189
  22   2.0000     -10.396734      -282.9095
  23   2.0000     -10.396221      -282.8956
  24   2.0000     -10.395286      -282.8701
  25   2.0000     -10.389422      -282.7105
  26   2.0000     -10.361005      -281.9373
  27   2.0000     -10.353372      -281.7296
  28   2.0000     -10.345840      -281.5246
  29   2.0000     -10.336028      -281.2576
  30   2.0000     -10.335767      -281.2505
  31   2.0000     -10.335767      -281.2505
  32   2.0000     -10.334754      -281.2230
  33   2.0000     -10.333568      -281.1907
  34   2.0000     -10.332967      -281.1743
  35   2.0000     -10.332882      -281.1720
  36   2.0000     -10.330682      -281.1121
  37   2.0000     -10.328783      -281.0605
  38   2.0000     -10.326439      -280.9967
  39   2.0000     -10.325919      -280.9825
  40   2.0000     -10.325560      -280.9728
  41   2.0000     -10.325445      -280.9696
  42   2.0000     -10.322812      -280.8980
  43   2.0000     -10.320068      -280.8233
  44   2.0000     -10.318706      -280.7863
  45   2.0000     -10.318628      -280.7841
  46   2.0000     -10.316775      -280.7337
  47   2.0000     -10.313566      -280.6464
  48   2.0000     -10.313066      -280.6328
  49   2.0000     -10.312699      -280.6228
  50   2.0000     -10.312573      -280.6194
  51   2.0000     -10.311276      -280.5841
  52   2.0000     -10.307292      -280.4757
  53   2.0000     -10.307035      -280.4687
  54   2.0000     -10.306064      -280.4423
  55   2.0000     -10.304451      -280.3984
  56   2.0000     -10.302529      -280.3461
  57   2.0000     -10.298070      -280.2247
  58   2.0000     -10.295725      -280.1609
  59   2.0000     -10.295254      -280.1481
  60   2.0000     -10.295080      -280.1434
  61   2.0000     -10.293314      -280.0953
  62   2.0000     -10.290155      -280.0094
  63   2.0000     -10.288153      -279.9549
  64   2.0000     -10.287099      -279.9262
  65   2.0000     -10.283965      -279.8409
  66   2.0000     -10.279092      -279.7083
  67   2.0000     -10.265821      -279.3472
  68   2.0000      -8.089623      -220.1298
  69   2.0000      -8.079302      -219.8490
  70   2.0000      -6.058931      -164.8719
  71   2.0000      -6.054410      -164.7489
  72   2.0000      -6.052144      -164.6872
  73   2.0000      -6.048702      -164.5936
  74   2.0000      -6.044093      -164.4681
  75   2.0000      -6.041699      -164.4030
  76   2.0000      -1.322591       -35.9895
  77   2.0000      -1.319606       -35.9083
  78   2.0000      -1.164515       -31.6881
  79   2.0000      -1.155422       -31.4406
  80   2.0000      -1.154335       -31.4111
  81   2.0000      -1.145521       -31.1712
  82   2.0000      -1.143380       -31.1129
  83   2.0000      -1.138906       -30.9912
  84   2.0000      -1.137796       -30.9610
  85   2.0000      -1.132822       -30.8256
  86   2.0000      -1.084336       -29.5063
  87   2.0000      -1.073274       -29.2053
  88   2.0000      -1.053820       -28.6759
  89   2.0000      -1.044286       -28.4165
  90   2.0000      -1.026799       -27.9406
  91   2.0000      -1.023469       -27.8500
  92   2.0000      -1.013268       -27.5724
  93   2.0000      -1.004935       -27.3457
  94   2.0000      -1.004369       -27.3303
  95   2.0000      -0.990706       -26.9585
  96   2.0000      -0.990553       -26.9543
  97   2.0000      -0.986831       -26.8530
  98   2.0000      -0.945967       -25.7411
  99   2.0000      -0.929445       -25.2915
 100   2.0000      -0.921306       -25.0700
 101   2.0000      -0.914719       -24.8908
 102   2.0000      -0.896861       -24.4048
 103   2.0000      -0.886272       -24.1167
 104   2.0000      -0.884428       -24.0665
 105   2.0000      -0.881223       -23.9793
 106   2.0000      -0.876545       -23.8520
 107   2.0000      -0.871054       -23.7026
 108   2.0000      -0.868709       -23.6388
 109   2.0000      -0.860810       -23.4238
 110   2.0000      -0.853585       -23.2272
 111   2.0000      -0.839571       -22.8459
 112   2.0000      -0.833971       -22.6935
 113   2.0000      -0.823494       -22.4084
 114   2.0000      -0.812544       -22.1104
 115   2.0000      -0.793574       -21.5942
 116   2.0000      -0.781241       -21.2586
 117   2.0000      -0.773220       -21.0404
 118   2.0000      -0.770276       -20.9603
 119   2.0000      -0.757039       -20.6001
 120   2.0000      -0.749914       -20.4062
 121   2.0000      -0.745175       -20.2772
 122   2.0000      -0.739873       -20.1330
 123   2.0000      -0.738186       -20.0871
 124   2.0000      -0.731975       -19.9180
 125   2.0000      -0.723983       -19.7006
 126   2.0000      -0.722462       -19.6592
 127   2.0000      -0.718116       -19.5409
 128   2.0000      -0.708471       -19.2785
 129   2.0000      -0.693438       -18.8694
 130   2.0000      -0.685827       -18.6623
 131   2.0000      -0.682832       -18.5808
 132   2.0000      -0.674911       -18.3653
 133   2.0000      -0.671948       -18.2846
 134   2.0000      -0.670150       -18.2357
 135   2.0000      -0.665140       -18.0994
 136   2.0000      -0.658041       -17.9062
 137   2.0000      -0.652258       -17.7488
 138   2.0000      -0.639803       -17.4099
 139   2.0000      -0.636751       -17.3269
 140   2.0000      -0.632945       -17.2233
 141   2.0000      -0.628896       -17.1131
 142   2.0000      -0.627852       -17.0847
 143   2.0000      -0.624818       -17.0022
 144   2.0000      -0.610845       -16.6219
 145   2.0000      -0.608047       -16.5458
 146   2.0000      -0.602233       -16.3876
 147   2.0000      -0.598879       -16.2963
 148   2.0000      -0.594098       -16.1662
 149   2.0000      -0.593823       -16.1587
 150   2.0000      -0.593717       -16.1559
 151   2.0000      -0.585925       -15.9438
 152   2.0000      -0.584173       -15.8961
 153   2.0000      -0.580414       -15.7939
 154   2.0000      -0.576586       -15.6897
 155   2.0000      -0.571100       -15.5404
 156   2.0000      -0.566655       -15.4195
 157   2.0000      -0.564548       -15.3621
 158   2.0000      -0.561775       -15.2867
 159   2.0000      -0.560689       -15.2571
 160   2.0000      -0.558649       -15.2016
 161   2.0000      -0.554222       -15.0812
 162   2.0000      -0.550809       -14.9883
 163   2.0000      -0.549895       -14.9634
 164   2.0000      -0.546451       -14.8697
 165   2.0000      -0.543071       -14.7777
 166   2.0000      -0.541034       -14.7223
 167   2.0000      -0.536469       -14.5981
 168   2.0000      -0.535200       -14.5635
 169   2.0000      -0.531335       -14.4584
 170   2.0000      -0.529823       -14.4172
 171   2.0000      -0.527416       -14.3517
 172   2.0000      -0.524721       -14.2784
 173   2.0000      -0.520351       -14.1595
 174   2.0000      -0.517781       -14.0895
 175   2.0000      -0.513250       -13.9662
 176   2.0000      -0.512465       -13.9449
 177   2.0000      -0.511989       -13.9319
 178   2.0000      -0.509133       -13.8542
 179   2.0000      -0.506113       -13.7720
 180   2.0000      -0.503285       -13.6951
 181   2.0000      -0.502814       -13.6823
 182   2.0000      -0.502388       -13.6707
 183   2.0000      -0.496773       -13.5179
 184   2.0000      -0.493561       -13.4305
 185   2.0000      -0.492481       -13.4011
 186   2.0000      -0.489732       -13.3263
 187   2.0000      -0.488970       -13.3055
 188   2.0000      -0.488521       -13.2933
 189   2.0000      -0.484339       -13.1795
 190   2.0000      -0.481134       -13.0923
 191   2.0000      -0.480129       -13.0650
 192   2.0000      -0.478970       -13.0334
 193   2.0000      -0.477464       -12.9925
 194   2.0000      -0.476189       -12.9578
 195   2.0000      -0.473298       -12.8791
 196   2.0000      -0.469756       -12.7827
 197   2.0000      -0.464005       -12.6262
 198   2.0000      -0.460618       -12.5340
 199   2.0000      -0.456865       -12.4319
 200   2.0000      -0.453674       -12.3451
 201   2.0000      -0.453258       -12.3338
 202   2.0000      -0.451790       -12.2938
 203   2.0000      -0.448164       -12.1951
 204   2.0000      -0.445349       -12.1186
 205   2.0000      -0.443889       -12.0788
 206   2.0000      -0.443218       -12.0606
 207   2.0000      -0.439655       -11.9636
 208   2.0000      -0.438309       -11.9270
 209   2.0000      -0.433770       -11.8035
 210   2.0000      -0.430528       -11.7153
 211   2.0000      -0.421215       -11.4618
 212   2.0000      -0.404346       -11.0028
 213   2.0000      -0.395837       -10.7713
 214   2.0000      -0.393058       -10.6957
 215   2.0000      -0.388705       -10.5772
 216   2.0000      -0.387051       -10.5322
 217   2.0000      -0.380130       -10.3439
 218   2.0000      -0.378010       -10.2862
 219   2.0000      -0.373158       -10.1541
 220   2.0000      -0.370905       -10.0928
 221   2.0000      -0.370549       -10.0831
 222   2.0000      -0.370398       -10.0790
 223   2.0000      -0.365846        -9.9552
 224   2.0000      -0.363523        -9.8920
 225   2.0000      -0.362601        -9.8669
 226   2.0000      -0.360417        -9.8074
 227   2.0000      -0.353201        -9.6111
 228   2.0000      -0.351634        -9.5685
 229   2.0000      -0.350519        -9.5381
 230   2.0000      -0.347901        -9.4669
 231   2.0000      -0.343785        -9.3549
 232   2.0000      -0.340429        -9.2636
 233   2.0000      -0.336319        -9.1517
 234   2.0000      -0.335401        -9.1267
 235   2.0000      -0.334243        -9.0952
 236   2.0000      -0.314669        -8.5626
 237   2.0000      -0.307480        -8.3670
 238   2.0000      -0.296979        -8.0812
 239   2.0000      -0.292920        -7.9708
 240   2.0000      -0.244259        -6.6466
 241   0.0000      -0.150545        -4.0965
 242   0.0000      -0.130556        -3.5526
 243   0.0000      -0.085882        -2.3370
 244   0.0000      -0.051952        -1.4137
 245   0.0000      -0.039618        -1.0781

MULLIKEN ATOMIC CHARGES
-----------------------
   0 C :   -0.128891
   1 S :    0.186590
   2 C :   -0.309165
   3 C :    0.090840
   4 C :   -0.010957
   5 C :    0.177413
   6 O :   -0.137483
   7 N :   -0.161706
   8 C :    0.169765
   9 O :   -0.142176
  10 C :    0.056438
  11 C :    0.101692
  12 N :    0.274863
  13 O :   -0.235312
  14 O :   -0.240809
  15 C :    0.009268
  16 C :    0.052552
  17 C :    0.040093
  18 C :   -0.016027
  19 C :    0.018575
  20 C :    0.022807
  21 C :    0.059330
  22 N :    0.281052
  23 O :   -0.260231
  24 O :   -0.245311
  25 C :    0.098254
  26 C :   -0.077024
  27 C :   -0.005034
  28 C :    0.140932
  29 N :   -0.253916
  30 C :    0.094416
  31 C :    0.007136
  32 C :    0.171139
  33 O :   -0.196293
  34 C :   -0.072893
  35 C :   -0.058239
  36 C :    0.164343
  37 O :   -0.195902
  38 N :   -0.255393
  39 C :    0.097088
  40 C :    0.002291
  41 C :    0.158801
  42 C :   -0.029932
  43 C :    0.018583
  44 C :    0.099968
  45 C :   -0.089261
  46 C :    0.113505
  47 C :   -0.083920
  48 C :   -0.009548
  49 C :   -0.186143
  50 N :    0.157933
  51 C :    0.110185
  52 C :   -0.125792
  53 C :    0.104452
  54 C :   -0.023362
  55 C :   -0.084733
  56 C :   -0.187803
  57 N :    0.147891
  58 C :   -0.139917
  59 S :    0.156770
  60 C :   -0.112786
  61 C :   -0.009435
  62 C :   -0.009809
  63 C :    0.185873
  64 O :   -0.133008
  65 N :   -0.156814
  66 C :    0.176958
  67 O :   -0.133732
  68 H :    0.044133
  69 H :    0.140615
  70 H :    0.000729
  71 H :   -0.006956
  72 H :    0.007111
  73 H :    0.008623
  74 H :    0.022683
  75 H :   -0.003031
  76 H :    0.038732
  77 H :    0.046378
  78 H :    0.023124
  79 H :    0.030136
  80 H :    0.025278
  81 H :    0.028592
  82 H :    0.047950
  83 H :    0.016530
  84 H :    0.031864
  85 H :    0.030131
  86 H :   -0.028546
  87 H :    0.019014
  88 H :    0.020291
  89 H :   -0.000315
  90 H :    0.027723
  91 H :    0.008098
  92 H :    0.049308
  93 H :    0.142770
Sum of atomic charges:   -0.0000000

LOEWDIN ATOMIC CHARGES
----------------------
   0 C :   -0.138602
   1 S :    0.484790
   2 C :   -0.148349
   3 C :   -0.081383
   4 C :   -0.096306
   5 C :    0.085125
   6 O :   -0.152412
   7 N :   -0.001113
   8 C :    0.083214
   9 O :   -0.155693
  10 C :   -0.023222
  11 C :   -0.011699
  12 N :    0.287814
  13 O :   -0.196365
  14 O :   -0.201071
  15 C :    0.011742
  16 C :   -0.020264
  17 C :    0.039127
  18 C :    0.042422
  19 C :   -0.047323
  20 C :    0.020256
  21 C :   -0.049308
  22 N :    0.287239
  23 O :   -0.222070
  24 O :   -0.208374
  25 C :    0.006628
  26 C :    0.006218
  27 C :   -0.005999
  28 C :    0.067158
  29 N :    0.007641
  30 C :    0.038958
  31 C :   -0.058072
  32 C :    0.078916
  33 O :   -0.186144
  34 C :   -0.109454
  35 C :   -0.100833
  36 C :    0.081818
  37 O :   -0.182922
  38 N :    0.003234
  39 C :    0.037621
  40 C :   -0.059846
  41 C :    0.081022
  42 C :   -0.043640
  43 C :    0.045430
  44 C :   -0.021891
  45 C :    0.000442
  46 C :    0.037174
  47 C :   -0.070307
  48 C :    0.049168
  49 C :   -0.038362
  50 N :   -0.042288
  51 C :    0.039876
  52 C :   -0.003270
  53 C :   -0.036823
  54 C :    0.042604
  55 C :   -0.077429
  56 C :   -0.034154
  57 N :   -0.053703
  58 C :   -0.133541
  59 S :    0.473180
  60 C :   -0.135631
  61 C :   -0.093811
  62 C :   -0.087600
  63 C :    0.089017
  64 O :   -0.140571
  65 N :   -0.001130
  66 C :    0.083518
  67 O :   -0.149282
  68 H :    0.037114
  69 H :    0.096211
  70 H :    0.037760
  71 H :    0.030298
  72 H :    0.030819
  73 H :    0.039634
  74 H :    0.039153
  75 H :    0.028265
  76 H :    0.029589
  77 H :    0.039088
  78 H :    0.025382
  79 H :    0.034881
  80 H :    0.030045
  81 H :    0.025027
  82 H :    0.039644
  83 H :    0.022287
  84 H :    0.034283
  85 H :    0.032513
  86 H :    0.028653
  87 H :    0.043892
  88 H :    0.041777
  89 H :    0.034969
  90 H :    0.037434
  91 H :    0.033192
  92 H :    0.039225
  93 H :    0.097764

  Mayer bond orders larger than 0.100000
B(  0-C ,  1-S ) :   1.1824 B(  0-C ,  4-C ) :   1.5614 B(  0-C , 68-H ) :   0.9688
B(  1-S ,  2-C ) :   1.1642 B(  2-C ,  3-C ) :   1.5668 B(  2-C , 10-C ) :   1.0309
B(  3-C ,  4-C ) :   1.2471 B(  3-C ,  8-C ) :   0.8759 B(  4-C ,  5-C ) :   0.8687
B(  5-C ,  6-O ) :   2.2857 B(  5-C ,  7-N ) :   1.0755 B(  7-N ,  8-C ) :   1.0810
B(  7-N , 69-H ) :   0.9141 B(  8-C ,  9-O ) :   2.2665 B( 10-C , 11-C ) :   1.6244
B( 10-C , 17-C ) :   1.0725 B( 11-C , 12-N ) :   0.9214 B( 11-C , 15-C ) :   1.1135
B( 12-N , 13-O ) :   1.5401 B( 12-N , 14-O ) :   1.5219 B( 13-O , 14-O ) :   0.2713
B( 15-C , 16-C ) :   1.6072 B( 15-C , 70-H ) :   1.0131 B( 16-C , 17-C ) :   1.1082
B( 16-C , 71-H ) :   1.0004 B( 17-C , 18-C ) :   1.4942 B( 18-C , 19-C ) :   1.1486
B( 18-C , 25-C ) :   1.0051 B( 19-C , 20-C ) :   1.5427 B( 19-C , 72-H ) :   1.0017
B( 20-C , 21-C ) :   1.1610 B( 20-C , 73-H ) :   1.0081 B( 21-C , 22-N ) :   0.9657
B( 21-C , 25-C ) :   1.4125 B( 22-N , 23-O ) :   1.4537 B( 22-N , 24-O ) :   1.5371
B( 23-O , 24-O ) :   0.2463 B( 23-O , 75-H ) :   0.1103 B( 25-C , 26-C ) :   1.2206
B( 26-C , 27-C ) :   1.4989 B( 26-C , 74-H ) :   0.9432 B( 27-C , 28-C ) :   1.2047
B( 27-C , 75-H ) :   0.9386 B( 28-C , 29-N ) :   1.1645 B( 28-C , 35-C ) :   1.2569
B( 29-N , 30-C ) :   0.9319 B( 29-N , 32-C ) :   1.0722 B( 30-C , 31-C ) :   1.1262
B( 30-C , 76-H ) :   0.9475 B( 30-C , 77-H ) :   0.9283 B( 31-C , 78-H ) :   0.9680
B( 31-C , 79-H ) :   0.9671 B( 31-C , 80-H ) :   0.9629 B( 32-C , 33-O ) :   2.0334
B( 32-C , 34-C ) :   0.9753 B( 33-O , 87-H ) :   0.1155 B( 34-C , 35-C ) :   1.3199
B( 34-C , 41-C ) :   1.2814 B( 35-C , 36-C ) :   0.9783 B( 36-C , 37-O ) :   2.0259
B( 36-C , 38-N ) :   1.0644 B( 38-N , 39-C ) :   0.9392 B( 38-N , 41-C ) :   1.1628
B( 39-C , 40-C ) :   1.1191 B( 39-C , 81-H ) :   0.9497 B( 39-C , 82-H ) :   0.9285
B( 40-C , 83-H ) :   0.9691 B( 40-C , 84-H ) :   0.9684 B( 40-C , 85-H ) :   0.9640
B( 41-C , 42-C ) :   1.1943 B( 42-C , 43-C ) :   1.5151 B( 42-C , 86-H ) :   0.9630
B( 43-C , 44-C ) :   1.1466 B( 43-C , 87-H ) :   0.9538 B( 44-C , 45-C ) :   1.4909
B( 44-C , 48-C ) :   1.0302 B( 45-C , 46-C ) :   1.1163 B( 45-C , 88-H ) :   1.0104
B( 46-C , 47-C ) :   1.0995 B( 46-C , 51-C ) :   1.4042 B( 47-C , 48-C ) :   1.6984
B( 47-C , 49-C ) :   1.0837 B( 48-C , 89-H ) :   1.0137 B( 49-C , 50-N ) :   2.9968
B( 51-C , 52-C ) :   1.1010 B( 51-C , 55-C ) :   1.1031 B( 52-C , 53-C ) :   1.5749
B( 52-C , 90-H ) :   0.9906 B( 53-C , 54-C ) :   1.0334 B( 53-C , 58-C ) :   1.1041
B( 54-C , 55-C ) :   1.6861 B( 54-C , 91-H ) :   1.0118 B( 55-C , 56-C ) :   1.0838
B( 56-C , 57-N ) :   2.9773 B( 58-C , 59-S ) :   1.1519 B( 58-C , 62-C ) :   1.5340
B( 59-S , 60-C ) :   1.1729 B( 60-C , 61-C ) :   1.5684 B( 60-C , 92-H ) :   0.9687
B( 61-C , 62-C ) :   1.2538 B( 61-C , 66-C ) :   0.8681 B( 62-C , 63-C ) :   0.8873
B( 63-C , 64-O ) :   2.1979 B( 63-C , 65-N ) :   1.0900 B( 65-N , 66-C ) :   1.0767
B( 65-N , 93-H ) :   0.9141 B( 66-C , 67-O ) :   2.2883

-----------------------------------------------------------------------------
         ABSORPTION SPECTRUM VIA TRANSITION ELECTRIC DIPOLE MOMENTS
-----------------------------------------------------------------------------
State   Energy  Wavelength   fosc         T2         TX        TY        TZ
        (cm-1)    (nm)                  (au**2)     (au)      (au)      (au)
-----------------------------------------------------------------------------
   0    5795.5   1725.5   0.401188502  22.78932  -0.26950   4.75142  -0.37510
   1   11045.7    905.3   0.213365859   6.35929   0.01683   2.48256  -0.44263
   2   13620.2    734.2   0.010786845   0.26073   0.43541   0.04445  -0.26300
   3   15922.6    628.0   0.109555846   2.26515   0.26023  -1.44858  -0.31470
   4   16995.4    588.4   0.031115897   0.60274   0.30006  -0.03088  -0.71536
   5   18388.2    543.8   0.144694122   2.59052  -0.48744  -0.71966   1.35463
   6   19239.0    519.8   0.057314932   0.98076  -0.09184  -0.89391   0.41624
   7   22737.6    439.8   0.025689827   0.37196   0.16668  -0.51014  -0.28971
   8   22810.6    438.4   0.028827497   0.41605  -0.20184   0.51770   0.32756
   9   23518.2    425.2   0.427033046   5.97768  -0.27436   2.42881  -0.05748
  10   24237.9    412.6   0.014833914   0.20148  -0.18495   0.39086   0.12044
  11   24514.3    407.9   0.064673331   0.86852  -0.12943  -0.02963  -0.92244
  12   24887.5    401.8   0.017819149   0.23571  -0.08762  -0.35801  -0.31601
  13   25479.3    392.5   0.124612878   1.61010   0.39190  -0.48707  -1.10421
  14   25901.4    386.1   0.435275507   5.53244   0.34623  -2.25992  -0.55257
  15   26078.5    383.5   0.101245316   1.27811  -0.36840   1.06363   0.10532
  16   26198.6    381.7   0.020452137   0.25700  -0.19248   0.45954  -0.09366
  17   26523.4    377.0   0.002709767   0.03363  -0.02418   0.18023  -0.02383
  18   26948.5    371.1   0.008402824   0.10265  -0.01631  -0.29349   0.12748
  19   27298.4    366.3   0.010871350   0.13111  -0.02749  -0.18176   0.31195
  20   27836.3    359.2   0.153101291   1.81069  -0.32552  -0.22673   1.28581
  21   28171.3    355.0   0.101691530   1.18838  -0.37509   0.02521   1.02325
  22   28555.8    350.2   0.001143879   0.01319   0.04111   0.09766   0.04427
  23   29179.5    342.7   0.010186576   0.11493   0.04625  -0.32445  -0.08672
  24   30015.4    333.2   0.041402667   0.45411   0.21246  -0.17410   0.61535
  25   30477.3    328.1   0.013698587   0.14797  -0.04215   0.13147  -0.35904
  26   30676.5    326.0   0.012742647   0.13675   0.01523   0.21545  -0.30017
  27   30960.4    323.0   0.043228796   0.45967  -0.11898   0.26166   0.61404
  28   31066.4    321.9   0.117819697   1.24854  -0.17811   0.34395   1.04810
  29   31358.6    318.9   0.042090209   0.44188  -0.28906   0.42084   0.42569
  30   31552.7    316.9   0.011028248   0.11507  -0.02981  -0.04259  -0.33521
  31   31887.1    313.6   0.052484811   0.54187   0.05151  -0.49890   0.53880
  32   31946.6    313.0   0.078413694   0.80806   0.09309  -0.72271   0.52639
  33   32011.8    312.4   0.052917343   0.54421  -0.06706  -0.33015   0.65629
  34   32374.5    308.9   0.001510440   0.01536  -0.02736  -0.10054   0.06710
  35   32496.5    307.7   0.344568046   3.49071  -0.19806   1.85782   0.00131
  36   32880.6    304.1   0.028279345   0.28314  -0.06756  -0.50671   0.14772
  37   33210.3    301.1   0.037297588   0.36973  -0.01008   0.60698  -0.03461
  38   33357.9    299.8   0.004345415   0.04289  -0.19953   0.03994   0.03847
  39   33740.3    296.4   0.091082517   0.88871   0.05508  -0.74315   0.57742
  40   34190.8    292.5   0.014261104   0.13732  -0.17330   0.31650   0.08433
  41   34474.1    290.1   0.036800450   0.35143  -0.13428  -0.07167   0.57294
  42   34753.0    287.7   0.001983307   0.01879   0.00943   0.11398  -0.07555
  43   34877.7    286.7   0.002393051   0.02259  -0.00422   0.14666  -0.03259
  44   34942.8    286.2   0.038747058   0.36505  -0.09239   0.38755  -0.45423
  45   35027.2    285.5   0.247803601   2.32905   0.11628  -0.45322   1.45262
  46   35171.4    284.3   0.019936013   0.18661  -0.01479   0.20542  -0.37972
  47   35371.9    282.7   0.000949377   0.00884   0.09302  -0.00572  -0.01227
  48   36008.8    277.7   0.032827402   0.30013   0.08155  -0.48149  -0.24828
  49   36335.0    275.2   0.008656748   0.07843   0.07340  -0.07889  -0.25850
  50   36580.4    273.4   0.017683857   0.15915   0.01742   0.20350   0.34268
  51   36930.2    270.8   0.052930891   0.47185   0.00793   0.09621  -0.68010
  52   37330.2    267.9   0.030140975   0.26581  -0.01809  -0.10311   0.50483
  53   37422.1    267.2   0.071416641   0.62827  -0.07232   0.71798  -0.32795
  54   37562.1    266.2   0.021762239   0.19073   0.15871  -0.40552   0.03318
  55   37815.9    264.4   0.004299957   0.03743   0.08357   0.00720  -0.17435
  56   38197.2    261.8   0.005729663   0.04938  -0.03706  -0.06094  -0.21047
  57   38307.9    261.0   0.002053529   0.01765   0.00488  -0.08011  -0.10586
  58   38427.8    260.2   0.068159194   0.58392   0.03013   0.53918  -0.54065
  59   38613.4    259.0   0.145020105   1.23642  -0.10918   1.10631  -0.02428
  60   38979.2    256.5   0.054277175   0.45842   0.15390  -0.54196  -0.37551
  61   39120.0    255.6   0.018152824   0.15276  -0.11882   0.36063  -0.09269
  62   39374.8    254.0   0.058187310   0.48650  -0.21248   0.22015   0.62681
  63   39526.4    253.0   0.055212031   0.45986  -0.09872   0.18669   0.64440
  64   39875.8    250.8   0.009727158   0.08031  -0.06393  -0.03694   0.27360
  65   39919.7    250.5   0.007156306   0.05902   0.07921  -0.17268  -0.15141
  66   40293.4    248.2   0.010547970   0.08618   0.10054  -0.27261   0.04193

FINAL SINGLE POINT ENERGY     -3827.158244358367

DIPOLE MOMENT
-------------
                                X             Y             Z
Electronic contribution:    -13.09652      -8.41697       4.67722
Nuclear contribution   :     13.45750       6.26297      -5.46382
                        -----------------------------------------
Total Dipole Moment    :      0.36098      -2.15401      -0.78660
                        -----------------------------------------
Magnitude (a.u.)       :      2.32138
Magnitude (Debye)      :      5.90047

Rotational constants in cm-1:     0.002513     0.000269     0.000249
Rotational constants in MHz :    75.337240     8.061404     7.459636

                             ****ORCA TERMINATED NORMALLY****
TOTAL RUN TIME: 0 days 0 hours 13 minutes 33 seconds 282 msec
