                         Program Version 4.2.0 -  RELEASE  -
|  1> # ORCA input file
|  2> # SCF done       -129.545517750929          0.000598843299
|  3> ! CAM-B3LYP def2-SVP def2/J RIJCOSX Grid4 TightSCF
|  4> %maxcore 5000
|  5> %tddft
|  6>     Mode sTDDFT
|  7>     Ethresh 5.0
|  8>     maxcore 5000
|  9> end
| 10>
| 11> %pal
| 12>   nprocs 6
| 13>   end
| 14> * xyz 0 1
| 15>    C        1.89304         1.30474        -1.89034
| 16>    S        1.36304        -0.14717        -2.64409
| 17>    C        0.95280        -0.85568        -1.10908
| 18>    C        1.23199         0.03329        -0.07392
| 19>    C        1.76780         1.26054        -0.54287
| 20>    C        1.01712        -0.21910         1.34391
| 21>    O        1.26954         0.56942         2.22160
| 22>    C        0.41265        -2.16625        -1.02144
| 23>    C        0.17441        -2.96900        -2.08227
| 24>    C       -0.37010        -4.27475        -1.93946
| 25>    S       -0.66959        -5.32630        -3.31786
| 26>    C       -1.25551        -6.48992        -2.13432
| 27>    N       -1.18307        -6.03390        -0.91241
| 28>    N       -0.70219        -4.83118        -0.80610
| 29>    C       -1.74444        -7.76920        -2.50730
| 30>    C       -2.20938        -8.65035        -1.58736
| 31>    C       -2.70856        -9.93108        -1.93418
| 32>    N       -3.18386       -10.83896        -1.01443
| 33>    C       -3.19707       -10.68347         0.41995
| 34>    C       -1.81563       -10.91019         1.02892
| 35>    C       -3.63163       -12.02159        -1.62337
| 36>    O       -4.10074       -12.95896        -1.00542
| 37>    C       -3.40949       -11.80483        -3.03501
| 38>    C       -2.84236       -10.51238        -3.19185
| 39>    C       -2.62117       -10.29287        -4.60236
| 40>    O       -2.15898        -9.35390        -5.22157
| 41>    N       -3.06605       -11.47818        -5.21261
| 42>    C       -3.05747       -11.62388        -6.64772
| 43>    C       -4.43935       -11.38597        -7.25220
| 44>    C       -3.54289       -12.38517        -4.29309
| 45>    C       -4.05155       -13.66483        -4.64448
| 46>    C       -4.54555       -14.52463        -3.72408
| 47>    C       -5.09220       -15.82134        -4.00642
| 48>    C       -5.03169       -16.48000        -5.24618
| 49>    N       -5.57656       -17.65460        -5.45932
| 50>    C       -6.20542       -18.23481        -4.43339
| 51>    N       -6.29732       -17.72067        -3.20298
| 52>    C       -5.75248       -16.54610        -2.99741
| 53>    C       -6.83102       -19.50746        -4.65905
| 54>    S       -7.70329       -20.27145        -3.36962
| 55>    C       -8.11359       -21.61485        -4.38092
| 56>    C       -7.58145       -21.46005        -5.66095
| 57>    C       -6.85741       -20.25652        -5.80278
| 58>    C       -7.72587       -22.40083        -6.76421
| 59>    O       -7.25753       -22.24335        -7.86433
| 60>    C       -8.90926       -22.70219        -3.88360
| 61>    C       -9.40110       -22.77110        -2.64762
| 62>    H        2.26560         2.10361        -2.50028
| 63>    H        2.03879         2.05836         0.12441
| 64>    H        0.59528        -1.21340         1.57940
| 65>    H        0.17671        -2.54463        -0.03714
| 66>    H        0.39367        -2.63896        -3.08811
| 67>    H       -1.73339        -8.01772        -3.55920
| 68>    H       -2.20313        -8.35766        -0.54777
| 69>    H       -3.89335       -11.43754         0.79788
| 70>    H       -3.57654        -9.69085         0.67701
| 71>    H       -1.46607       -11.91264         0.79394
| 72>    H       -1.86901       -10.80492         2.10884
| 73>    H       -1.09633       -10.19179         0.64245
| 74>    H       -2.67906       -12.61461        -6.91497
| 75>    H       -2.35990       -10.86944        -7.02233
| 76>    H       -5.16570       -12.09538        -6.86148
| 77>    H       -4.39212       -11.49156        -8.33251
| 78>    H       -4.77811       -10.38037        -7.01569
| 79>    H       -4.03958       -13.93086        -5.69131
| 80>    H       -4.56244       -14.22660        -2.68349
| 81>    H       -4.51523       -16.05180        -6.09575
| 82>    H       -5.84000       -16.14371        -1.99581
| 83>    H       -6.37579       -19.96084        -6.71656
| 84>    H       -8.31473       -23.30736        -6.52788
| 85>    H       -9.10628       -23.50143        -4.58490
| 86>    H       -9.22237       -21.99023        -1.92725
| 87>    H       -9.99325       -23.60817        -2.32357
| 88> *
| 89>
| 90>                          ****END OF INPUT****

CARTESIAN COORDINATES (ANGSTROEM)
---------------------------------
  C      1.893040    1.304740   -1.890340
  S      1.363040   -0.147170   -2.644090
  C      0.952800   -0.855680   -1.109080
  C      1.231990    0.033290   -0.073920
  C      1.767800    1.260540   -0.542870
  C      1.017120   -0.219100    1.343910
  O      1.269540    0.569420    2.221600
  C      0.412650   -2.166250   -1.021440
  C      0.174410   -2.969000   -2.082270
  C     -0.370100   -4.274750   -1.939460
  S     -0.669590   -5.326300   -3.317860
  C     -1.255510   -6.489920   -2.134320
  N     -1.183070   -6.033900   -0.912410
  N     -0.702190   -4.831180   -0.806100
  C     -1.744440   -7.769200   -2.507300
  C     -2.209380   -8.650350   -1.587360
  C     -2.708560   -9.931080   -1.934180
  N     -3.183860  -10.838960   -1.014430
  C     -3.197070  -10.683470    0.419950
  C     -1.815630  -10.910190    1.028920
  C     -3.631630  -12.021590   -1.623370
  O     -4.100740  -12.958960   -1.005420
  C     -3.409490  -11.804830   -3.035010
  C     -2.842360  -10.512380   -3.191850
  C     -2.621170  -10.292870   -4.602360
  O     -2.158980   -9.353900   -5.221570
  N     -3.066050  -11.478180   -5.212610
  C     -3.057470  -11.623880   -6.647720
  C     -4.439350  -11.385970   -7.252200
  C     -3.542890  -12.385170   -4.293090
  C     -4.051550  -13.664830   -4.644480
  C     -4.545550  -14.524630   -3.724080
  C     -5.092200  -15.821340   -4.006420
  C     -5.031690  -16.480000   -5.246180
  N     -5.576560  -17.654600   -5.459320
  C     -6.205420  -18.234810   -4.433390
  N     -6.297320  -17.720670   -3.202980
  C     -5.752480  -16.546100   -2.997410
  C     -6.831020  -19.507460   -4.659050
  S     -7.703290  -20.271450   -3.369620
  C     -8.113590  -21.614850   -4.380920
  C     -7.581450  -21.460050   -5.660950
  C     -6.857410  -20.256520   -5.802780
  C     -7.725870  -22.400830   -6.764210
  O     -7.257530  -22.243350   -7.864330
  C     -8.909260  -22.702190   -3.883600
  C     -9.401100  -22.771100   -2.647620
  H      2.265600    2.103610   -2.500280
  H      2.038790    2.058360    0.124410
  H      0.595280   -1.213400    1.579400
  H      0.176710   -2.544630   -0.037140
  H      0.393670   -2.638960   -3.088110
  H     -1.733390   -8.017720   -3.559200
  H     -2.203130   -8.357660   -0.547770
  H     -3.893350  -11.437540    0.797880
  H     -3.576540   -9.690850    0.677010
  H     -1.466070  -11.912640    0.793940
  H     -1.869010  -10.804920    2.108840
  H     -1.096330  -10.191790    0.642450
  H     -2.679060  -12.614610   -6.914970
  H     -2.359900  -10.869440   -7.022330
  H     -5.165700  -12.095380   -6.861480
  H     -4.392120  -11.491560   -8.332510
  H     -4.778110  -10.380370   -7.015690
  H     -4.039580  -13.930860   -5.691310
  H     -4.562440  -14.226600   -2.683490
  H     -4.515230  -16.051800   -6.095750
  H     -5.840000  -16.143710   -1.995810
  H     -6.375790  -19.960840   -6.716560
  H     -8.314730  -23.307360   -6.527880
  H     -9.106280  -23.501430   -4.584900
  H     -9.222370  -21.990230   -1.927250
  H     -9.993250  -23.608170   -2.323570

 Total Charge           Charge          ....    0
 Multiplicity           Mult            ....    1
 Number of Electrons    NEL             ....  352
 Basis Dimension        Dim             ....  800

ORBITAL ENERGIES
----------------

  NO   OCC          E(Eh)            E(eV)
   0   2.0000     -88.973748     -2421.0988
   1   2.0000     -88.968894     -2420.9667
   2   2.0000     -88.961206     -2420.7575
   3   2.0000     -19.208432      -522.6880
   4   2.0000     -19.204508      -522.5812
   5   2.0000     -19.194869      -522.3189
   6   2.0000     -19.191107      -522.2166
   7   2.0000     -14.456164      -393.3722
   8   2.0000     -14.453624      -393.3031
   9   2.0000     -14.439356      -392.9149
  10   2.0000     -14.438407      -392.8890
  11   2.0000     -14.418948      -392.3595
  12   2.0000     -14.418478      -392.3467
  13   2.0000     -10.376673      -282.3636
  14   2.0000     -10.374121      -282.2942
  15   2.0000     -10.355420      -281.7853
  16   2.0000     -10.354828      -281.7692
  17   2.0000     -10.351564      -281.6804
  18   2.0000     -10.343846      -281.4704
  19   2.0000     -10.341789      -281.4144
  20   2.0000     -10.340872      -281.3894
  21   2.0000     -10.338338      -281.3205
  22   2.0000     -10.331424      -281.1323
  23   2.0000     -10.328283      -281.0469
  24   2.0000     -10.322492      -280.8893
  25   2.0000     -10.318082      -280.7693
  26   2.0000     -10.312026      -280.6045
  27   2.0000     -10.306910      -280.4653
  28   2.0000     -10.305818      -280.4356
  29   2.0000     -10.302832      -280.3543
  30   2.0000     -10.299773      -280.2711
  31   2.0000     -10.299598      -280.2663
  32   2.0000     -10.297950      -280.2215
  33   2.0000     -10.296618      -280.1852
  34   2.0000     -10.295370      -280.1513
  35   2.0000     -10.294444      -280.1261
  36   2.0000     -10.293891      -280.1110
  37   2.0000     -10.291754      -280.0529
  38   2.0000     -10.286569      -279.9118
  39   2.0000     -10.281461      -279.7728
  40   2.0000     -10.280870      -279.7567
  41   2.0000     -10.279576      -279.7215
  42   2.0000     -10.279049      -279.7071
  43   2.0000     -10.267429      -279.3910
  44   2.0000     -10.262979      -279.2698
  45   2.0000     -10.261760      -279.2367
  46   2.0000     -10.261599      -279.2323
  47   2.0000      -8.070196      -219.6012
  48   2.0000      -8.064837      -219.4554
  49   2.0000      -8.056511      -219.2288
  50   2.0000      -6.038805      -164.3242
  51   2.0000      -6.035488      -164.2340
  52   2.0000      -6.034038      -164.1945
  53   2.0000      -6.032587      -164.1550
  54   2.0000      -6.029718      -164.0770
  55   2.0000      -6.027279      -164.0106
  56   2.0000      -6.025669      -163.9668
  57   2.0000      -6.021467      -163.8524
  58   2.0000      -6.018897      -163.7825
  59   2.0000      -1.142836       -31.0981
  60   2.0000      -1.135625       -30.9019
  61   2.0000      -1.128317       -30.7031
  62   2.0000      -1.121161       -30.5084
  63   2.0000      -1.117796       -30.4168
  64   2.0000      -1.092876       -29.7387
  65   2.0000      -1.065446       -28.9923
  66   2.0000      -1.056770       -28.7562
  67   2.0000      -0.995966       -27.1016
  68   2.0000      -0.991370       -26.9765
  69   2.0000      -0.987101       -26.8604
  70   2.0000      -0.950115       -25.8539
  71   2.0000      -0.935384       -25.4531
  72   2.0000      -0.930228       -25.3128
  73   2.0000      -0.925975       -25.1971
  74   2.0000      -0.899284       -24.4708
  75   2.0000      -0.893260       -24.3068
  76   2.0000      -0.883658       -24.0456
  77   2.0000      -0.874968       -23.8091
  78   2.0000      -0.868783       -23.6408
  79   2.0000      -0.854730       -23.2584
  80   2.0000      -0.849524       -23.1167
  81   2.0000      -0.823054       -22.3964
  82   2.0000      -0.821524       -22.3548
  83   2.0000      -0.819209       -22.2918
  84   2.0000      -0.799101       -21.7446
  85   2.0000      -0.785579       -21.3767
  86   2.0000      -0.762058       -20.7367
  87   2.0000      -0.756536       -20.5864
  88   2.0000      -0.750191       -20.4137
  89   2.0000      -0.744775       -20.2664
  90   2.0000      -0.722147       -19.6506
  91   2.0000      -0.713134       -19.4054
  92   2.0000      -0.710728       -19.3399
  93   2.0000      -0.710106       -19.3230
  94   2.0000      -0.702143       -19.1063
  95   2.0000      -0.690807       -18.7978
  96   2.0000      -0.684076       -18.6147
  97   2.0000      -0.662694       -18.0328
  98   2.0000      -0.655574       -17.8391
  99   2.0000      -0.650813       -17.7095
 100   2.0000      -0.639551       -17.4031
 101   2.0000      -0.634354       -17.2616
 102   2.0000      -0.625249       -17.0139
 103   2.0000      -0.619636       -16.8612
 104   2.0000      -0.615071       -16.7369
 105   2.0000      -0.605308       -16.4713
 106   2.0000      -0.602914       -16.4061
 107   2.0000      -0.598801       -16.2942
 108   2.0000      -0.587537       -15.9877
 109   2.0000      -0.581394       -15.8205
 110   2.0000      -0.574516       -15.6334
 111   2.0000      -0.568757       -15.4767
 112   2.0000      -0.566293       -15.4096
 113   2.0000      -0.562226       -15.2989
 114   2.0000      -0.544315       -14.8116
 115   2.0000      -0.542344       -14.7579
 116   2.0000      -0.536111       -14.5883
 117   2.0000      -0.534171       -14.5355
 118   2.0000      -0.533548       -14.5186
 119   2.0000      -0.530533       -14.4365
 120   2.0000      -0.529451       -14.4071
 121   2.0000      -0.528247       -14.3743
 122   2.0000      -0.525961       -14.3121
 123   2.0000      -0.522266       -14.2116
 124   2.0000      -0.513796       -13.9811
 125   2.0000      -0.511567       -13.9204
 126   2.0000      -0.509238       -13.8571
 127   2.0000      -0.505310       -13.7502
 128   2.0000      -0.504173       -13.7192
 129   2.0000      -0.503725       -13.7070
 130   2.0000      -0.500291       -13.6136
 131   2.0000      -0.498477       -13.5642
 132   2.0000      -0.496959       -13.5229
 133   2.0000      -0.491750       -13.3812
 134   2.0000      -0.489924       -13.3315
 135   2.0000      -0.480706       -13.0807
 136   2.0000      -0.472043       -12.8449
 137   2.0000      -0.471261       -12.8237
 138   2.0000      -0.468889       -12.7591
 139   2.0000      -0.467374       -12.7179
 140   2.0000      -0.459108       -12.4930
 141   2.0000      -0.458946       -12.4885
 142   2.0000      -0.458481       -12.4759
 143   2.0000      -0.457429       -12.4473
 144   2.0000      -0.454870       -12.3777
 145   2.0000      -0.452941       -12.3251
 146   2.0000      -0.450308       -12.2535
 147   2.0000      -0.447905       -12.1881
 148   2.0000      -0.444406       -12.0929
 149   2.0000      -0.440550       -11.9880
 150   2.0000      -0.431780       -11.7493
 151   2.0000      -0.430335       -11.7100
 152   2.0000      -0.427634       -11.6365
 153   2.0000      -0.423551       -11.5254
 154   2.0000      -0.417300       -11.3553
 155   2.0000      -0.409675       -11.1478
 156   2.0000      -0.401787       -10.9332
 157   2.0000      -0.392209       -10.6726
 158   2.0000      -0.389578       -10.6010
 159   2.0000      -0.386597       -10.5198
 160   2.0000      -0.378754       -10.3064
 161   2.0000      -0.368081       -10.0160
 162   2.0000      -0.351145        -9.5551
 163   2.0000      -0.334714        -9.1080
 164   2.0000      -0.331370        -9.0170
 165   2.0000      -0.330722        -8.9994
 166   2.0000      -0.329468        -8.9653
 167   2.0000      -0.328666        -8.9434
 168   2.0000      -0.327794        -8.9197
 169   2.0000      -0.324765        -8.8373
 170   2.0000      -0.324105        -8.8193
 171   2.0000      -0.322737        -8.7821
 172   2.0000      -0.316530        -8.6132
 173   2.0000      -0.282708        -7.6929
 174   2.0000      -0.277480        -7.5506
 175   2.0000      -0.237398        -6.4599
 176   0.0000      -0.093898        -2.5551
 177   0.0000      -0.065272        -1.7761
 178   0.0000      -0.046625        -1.2687
 179   0.0000      -0.027390        -0.7453
 180   0.0000      -0.006753        -0.1838

MULLIKEN ATOMIC CHARGES
-----------------------
   0 C :   -0.049141
   1 S :    0.119487
   2 C :   -0.077232
   3 C :   -0.004627
   4 C :    0.037443
   5 C :    0.147765
   6 O :   -0.183525
   7 C :    0.016384
   8 C :    0.046618
   9 C :   -0.102848
  10 S :    0.119541
  11 C :   -0.113137
  12 N :   -0.042842
  13 N :   -0.052690
  14 C :    0.070878
  15 C :   -0.026949
  16 C :    0.142295
  17 N :   -0.258660
  18 C :    0.098510
  19 C :    0.002840
  20 C :    0.166192
  21 O :   -0.216822
  22 C :   -0.070315
  23 C :   -0.063013
  24 C :    0.165984
  25 O :   -0.211573
  26 N :   -0.261361
  27 C :    0.100372
  28 C :    0.002536
  29 C :    0.135068
  30 C :   -0.005664
  31 C :    0.011931
  32 C :    0.010988
  33 C :    0.039994
  34 N :   -0.042015
  35 C :   -0.064542
  36 N :   -0.059680
  37 C :    0.042432
  38 C :   -0.023399
  39 S :    0.176295
  40 C :   -0.075812
  41 C :    0.011473
  42 C :   -0.013553
  43 C :    0.140901
  44 O :   -0.182367
  45 C :   -0.006604
  46 C :   -0.012065
  47 H :    0.037435
  48 H :    0.007845
  49 H :   -0.015890
  50 H :    0.023446
  51 H :   -0.001168
  52 H :    0.011148
  53 H :    0.002887
  54 H :    0.042276
  55 H :    0.027536
  56 H :    0.026102
  57 H :    0.026227
  58 H :    0.021143
  59 H :    0.022299
  60 H :    0.043629
  61 H :    0.016479
  62 H :    0.026085
  63 H :    0.029287
  64 H :   -0.028654
  65 H :    0.016162
  66 H :    0.005650
  67 H :    0.022784
  68 H :    0.008018
  69 H :   -0.024399
  70 H :    0.000002
  71 H :    0.034612
  72 H :    0.033567
Sum of atomic charges:   -0.0000000

LOEWDIN ATOMIC CHARGES
----------------------
   0 C :   -0.167895
   1 S :    0.448091
   2 C :   -0.150223
   3 C :   -0.109104
   4 C :   -0.032197
   5 C :    0.105484
   6 O :   -0.135347
   7 C :    0.000923
   8 C :   -0.058735
   9 C :   -0.148164
  10 S :    0.400933
  11 C :   -0.153067
  12 N :   -0.073414
  13 N :   -0.078858
  14 C :   -0.011731
  15 C :   -0.014194
  16 C :    0.070833
  17 N :    0.002394
  18 C :    0.036718
  19 C :   -0.060451
  20 C :    0.079346
  21 O :   -0.207125
  22 C :   -0.124470
  23 C :   -0.117569
  24 C :    0.081233
  25 O :   -0.201945
  26 N :   -0.000583
  27 C :    0.036010
  28 C :   -0.061205
  29 C :    0.079476
  30 C :   -0.050013
  31 C :    0.034319
  32 C :   -0.083922
  33 C :    0.062562
  34 N :   -0.075716
  35 C :    0.019098
  36 N :   -0.092614
  37 C :    0.065426
  38 C :   -0.190394
  39 S :    0.484647
  40 C :   -0.137553
  41 C :   -0.122083
  42 C :    0.005922
  43 C :    0.103522
  44 O :   -0.137924
  45 C :   -0.045226
  46 C :   -0.023147
  47 H :    0.028211
  48 H :    0.039357
  49 H :   -0.002105
  50 H :    0.041718
  51 H :    0.026350
  52 H :    0.036909
  53 H :    0.037216
  54 H :    0.037059
  55 H :    0.025337
  56 H :    0.030861
  57 H :    0.031861
  58 H :    0.024410
  59 H :    0.022423
  60 H :    0.037993
  61 H :    0.022111
  62 H :    0.031420
  63 H :    0.032420
  64 H :    0.026152
  65 H :    0.038917
  66 H :    0.024387
  67 H :    0.033564
  68 H :    0.041658
  69 H :   -0.006714
  70 H :    0.033629
  71 H :    0.021838
  72 H :    0.030953

  Mayer bond orders larger than 0.100000
B(  0-C ,  1-S ) :   1.1443 B(  0-C ,  4-C ) :   1.5872 B(  0-C , 47-H ) :   0.9730
B(  1-S ,  2-C ) :   1.1512 B(  2-C ,  3-C ) :   1.4187 B(  2-C ,  7-C ) :   1.1442
B(  3-C ,  4-C ) :   1.2388 B(  3-C ,  5-C ) :   1.0017 B(  4-C , 48-H ) :   0.9984
B(  5-C ,  6-O ) :   2.1763 B(  5-C , 49-H ) :   0.9608 B(  7-C ,  8-C ) :   1.7134
B(  7-C , 50-H ) :   0.9684 B(  8-C ,  9-C ) :   1.1131 B(  8-C , 51-H ) :   0.9495
B(  9-C , 10-S ) :   1.0976 B(  9-C , 13-N ) :   1.6609 B( 10-S , 11-C ) :   1.0965
B( 11-C , 12-N ) :   1.6618 B( 11-C , 14-C ) :   1.1083 B( 12-N , 13-N ) :   1.2372
B( 14-C , 15-C ) :   1.6567 B( 14-C , 52-H ) :   0.9269 B( 15-C , 16-C ) :   1.1312
B( 15-C , 53-H ) :   0.9709 B( 16-C , 17-N ) :   1.1557 B( 16-C , 23-C ) :   1.3482
B( 17-N , 18-C ) :   0.9446 B( 17-N , 20-C ) :   1.0681 B( 18-C , 19-C ) :   1.1215
B( 18-C , 54-H ) :   0.9283 B( 18-C , 55-H ) :   0.9498 B( 19-C , 56-H ) :   0.9638
B( 19-C , 57-H ) :   0.9678 B( 19-C , 58-H ) :   0.9687 B( 20-C , 21-O ) :   2.0165
B( 20-C , 22-C ) :   0.9872 B( 21-O , 65-H ) :   0.1171 B( 22-C , 23-C ) :   1.2499
B( 22-C , 29-C ) :   1.3481 B( 23-C , 24-C ) :   0.9853 B( 24-C , 25-O ) :   2.0277
B( 24-C , 26-N ) :   1.0593 B( 25-O , 52-H ) :   0.1092 B( 26-N , 27-C ) :   0.9473
B( 26-N , 29-C ) :   1.1580 B( 27-C , 28-C ) :   1.1203 B( 27-C , 59-H ) :   0.9496
B( 27-C , 60-H ) :   0.9273 B( 28-C , 61-H ) :   0.9684 B( 28-C , 62-H ) :   0.9678
B( 28-C , 63-H ) :   0.9635 B( 29-C , 30-C ) :   1.1532 B( 30-C , 31-C ) :   1.6223
B( 30-C , 64-H ) :   0.9569 B( 31-C , 32-C ) :   1.0760 B( 31-C , 65-H ) :   0.9597
B( 32-C , 33-C ) :   1.2910 B( 32-C , 37-C ) :   1.3024 B( 33-C , 34-N ) :   1.5884
B( 33-C , 66-H ) :   0.9835 B( 34-N , 35-C ) :   1.5774 B( 35-C , 36-N ) :   1.5764
B( 35-C , 38-C ) :   1.0297 B( 36-N , 37-C ) :   1.5707 B( 37-C , 67-H ) :   0.9867
B( 38-C , 39-S ) :   1.1064 B( 38-C , 42-C ) :   1.5301 B( 39-S , 40-C ) :   1.1604
B( 40-C , 41-C ) :   1.4222 B( 40-C , 45-C ) :   1.1220 B( 41-C , 42-C ) :   1.2039
B( 41-C , 43-C ) :   0.9913 B( 42-C , 68-H ) :   1.0133 B( 43-C , 44-O ) :   2.1854
B( 43-C , 69-H ) :   0.9608 B( 45-C , 46-C ) :   1.9231 B( 45-C , 70-H ) :   0.9621
B( 46-C , 71-H ) :   0.9565 B( 46-C , 72-H ) :   0.9485

-----------------------------------------------------------------------------
         ABSORPTION SPECTRUM VIA TRANSITION ELECTRIC DIPOLE MOMENTS
-----------------------------------------------------------------------------
State   Energy  Wavelength   fosc         T2         TX        TY        TZ
        (cm-1)    (nm)                  (au**2)     (au)      (au)      (au)
-----------------------------------------------------------------------------
   0   15822.6    632.0   1.236226578  25.72153  -1.77016  -4.42276  -1.73990
   1   23806.1    420.1   0.008456327   0.11694   0.05745   0.31769  -0.11277
   2   26077.5    383.5   0.631939743   7.97783  -1.04430  -2.61811  -0.18097
   3   27055.1    369.6   0.334963126   4.07590  -0.88149  -1.81625   0.01019
   4   27486.0    363.8   0.411038030   4.92319   1.01180   1.96260  -0.21832
   5   28245.6    354.0   0.001002280   0.01168   0.00550   0.10776  -0.00633
   6   28567.9    350.0   0.264485800   3.04789  -0.78552  -1.48011   0.49003
   7   29355.4    340.7   0.002429284   0.02724   0.00741  -0.16081   0.03645
   8   30871.3    323.9   0.000648739   0.00692   0.03334   0.07520  -0.01233
   9   30899.8    323.6   0.000073183   0.00078  -0.01482  -0.02357  -0.00214
  10   32595.6    306.8   0.111776713   1.12893  -0.52922  -0.77709   0.49497
  11   32961.7    303.4   0.002244964   0.02242  -0.06462  -0.08965   0.10104
  12   33388.4    299.5   0.110410599   1.08866   0.29569   0.86104   0.50974
  13   34210.0    292.3   0.029270483   0.28168   0.26462   0.34581  -0.30343
  14   34517.6    289.7   0.000113758   0.00108   0.02652   0.00924   0.01721
  15   35202.8    284.1   0.013162171   0.12309   0.05855   0.31563   0.14156
  16   35780.0    279.5   0.005862668   0.05394  -0.22320   0.06326  -0.01103
  17   36016.1    277.7   0.148653845   1.35880   0.66142   0.91415  -0.29268
  18   36878.7    271.2   0.180707142   1.61315  -0.48041  -1.16646   0.14742
  19   37578.9    266.1   0.002734359   0.02395  -0.05019   0.06028   0.13343
  20   38266.0    261.3   0.229169118   1.97160  -0.44736  -1.32464  -0.12962
  21   39063.8    256.0   0.046951396   0.39568  -0.16659  -0.27189  -0.54223
  22   39167.2    255.3   0.008633407   0.07257  -0.12359  -0.09797   0.21839
  23   39673.4    252.1   0.232571824   1.92990  -0.51216  -0.42100   1.22080
  24   40271.2    248.3   0.031923097   0.26097  -0.03398  -0.01833  -0.50939

FINAL SINGLE POINT ENERGY     -3132.427011432392

DIPOLE MOMENT
-------------
                                X             Y             Z
Electronic contribution:      7.57643      16.44302      -1.31006
Nuclear contribution   :     -7.75413     -16.28817       0.55317
                        -----------------------------------------
Total Dipole Moment    :     -0.17770       0.15485      -0.75689
                        -----------------------------------------
Magnitude (a.u.)       :      0.79274
Magnitude (Debye)      :      2.01499

Rotational constants in cm-1:     0.007527     0.000372     0.000356
Rotational constants in MHz :   225.653894    11.160472    10.681958

                             ****ORCA TERMINATED NORMALLY****
TOTAL RUN TIME: 0 days 0 hours 4 minutes 9 seconds 438 msec
