                         Program Version 4.2.0 -  RELEASE  -
|  1> # ORCA input file
|  2> # SCF done       -174.984660385777          0.000985865177
|  3> ! CAM-B3LYP def2-SVP def2/J RIJCOSX Grid4 TightSCF
|  4> %maxcore 5000
|  5> %tddft
|  6>     Mode sTDDFT
|  7>     Ethresh 5.0
|  8>     maxcore 5000
|  9> end
| 10>
| 11> %pal
| 12>   nprocs 6
| 13>   end
| 14> * xyz 0 1
| 15>    C       13.95290       -10.09895         6.69745
| 16>    S       13.50169       -10.28888         5.05198
| 17>    C       12.03138        -9.38453         5.29242
| 18>    C       11.94804        -8.93890         6.61299
| 19>    C       13.04515        -9.37392         7.39821
| 20>    C       10.96215        -8.02140         7.16494
| 21>    O       10.75723        -7.85998         8.34335
| 22>    C       11.14686        -9.29975         4.18629
| 23>    C        9.81643        -9.01722         4.24997
| 24>    C        8.87957        -9.00037         3.18462
| 25>    C        8.88088        -9.55943         1.89570
| 26>    N        9.89843       -10.13213         1.12399
| 27>    O        9.55191       -10.82806         0.18007
| 28>    O       11.07228        -9.90991         1.39032
| 29>    C        7.54951        -9.52030         1.37379
| 30>    C        6.71845        -8.96271         2.30016
| 31>    C        7.49316        -8.58581         3.43221
| 32>    C        7.04681        -7.82520         4.51227
| 33>    C        7.78772        -6.85033         5.21054
| 34>    C        6.94520        -6.18504         6.06866
| 35>    C        5.64471        -6.74291         5.99091
| 36>    N        4.60849        -6.19948         6.75373
| 37>    O        3.44617        -6.53274         6.54150
| 38>    O        4.91129        -5.37179         7.60113
| 39>    C        5.66843        -7.80831         5.05125
| 40>    C        4.79889        -8.85334         4.75582
| 41>    C        3.51880        -9.06333         5.24152
| 42>    C        2.69047       -10.10619         4.83727
| 43>    C        2.83461       -10.92947         3.70629
| 44>    C        1.66520       -11.66374         3.51829
| 45>    O        1.39908       -12.55619         2.55664
| 46>    C        2.42519       -12.84101         1.62676
| 47>    C        0.73199       -11.34442         4.55009
| 48>    C        1.35812       -10.36852         5.39138
| 49>    C        0.83575        -9.76320         6.52145
| 50>    C        1.54306        -9.23703         7.62491
| 51>    C        0.63183        -8.72302         8.52125
| 52>    O        0.95968        -8.22152         9.69849
| 53>    C       -0.05967        -7.73332        10.54758
| 54>    C       -0.71375        -8.85814         7.94595
| 55>    C       -0.59761        -9.50708         6.77885
| 56>    C       -0.50145       -11.98259         4.82237
| 57>    C       -1.16254       -12.82940         3.99236
| 58>    C       -2.43010       -13.44069         4.27408
| 59>    C       -3.13929       -13.24280         5.46145
| 60>    C       -4.38453       -13.80672         5.68058
| 61>    N       -4.96814       -13.42623         6.94396
| 62>    O       -4.23298       -13.43267         7.90928
| 63>    O       -6.12586       -13.06667         6.96748
| 64>    C       -4.98905       -14.66444         4.73701
| 65>    C       -4.24194       -14.87614         3.55932
| 66>    C       -3.03092       -14.28148         3.32060
| 67>    C       -6.20952       -15.42184         4.84665
| 68>    C       -7.23872       -15.33753         5.71566
| 69>    C       -8.37069       -16.20107         5.67412
| 70>    S       -8.53934       -17.49383         4.50726
| 71>    C      -10.08102       -17.95196         5.14389
| 72>    C      -10.43127       -17.15310         6.22483
| 73>    C       -9.46309       -16.16326         6.50242
| 74>    C      -11.59329       -17.35746         7.08351
| 75>    O      -12.02149       -16.54761         7.86647
| 76>    C      -10.81351       -19.00908         4.49772
| 77>    C      -12.14077       -19.09693         4.44109
| 78>    H       14.86592       -10.53665         7.04992
| 79>    H       13.13622        -9.12018         8.43906
| 80>    H       10.42410        -7.41887         6.41045
| 81>    H       11.58791        -9.53630         3.22753
| 82>    H        9.38134        -8.81944         5.22099
| 83>    H        7.29408        -9.86722         0.39028
| 84>    H        5.68506        -8.71375         2.15075
| 85>    H        8.80362        -6.57912         4.99659
| 86>    H        7.19528        -5.35290         6.70013
| 87>    H        5.20445        -9.60600         4.09317
| 88>    H        3.11057        -8.35335         5.94384
| 89>    H        3.69111       -10.94082         3.05926
| 90>    H        2.02421       -13.60416         0.96244
| 91>    H        3.31752       -13.22503         2.12808
| 92>    H        2.68751       -11.95308         1.04501
| 93>    H        2.59456        -9.31898         7.80620
| 94>    H        0.44370        -7.38876        11.44900
| 95>    H       -0.77268        -8.52119        10.80556
| 96>    H       -0.58899        -6.89600        10.08526
| 97>    H       -1.61602        -8.48371         8.39087
| 98>    H       -1.38063        -9.69193         6.06911
| 99>    H       -0.92391       -11.75892         5.79020
|100>    H       -0.73442       -13.05819         3.02814
|101>    H       -2.73067       -12.62505         6.24649
|102>    H       -4.65797       -15.53420         2.81051
|103>    H       -2.51783       -14.46855         2.38889
|104>    H       -6.30276       -16.17834         4.07297
|105>    H       -7.28879       -14.58245         6.48558
|106>    H       -9.57649       -15.45924         7.30742
|107>    H      -12.04930       -18.36213         6.99121
|108>    H      -10.20283       -19.74313         3.98672
|109>    H      -12.78537       -18.34482         4.86210
|110>    H      -12.62136       -19.91705         3.93685
|111> *
|112>
|113>                          ****END OF INPUT****

CARTESIAN COORDINATES (ANGSTROEM)
---------------------------------
  C     13.952900  -10.098950    6.697450
  S     13.501690  -10.288880    5.051980
  C     12.031380   -9.384530    5.292420
  C     11.948040   -8.938900    6.612990
  C     13.045150   -9.373920    7.398210
  C     10.962150   -8.021400    7.164940
  O     10.757230   -7.859980    8.343350
  C     11.146860   -9.299750    4.186290
  C      9.816430   -9.017220    4.249970
  C      8.879570   -9.000370    3.184620
  C      8.880880   -9.559430    1.895700
  N      9.898430  -10.132130    1.123990
  O      9.551910  -10.828060    0.180070
  O     11.072280   -9.909910    1.390320
  C      7.549510   -9.520300    1.373790
  C      6.718450   -8.962710    2.300160
  C      7.493160   -8.585810    3.432210
  C      7.046810   -7.825200    4.512270
  C      7.787720   -6.850330    5.210540
  C      6.945200   -6.185040    6.068660
  C      5.644710   -6.742910    5.990910
  N      4.608490   -6.199480    6.753730
  O      3.446170   -6.532740    6.541500
  O      4.911290   -5.371790    7.601130
  C      5.668430   -7.808310    5.051250
  C      4.798890   -8.853340    4.755820
  C      3.518800   -9.063330    5.241520
  C      2.690470  -10.106190    4.837270
  C      2.834610  -10.929470    3.706290
  C      1.665200  -11.663740    3.518290
  O      1.399080  -12.556190    2.556640
  C      2.425190  -12.841010    1.626760
  C      0.731990  -11.344420    4.550090
  C      1.358120  -10.368520    5.391380
  C      0.835750   -9.763200    6.521450
  C      1.543060   -9.237030    7.624910
  C      0.631830   -8.723020    8.521250
  O      0.959680   -8.221520    9.698490
  C     -0.059670   -7.733320   10.547580
  C     -0.713750   -8.858140    7.945950
  C     -0.597610   -9.507080    6.778850
  C     -0.501450  -11.982590    4.822370
  C     -1.162540  -12.829400    3.992360
  C     -2.430100  -13.440690    4.274080
  C     -3.139290  -13.242800    5.461450
  C     -4.384530  -13.806720    5.680580
  N     -4.968140  -13.426230    6.943960
  O     -4.232980  -13.432670    7.909280
  O     -6.125860  -13.066670    6.967480
  C     -4.989050  -14.664440    4.737010
  C     -4.241940  -14.876140    3.559320
  C     -3.030920  -14.281480    3.320600
  C     -6.209520  -15.421840    4.846650
  C     -7.238720  -15.337530    5.715660
  C     -8.370690  -16.201070    5.674120
  S     -8.539340  -17.493830    4.507260
  C    -10.081020  -17.951960    5.143890
  C    -10.431270  -17.153100    6.224830
  C     -9.463090  -16.163260    6.502420
  C    -11.593290  -17.357460    7.083510
  O    -12.021490  -16.547610    7.866470
  C    -10.813510  -19.009080    4.497720
  C    -12.140770  -19.096930    4.441090
  H     14.865920  -10.536650    7.049920
  H     13.136220   -9.120180    8.439060
  H     10.424100   -7.418870    6.410450
  H     11.587910   -9.536300    3.227530
  H      9.381340   -8.819440    5.220990
  H      7.294080   -9.867220    0.390280
  H      5.685060   -8.713750    2.150750
  H      8.803620   -6.579120    4.996590
  H      7.195280   -5.352900    6.700130
  H      5.204450   -9.606000    4.093170
  H      3.110570   -8.353350    5.943840
  H      3.691110  -10.940820    3.059260
  H      2.024210  -13.604160    0.962440
  H      3.317520  -13.225030    2.128080
  H      2.687510  -11.953080    1.045010
  H      2.594560   -9.318980    7.806200
  H      0.443700   -7.388760   11.449000
  H     -0.772680   -8.521190   10.805560
  H     -0.588990   -6.896000   10.085260
  H     -1.616020   -8.483710    8.390870
  H     -1.380630   -9.691930    6.069110
  H     -0.923910  -11.758920    5.790200
  H     -0.734420  -13.058190    3.028140
  H     -2.730670  -12.625050    6.246490
  H     -4.657970  -15.534200    2.810510
  H     -2.517830  -14.468550    2.388890
  H     -6.302760  -16.178340    4.072970
  H     -7.288790  -14.582450    6.485580
  H     -9.576490  -15.459240    7.307420
  H    -12.049300  -18.362130    6.991210
  H    -10.202830  -19.743130    3.986720
  H    -12.785370  -18.344820    4.862100
  H    -12.621360  -19.917050    3.936850

 Total Charge           Charge          ....    0
 Multiplicity           Mult            ....    1
 Number of Electrons    NEL             ....  454
 Basis Dimension        Dim             .... 1055

ORBITAL ENERGIES
----------------

  NO   OCC          E(Eh)            E(eV)
   0   2.0000     -88.968294     -2420.9504
   1   2.0000     -88.956746     -2420.6361
   2   2.0000     -19.286188      -524.8038
   3   2.0000     -19.280075      -524.6375
   4   2.0000     -19.255929      -523.9805
   5   2.0000     -19.254204      -523.9335
   6   2.0000     -19.219675      -522.9939
   7   2.0000     -19.216487      -522.9072
   8   2.0000     -19.211636      -522.7752
   9   2.0000     -19.209347      -522.7129
  10   2.0000     -19.207459      -522.6615
  11   2.0000     -19.198659      -522.4221
  12   2.0000     -14.658092      -398.8670
  13   2.0000     -14.627132      -398.0245
  14   2.0000     -14.621676      -397.8760
  15   2.0000     -10.369155      -282.1590
  16   2.0000     -10.358067      -281.8573
  17   2.0000     -10.353500      -281.7331
  18   2.0000     -10.346396      -281.5397
  19   2.0000     -10.345901      -281.5263
  20   2.0000     -10.344825      -281.4970
  21   2.0000     -10.340227      -281.3719
  22   2.0000     -10.324096      -280.9329
  23   2.0000     -10.324050      -280.9317
  24   2.0000     -10.318160      -280.7714
  25   2.0000     -10.311127      -280.5800
  26   2.0000     -10.310199      -280.5548
  27   2.0000     -10.309315      -280.5307
  28   2.0000     -10.307313      -280.4762
  29   2.0000     -10.307256      -280.4747
  30   2.0000     -10.304113      -280.3892
  31   2.0000     -10.303399      -280.3697
  32   2.0000     -10.302846      -280.3547
  33   2.0000     -10.302522      -280.3459
  34   2.0000     -10.301443      -280.3165
  35   2.0000     -10.300553      -280.2923
  36   2.0000     -10.299043      -280.2512
  37   2.0000     -10.298993      -280.2498
  38   2.0000     -10.298589      -280.2389
  39   2.0000     -10.298537      -280.2374
  40   2.0000     -10.297468      -280.2084
  41   2.0000     -10.296659      -280.1863
  42   2.0000     -10.295748      -280.1615
  43   2.0000     -10.294636      -280.1313
  44   2.0000     -10.294205      -280.1196
  45   2.0000     -10.294052      -280.1154
  46   2.0000     -10.293305      -280.0951
  47   2.0000     -10.291778      -280.0535
  48   2.0000     -10.290873      -280.0289
  49   2.0000     -10.290352      -280.0147
  50   2.0000     -10.289362      -279.9878
  51   2.0000     -10.287639      -279.9409
  52   2.0000     -10.287591      -279.9396
  53   2.0000     -10.284785      -279.8632
  54   2.0000     -10.284457      -279.8543
  55   2.0000     -10.282344      -279.7968
  56   2.0000     -10.280322      -279.7418
  57   2.0000     -10.274153      -279.5739
  58   2.0000     -10.273273      -279.5500
  59   2.0000     -10.272006      -279.5155
  60   2.0000     -10.264310      -279.3061
  61   2.0000     -10.263793      -279.2920
  62   2.0000     -10.261782      -279.2373
  63   2.0000      -8.064092      -219.4351
  64   2.0000      -8.052893      -219.1304
  65   2.0000      -6.033177      -164.1711
  66   2.0000      -6.029185      -164.0625
  67   2.0000      -6.026453      -163.9881
  68   2.0000      -6.022059      -163.8686
  69   2.0000      -6.017699      -163.7499
  70   2.0000      -6.015358      -163.6862
  71   2.0000      -1.335052       -36.3286
  72   2.0000      -1.295884       -35.2628
  73   2.0000      -1.288820       -35.0706
  74   2.0000      -1.192486       -32.4492
  75   2.0000      -1.184478       -32.2313
  76   2.0000      -1.153232       -31.3810
  77   2.0000      -1.121101       -30.5067
  78   2.0000      -1.111741       -30.2520
  79   2.0000      -1.111539       -30.2465
  80   2.0000      -1.104205       -30.0469
  81   2.0000      -1.004383       -27.3306
  82   2.0000      -0.998701       -27.1760
  83   2.0000      -0.996107       -27.1054
  84   2.0000      -0.993993       -27.0479
  85   2.0000      -0.982610       -26.7382
  86   2.0000      -0.979439       -26.6519
  87   2.0000      -0.974271       -26.5113
  88   2.0000      -0.931283       -25.3415
  89   2.0000      -0.915939       -24.9240
  90   2.0000      -0.908254       -24.7148
  91   2.0000      -0.898297       -24.4439
  92   2.0000      -0.893821       -24.3221
  93   2.0000      -0.889649       -24.2086
  94   2.0000      -0.882335       -24.0096
  95   2.0000      -0.870059       -23.6755
  96   2.0000      -0.862556       -23.4713
  97   2.0000      -0.860410       -23.4130
  98   2.0000      -0.851636       -23.1742
  99   2.0000      -0.848222       -23.0813
 100   2.0000      -0.842128       -22.9155
 101   2.0000      -0.834519       -22.7084
 102   2.0000      -0.833052       -22.6685
 103   2.0000      -0.821516       -22.3546
 104   2.0000      -0.812463       -22.1082
 105   2.0000      -0.799438       -21.7538
 106   2.0000      -0.791556       -21.5393
 107   2.0000      -0.790746       -21.5173
 108   2.0000      -0.773632       -21.0516
 109   2.0000      -0.763906       -20.7869
 110   2.0000      -0.754139       -20.5212
 111   2.0000      -0.737381       -20.0652
 112   2.0000      -0.728988       -19.8368
 113   2.0000      -0.717605       -19.5270
 114   2.0000      -0.716053       -19.4848
 115   2.0000      -0.711619       -19.3641
 116   2.0000      -0.704301       -19.1650
 117   2.0000      -0.694695       -18.9036
 118   2.0000      -0.685555       -18.6549
 119   2.0000      -0.684808       -18.6346
 120   2.0000      -0.675617       -18.3845
 121   2.0000      -0.665223       -18.1016
 122   2.0000      -0.658977       -17.9317
 123   2.0000      -0.653845       -17.7920
 124   2.0000      -0.653404       -17.7800
 125   2.0000      -0.652368       -17.7518
 126   2.0000      -0.647027       -17.6065
 127   2.0000      -0.644951       -17.5500
 128   2.0000      -0.640489       -17.4286
 129   2.0000      -0.626311       -17.0428
 130   2.0000      -0.624436       -16.9918
 131   2.0000      -0.620641       -16.8885
 132   2.0000      -0.616584       -16.7781
 133   2.0000      -0.611879       -16.6501
 134   2.0000      -0.608808       -16.5665
 135   2.0000      -0.608276       -16.5520
 136   2.0000      -0.608134       -16.5482
 137   2.0000      -0.603114       -16.4116
 138   2.0000      -0.601272       -16.3614
 139   2.0000      -0.599580       -16.3154
 140   2.0000      -0.594376       -16.1738
 141   2.0000      -0.591541       -16.0966
 142   2.0000      -0.587954       -15.9990
 143   2.0000      -0.586965       -15.9721
 144   2.0000      -0.582668       -15.8552
 145   2.0000      -0.580919       -15.8076
 146   2.0000      -0.576493       -15.6872
 147   2.0000      -0.570028       -15.5112
 148   2.0000      -0.568409       -15.4672
 149   2.0000      -0.565070       -15.3763
 150   2.0000      -0.563212       -15.3258
 151   2.0000      -0.555336       -15.1115
 152   2.0000      -0.551272       -15.0009
 153   2.0000      -0.545721       -14.8498
 154   2.0000      -0.542888       -14.7727
 155   2.0000      -0.536293       -14.5933
 156   2.0000      -0.532864       -14.5000
 157   2.0000      -0.529882       -14.4188
 158   2.0000      -0.528343       -14.3770
 159   2.0000      -0.520608       -14.1665
 160   2.0000      -0.517573       -14.0839
 161   2.0000      -0.515512       -14.0278
 162   2.0000      -0.514081       -13.9889
 163   2.0000      -0.511404       -13.9160
 164   2.0000      -0.505801       -13.7636
 165   2.0000      -0.503976       -13.7139
 166   2.0000      -0.501849       -13.6560
 167   2.0000      -0.500144       -13.6096
 168   2.0000      -0.497686       -13.5427
 169   2.0000      -0.494904       -13.4670
 170   2.0000      -0.493922       -13.4403
 171   2.0000      -0.492640       -13.4054
 172   2.0000      -0.490138       -13.3373
 173   2.0000      -0.487145       -13.2559
 174   2.0000      -0.484607       -13.1868
 175   2.0000      -0.482268       -13.1232
 176   2.0000      -0.480976       -13.0880
 177   2.0000      -0.478435       -13.0189
 178   2.0000      -0.472348       -12.8532
 179   2.0000      -0.469958       -12.7882
 180   2.0000      -0.467731       -12.7276
 181   2.0000      -0.465670       -12.6715
 182   2.0000      -0.462598       -12.5879
 183   2.0000      -0.461345       -12.5538
 184   2.0000      -0.458667       -12.4810
 185   2.0000      -0.456843       -12.4313
 186   2.0000      -0.454190       -12.3591
 187   2.0000      -0.451331       -12.2813
 188   2.0000      -0.447583       -12.1794
 189   2.0000      -0.445509       -12.1229
 190   2.0000      -0.443110       -12.0576
 191   2.0000      -0.436348       -11.8736
 192   2.0000      -0.430828       -11.7234
 193   2.0000      -0.429553       -11.6887
 194   2.0000      -0.428345       -11.6559
 195   2.0000      -0.426681       -11.6106
 196   2.0000      -0.426178       -11.5969
 197   2.0000      -0.421910       -11.4808
 198   2.0000      -0.421182       -11.4610
 199   2.0000      -0.414483       -11.2787
 200   2.0000      -0.406557       -11.0630
 201   2.0000      -0.396208       -10.7814
 202   2.0000      -0.391114       -10.6427
 203   2.0000      -0.387688       -10.5495
 204   2.0000      -0.385326       -10.4852
 205   2.0000      -0.381566       -10.3829
 206   2.0000      -0.368618       -10.0306
 207   2.0000      -0.364834        -9.9276
 208   2.0000      -0.362134        -9.8542
 209   2.0000      -0.358030        -9.7425
 210   2.0000      -0.352935        -9.6038
 211   2.0000      -0.346737        -9.4352
 212   2.0000      -0.343084        -9.3358
 213   2.0000      -0.338163        -9.2019
 214   2.0000      -0.336047        -9.1443
 215   2.0000      -0.332594        -9.0503
 216   2.0000      -0.326681        -8.8894
 217   2.0000      -0.323457        -8.8017
 218   2.0000      -0.320684        -8.7263
 219   2.0000      -0.318833        -8.6759
 220   2.0000      -0.317630        -8.6431
 221   2.0000      -0.315129        -8.5751
 222   2.0000      -0.291563        -7.9338
 223   2.0000      -0.283315        -7.7094
 224   2.0000      -0.267375        -7.2756
 225   2.0000      -0.256175        -6.9709
 226   2.0000      -0.226494        -6.1632
 227   0.0000      -0.138629        -3.7723
 228   0.0000      -0.104162        -2.8344
 229   0.0000      -0.067775        -1.8443
 230   0.0000      -0.049788        -1.3548
 231   0.0000      -0.041117        -1.1189

MULLIKEN ATOMIC CHARGES
-----------------------
   0 C :   -0.061785
   1 S :    0.146365
   2 C :   -0.120935
   3 C :    0.001118
   4 C :    0.031496
   5 C :    0.134809
   6 O :   -0.188594
   7 C :    0.058250
   8 C :   -0.092757
   9 C :    0.078235
  10 C :    0.046592
  11 N :    0.282459
  12 O :   -0.265026
  13 O :   -0.263379
  14 C :    0.003912
  15 C :   -0.019899
  16 C :   -0.005035
  17 C :    0.043201
  18 C :   -0.051741
  19 C :    0.042519
  20 C :    0.024115
  21 N :    0.285316
  22 O :   -0.284027
  23 O :   -0.273644
  24 C :    0.113116
  25 C :   -0.090507
  26 C :   -0.000476
  27 C :    0.094897
  28 C :   -0.125861
  29 C :    0.174260
  30 O :   -0.290192
  31 C :    0.178629
  32 C :    0.069360
  33 C :    0.084531
  34 C :   -0.013792
  35 C :   -0.088955
  36 C :    0.224027
  37 O :   -0.238929
  38 C :    0.164520
  39 C :   -0.049232
  40 C :    0.027980
  41 C :   -0.040181
  42 C :   -0.002972
  43 C :    0.109659
  44 C :   -0.033484
  45 C :    0.099669
  46 N :    0.243717
  47 O :   -0.225360
  48 O :   -0.228177
  49 C :    0.125489
  50 C :   -0.043291
  51 C :    0.012561
  52 C :   -0.052890
  53 C :    0.044126
  54 C :   -0.055172
  55 S :    0.120996
  56 C :   -0.104166
  57 C :    0.031650
  58 C :   -0.022393
  59 C :    0.121742
  60 O :   -0.185500
  61 C :    0.010645
  62 C :   -0.018354
  63 H :    0.033981
  64 H :    0.003382
  65 H :   -0.026358
  66 H :    0.019179
  67 H :    0.008975
  68 H :   -0.012807
  69 H :   -0.017592
  70 H :    0.003668
  71 H :    0.006570
  72 H :   -0.007495
  73 H :    0.029887
  74 H :   -0.013552
  75 H :    0.045831
  76 H :    0.036666
  77 H :    0.034225
  78 H :   -0.008808
  79 H :    0.058187
  80 H :    0.039549
  81 H :    0.042941
  82 H :   -0.004863
  83 H :    0.007578
  84 H :   -0.015510
  85 H :   -0.008178
  86 H :   -0.010369
  87 H :   -0.012141
  88 H :   -0.016483
  89 H :   -0.013263
  90 H :    0.017776
  91 H :    0.005945
  92 H :   -0.008731
  93 H :    0.010398
  94 H :    0.041032
  95 H :    0.037117
Sum of atomic charges:   -0.0000000

LOEWDIN ATOMIC CHARGES
----------------------
   0 C :   -0.179185
   1 S :    0.463581
   2 C :   -0.148183
   3 C :   -0.115202
   4 C :   -0.032853
   5 C :    0.098979
   6 O :   -0.140533
   7 C :   -0.020442
   8 C :   -0.027044
   9 C :    0.001709
  10 C :   -0.066714
  11 N :    0.290145
  12 O :   -0.227650
  13 O :   -0.223418
  14 C :   -0.004529
  15 C :   -0.067903
  16 C :    0.000965
  17 C :    0.047765
  18 C :   -0.084187
  19 C :    0.056920
  20 C :   -0.107868
  21 N :    0.289039
  22 O :   -0.246501
  23 O :   -0.236960
  24 C :    0.028849
  25 C :   -0.027302
  26 C :    0.045349
  27 C :   -0.025691
  28 C :   -0.029581
  29 C :    0.055376
  30 O :   -0.075039
  31 C :    0.084516
  32 C :   -0.037157
  33 C :    0.001086
  34 C :    0.059415
  35 C :   -0.110367
  36 C :    0.100696
  37 O :   -0.039182
  38 C :    0.085704
  39 C :   -0.034191
  40 C :   -0.001056
  41 C :   -0.017723
  42 C :   -0.008602
  43 C :   -0.026269
  44 C :    0.008601
  45 C :   -0.019618
  46 N :    0.286492
  47 O :   -0.193919
  48 O :   -0.189407
  49 C :   -0.006705
  50 C :   -0.009302
  51 C :    0.001967
  52 C :   -0.048445
  53 C :   -0.012123
  54 C :   -0.168052
  55 S :    0.442538
  56 C :   -0.141896
  57 C :   -0.116386
  58 C :   -0.014907
  59 C :    0.099656
  60 O :   -0.138227
  61 C :   -0.046127
  62 C :   -0.018229
  63 H :    0.026088
  64 H :    0.037270
  65 H :   -0.004933
  66 H :    0.027742
  67 H :    0.033156
  68 H :    0.030065
  69 H :    0.022441
  70 H :    0.024685
  71 H :    0.039496
  72 H :    0.031777
  73 H :    0.033588
  74 H :    0.029293
  75 H :    0.032730
  76 H :    0.022904
  77 H :    0.021683
  78 H :    0.031853
  79 H :    0.038256
  80 H :    0.023538
  81 H :    0.025374
  82 H :    0.031270
  83 H :    0.031945
  84 H :    0.028313
  85 H :    0.029069
  86 H :    0.033323
  87 H :    0.033839
  88 H :    0.032940
  89 H :    0.022014
  90 H :    0.033210
  91 H :    0.040551
  92 H :   -0.002188
  93 H :    0.033996
  94 H :    0.028481
  95 H :    0.031558

  Mayer bond orders larger than 0.100000
B(  0-C ,  1-S ) :   1.1519 B(  0-C ,  4-C ) :   1.5638 B(  0-C , 63-H ) :   0.9734
B(  1-S ,  2-C ) :   1.1727 B(  2-C ,  3-C ) :   1.4059 B(  2-C ,  7-C ) :   1.1293
B(  3-C ,  4-C ) :   1.2601 B(  3-C ,  5-C ) :   0.9886 B(  4-C , 64-H ) :   0.9992
B(  5-C ,  6-O ) :   2.1705 B(  5-C , 65-H ) :   0.9560 B(  7-C ,  8-C ) :   1.6418
B(  7-C , 66-H ) :   0.9289 B(  8-C ,  9-C ) :   1.1756 B(  8-C , 67-H ) :   0.9583
B(  9-C , 10-C ) :   1.4110 B(  9-C , 16-C ) :   1.0848 B( 10-C , 11-N ) :   0.9693
B( 10-C , 14-C ) :   1.1906 B( 11-N , 12-O ) :   1.5249 B( 11-N , 13-O ) :   1.4621
B( 12-O , 13-O ) :   0.2424 B( 13-O , 66-H ) :   0.1017 B( 14-C , 15-C ) :   1.5200
B( 14-C , 68-H ) :   1.0050 B( 15-C , 16-C ) :   1.1683 B( 15-C , 69-H ) :   1.0014
B( 16-C , 17-C ) :   1.3688 B( 17-C , 18-C ) :   1.2479 B( 17-C , 24-C ) :   1.0153
B( 18-C , 19-C ) :   1.4283 B( 18-C , 70-H ) :   1.0000 B( 19-C , 20-C ) :   1.2326
B( 19-C , 71-H ) :   1.0030 B( 20-C , 21-N ) :   1.0018 B( 20-C , 24-C ) :   1.2737
B( 21-N , 22-O ) :   1.4384 B( 21-N , 23-O ) :   1.5190 B( 22-O , 23-O ) :   0.2228
B( 22-O , 73-H ) :   0.1211 B( 24-C , 25-C ) :   1.3432 B( 25-C , 26-C ) :   1.3744
B( 25-C , 72-H ) :   0.9619 B( 26-C , 27-C ) :   1.2818 B( 26-C , 73-H ) :   0.9435
B( 27-C , 28-C ) :   1.2973 B( 27-C , 33-C ) :   1.0522 B( 28-C , 29-C ) :   1.2539
B( 28-C , 74-H ) :   1.0124 B( 29-C , 30-O ) :   1.1825 B( 29-C , 32-C ) :   1.3030
B( 30-O , 31-C ) :   0.9391 B( 31-C , 75-H ) :   0.9798 B( 31-C , 76-H ) :   0.9703
B( 31-C , 77-H ) :   0.9715 B( 32-C , 33-C ) :   1.1552 B( 32-C , 41-C ) :   1.1642
B( 33-C , 34-C ) :   1.4334 B( 34-C , 35-C ) :   1.1936 B( 34-C , 40-C ) :   1.0102
B( 35-C , 36-C ) :   1.4857 B( 35-C , 78-H ) :   1.0243 B( 36-C , 37-O ) :   1.2565
B( 36-C , 39-C ) :   1.0092 B( 37-O , 38-C ) :   0.9275 B( 38-C , 79-H ) :   0.9808
B( 38-C , 80-H ) :   0.9725 B( 38-C , 81-H ) :   0.9730 B( 39-C , 40-C ) :   1.7202
B( 39-C , 82-H ) :   1.0079 B( 40-C , 83-H ) :   0.9977 B( 41-C , 42-C ) :   1.6144
B( 41-C , 84-H ) :   0.9544 B( 42-C , 43-C ) :   1.0777 B( 42-C , 85-H ) :   0.9880
B( 43-C , 44-C ) :   1.3020 B( 43-C , 51-C ) :   1.2974 B( 44-C , 45-C ) :   1.4218
B( 44-C , 86-H ) :   0.9796 B( 45-C , 46-N ) :   0.8570 B( 45-C , 49-C ) :   1.3235
B( 46-N , 47-O ) :   1.5520 B( 46-N , 48-O ) :   1.5063 B( 47-O , 48-O ) :   0.2646
B( 49-C , 50-C ) :   1.3009 B( 49-C , 52-C ) :   1.1198 B( 50-C , 51-C ) :   1.4073
B( 50-C , 87-H ) :   0.9923 B( 51-C , 88-H ) :   1.0000 B( 52-C , 53-C ) :   1.6606
B( 52-C , 89-H ) :   0.9612 B( 53-C , 54-C ) :   1.1494 B( 53-C , 90-H ) :   0.9596
B( 54-C , 55-S ) :   1.0816 B( 54-C , 58-C ) :   1.4947 B( 55-S , 56-C ) :   1.1592
B( 56-C , 57-C ) :   1.4596 B( 56-C , 61-C ) :   1.0794 B( 57-C , 58-C ) :   1.2174
B( 57-C , 59-C ) :   0.9762 B( 58-C , 91-H ) :   1.0111 B( 59-C , 60-O ) :   2.1791
B( 59-C , 92-H ) :   0.9572 B( 61-C , 62-C ) :   1.9338 B( 61-C , 93-H ) :   0.9519
B( 62-C , 94-H ) :   0.9640 B( 62-C , 95-H ) :   0.9494

-----------------------------------------------------------------------------
         ABSORPTION SPECTRUM VIA TRANSITION ELECTRIC DIPOLE MOMENTS
-----------------------------------------------------------------------------
State   Energy  Wavelength   fosc         T2         TX        TY        TZ
        (cm-1)    (nm)                  (au**2)     (au)      (au)      (au)
-----------------------------------------------------------------------------
   0    3716.2   2690.9   0.199019753  17.63094   3.97578   1.24401  -0.52591
   1    9585.4   1043.3   0.039361884   1.35189   1.10306  -0.32491  -0.17202
   2   10201.2    980.3   0.022740489   0.73388  -0.32393   0.53113  -0.58893
   3   13519.6    739.7   0.172386882   4.19774   0.99029   1.26459   1.27196
   4   14965.8    668.2   0.157918267   3.47383   1.69523   0.73661  -0.23964
   5   18844.8    530.7   0.115292375   2.01412  -0.94836  -0.86738   0.60199
   6   19904.0    502.4   0.072838237   1.20474   0.99170   0.47033  -0.00817
   7   20736.9    482.2   0.019436900   0.30857  -0.05611  -0.33892  -0.43653
   8   21139.3    473.1   0.798013530  12.42783  -2.88926  -2.01930  -0.04943
   9   22250.0    449.4   0.096333626   1.42536  -0.30168   1.12738   0.25174
  10   22924.0    436.2   0.155160455   2.22826   1.19780   0.69339   0.55923
  11   23203.2    431.0   0.093414318   1.32538  -0.98560   0.58464  -0.11031
  12   23693.2    422.1   0.083592573   1.16150   0.82594  -0.12426   0.68109
  13   24018.8    416.3   0.022741849   0.31171   0.20572  -0.45235  -0.25450
  14   24222.0    412.8   0.002175973   0.02957  -0.16126   0.02267  -0.05529
  15   25188.3    397.0   0.202865772   2.65146  -0.15323   1.27000   1.00751
  16   26386.9    379.0   0.215532578   2.68906  -1.55630  -0.41336  -0.31004
  17   26712.2    374.4   0.016446235   0.20269  -0.01915  -0.12529   0.43200
  18   27014.7    370.2   0.014714653   0.17932  -0.23082   0.04571  -0.35206
  19   28207.8    354.5   0.068707931   0.80189   0.76840   0.42246   0.18157
  20   28280.7    353.6   0.145708251   1.69617   0.42425   0.56901   1.09198
  21   28530.6    350.5   0.425363854   4.90824  -1.57922  -1.42171  -0.62694
  22   28704.9    348.4   0.195589068   2.24318  -0.32281   0.50757   1.37162
  23   29045.6    344.3   0.242505232   2.74863  -0.71876   0.48463   1.41320
  24   29512.2    338.8   0.031313953   0.34931  -0.53751  -0.23902  -0.05713
  25   29735.0    336.3   0.082372061   0.91198   0.27982   0.57618   0.70831
  26   30487.1    328.0   0.152042027   1.64181  -0.09538   0.71410   1.05961
  27   31274.2    319.8   0.056391559   0.59361  -0.12353   0.24069   0.72140
  28   31534.2    317.1   0.048297395   0.50422  -0.67127   0.21162  -0.09402
  29   31597.9    316.5   0.002166089   0.02257  -0.09894   0.09155  -0.06631
  30   31741.2    315.0   0.063337297   0.65692   0.56397  -0.06739  -0.57820
  31   32025.7    312.2   0.144375450   1.48412   0.37051  -0.70274  -0.92358
  32   32147.5    311.1   0.244214235   2.50091   0.29370  -0.95155  -1.22850
  33   32376.4    308.9   0.008916872   0.09067   0.04893  -0.08082  -0.28591
  34   32557.5    307.1   0.031579861   0.31933  -0.54174   0.14136  -0.07654
  35   32843.6    304.5   0.005067716   0.05080   0.16728   0.08569  -0.12438
  36   32897.2    304.0   0.009496207   0.09503  -0.03122   0.04536   0.30331
  37   33062.0    302.5   0.163218005   1.62523   0.81029  -0.18493  -0.96668
  38   33497.1    298.5   0.353148245   3.47077   1.49587  -0.15717  -1.09928
  39   33707.6    296.7   0.045440185   0.44380  -0.47056  -0.43965  -0.17053
  40   34015.0    294.0   0.033462763   0.32387   0.52361   0.01989  -0.22204
  41   34077.0    293.5   0.042610267   0.41165  -0.59517  -0.15417   0.18346
  42   34630.7    288.8   0.011020329   0.10476  -0.24410   0.21182   0.01767
  43   34662.9    288.5   0.001759245   0.01671   0.03578  -0.00954   0.12384
  44   34861.0    286.9   0.029190126   0.27566   0.27908  -0.26708  -0.35559
  45   35188.7    284.2   0.015172070   0.14194   0.37254  -0.05438  -0.01423
  46   35332.3    283.0   0.054474817   0.50757  -0.59242  -0.28589   0.27364
  47   35470.3    281.9   0.003574411   0.03318   0.13854  -0.11654  -0.02001
  48   35635.4    280.6   0.005349146   0.04942   0.07411  -0.10251  -0.18280
  49   35713.0    280.0   0.002895452   0.02669   0.03593  -0.13706  -0.08133
  50   35961.2    278.1   0.042595877   0.38995   0.41775   0.18821   0.42428
  51   36255.0    275.8   0.092329417   0.83839   0.10779   0.46234   0.78296
  52   36792.5    271.8   0.067982408   0.60829   0.75770   0.17120  -0.06982
  53   37124.8    269.4   0.050191369   0.44508   0.55618  -0.33538  -0.15254
  54   37241.6    268.5   0.066213555   0.58532  -0.33781  -0.04707   0.68483
  55   37346.8    267.8   0.069626580   0.61376   0.36721  -0.34275  -0.60120
  56   37647.6    265.6   0.016698597   0.14602   0.00952   0.20995   0.31914
  57   37875.3    264.0   0.005481839   0.04765  -0.21444   0.01749  -0.03684
  58   38338.9    260.8   0.019931945   0.17115   0.23746  -0.15013  -0.30369
  59   38589.9    259.1   0.062224970   0.53084  -0.15409  -0.43915  -0.56058
  60   39020.6    256.3   0.000438108   0.00370  -0.05419   0.02521  -0.01115
  61   39144.7    255.5   0.001969713   0.01657   0.07655  -0.09433  -0.04252
  62   39851.2    250.9   0.016442778   0.13583  -0.32119  -0.14353   0.10987
  63   40324.5    248.0   0.025327126   0.20677   0.23439  -0.30822  -0.23840

FINAL SINGLE POINT ENERGY     -3557.624996832571

DIPOLE MOMENT
-------------
                                X             Y             Z
Electronic contribution:     24.64209       6.47140      -1.62314
Nuclear contribution   :    -27.60570      -8.81273       0.53834
                        -----------------------------------------
Total Dipole Moment    :     -2.96361      -2.34133      -1.08480
                        -----------------------------------------
Magnitude (a.u.)       :      3.92958
Magnitude (Debye)      :      9.98820

Rotational constants in cm-1:     0.002316     0.000288     0.000269
Rotational constants in MHz :    69.432371     8.619815     8.064267

                             ****ORCA TERMINATED NORMALLY****
TOTAL RUN TIME: 0 days 0 hours 9 minutes 28 seconds 666 msec
