                         Program Version 4.2.0 -  RELEASE  -
|  1> # ORCA input file
|  2> # SCF done       -168.703278652438          0.000763295811
|  3> ! CAM-B3LYP def2-SVP def2/J RIJCOSX Grid4 TightSCF
|  4> %maxcore 5000
|  5> %tddft
|  6>     Mode sTDDFT
|  7>     Ethresh 5.0
|  8>     maxcore 5000
|  9> end
| 10>
| 11> %pal
| 12>   nprocs 6
| 13>   end
| 14> * xyz 0 1
| 15>    C        4.05477        -0.76643         6.64631
| 16>    S        5.19414        -2.01432         6.95419
| 17>    C        4.35373        -3.10244         5.88849
| 18>    C        3.23247        -2.48033         5.32792
| 19>    C        3.08270        -1.14664         5.77789
| 20>    C        2.32110        -3.09771         4.38090
| 21>    O        2.39396        -4.21684         3.92854
| 22>    C        4.79223        -4.41993         5.63542
| 23>    C        5.90867        -4.97804         6.18035
| 24>    C        6.36750        -6.28294         5.89867
| 25>    C        7.13424        -7.09740         6.73106
| 26>    N        7.72425        -6.76945         7.95989
| 27>    O        8.33880        -7.65051         8.53969
| 28>    O        7.61132        -5.62883         8.38609
| 29>    C        7.20438        -8.41327         6.16839
| 30>    C        6.47915        -8.43878         5.01670
| 31>    C        5.97889        -7.12456         4.75312
| 32>    C        5.43289        -6.68776         3.55826
| 33>    C        5.62099        -5.40497         2.95965
| 34>    C        5.15224        -5.44938         1.68353
| 35>    C        4.59501        -6.74294         1.42251
| 36>    N        4.02281        -7.00825         0.17029
| 37>    O        3.75300        -8.16050        -0.14560
| 38>    O        3.84337        -6.05751        -0.57281
| 39>    C        4.72624        -7.53538         2.57450
| 40>    C        4.17990        -8.76292         2.98632
| 41>    C        3.59878        -9.73954         2.21659
| 42>    C        3.13470       -10.94055         2.77499
| 43>    N        2.61839       -11.97449         2.02793
| 44>    C        2.46106       -11.99573         0.59139
| 45>    C        3.77533       -12.30216        -0.12072
| 46>    C        2.29063       -13.08486         2.81221
| 47>    O        1.82719       -14.11797         2.36955
| 48>    C        2.62029       -12.67968         4.16581
| 49>    C        3.12268       -11.36557         4.11663
| 50>    C        3.44232       -10.95974         5.46947
| 51>    O        3.89613        -9.93029         5.92899
| 52>    N        3.11723       -12.07891         6.25534
| 53>    C        3.25441       -12.04426         7.69144
| 54>    C        1.91181       -11.82411         8.38391
| 55>    C        2.62949       -13.11715         5.49870
| 56>    C        2.27838       -14.37760         6.02504
| 57>    C        1.84786       -15.40286         5.23630
| 58>    C        1.54998       -16.70421         5.70082
| 59>    S        1.13508       -17.95092         4.55242
| 60>    C        1.00087       -19.15178         5.79411
| 61>    C        1.25154       -18.58109         7.04964
| 62>    C        1.55882       -17.21569         6.98579
| 63>    C        1.21373       -19.25830         8.28035
| 64>    N        1.19483       -19.75488         9.31500
| 65>    C        0.70328       -20.48960         5.42900
| 66>    C        0.62424       -21.53856         6.28328
| 67>    C        0.36570       -22.87961         5.88651
| 68>    S        0.35513       -24.13757         7.09904
| 69>    C        0.04583       -25.36180         5.92036
| 70>    C       -0.07155       -24.80860         4.64899
| 71>    C        0.12343       -23.41235         4.64321
| 72>    C       -0.47351       -25.52970         3.44526
| 73>    O       -0.36813       -25.10222         2.32316
| 74>    C       -0.00101       -26.73900         6.33649
| 75>    C        0.36490       -27.77769         5.58834
| 76>    H        4.17307         0.18250         7.13125
| 77>    H        2.28143        -0.50289         5.46149
| 78>    H        1.49582        -2.42281         4.08282
| 79>    H        4.15796        -4.99336         4.97283
| 80>    H        6.45615        -4.43130         6.93983
| 81>    H        7.75344        -9.22070         6.61440
| 82>    H        6.40704        -9.26749         4.34016
| 83>    H        6.14914        -4.58936         3.41328
| 84>    H        5.18412        -4.66635         0.94961
| 85>    H        4.24018        -8.94472         4.05126
| 86>    H        3.52362        -9.61024         1.14871
| 87>    H        2.05838       -11.03739         0.25604
| 88>    H        1.73414       -12.78422         0.37810
| 89>    H        4.51362       -11.52924         0.07718
| 90>    H        3.60430       -12.34942        -1.19208
| 91>    H        4.16848       -13.25977         0.21287
| 92>    H        3.92174       -11.20612         7.91067
| 93>    H        3.72607       -12.96838         8.03720
| 94>    H        1.48031       -10.87902         8.06381
| 95>    H        2.05446       -11.79319         9.46038
| 96>    H        1.21176       -12.62186         8.14493
| 97>    H        2.38950       -14.52613         7.08889
| 98>    H        1.74181       -15.23657         4.17186
| 99>    H        1.77790       -16.63148         7.86168
|100>    H        0.55173       -20.65314         4.37106
|101>    H        0.77715       -21.38198         7.34141
|102>    H        0.06292       -22.83923         3.73613
|103>    H       -0.93151       -26.51739         3.64235
|104>    H       -0.31591       -26.89714         7.36022
|105>    H        0.75590       -27.66027         4.59232
|106>    H        0.30258       -28.78300         5.96681
|107> *
|108>
|109>                          ****END OF INPUT****

CARTESIAN COORDINATES (ANGSTROEM)
---------------------------------
  C      4.054770   -0.766430    6.646310
  S      5.194140   -2.014320    6.954190
  C      4.353730   -3.102440    5.888490
  C      3.232470   -2.480330    5.327920
  C      3.082700   -1.146640    5.777890
  C      2.321100   -3.097710    4.380900
  O      2.393960   -4.216840    3.928540
  C      4.792230   -4.419930    5.635420
  C      5.908670   -4.978040    6.180350
  C      6.367500   -6.282940    5.898670
  C      7.134240   -7.097400    6.731060
  N      7.724250   -6.769450    7.959890
  O      8.338800   -7.650510    8.539690
  O      7.611320   -5.628830    8.386090
  C      7.204380   -8.413270    6.168390
  C      6.479150   -8.438780    5.016700
  C      5.978890   -7.124560    4.753120
  C      5.432890   -6.687760    3.558260
  C      5.620990   -5.404970    2.959650
  C      5.152240   -5.449380    1.683530
  C      4.595010   -6.742940    1.422510
  N      4.022810   -7.008250    0.170290
  O      3.753000   -8.160500   -0.145600
  O      3.843370   -6.057510   -0.572810
  C      4.726240   -7.535380    2.574500
  C      4.179900   -8.762920    2.986320
  C      3.598780   -9.739540    2.216590
  C      3.134700  -10.940550    2.774990
  N      2.618390  -11.974490    2.027930
  C      2.461060  -11.995730    0.591390
  C      3.775330  -12.302160   -0.120720
  C      2.290630  -13.084860    2.812210
  O      1.827190  -14.117970    2.369550
  C      2.620290  -12.679680    4.165810
  C      3.122680  -11.365570    4.116630
  C      3.442320  -10.959740    5.469470
  O      3.896130   -9.930290    5.928990
  N      3.117230  -12.078910    6.255340
  C      3.254410  -12.044260    7.691440
  C      1.911810  -11.824110    8.383910
  C      2.629490  -13.117150    5.498700
  C      2.278380  -14.377600    6.025040
  C      1.847860  -15.402860    5.236300
  C      1.549980  -16.704210    5.700820
  S      1.135080  -17.950920    4.552420
  C      1.000870  -19.151780    5.794110
  C      1.251540  -18.581090    7.049640
  C      1.558820  -17.215690    6.985790
  C      1.213730  -19.258300    8.280350
  N      1.194830  -19.754880    9.315000
  C      0.703280  -20.489600    5.429000
  C      0.624240  -21.538560    6.283280
  C      0.365700  -22.879610    5.886510
  S      0.355130  -24.137570    7.099040
  C      0.045830  -25.361800    5.920360
  C     -0.071550  -24.808600    4.648990
  C      0.123430  -23.412350    4.643210
  C     -0.473510  -25.529700    3.445260
  O     -0.368130  -25.102220    2.323160
  C     -0.001010  -26.739000    6.336490
  C      0.364900  -27.777690    5.588340
  H      4.173070    0.182500    7.131250
  H      2.281430   -0.502890    5.461490
  H      1.495820   -2.422810    4.082820
  H      4.157960   -4.993360    4.972830
  H      6.456150   -4.431300    6.939830
  H      7.753440   -9.220700    6.614400
  H      6.407040   -9.267490    4.340160
  H      6.149140   -4.589360    3.413280
  H      5.184120   -4.666350    0.949610
  H      4.240180   -8.944720    4.051260
  H      3.523620   -9.610240    1.148710
  H      2.058380  -11.037390    0.256040
  H      1.734140  -12.784220    0.378100
  H      4.513620  -11.529240    0.077180
  H      3.604300  -12.349420   -1.192080
  H      4.168480  -13.259770    0.212870
  H      3.921740  -11.206120    7.910670
  H      3.726070  -12.968380    8.037200
  H      1.480310  -10.879020    8.063810
  H      2.054460  -11.793190    9.460380
  H      1.211760  -12.621860    8.144930
  H      2.389500  -14.526130    7.088890
  H      1.741810  -15.236570    4.171860
  H      1.777900  -16.631480    7.861680
  H      0.551730  -20.653140    4.371060
  H      0.777150  -21.381980    7.341410
  H      0.062920  -22.839230    3.736130
  H     -0.931510  -26.517390    3.642350
  H     -0.315910  -26.897140    7.360220
  H      0.755900  -27.660270    4.592320
  H      0.302580  -28.783000    5.966810

 Total Charge           Charge          ....    0
 Multiplicity           Mult            ....    1
 Number of Electrons    NEL             ....  448
 Basis Dimension        Dim             .... 1021

ORBITAL ENERGIES
----------------

  NO   OCC          E(Eh)            E(eV)
   0   2.0000     -88.981433     -2421.3079
   1   2.0000     -88.973781     -2421.0997
   2   2.0000     -88.972845     -2421.0742
   3   2.0000     -19.230258      -523.2819
   4   2.0000     -19.228049      -523.2218
   5   2.0000     -19.226547      -523.1809
   6   2.0000     -19.225950      -523.1647
   7   2.0000     -19.216309      -522.9024
   8   2.0000     -19.211333      -522.7670
   9   2.0000     -19.202740      -522.5331
  10   2.0000     -19.192709      -522.2602
  11   2.0000     -14.638339      -398.3295
  12   2.0000     -14.635542      -398.2533
  13   2.0000     -14.461918      -393.5288
  14   2.0000     -14.454706      -393.3326
  15   2.0000     -14.415799      -392.2738
  16   2.0000     -10.383523      -282.5500
  17   2.0000     -10.376197      -282.3507
  18   2.0000     -10.362438      -281.9763
  19   2.0000     -10.357104      -281.8311
  20   2.0000     -10.348900      -281.6079
  21   2.0000     -10.339734      -281.3585
  22   2.0000     -10.338223      -281.3174
  23   2.0000     -10.326582      -281.0006
  24   2.0000     -10.323538      -280.9177
  25   2.0000     -10.323293      -280.9111
  26   2.0000     -10.323128      -280.9066
  27   2.0000     -10.321028      -280.8495
  28   2.0000     -10.319163      -280.7987
  29   2.0000     -10.317708      -280.7591
  30   2.0000     -10.317083      -280.7421
  31   2.0000     -10.316559      -280.7278
  32   2.0000     -10.316471      -280.7255
  33   2.0000     -10.315109      -280.6884
  34   2.0000     -10.312757      -280.6244
  35   2.0000     -10.310715      -280.5688
  36   2.0000     -10.310679      -280.5678
  37   2.0000     -10.308128      -280.4984
  38   2.0000     -10.307469      -280.4805
  39   2.0000     -10.305466      -280.4260
  40   2.0000     -10.304476      -280.3990
  41   2.0000     -10.301829      -280.3270
  42   2.0000     -10.300025      -280.2779
  43   2.0000     -10.299109      -280.2530
  44   2.0000     -10.294157      -280.1183
  45   2.0000     -10.291888      -280.0565
  46   2.0000     -10.291588      -280.0484
  47   2.0000     -10.290808      -280.0271
  48   2.0000     -10.290759      -280.0258
  49   2.0000     -10.289714      -279.9974
  50   2.0000     -10.289545      -279.9928
  51   2.0000     -10.288793      -279.9723
  52   2.0000     -10.288599      -279.9670
  53   2.0000     -10.286225      -279.9024
  54   2.0000     -10.285940      -279.8947
  55   2.0000     -10.276110      -279.6272
  56   2.0000     -10.275690      -279.6158
  57   2.0000     -10.272349      -279.5248
  58   2.0000     -10.269666      -279.4518
  59   2.0000     -10.267763      -279.4000
  60   2.0000     -10.258307      -279.1427
  61   2.0000      -8.077110      -219.7893
  62   2.0000      -8.069456      -219.5811
  63   2.0000      -8.068807      -219.5634
  64   2.0000      -6.046193      -164.5253
  65   2.0000      -6.042142      -164.4150
  66   2.0000      -6.039460      -164.3421
  67   2.0000      -6.038550      -164.3173
  68   2.0000      -6.037888      -164.2993
  69   2.0000      -6.034234      -164.1999
  70   2.0000      -6.033801      -164.1881
  71   2.0000      -6.032109      -164.1420
  72   2.0000      -6.031208      -164.1175
  73   2.0000      -1.307528       -35.5796
  74   2.0000      -1.304564       -35.4990
  75   2.0000      -1.141975       -31.0747
  76   2.0000      -1.131554       -30.7912
  77   2.0000      -1.128450       -30.7067
  78   2.0000      -1.124810       -30.6076
  79   2.0000      -1.123266       -30.5656
  80   2.0000      -1.121241       -30.5105
  81   2.0000      -1.071091       -29.1459
  82   2.0000      -1.059819       -28.8391
  83   2.0000      -1.019753       -27.7489
  84   2.0000      -1.008168       -27.4337
  85   2.0000      -1.002125       -27.2692
  86   2.0000      -0.998565       -27.1723
  87   2.0000      -0.994727       -27.0679
  88   2.0000      -0.986454       -26.8428
  89   2.0000      -0.935935       -25.4681
  90   2.0000      -0.930471       -25.3194
  91   2.0000      -0.915589       -24.9145
  92   2.0000      -0.910057       -24.7639
  93   2.0000      -0.907312       -24.6892
  94   2.0000      -0.900736       -24.5103
  95   2.0000      -0.891074       -24.2474
  96   2.0000      -0.877464       -23.8770
  97   2.0000      -0.873145       -23.7595
  98   2.0000      -0.872265       -23.7355
  99   2.0000      -0.862298       -23.4643
 100   2.0000      -0.861306       -23.4373
 101   2.0000      -0.848937       -23.1008
 102   2.0000      -0.845417       -23.0050
 103   2.0000      -0.839508       -22.8442
 104   2.0000      -0.823365       -22.4049
 105   2.0000      -0.814092       -22.1526
 106   2.0000      -0.804623       -21.8949
 107   2.0000      -0.784706       -21.3529
 108   2.0000      -0.779287       -21.2055
 109   2.0000      -0.763184       -20.7673
 110   2.0000      -0.759011       -20.6537
 111   2.0000      -0.750088       -20.4109
 112   2.0000      -0.731839       -19.9144
 113   2.0000      -0.731512       -19.9055
 114   2.0000      -0.725973       -19.7547
 115   2.0000      -0.720531       -19.6067
 116   2.0000      -0.712254       -19.3814
 117   2.0000      -0.704935       -19.1823
 118   2.0000      -0.698976       -19.0201
 119   2.0000      -0.687421       -18.7057
 120   2.0000      -0.679998       -18.5037
 121   2.0000      -0.675158       -18.3720
 122   2.0000      -0.667717       -18.1695
 123   2.0000      -0.661668       -18.0049
 124   2.0000      -0.657050       -17.8792
 125   2.0000      -0.653751       -17.7895
 126   2.0000      -0.648916       -17.6579
 127   2.0000      -0.638038       -17.3619
 128   2.0000      -0.634373       -17.2622
 129   2.0000      -0.629230       -17.1222
 130   2.0000      -0.619137       -16.8476
 131   2.0000      -0.616719       -16.7818
 132   2.0000      -0.614111       -16.7108
 133   2.0000      -0.609582       -16.5876
 134   2.0000      -0.606761       -16.5108
 135   2.0000      -0.602528       -16.3956
 136   2.0000      -0.599545       -16.3145
 137   2.0000      -0.593948       -16.1621
 138   2.0000      -0.593354       -16.1460
 139   2.0000      -0.590981       -16.0814
 140   2.0000      -0.586621       -15.9628
 141   2.0000      -0.584105       -15.8943
 142   2.0000      -0.577726       -15.7207
 143   2.0000      -0.572372       -15.5750
 144   2.0000      -0.569086       -15.4856
 145   2.0000      -0.564991       -15.3742
 146   2.0000      -0.559177       -15.2160
 147   2.0000      -0.552725       -15.0404
 148   2.0000      -0.546055       -14.8589
 149   2.0000      -0.541187       -14.7264
 150   2.0000      -0.540704       -14.7133
 151   2.0000      -0.536126       -14.5887
 152   2.0000      -0.533644       -14.5212
 153   2.0000      -0.532087       -14.4788
 154   2.0000      -0.529359       -14.4046
 155   2.0000      -0.526511       -14.3271
 156   2.0000      -0.524214       -14.2646
 157   2.0000      -0.520391       -14.1605
 158   2.0000      -0.519874       -14.1465
 159   2.0000      -0.519452       -14.1350
 160   2.0000      -0.517426       -14.0799
 161   2.0000      -0.513376       -13.9697
 162   2.0000      -0.509755       -13.8711
 163   2.0000      -0.506764       -13.7898
 164   2.0000      -0.505451       -13.7540
 165   2.0000      -0.503589       -13.7034
 166   2.0000      -0.500185       -13.6107
 167   2.0000      -0.496487       -13.5101
 168   2.0000      -0.492431       -13.3997
 169   2.0000      -0.490480       -13.3466
 170   2.0000      -0.482143       -13.1198
 171   2.0000      -0.479921       -13.0593
 172   2.0000      -0.479242       -13.0408
 173   2.0000      -0.474648       -12.9158
 174   2.0000      -0.473262       -12.8781
 175   2.0000      -0.470374       -12.7995
 176   2.0000      -0.469516       -12.7762
 177   2.0000      -0.467953       -12.7336
 178   2.0000      -0.465753       -12.6738
 179   2.0000      -0.465325       -12.6621
 180   2.0000      -0.462668       -12.5898
 181   2.0000      -0.460916       -12.5422
 182   2.0000      -0.459767       -12.5109
 183   2.0000      -0.455341       -12.3905
 184   2.0000      -0.453993       -12.3538
 185   2.0000      -0.452773       -12.3206
 186   2.0000      -0.448430       -12.2024
 187   2.0000      -0.447861       -12.1869
 188   2.0000      -0.445888       -12.1332
 189   2.0000      -0.441875       -12.0240
 190   2.0000      -0.440975       -11.9995
 191   2.0000      -0.439005       -11.9459
 192   2.0000      -0.436520       -11.8783
 193   2.0000      -0.436254       -11.8711
 194   2.0000      -0.431625       -11.7451
 195   2.0000      -0.428662       -11.6645
 196   2.0000      -0.421444       -11.4681
 197   2.0000      -0.420117       -11.4320
 198   2.0000      -0.411148       -11.1879
 199   2.0000      -0.398158       -10.8344
 200   2.0000      -0.394016       -10.7217
 201   2.0000      -0.379551       -10.3281
 202   2.0000      -0.375036       -10.2052
 203   2.0000      -0.373729       -10.1697
 204   2.0000      -0.366778        -9.9805
 205   2.0000      -0.365502        -9.9458
 206   2.0000      -0.360328        -9.8050
 207   2.0000      -0.356927        -9.7125
 208   2.0000      -0.353196        -9.6110
 209   2.0000      -0.351673        -9.5695
 210   2.0000      -0.343380        -9.3438
 211   2.0000      -0.338483        -9.2106
 212   2.0000      -0.337805        -9.1922
 213   2.0000      -0.336415        -9.1543
 214   2.0000      -0.334776        -9.1097
 215   2.0000      -0.330602        -8.9961
 216   2.0000      -0.330080        -8.9819
 217   2.0000      -0.323993        -8.8163
 218   2.0000      -0.321977        -8.7614
 219   2.0000      -0.317032        -8.6269
 220   2.0000      -0.296100        -8.0573
 221   2.0000      -0.271596        -7.3905
 222   2.0000      -0.263592        -7.1727
 223   2.0000      -0.230278        -6.2662
 224   0.0000      -0.132632        -3.6091
 225   0.0000      -0.091907        -2.5009
 226   0.0000      -0.069475        -1.8905
 227   0.0000      -0.053680        -1.4607
 228   0.0000      -0.033928        -0.9232

MULLIKEN ATOMIC CHARGES
-----------------------
   0 C :   -0.054295
   1 S :    0.157473
   2 C :   -0.126571
   3 C :    0.013094
   4 C :    0.032685
   5 C :    0.157544
   6 O :   -0.184241
   7 C :   -0.001444
   8 C :   -0.046896
   9 C :    0.041474
  10 C :    0.081230
  11 N :    0.273595
  12 O :   -0.253722
  13 O :   -0.262418
  14 C :    0.012944
  15 C :    0.030369
  16 C :    0.034511
  17 C :   -0.000666
  18 C :    0.015961
  19 C :    0.024993
  20 C :    0.070026
  21 N :    0.279625
  22 O :   -0.265512
  23 O :   -0.250933
  24 C :    0.095619
  25 C :   -0.090271
  26 C :   -0.009289
  27 C :    0.138031
  28 N :   -0.253705
  29 C :    0.097579
  30 C :    0.006002
  31 C :    0.167831
  32 O :   -0.215306
  33 C :   -0.080097
  34 C :   -0.058111
  35 C :    0.161326
  36 O :   -0.196017
  37 N :   -0.257176
  38 C :    0.097785
  39 C :    0.001855
  40 C :    0.149811
  41 C :   -0.038740
  42 C :    0.089560
  43 C :   -0.084630
  44 S :    0.185109
  45 C :   -0.055689
  46 C :   -0.076954
  47 C :    0.018723
  48 C :   -0.174478
  49 N :    0.113210
  50 C :    0.038186
  51 C :    0.068745
  52 C :   -0.081316
  53 S :    0.163955
  54 C :   -0.110370
  55 C :    0.019614
  56 C :   -0.015951
  57 C :    0.124684
  58 O :   -0.185028
  59 C :    0.013639
  60 C :   -0.017385
  61 H :    0.038198
  62 H :   -0.002373
  63 H :   -0.015288
  64 H :    0.051429
  65 H :    0.024750
  66 H :   -0.002040
  67 H :   -0.007110
  68 H :   -0.002080
  69 H :    0.001143
  70 H :    0.029221
  71 H :   -0.001827
  72 H :    0.039098
  73 H :    0.039621
  74 H :    0.022964
  75 H :    0.027994
  76 H :    0.022347
  77 H :    0.047501
  78 H :    0.024353
  79 H :    0.031065
  80 H :    0.029003
  81 H :    0.016051
  82 H :   -0.028096
  83 H :    0.010930
  84 H :   -0.002032
  85 H :   -0.009285
  86 H :    0.002186
  87 H :   -0.000576
  88 H :   -0.007476
  89 H :    0.012682
  90 H :    0.039269
  91 H :    0.038803
Sum of atomic charges:   -0.0000000

LOEWDIN ATOMIC CHARGES
----------------------
   0 C :   -0.170534
   1 S :    0.475404
   2 C :   -0.139166
   3 C :   -0.114680
   4 C :   -0.046312
   5 C :    0.109977
   6 O :   -0.138456
   7 C :   -0.007459
   8 C :   -0.018053
   9 C :    0.011117
  10 C :   -0.051870
  11 N :    0.286534
  12 O :   -0.218792
  13 O :   -0.225254
  14 C :    0.015949
  15 C :   -0.030498
  16 C :    0.043820
  17 C :    0.048460
  18 C :   -0.038941
  19 C :    0.014808
  20 C :   -0.046666
  21 N :    0.288544
  22 O :   -0.226757
  23 O :   -0.214516
  24 C :    0.005187
  25 C :    0.006261
  26 C :   -0.010861
  27 C :    0.063384
  28 N :    0.006272
  29 C :    0.038676
  30 C :   -0.059307
  31 C :    0.076490
  32 O :   -0.206528
  33 C :   -0.121742
  34 C :   -0.104209
  35 C :    0.081550
  36 O :   -0.185141
  37 N :    0.001461
  38 C :    0.036620
  39 C :   -0.060616
  40 C :    0.083488
  41 C :   -0.053307
  42 C :    0.020910
  43 C :   -0.179001
  44 S :    0.487014
  45 C :   -0.129155
  46 C :   -0.111860
  47 C :   -0.007712
  48 C :   -0.028645
  49 N :   -0.059250
  50 C :   -0.049688
  51 C :   -0.009474
  52 C :   -0.173605
  53 S :    0.466654
  54 C :   -0.145419
  55 C :   -0.114159
  56 C :   -0.014669
  57 C :    0.101388
  58 O :   -0.138023
  59 C :   -0.045751
  60 C :   -0.017364
  61 H :    0.028857
  62 H :    0.034307
  63 H :   -0.000023
  64 H :    0.040988
  65 H :    0.030151
  66 H :    0.036203
  67 H :    0.029721
  68 H :    0.030641
  69 H :    0.036653
  70 H :    0.039416
  71 H :    0.027895
  72 H :    0.030094
  73 H :    0.036576
  74 H :    0.025101
  75 H :    0.033201
  76 H :    0.029015
  77 H :    0.039111
  78 H :    0.023276
  79 H :    0.033185
  80 H :    0.032650
  81 H :    0.021996
  82 H :    0.027823
  83 H :    0.037880
  84 H :    0.038650
  85 H :    0.032159
  86 H :    0.037573
  87 H :    0.036004
  88 H :   -0.001127
  89 H :    0.035223
  90 H :    0.027987
  91 H :    0.032284

  Mayer bond orders larger than 0.100000
B(  0-C ,  1-S ) :   1.1619 B(  0-C ,  4-C ) :   1.5779 B(  0-C , 61-H ) :   0.9704
B(  1-S ,  2-C ) :   1.1654 B(  2-C ,  3-C ) :   1.4172 B(  2-C ,  7-C ) :   1.2142
B(  3-C ,  4-C ) :   1.2244 B(  3-C ,  5-C ) :   1.0118 B(  4-C , 62-H ) :   0.9929
B(  5-C ,  6-O ) :   2.1103 B(  5-C , 63-H ) :   0.9612 B(  7-C ,  8-C ) :   1.5361
B(  7-C , 64-H ) :   0.9447 B(  8-C ,  9-C ) :   1.2070 B(  8-C , 65-H ) :   0.9511
B(  9-C , 10-C ) :   1.4787 B(  9-C , 16-C ) :   1.0196 B( 10-C , 11-N ) :   0.9576
B( 10-C , 14-C ) :   1.1464 B( 11-N , 12-O ) :   1.5297 B( 11-N , 13-O ) :   1.4886
B( 12-O , 13-O ) :   0.2556 B( 14-C , 15-C ) :   1.5487 B( 14-C , 66-H ) :   1.0107
B( 15-C , 16-C ) :   1.1614 B( 15-C , 67-H ) :   1.0027 B( 16-C , 17-C ) :   1.4647
B( 17-C , 18-C ) :   1.1584 B( 17-C , 24-C ) :   1.0249 B( 18-C , 19-C ) :   1.5486
B( 18-C , 68-H ) :   0.9968 B( 19-C , 20-C ) :   1.1628 B( 19-C , 69-H ) :   1.0041
B( 20-C , 21-N ) :   0.9713 B( 20-C , 24-C ) :   1.4138 B( 21-N , 22-O ) :   1.4541
B( 21-N , 23-O ) :   1.5348 B( 22-O , 23-O ) :   0.2455 B( 22-O , 71-H ) :   0.1103
B( 24-C , 25-C ) :   1.2049 B( 25-C , 26-C ) :   1.5124 B( 25-C , 70-H ) :   0.9406
B( 26-C , 27-C ) :   1.1862 B( 26-C , 71-H ) :   0.9445 B( 27-C , 28-N ) :   1.1544
B( 27-C , 34-C ) :   1.2807 B( 28-N , 29-C ) :   0.9377 B( 28-N , 31-C ) :   1.0806
B( 29-C , 30-C ) :   1.1252 B( 29-C , 72-H ) :   0.9482 B( 29-C , 73-H ) :   0.9288
B( 30-C , 74-H ) :   0.9676 B( 30-C , 75-H ) :   0.9672 B( 30-C , 76-H ) :   0.9633
B( 31-C , 32-O ) :   2.0143 B( 31-C , 33-C ) :   0.9843 B( 32-O , 83-H ) :   0.1238
B( 33-C , 34-C ) :   1.2967 B( 33-C , 40-C ) :   1.2925 B( 34-C , 35-C ) :   0.9795
B( 35-C , 36-O ) :   2.0263 B( 35-C , 37-N ) :   1.0594 B( 36-O , 70-H ) :   0.1037
B( 37-N , 38-C ) :   0.9436 B( 37-N , 40-C ) :   1.1635 B( 38-C , 39-C ) :   1.1198
B( 38-C , 77-H ) :   0.9280 B( 38-C , 78-H ) :   0.9492 B( 39-C , 79-H ) :   0.9638
B( 39-C , 80-H ) :   0.9679 B( 39-C , 81-H ) :   0.9688 B( 40-C , 41-C ) :   1.1937
B( 41-C , 42-C ) :   1.5930 B( 41-C , 82-H ) :   0.9610 B( 42-C , 43-C ) :   1.1388
B( 42-C , 83-H ) :   0.9317 B( 43-C , 44-S ) :   1.1138 B( 43-C , 47-C ) :   1.4486
B( 44-S , 45-C ) :   1.1602 B( 45-C , 46-C ) :   1.4146 B( 45-C , 50-C ) :   1.1593
B( 46-C , 47-C ) :   1.3239 B( 46-C , 48-C ) :   1.1136 B( 47-C , 84-H ) :   0.9987
B( 48-C , 49-N ) :   2.9675 B( 50-C , 51-C ) :   1.6954 B( 50-C , 85-H ) :   0.9474
B( 51-C , 52-C ) :   1.1261 B( 51-C , 86-H ) :   0.9462 B( 52-C , 53-S ) :   1.1093
B( 52-C , 56-C ) :   1.4951 B( 53-S , 54-C ) :   1.1701 B( 54-C , 55-C ) :   1.4446
B( 54-C , 59-C ) :   1.0755 B( 55-C , 56-C ) :   1.2517 B( 55-C , 57-C ) :   0.9759
B( 56-C , 87-H ) :   1.0010 B( 57-C , 58-O ) :   2.1757 B( 57-C , 88-H ) :   0.9576
B( 59-C , 60-C ) :   1.9350 B( 59-C , 89-H ) :   0.9519 B( 60-C , 90-H ) :   0.9641
B( 60-C , 91-H ) :   0.9501

-----------------------------------------------------------------------------
         ABSORPTION SPECTRUM VIA TRANSITION ELECTRIC DIPOLE MOMENTS
-----------------------------------------------------------------------------
State   Energy  Wavelength   fosc         T2         TX        TY        TZ
        (cm-1)    (nm)                  (au**2)     (au)      (au)      (au)
-----------------------------------------------------------------------------
   0    5656.8   1767.8   0.263361798  15.32689   1.13783   3.72622  -0.38407
   1   11173.0    895.0   0.047622703   1.40320  -0.82103   0.03781   0.85304
   2   15102.8    662.1   0.585301742  12.75847   0.94453   2.95578  -1.76910
   3   17032.6    587.1   0.002989185   0.05778  -0.23086   0.03997   0.05368
   4   19878.5    503.1   0.380212709   6.29679  -0.36717  -2.48100  -0.08141
   5   20901.4    478.4   0.278530747   4.38706   0.34698  -2.05377  -0.22068
   6   22961.9    435.5   0.016493489   0.23647  -0.48590   0.01569   0.01128
   7   23451.6    426.4   0.221462642   3.10887  -0.76522   1.53110  -0.42312
   8   23649.2    422.8   0.053925888   0.75068   0.10891  -0.81534   0.27211
   9   23975.4    417.1   0.020831886   0.28605  -0.12092   0.44033   0.27846
  10   24426.1    409.4   0.012057447   0.16251  -0.38725   0.09091   0.06541
  11   24935.8    401.0   0.060184847   0.79458  -0.67927   0.00112  -0.57722
  12   25717.7    388.8   0.121388186   1.55389   0.13618   1.14488  -0.47391
  13   25851.0    386.8   0.343411330   4.37333   0.59729   1.66818   1.11075
  14   26517.3    377.1   0.358904056   4.45579  -0.42510  -1.73784  -1.12026
  15   27001.8    370.3   0.006476780   0.07897   0.06129  -0.27115  -0.04107
  16   28143.1    355.3   0.051143187   0.59826   0.76293  -0.00741   0.12705
  17   28369.6    352.5   0.135887561   1.57689   0.83953   0.78785   0.50137
  18   29163.7    342.9   0.240202705   2.71151   0.16327  -1.43302   0.79455
  19   29331.7    340.9   0.017896758   0.20087   0.11664  -0.22916   0.36709
  20   29542.0    338.5   0.190420446   2.12202   0.32431  -1.07818   0.92433
  21   30005.5    333.3   0.481688195   5.28496  -1.17112   1.07769  -1.65892
  22   30995.2    322.6   0.059071779   0.62742  -0.18507   0.73784  -0.22082
  23   31427.4    318.2   0.079870808   0.83667  -0.32379   0.30057  -0.80093
  24   31617.1    316.3   0.041931025   0.43661   0.20556  -0.62755  -0.02298
  25   31785.8    314.6   0.037072009   0.38396   0.06106  -0.60755  -0.10542
  26   31910.8    313.4   0.010945076   0.11292   0.01744  -0.33543  -0.00984
  27   32071.0    311.8   0.018517544   0.19008   0.30380  -0.01889   0.31214
  28   32216.9    310.4   0.116741992   1.19294  -0.34386  -0.32977  -0.98283
  29   32315.4    309.5   0.000312327   0.00318   0.05465   0.01398   0.00006
  30   32587.6    306.9   0.033724845   0.34070  -0.11088   0.44650  -0.35923
  31   33217.0    301.1   0.002170142   0.02151   0.07811  -0.10468   0.06671
  32   33567.4    297.9   0.014446872   0.14169  -0.31709   0.03812  -0.19922
  33   33588.8    297.7   0.003509276   0.03440   0.17609   0.04952  -0.03056
  34   34119.6    293.1   0.001157118   0.01116   0.07677  -0.02934  -0.06641
  35   34252.0    292.0   0.002581523   0.02481  -0.13164  -0.07157  -0.04859
  36   34482.0    290.0   0.028733588   0.27433   0.43761   0.28779   0.00200
  37   35034.6    285.4   0.035443641   0.33306  -0.18286   0.03915  -0.54597
  38   35279.2    283.5   0.061286766   0.57190  -0.30891   0.49479  -0.48132
  39   35849.3    278.9   0.002168965   0.01992   0.03454   0.13622   0.01303
  40   36003.0    277.8   0.027558098   0.25199  -0.23013  -0.43839   0.08273
  41   36271.8    275.7   0.006857869   0.06224   0.12668   0.15327   0.15068
  42   36437.3    274.4   0.002088088   0.01887   0.06913  -0.04222   0.11093
  43   36576.0    273.4   0.062351500   0.56121  -0.02682  -0.22541  -0.71392
  44   36773.2    271.9   0.004470805   0.04002  -0.03761  -0.02035  -0.19544
  45   37174.9    269.0   0.020970053   0.18571  -0.05312  -0.28235  -0.32119
  46   37785.4    264.7   0.003023820   0.02635   0.13930  -0.06517  -0.05190
  47   38024.4    263.0   0.022735511   0.19684  -0.06185   0.30471  -0.31649
  48   38358.3    260.7   0.039427690   0.33839  -0.11824  -0.01111  -0.56946
  49   38514.3    259.6   0.005961784   0.05096   0.13078  -0.06419   0.17245
  50   38788.4    257.8   0.021418590   0.18179  -0.08624  -0.37537   0.18290
  51   39441.9    253.5   0.001406070   0.01174   0.03261   0.09769  -0.03361
  52   39888.0    250.7   0.065193678   0.53807  -0.44104  -0.23379  -0.53749
  53   40138.2    249.1   0.023959938   0.19652   0.24051   0.36652  -0.06583

FINAL SINGLE POINT ENERGY     -3799.645954775151

DIPOLE MOMENT
-------------
                                X             Y             Z
Electronic contribution:      7.24435      13.97080       6.16873
Nuclear contribution   :     -8.12274     -14.41158      -5.25979
                        -----------------------------------------
Total Dipole Moment    :     -0.87839      -0.44079       0.90895
                        -----------------------------------------
Magnitude (a.u.)       :      1.33868
Magnitude (Debye)      :      3.40265

Rotational constants in cm-1:     0.002659     0.000321     0.000300
Rotational constants in MHz :    79.715266     9.628434     9.003975

                             ****ORCA TERMINATED NORMALLY****
TOTAL RUN TIME: 0 days 0 hours 9 minutes 58 seconds 98 msec
