                         Program Version 4.2.0 -  RELEASE  -
|  1> # ORCA input file
|  2> # SCF done       -172.556228381448          0.000679652998
|  3> ! CAM-B3LYP def2-SVP def2/J RIJCOSX Grid4 TightSCF
|  4> %maxcore 5000
|  5> %tddft
|  6>     Mode sTDDFT
|  7>     Ethresh 5.0
|  8>     maxcore 5000
|  9> end
| 10>
| 11> %pal
| 12>   nprocs 6
| 13>   end
| 14> * xyz 0 1
| 15>    C        0.43800         3.28407        -2.39693
| 16>    C        0.43247         3.08659        -3.77499
| 17>    O        1.59922         3.13833        -4.46301
| 18>    C        1.49676         3.08140        -5.87002
| 19>    C        0.62356         1.93208        -6.35107
| 20>    S       -1.11987         2.29619        -5.96254
| 21>    C       -0.82886         2.77435        -4.28799
| 22>    C       -1.84024         2.75171        -3.32501
| 23>    S       -1.12221         3.20281        -1.72969
| 24>    N       -1.76583         4.86398        -1.83332
| 25>    C       -1.68937         5.61078        -0.59935
| 26>    C       -3.19065         2.51000        -3.45435
| 27>    C       -4.07250         2.37376        -2.38953
| 28>    C       -5.43191         2.13820        -2.49965
| 29>    C       -6.25308         1.87879        -3.61765
| 30>    O       -5.72278         1.91081        -4.88901
| 31>    C       -6.44771         1.17418        -5.84205
| 32>    C       -7.89463         1.63522        -5.94391
| 33>    S       -8.80663         1.15321        -4.44104
| 34>    C       -7.55587         1.55698        -3.27939
| 35>    C       -7.83359         1.55063        -1.89623
| 36>    S       -6.42513         2.07966        -1.02369
| 37>    N       -6.77971         3.81449        -0.91858
| 38>    C       -5.77244         4.61689        -0.26307
| 39>    C       -9.00113         1.10279        -1.24903
| 40>    C       -9.21905         1.12552         0.08668
| 41>    C      -10.38923         0.63075         0.76142
| 42>    C      -10.54666         0.82433         2.13629
| 43>    C      -11.65937         0.32099         2.81086
| 44>    C      -12.60463        -0.36165         2.03069
| 45>    N      -12.48016        -0.54955         0.73133
| 46>    C      -11.41447        -0.07917         0.11508
| 47>    C      -11.81734         0.53105         4.22900
| 48>    C      -12.64831        -0.16375         5.03444
| 49>    C      -12.84170         0.06640         6.41782
| 50>    C      -13.57590        -0.73873         7.31075
| 51>    O      -14.25172        -1.80162         6.79917
| 52>    C      -14.74179        -2.73786         7.73103
| 53>    C      -15.53390        -2.07844         8.84802
| 54>    S      -14.39387        -1.16314         9.93484
| 55>    C      -13.50357        -0.34861         8.64321
| 56>    C      -12.68744         0.77599         8.85955
| 57>    S      -12.09436         1.37045         7.28350
| 58>    N      -13.32021         2.64275         7.13209
| 59>    C      -13.37314         3.29687         5.84269
| 60>    C      -12.29327         1.47367         9.98706
| 61>    C      -12.64834         1.20554        11.30079
| 62>    C      -12.31436         2.00385        12.37911
| 63>    C      -12.47012         1.74292        13.75115
| 64>    O      -13.05638         0.56246        14.15052
| 65>    C      -12.74092         0.17467        15.46367
| 66>    C      -13.10040         1.24744        16.48284
| 67>    S      -11.96517         2.66454        16.32150
| 68>    C      -11.94292         2.73203        14.56895
| 69>    C      -11.35781         3.81455        13.88920
| 70>    S      -11.58497         3.62230        12.17717
| 71>    N      -13.10438         4.51396        12.00303
| 72>    C      -13.71713         4.51138        10.69430
| 73>    C      -10.62896         4.90373        14.43593
| 74>    C      -10.08827         5.91123        13.74234
| 75>    H        1.30475         3.42516        -1.78911
| 76>    H        2.52479         2.95744        -6.22198
| 77>    H        1.09704         4.02940        -6.25594
| 78>    H        0.90671         1.00017        -5.85995
| 79>    H        0.68787         1.82044        -7.43092
| 80>    H       -2.71006         4.83139        -2.20539
| 81>    H       -0.65698         5.58796        -0.25268
| 82>    H       -2.33758         5.22382         0.19692
| 83>    H       -1.96536         6.64526        -0.80271
| 84>    H       -3.57718         2.41906        -4.45836
| 85>    H       -3.66857         2.43761        -1.38473
| 86>    H       -6.41931         0.10134        -5.60186
| 87>    H       -5.92759         1.34348        -6.78879
| 88>    H       -8.40330         1.15812        -6.77871
| 89>    H       -7.94344         2.71970        -6.04600
| 90>    H       -7.68309         3.89951        -0.46336
| 91>    H       -4.83328         4.47609        -0.79592
| 92>    H       -5.62496         4.36854         0.79502
| 93>    H       -6.06188         5.66447        -0.34127
| 94>    H       -9.76528         0.73181        -1.91866
| 95>    H       -8.43979         1.52966         0.72731
| 96>    H       -9.78699         1.36317         2.69033
| 97>    H      -13.50872        -0.76004         2.47058
| 98>    H      -11.37207        -0.28193        -0.94602
| 99>    H      -11.19057         1.30045         4.66997
|100>    H      -13.23375        -0.98204         4.63958
|101>    H      -13.91028        -3.31400         8.16109
|102>    H      -15.37826        -3.41015         7.14880
|103>    H      -16.02731        -2.82026         9.47170
|104>    H      -16.26757        -1.38195         8.44030
|105>    H      -13.16227         3.30963         7.88220
|106>    H      -13.53019         2.53486         5.08132
|107>    H      -12.46885         3.86543         5.59641
|108>    H      -14.22551         3.97586         5.84161
|109>    H      -11.64128         2.32452         9.81660
|110>    H      -13.21358         0.31459        11.52975
|111>    H      -11.67093        -0.06716        15.54825
|112>    H      -13.32753        -0.73011        15.64427
|113>    H      -12.98943         0.87900        17.50032
|114>    H      -14.11918         1.60074        16.32111
|115>    H      -12.91848         5.45749        12.32918
|116>    H      -13.91299         3.47754        10.41277
|117>    H      -13.10483         4.99271         9.92047
|118>    H      -14.66791         5.03936        10.76264
|119>    H      -10.54052         4.88116        15.51517
|120>    H      -10.15277         5.95086        12.66606
|121>    H       -9.54616         6.70274        14.22453
|122> *
|123>
|124>                          ****END OF INPUT****

CARTESIAN COORDINATES (ANGSTROEM)
---------------------------------
  C      0.438000    3.284070   -2.396930
  C      0.432470    3.086590   -3.774990
  O      1.599220    3.138330   -4.463010
  C      1.496760    3.081400   -5.870020
  C      0.623560    1.932080   -6.351070
  S     -1.119870    2.296190   -5.962540
  C     -0.828860    2.774350   -4.287990
  C     -1.840240    2.751710   -3.325010
  S     -1.122210    3.202810   -1.729690
  N     -1.765830    4.863980   -1.833320
  C     -1.689370    5.610780   -0.599350
  C     -3.190650    2.510000   -3.454350
  C     -4.072500    2.373760   -2.389530
  C     -5.431910    2.138200   -2.499650
  C     -6.253080    1.878790   -3.617650
  O     -5.722780    1.910810   -4.889010
  C     -6.447710    1.174180   -5.842050
  C     -7.894630    1.635220   -5.943910
  S     -8.806630    1.153210   -4.441040
  C     -7.555870    1.556980   -3.279390
  C     -7.833590    1.550630   -1.896230
  S     -6.425130    2.079660   -1.023690
  N     -6.779710    3.814490   -0.918580
  C     -5.772440    4.616890   -0.263070
  C     -9.001130    1.102790   -1.249030
  C     -9.219050    1.125520    0.086680
  C    -10.389230    0.630750    0.761420
  C    -10.546660    0.824330    2.136290
  C    -11.659370    0.320990    2.810860
  C    -12.604630   -0.361650    2.030690
  N    -12.480160   -0.549550    0.731330
  C    -11.414470   -0.079170    0.115080
  C    -11.817340    0.531050    4.229000
  C    -12.648310   -0.163750    5.034440
  C    -12.841700    0.066400    6.417820
  C    -13.575900   -0.738730    7.310750
  O    -14.251720   -1.801620    6.799170
  C    -14.741790   -2.737860    7.731030
  C    -15.533900   -2.078440    8.848020
  S    -14.393870   -1.163140    9.934840
  C    -13.503570   -0.348610    8.643210
  C    -12.687440    0.775990    8.859550
  S    -12.094360    1.370450    7.283500
  N    -13.320210    2.642750    7.132090
  C    -13.373140    3.296870    5.842690
  C    -12.293270    1.473670    9.987060
  C    -12.648340    1.205540   11.300790
  C    -12.314360    2.003850   12.379110
  C    -12.470120    1.742920   13.751150
  O    -13.056380    0.562460   14.150520
  C    -12.740920    0.174670   15.463670
  C    -13.100400    1.247440   16.482840
  S    -11.965170    2.664540   16.321500
  C    -11.942920    2.732030   14.568950
  C    -11.357810    3.814550   13.889200
  S    -11.584970    3.622300   12.177170
  N    -13.104380    4.513960   12.003030
  C    -13.717130    4.511380   10.694300
  C    -10.628960    4.903730   14.435930
  C    -10.088270    5.911230   13.742340
  H      1.304750    3.425160   -1.789110
  H      2.524790    2.957440   -6.221980
  H      1.097040    4.029400   -6.255940
  H      0.906710    1.000170   -5.859950
  H      0.687870    1.820440   -7.430920
  H     -2.710060    4.831390   -2.205390
  H     -0.656980    5.587960   -0.252680
  H     -2.337580    5.223820    0.196920
  H     -1.965360    6.645260   -0.802710
  H     -3.577180    2.419060   -4.458360
  H     -3.668570    2.437610   -1.384730
  H     -6.419310    0.101340   -5.601860
  H     -5.927590    1.343480   -6.788790
  H     -8.403300    1.158120   -6.778710
  H     -7.943440    2.719700   -6.046000
  H     -7.683090    3.899510   -0.463360
  H     -4.833280    4.476090   -0.795920
  H     -5.624960    4.368540    0.795020
  H     -6.061880    5.664470   -0.341270
  H     -9.765280    0.731810   -1.918660
  H     -8.439790    1.529660    0.727310
  H     -9.786990    1.363170    2.690330
  H    -13.508720   -0.760040    2.470580
  H    -11.372070   -0.281930   -0.946020
  H    -11.190570    1.300450    4.669970
  H    -13.233750   -0.982040    4.639580
  H    -13.910280   -3.314000    8.161090
  H    -15.378260   -3.410150    7.148800
  H    -16.027310   -2.820260    9.471700
  H    -16.267570   -1.381950    8.440300
  H    -13.162270    3.309630    7.882200
  H    -13.530190    2.534860    5.081320
  H    -12.468850    3.865430    5.596410
  H    -14.225510    3.975860    5.841610
  H    -11.641280    2.324520    9.816600
  H    -13.213580    0.314590   11.529750
  H    -11.670930   -0.067160   15.548250
  H    -13.327530   -0.730110   15.644270
  H    -12.989430    0.879000   17.500320
  H    -14.119180    1.600740   16.321110
  H    -12.918480    5.457490   12.329180
  H    -13.912990    3.477540   10.412770
  H    -13.104830    4.992710    9.920470
  H    -14.667910    5.039360   10.762640
  H    -10.540520    4.881160   15.515170
  H    -10.152770    5.950860   12.666060
  H     -9.546160    6.702740   14.224530

 Total Charge           Charge          ....    0
 Multiplicity           Mult            ....    1
 Number of Electrons    NEL             ....  500
 Basis Dimension        Dim             .... 1107

ORBITAL ENERGIES
----------------

  NO   OCC          E(Eh)            E(eV)
   0   2.0000     -89.036664     -2422.8108
   1   2.0000     -89.034682     -2422.7569
   2   2.0000     -89.032759     -2422.7045
   3   2.0000     -89.031444     -2422.6688
   4   2.0000     -88.923701     -2419.7369
   5   2.0000     -88.921912     -2419.6882
   6   2.0000     -88.915421     -2419.5116
   7   2.0000     -88.913582     -2419.4616
   8   2.0000     -19.250543      -523.8339
   9   2.0000     -19.250232      -523.8254
  10   2.0000     -19.231044      -523.3033
  11   2.0000     -19.227997      -523.2204
  12   2.0000     -14.424776      -392.5181
  13   2.0000     -14.423260      -392.4769
  14   2.0000     -14.420925      -392.4133
  15   2.0000     -14.416175      -392.2841
  16   2.0000     -14.360508      -390.7693
  17   2.0000     -10.338556      -281.3264
  18   2.0000     -10.334963      -281.2286
  19   2.0000     -10.327979      -281.0386
  20   2.0000     -10.327000      -281.0120
  21   2.0000     -10.320789      -280.8430
  22   2.0000     -10.320498      -280.8350
  23   2.0000     -10.303425      -280.3704
  24   2.0000     -10.303283      -280.3666
  25   2.0000     -10.300923      -280.3024
  26   2.0000     -10.300485      -280.2904
  27   2.0000     -10.300146      -280.2812
  28   2.0000     -10.299325      -280.2589
  29   2.0000     -10.298382      -280.2332
  30   2.0000     -10.295872      -280.1649
  31   2.0000     -10.295379      -280.1515
  32   2.0000     -10.295127      -280.1446
  33   2.0000     -10.294783      -280.1353
  34   2.0000     -10.294487      -280.1272
  35   2.0000     -10.294090      -280.1164
  36   2.0000     -10.294056      -280.1155
  37   2.0000     -10.292945      -280.0853
  38   2.0000     -10.290364      -280.0151
  39   2.0000     -10.278732      -279.6985
  40   2.0000     -10.274955      -279.5957
  41   2.0000     -10.269328      -279.4426
  42   2.0000     -10.268474      -279.4194
  43   2.0000     -10.266291      -279.3600
  44   2.0000     -10.261252      -279.2229
  45   2.0000     -10.260296      -279.1969
  46   2.0000     -10.259929      -279.1869
  47   2.0000     -10.259297      -279.1697
  48   2.0000     -10.258556      -279.1495
  49   2.0000     -10.258068      -279.1362
  50   2.0000     -10.257855      -279.1304
  51   2.0000     -10.254134      -279.0292
  52   2.0000     -10.253621      -279.0152
  53   2.0000     -10.251336      -278.9530
  54   2.0000     -10.246710      -278.8271
  55   2.0000     -10.246504      -278.8215
  56   2.0000     -10.241023      -278.6724
  57   2.0000     -10.232837      -278.4496
  58   2.0000     -10.229621      -278.3621
  59   2.0000     -10.226476      -278.2766
  60   2.0000      -8.123216      -221.0439
  61   2.0000      -8.120856      -220.9797
  62   2.0000      -8.118887      -220.9261
  63   2.0000      -8.117130      -220.8783
  64   2.0000      -8.019159      -218.2124
  65   2.0000      -8.017247      -218.1604
  66   2.0000      -8.010055      -217.9647
  67   2.0000      -8.008619      -217.9256
  68   2.0000      -6.092594      -165.7879
  69   2.0000      -6.090195      -165.7226
  70   2.0000      -6.090164      -165.7218
  71   2.0000      -6.088200      -165.6683
  72   2.0000      -6.087837      -165.6585
  73   2.0000      -6.086299      -165.6166
  74   2.0000      -6.085882      -165.6053
  75   2.0000      -6.085175      -165.5860
  76   2.0000      -6.084241      -165.5606
  77   2.0000      -6.082940      -165.5252
  78   2.0000      -6.080963      -165.4714
  79   2.0000      -6.079421      -165.4295
  80   2.0000      -5.989449      -162.9812
  81   2.0000      -5.987586      -162.9305
  82   2.0000      -5.985550      -162.8751
  83   2.0000      -5.983631      -162.8229
  84   2.0000      -5.980678      -162.7425
  85   2.0000      -5.979172      -162.7015
  86   2.0000      -5.978925      -162.6948
  87   2.0000      -5.976979      -162.6419
  88   2.0000      -5.976750      -162.6356
  89   2.0000      -5.975423      -162.5995
  90   2.0000      -5.969335      -162.4339
  91   2.0000      -5.967801      -162.3921
  92   2.0000      -1.156787       -31.4778
  93   2.0000      -1.156116       -31.4595
  94   2.0000      -1.136023       -30.9127
  95   2.0000      -1.133660       -30.8485
  96   2.0000      -1.035010       -28.1641
  97   2.0000      -1.032774       -28.1032
  98   2.0000      -1.031534       -28.0695
  99   2.0000      -1.027039       -27.9471
 100   2.0000      -0.991568       -26.9819
 101   2.0000      -0.956423       -26.0256
 102   2.0000      -0.954286       -25.9675
 103   2.0000      -0.952631       -25.9224
 104   2.0000      -0.951025       -25.8787
 105   2.0000      -0.911405       -24.8006
 106   2.0000      -0.909313       -24.7437
 107   2.0000      -0.904754       -24.6196
 108   2.0000      -0.901387       -24.5280
 109   2.0000      -0.886909       -24.1340
 110   2.0000      -0.885982       -24.1088
 111   2.0000      -0.877916       -23.8893
 112   2.0000      -0.870662       -23.6919
 113   2.0000      -0.857836       -23.3429
 114   2.0000      -0.853852       -23.2345
 115   2.0000      -0.852247       -23.1908
 116   2.0000      -0.849939       -23.1280
 117   2.0000      -0.846799       -23.0426
 118   2.0000      -0.837552       -22.7910
 119   2.0000      -0.824123       -22.4255
 120   2.0000      -0.804973       -21.9044
 121   2.0000      -0.792973       -21.5779
 122   2.0000      -0.769872       -20.9493
 123   2.0000      -0.769747       -20.9459
 124   2.0000      -0.768856       -20.9216
 125   2.0000      -0.768703       -20.9175
 126   2.0000      -0.763831       -20.7849
 127   2.0000      -0.759320       -20.6621
 128   2.0000      -0.741687       -20.1823
 129   2.0000      -0.739007       -20.1094
 130   2.0000      -0.736325       -20.0364
 131   2.0000      -0.734447       -19.9853
 132   2.0000      -0.732334       -19.9278
 133   2.0000      -0.725855       -19.7515
 134   2.0000      -0.715607       -19.4727
 135   2.0000      -0.704364       -19.1667
 136   2.0000      -0.700934       -19.0734
 137   2.0000      -0.690984       -18.8026
 138   2.0000      -0.674780       -18.3617
 139   2.0000      -0.667020       -18.1505
 140   2.0000      -0.665255       -18.1025
 141   2.0000      -0.650810       -17.7094
 142   2.0000      -0.641698       -17.4615
 143   2.0000      -0.635826       -17.3017
 144   2.0000      -0.624625       -16.9969
 145   2.0000      -0.622736       -16.9455
 146   2.0000      -0.618840       -16.8395
 147   2.0000      -0.618121       -16.8199
 148   2.0000      -0.611241       -16.6327
 149   2.0000      -0.607420       -16.5287
 150   2.0000      -0.603365       -16.4184
 151   2.0000      -0.600825       -16.3493
 152   2.0000      -0.596236       -16.2244
 153   2.0000      -0.587201       -15.9786
 154   2.0000      -0.583621       -15.8811
 155   2.0000      -0.577892       -15.7252
 156   2.0000      -0.573625       -15.6091
 157   2.0000      -0.568434       -15.4679
 158   2.0000      -0.565210       -15.3801
 159   2.0000      -0.561689       -15.2843
 160   2.0000      -0.560358       -15.2481
 161   2.0000      -0.557301       -15.1649
 162   2.0000      -0.556923       -15.1546
 163   2.0000      -0.553548       -15.0628
 164   2.0000      -0.549622       -14.9560
 165   2.0000      -0.548731       -14.9317
 166   2.0000      -0.545685       -14.8488
 167   2.0000      -0.543385       -14.7863
 168   2.0000      -0.538941       -14.6653
 169   2.0000      -0.537811       -14.6346
 170   2.0000      -0.534952       -14.5568
 171   2.0000      -0.531437       -14.4611
 172   2.0000      -0.528424       -14.3792
 173   2.0000      -0.526701       -14.3323
 174   2.0000      -0.525536       -14.3006
 175   2.0000      -0.524811       -14.2808
 176   2.0000      -0.517970       -14.0947
 177   2.0000      -0.516081       -14.0433
 178   2.0000      -0.512370       -13.9423
 179   2.0000      -0.509640       -13.8680
 180   2.0000      -0.507731       -13.8161
 181   2.0000      -0.498047       -13.5526
 182   2.0000      -0.496063       -13.4986
 183   2.0000      -0.494793       -13.4640
 184   2.0000      -0.492856       -13.4113
 185   2.0000      -0.492384       -13.3984
 186   2.0000      -0.488421       -13.2906
 187   2.0000      -0.484677       -13.1887
 188   2.0000      -0.480321       -13.0702
 189   2.0000      -0.478194       -13.0123
 190   2.0000      -0.474658       -12.9161
 191   2.0000      -0.474436       -12.9101
 192   2.0000      -0.470412       -12.8006
 193   2.0000      -0.468876       -12.7588
 194   2.0000      -0.467818       -12.7300
 195   2.0000      -0.466278       -12.6881
 196   2.0000      -0.464728       -12.6459
 197   2.0000      -0.462348       -12.5811
 198   2.0000      -0.457019       -12.4361
 199   2.0000      -0.453874       -12.3505
 200   2.0000      -0.452707       -12.3188
 201   2.0000      -0.449820       -12.2402
 202   2.0000      -0.447589       -12.1795
 203   2.0000      -0.446014       -12.1367
 204   2.0000      -0.444992       -12.1088
 205   2.0000      -0.441013       -12.0006
 206   2.0000      -0.437896       -11.9157
 207   2.0000      -0.435022       -11.8375
 208   2.0000      -0.434052       -11.8112
 209   2.0000      -0.430087       -11.7033
 210   2.0000      -0.429447       -11.6858
 211   2.0000      -0.428935       -11.6719
 212   2.0000      -0.423249       -11.5172
 213   2.0000      -0.422396       -11.4940
 214   2.0000      -0.420026       -11.4295
 215   2.0000      -0.416820       -11.3422
 216   2.0000      -0.412595       -11.2273
 217   2.0000      -0.410076       -11.1587
 218   2.0000      -0.409304       -11.1377
 219   2.0000      -0.407922       -11.1001
 220   2.0000      -0.405536       -11.0352
 221   2.0000      -0.399603       -10.8737
 222   2.0000      -0.390180       -10.6173
 223   2.0000      -0.388037       -10.5590
 224   2.0000      -0.377390       -10.2693
 225   2.0000      -0.375707       -10.2235
 226   2.0000      -0.373980       -10.1765
 227   2.0000      -0.369403       -10.0520
 228   2.0000      -0.369116       -10.0442
 229   2.0000      -0.355942        -9.6857
 230   2.0000      -0.353201        -9.6111
 231   2.0000      -0.349483        -9.5099
 232   2.0000      -0.334781        -9.1098
 233   2.0000      -0.323529        -8.8037
 234   2.0000      -0.319310        -8.6889
 235   2.0000      -0.317182        -8.6310
 236   2.0000      -0.316605        -8.6153
 237   2.0000      -0.315648        -8.5892
 238   2.0000      -0.304745        -8.2925
 239   2.0000      -0.303973        -8.2715
 240   2.0000      -0.300105        -8.1663
 241   2.0000      -0.298460        -8.1215
 242   2.0000      -0.283871        -7.7245
 243   2.0000      -0.271436        -7.3861
 244   2.0000      -0.257089        -6.9957
 245   2.0000      -0.249450        -6.7879
 246   2.0000      -0.213511        -5.8099
 247   2.0000      -0.207066        -5.6345
 248   2.0000      -0.171630        -4.6703
 249   2.0000      -0.168769        -4.5924
 250   0.0000      -0.046172        -1.2564
 251   0.0000      -0.045247        -1.2312
 252   0.0000       0.012815         0.3487
 253   0.0000       0.024710         0.6724
 254   0.0000       0.028905         0.7865

MULLIKEN ATOMIC CHARGES
-----------------------
   0 C :   -0.208130
   1 C :    0.245548
   2 O :   -0.289981
   3 C :    0.232376
   4 C :   -0.112744
   5 S :   -0.004068
   6 C :   -0.056481
   7 C :   -0.132520
   8 S :    0.328308
   9 N :   -0.371269
  10 C :    0.108164
  11 C :   -0.041602
  12 C :   -0.022954
  13 C :   -0.121565
  14 C :    0.173624
  15 O :   -0.328566
  16 C :    0.223097
  17 C :   -0.085900
  18 S :    0.003645
  19 C :    0.015434
  20 C :   -0.237068
  21 S :    0.348080
  22 N :   -0.355410
  23 C :    0.110723
  24 C :    0.077612
  25 C :   -0.102005
  26 C :    0.121328
  27 C :   -0.078833
  28 C :    0.108230
  29 C :   -0.051444
  30 N :   -0.052190
  31 C :   -0.053585
  32 C :   -0.079226
  33 C :    0.081644
  34 C :   -0.240297
  35 C :    0.241864
  36 O :   -0.296774
  37 C :    0.226191
  38 C :   -0.091323
  39 S :   -0.014140
  40 C :   -0.070043
  41 C :   -0.137355
  42 S :    0.357148
  43 N :   -0.354270
  44 C :    0.087617
  45 C :   -0.017153
  46 C :   -0.014008
  47 C :   -0.136527
  48 C :    0.192094
  49 O :   -0.320457
  50 C :    0.224591
  51 C :   -0.090782
  52 S :    0.002817
  53 C :    0.031305
  54 C :   -0.264270
  55 S :    0.331167
  56 N :   -0.346854
  57 C :    0.074331
  58 C :    0.049261
  59 C :   -0.107595
  60 H :    0.000088
  61 H :    0.025144
  62 H :    0.031766
  63 H :    0.068257
  64 H :    0.053508
  65 H :    0.138905
  66 H :    0.019242
  67 H :    0.006153
  68 H :    0.040395
  69 H :    0.013781
  70 H :   -0.022610
  71 H :    0.026202
  72 H :    0.023867
  73 H :    0.054268
  74 H :    0.070438
  75 H :    0.142320
  76 H :   -0.006393
  77 H :    0.012470
  78 H :    0.041241
  79 H :   -0.010253
  80 H :   -0.062450
  81 H :   -0.051586
  82 H :   -0.026644
  83 H :   -0.024979
  84 H :   -0.052662
  85 H :   -0.005986
  86 H :    0.032797
  87 H :    0.029144
  88 H :    0.054213
  89 H :    0.069274
  90 H :    0.116197
  91 H :    0.062836
  92 H :    0.010727
  93 H :    0.037970
  94 H :   -0.031387
  95 H :    0.012503
  96 H :    0.022538
  97 H :    0.021816
  98 H :    0.053065
  99 H :    0.070606
 100 H :    0.141787
 101 H :    0.063827
 102 H :    0.002718
 103 H :    0.040499
 104 H :   -0.010538
 105 H :   -0.019424
 106 H :    0.005540
Sum of atomic charges:    0.0000000

LOEWDIN ATOMIC CHARGES
----------------------
   0 C :   -0.364455
   1 C :    0.055265
   2 O :   -0.086034
   3 C :    0.069536
   4 C :   -0.144356
   5 S :    0.268664
   6 C :   -0.302317
   7 C :   -0.145606
   8 S :    0.825777
   9 N :   -0.245703
  10 C :   -0.013661
  11 C :   -0.085346
  12 C :   -0.082416
  13 C :   -0.176762
  14 C :   -0.067755
  15 O :   -0.113890
  16 C :    0.068264
  17 C :   -0.142156
  18 S :    0.303386
  19 C :   -0.179950
  20 C :   -0.323780
  21 S :    0.852898
  22 N :   -0.239067
  23 C :   -0.015191
  24 C :   -0.019327
  25 C :   -0.124452
  26 C :   -0.033873
  27 C :   -0.027773
  28 C :   -0.037722
  29 C :   -0.016693
  30 N :   -0.067333
  31 C :   -0.013723
  32 C :   -0.106808
  33 C :   -0.013644
  34 C :   -0.321968
  35 C :    0.051000
  36 O :   -0.085458
  37 C :    0.069493
  38 C :   -0.143782
  39 S :    0.283084
  40 C :   -0.299803
  41 C :   -0.163724
  42 S :    0.858510
  43 N :   -0.235525
  44 C :   -0.010298
  45 C :   -0.105201
  46 C :   -0.058820
  47 C :   -0.165662
  48 C :   -0.068661
  49 O :   -0.118084
  50 C :    0.067738
  51 C :   -0.142238
  52 S :    0.301392
  53 C :   -0.175405
  54 C :   -0.332900
  55 S :    0.849349
  56 N :   -0.230838
  57 C :   -0.015973
  58 C :   -0.031337
  59 C :   -0.156506
  60 H :    0.015709
  61 H :    0.027286
  62 H :    0.020127
  63 H :    0.028583
  64 H :    0.033019
  65 H :    0.047040
  66 H :    0.020499
  67 H :    0.000276
  68 H :    0.033197
  69 H :    0.036087
  70 H :    0.009345
  71 H :    0.016548
  72 H :    0.026955
  73 H :    0.032966
  74 H :    0.030497
  75 H :    0.058662
  76 H :    0.014089
  77 H :    0.005373
  78 H :    0.035094
  79 H :    0.029529
  80 H :   -0.001031
  81 H :    0.015464
  82 H :    0.008904
  83 H :    0.009602
  84 H :    0.002126
  85 H :    0.036797
  86 H :    0.020496
  87 H :    0.028622
  88 H :    0.033931
  89 H :    0.029850
  90 H :    0.040567
  91 H :    0.035950
  92 H :    0.004884
  93 H :    0.033426
  94 H :    0.005904
  95 H :    0.029115
  96 H :    0.014820
  97 H :    0.026490
  98 H :    0.032331
  99 H :    0.030710
 100 H :    0.059224
 101 H :    0.030716
 102 H :   -0.002337
 103 H :    0.036477
 104 H :    0.030416
 105 H :   -0.003342
 106 H :    0.016630

  Mayer bond orders larger than 0.100000
B(  0-C ,  1-C ) :   1.3391 B(  0-C ,  8-S ) :   1.1559 B(  0-C , 60-H ) :   0.9752
B(  1-C ,  2-O ) :   1.1687 B(  1-C ,  6-C ) :   1.3490 B(  2-O ,  3-C ) :   0.9596
B(  3-C ,  4-C ) :   1.0368 B(  3-C , 61-H ) :   0.9516 B(  3-C , 62-H ) :   0.9523
B(  4-C ,  5-S ) :   1.0225 B(  4-C , 63-H ) :   0.9443 B(  4-C , 64-H ) :   0.9485
B(  5-S ,  6-C ) :   0.9647 B(  6-C ,  7-C ) :   1.2889 B(  7-C ,  8-S ) :   0.9396
B(  7-C , 11-C ) :   1.5138 B(  8-S ,  9-N ) :   0.8386 B(  9-N , 10-C ) :   1.0095
B(  9-N , 65-H ) :   0.9309 B( 10-C , 66-H ) :   0.9712 B( 10-C , 67-H ) :   0.9647
B( 10-C , 68-H ) :   0.9751 B( 11-C , 12-C ) :   1.2345 B( 11-C , 69-H ) :   0.9604
B( 12-C , 13-C ) :   1.4914 B( 12-C , 70-H ) :   0.9299 B( 13-C , 14-C ) :   1.2166
B( 13-C , 21-S ) :   0.9839 B( 14-C , 15-O ) :   1.0785 B( 14-C , 19-C ) :   1.4612
B( 15-O , 16-C ) :   0.9859 B( 16-C , 17-C ) :   1.0358 B( 16-C , 71-H ) :   0.9495
B( 16-C , 72-H ) :   0.9520 B( 17-C , 18-S ) :   1.0070 B( 17-C , 73-H ) :   0.9492
B( 17-C , 74-H ) :   0.9438 B( 18-S , 19-C ) :   1.0082 B( 19-C , 20-C ) :   1.2403
B( 20-C , 21-S ) :   1.0590 B( 20-C , 24-C ) :   1.2428 B( 21-S , 22-N ) :   0.8615
B( 22-N , 23-C ) :   1.0031 B( 22-N , 75-H ) :   0.9370 B( 23-C , 76-H ) :   0.9655
B( 23-C , 77-H ) :   0.9653 B( 23-C , 78-H ) :   0.9672 B( 24-C , 25-C ) :   1.6135
B( 24-C , 79-H ) :   0.9527 B( 25-C , 26-C ) :   1.0914 B( 25-C , 80-H ) :   0.9689
B( 26-C , 27-C ) :   1.3406 B( 26-C , 31-C ) :   1.3119 B( 27-C , 28-C ) :   1.3480
B( 27-C , 81-H ) :   0.9991 B( 28-C , 29-C ) :   1.3207 B( 28-C , 32-C ) :   1.0764
B( 29-C , 30-N ) :   1.5619 B( 29-C , 82-H ) :   0.9798 B( 30-N , 31-C ) :   1.5718
B( 31-C , 83-H ) :   0.9810 B( 32-C , 33-C ) :   1.6218 B( 32-C , 84-H ) :   0.9690
B( 33-C , 34-C ) :   1.1949 B( 33-C , 85-H ) :   0.9646 B( 34-C , 35-C ) :   1.2818
B( 34-C , 42-S ) :   1.0399 B( 35-C , 36-O ) :   1.1836 B( 35-C , 40-C ) :   1.3866
B( 36-O , 37-C ) :   0.9577 B( 37-C , 38-C ) :   1.0356 B( 37-C , 86-H ) :   0.9519
B( 37-C , 87-H ) :   0.9520 B( 38-C , 39-S ) :   1.0182 B( 38-C , 88-H ) :   0.9491
B( 38-C , 89-H ) :   0.9442 B( 39-S , 40-C ) :   0.9573 B( 40-C , 41-C ) :   1.2598
B( 41-C , 42-S ) :   0.9864 B( 41-C , 45-C ) :   1.4952 B( 42-S , 43-N ) :   0.8814
B( 43-N , 44-C ) :   0.9909 B( 43-N , 90-H ) :   0.9247 B( 44-C , 91-H ) :   0.9720
B( 44-C , 92-H ) :   0.9682 B( 44-C , 93-H ) :   0.9678 B( 45-C , 46-C ) :   1.2022
B( 45-C , 94-H ) :   0.9342 B( 46-C , 47-C ) :   1.5427 B( 46-C , 95-H ) :   0.9595
B( 47-C , 48-C ) :   1.2312 B( 47-C , 55-S ) :   0.9423 B( 48-C , 49-O ) :   1.1067
B( 48-C , 53-C ) :   1.4275 B( 49-O , 50-C ) :   0.9960 B( 50-C , 51-C ) :   1.0352
B( 50-C , 96-H ) :   0.9486 B( 50-C , 97-H ) :   0.9513 B( 51-C , 52-S ) :   1.0058
B( 51-C , 98-H ) :   0.9490 B( 51-C , 99-H ) :   0.9436 B( 52-S , 53-C ) :   1.0116
B( 53-C , 54-C ) :   1.2565 B( 54-C , 55-S ) :   1.0607 B( 54-C , 58-C ) :   1.2061
B( 55-S , 56-N ) :   0.8859 B( 56-N , 57-C ) :   1.0002 B( 56-N ,100-H ) :   0.9361
B( 57-C ,101-H ) :   0.9688 B( 57-C ,102-H ) :   0.9649 B( 57-C ,103-H ) :   0.9626
B( 58-C , 59-C ) :   1.8569 B( 58-C ,104-H ) :   0.9491 B( 59-C ,105-H ) :   0.9537
B( 59-C ,106-H ) :   0.9494

-----------------------------------------------------------------------------
         ABSORPTION SPECTRUM VIA TRANSITION ELECTRIC DIPOLE MOMENTS
-----------------------------------------------------------------------------
State   Energy  Wavelength   fosc         T2         TX        TY        TZ
        (cm-1)    (nm)                  (au**2)     (au)      (au)      (au)
-----------------------------------------------------------------------------
   0   10248.5    975.7   0.498074995  15.99957   0.58858  -1.33089  -3.72584
   1   11043.4    905.5   0.450707163  13.43590  -3.50051  -1.08692   0.03019
   2   16822.9    594.4   0.033485034   0.65528   0.25571   0.63319  -0.43469
   3   18145.1    551.1   0.131738264   2.39017   1.43670   0.49451   0.28550
   4   19156.3    522.0   0.005514557   0.09477   0.14645   0.06540  -0.26277
   5   19467.9    513.7   0.002875485   0.04863   0.10996   0.07707   0.17491
   6   22559.0    443.3   0.048801470   0.71218  -0.40474   0.25400   0.69559
   7   23993.5    416.8   0.188188448   2.58211  -1.14466  -0.45957   1.02988
   8   24385.4    410.1   0.553927393   7.47823  -1.69259  -0.52032   2.08390
   9   25299.9    395.3   0.129212448   1.68136   0.35934   0.09316   1.24240
  10   25430.0    393.2   0.291089409   3.76839   0.29966   0.79323   1.74625
  11   25821.7    387.3   0.281009698   3.58271  -0.42374   0.51051   1.77272
  12   26288.9    380.4   0.128626562   1.61077  -1.12756  -0.58249  -0.00956
  13   27333.4    365.9   0.013888381   0.16728  -0.40476  -0.03666  -0.04581
  14   27776.0    360.0   0.167089269   1.98040   0.40186   0.55180   1.23062
  15   28731.2    348.1   0.166882864   1.91220  -0.48835   0.25925   1.26748
  16   28945.5    345.5   0.252164282   2.86799  -1.18421  -0.46846  -1.11633
  17   29225.3    342.2   0.025679750   0.28927  -0.49973   0.04944   0.19261
  18   29743.0    336.2   0.202784852   2.24454  -1.33086  -0.08944   0.68216
  19   30664.0    326.1   0.232406293   2.49514  -1.09974  -1.10368   0.26000
  20   31638.3    316.1   0.211537110   2.20115   0.49898   0.74283  -1.18337
  21   31847.8    314.0   0.203091145   2.09936  -0.03813  -0.21820  -1.43189
  22   32697.5    305.8   0.067649408   0.68112   0.42693   0.39348  -0.58654
  23   33963.2    294.4   0.213403400   2.06856   1.04810   0.15010  -0.97341
  24   34277.4    291.7   0.079524521   0.76378   0.55480   0.58531   0.33673
  25   34435.6    290.4   0.114573693   1.09535   0.43846   0.35573  -0.88123
  26   34591.2    289.1   0.066133941   0.62941   0.45195  -0.07629  -0.64756
  27   34701.9    288.2   0.120951409   1.14745  -0.52249  -0.14403   0.92396
  28   34797.6    287.4   0.033141535   0.31354  -0.12661   0.28002   0.46808
  29   34814.0    287.2   0.002109978   0.01995   0.12847  -0.05804  -0.00895
  30   35455.3    282.0   0.014742040   0.13688   0.11018   0.14777  -0.32079
  31   35520.0    281.5   0.048144307   0.44622  -0.33534   0.22088  -0.53383
  32   35591.2    281.0   0.014715792   0.13612   0.28899  -0.19229   0.12503
  33   35714.7    280.0   0.007164790   0.06604   0.12300  -0.08639   0.20845
  34   35935.3    278.3   0.006991939   0.06405  -0.23946  -0.06524  -0.04959
  35   36063.9    277.3   0.036787173   0.33581   0.11170   0.14622  -0.54951
  36   36347.7    275.1   0.022543772   0.20419  -0.08309   0.34069  -0.28497
  37   36446.2    274.4   0.065267086   0.58955  -0.18590  -0.45560  -0.58942
  38   36470.7    274.2   0.032166235   0.29036  -0.19457  -0.24699  -0.43760
  39   36658.0    272.8   0.055410702   0.49762   0.55227  -0.00713  -0.43883
  40   36999.0    270.3   0.012230501   0.10883  -0.23019  -0.23108   0.04937
  41   37193.6    268.9   0.012169568   0.10772  -0.28818   0.10865   0.11342
  42   37306.6    268.0   0.003556945   0.03139   0.11128  -0.13764  -0.00779
  43   37451.9    267.0   0.003494229   0.03072  -0.02433   0.11439  -0.13053
  44   37627.8    265.8   0.001985312   0.01737  -0.09665  -0.06887  -0.05732
  45   38090.9    262.5   0.006143547   0.05310  -0.22943  -0.01932   0.00925
  46   38098.4    262.5   0.001228396   0.01061  -0.09038   0.02932  -0.03982
  47   38528.8    259.5   0.019887968   0.16993   0.31675  -0.01913  -0.26314
  48   38547.8    259.4   0.001983515   0.01694  -0.00551   0.05866  -0.11605
  49   39133.6    255.5   0.006803929   0.05724   0.11005   0.16122   0.13833
  50   39255.2    254.7   0.070627136   0.59231  -0.14950  -0.63725  -0.40481
  51   39318.0    254.3   0.034111529   0.28562  -0.35930   0.04019   0.39358
  52   39675.2    252.0   0.012643682   0.10491   0.09174  -0.26426  -0.16329
  53   40054.0    249.7   0.157894336   1.29776  -1.02429  -0.07576   0.49281

FINAL SINGLE POINT ENERGY     -5422.738388058197

DIPOLE MOMENT
-------------
                                X             Y             Z
Electronic contribution:      4.03038     -20.80239      -2.86379
Nuclear contribution   :     -2.96097      22.33096       3.09901
                        -----------------------------------------
Total Dipole Moment    :      1.06940       1.52857       0.23522
                        -----------------------------------------
Magnitude (a.u.)       :      1.88028
Magnitude (Debye)      :      4.77930

Rotational constants in cm-1:     0.001628     0.000249     0.000225
Rotational constants in MHz :    48.808902     7.479647     6.732937

                             ****ORCA TERMINATED NORMALLY****
TOTAL RUN TIME: 0 days 0 hours 8 minutes 40 seconds 536 msec
