                         Program Version 4.2.0 -  RELEASE  -
|  1> # ORCA input file
|  2> # SCF done       -147.868304409126          0.000417253018
|  3> ! CAM-B3LYP def2-SVP def2/J RIJCOSX Grid4 TightSCF
|  4> %maxcore 5000
|  5> %tddft
|  6>     Mode sTDDFT
|  7>     Ethresh 5.0
|  8>     maxcore 5000
|  9> end
| 10>
| 11> %pal
| 12>   nprocs 6
| 13>   end
| 14> * xyz 0 2
| 15>    C       10.16163        12.86166        -3.56919
| 16>    S       11.07284        13.80095        -4.65732
| 17>    C       10.52704        12.79931        -5.95965
| 18>    N       10.97676        13.09267        -7.26416
| 19>    O       10.58445        12.38206        -8.16525
| 20>    O       11.72629        14.04198        -7.38236
| 21>    C        9.68726        11.79759        -5.56022
| 22>    C        9.46563        11.82379        -4.16135
| 23>    C        8.63921        10.91832        -3.41058
| 24>    C        7.94914         9.88279        -3.92968
| 25>    C        7.14292         9.00825        -3.14777
| 26>    O        7.00392         9.16836        -1.81802
| 27>    C        6.18510         8.18675        -1.35744
| 28>    C        5.78741         7.37700        -2.40532
| 29>    C        6.39849         7.90035        -3.56130
| 30>    C        6.29576         7.42555        -4.87674
| 31>    N        6.21571         7.04508        -5.95517
| 32>    C        5.84519         8.10520         0.01881
| 33>    C        6.27866         8.98773         0.95253
| 34>    C        5.94201         8.94073         2.32642
| 35>    O        6.40942         9.90488         3.14524
| 36>    C        5.94848         9.67051         4.40159
| 37>    C        5.16815         8.52132         4.39817
| 38>    C        5.15922         8.04875         3.07600
| 39>    C        4.49363         6.90398         2.61676
| 40>    N        3.94148         5.96126         2.26692
| 41>    C        6.30077        10.57175         5.42788
| 42>    C        5.87479        10.47603         6.72306
| 43>    C        6.21132        11.38679         7.72908
| 44>    S        7.24886        12.76050         7.42501
| 45>    C        7.12129        13.34096         9.08201
| 46>    C        6.27852        12.47657         9.84367
| 47>    C        5.78677        11.37905         9.07403
| 48>    C        4.96935        10.41933         9.69048
| 49>    C        4.62597        10.55720        11.01341
| 50>    N        3.92411         9.44733        11.63627
| 51>    O        3.01436         8.95865        11.01157
| 52>    O        4.36934         9.05062        12.68526
| 53>    C        5.06027        11.67506        11.75378
| 54>    N        4.55815        11.94498        13.07238
| 55>    O        3.47500        11.48059        13.35724
| 56>    O        5.22517        12.66975        13.78141
| 57>    C        5.89318        12.61568        11.17071
| 58>    C        7.79799        14.47467         9.44804
| 59>    S        7.79515        15.17950        11.04116
| 60>    C        8.85160        16.52794        10.66677
| 61>    C        9.30669        16.60336         9.38266
| 62>    S        8.76947        15.34276         8.28773
| 63>    C       10.20355        17.64225         8.83475
| 64>    O       10.62178        18.56104         9.50090
| 65>    C       10.55717        17.46661         7.38362
| 66>    C        9.16100        17.45282        11.72853
| 67>    C        8.69428        17.33879        12.96983
| 68>    H       10.16961        13.10588        -2.52448
| 69>    H        9.26113        11.09051        -6.24742
| 70>    H        8.58453        11.10236        -2.34641
| 71>    H        7.97368         9.65561        -4.98512
| 72>    H        5.14230         6.52456        -2.34686
| 73>    H        5.19859         7.28476         0.29020
| 74>    H        6.92149         9.80662         0.66047
| 75>    H        4.66750         8.07467         5.23223
| 76>    H        6.94289        11.39213         5.13712
| 77>    H        5.22728         9.65886         7.00413
| 78>    H        4.61988         9.55566         9.14732
| 79>    H        6.19874        13.45632        11.77201
| 80>    H        9.65540        17.48031         6.77365
| 81>    H       11.05519        16.51031         7.23212
| 82>    H       11.21700        18.27297         7.07480
| 83>    H        9.81288        18.26727        11.44724
| 84>    H        8.04361        16.53289        13.27198
| 85>    H        8.95533        18.05562        13.72767
| 86> *
| 87>
| 88>                          ****END OF INPUT****

CARTESIAN COORDINATES (ANGSTROEM)
---------------------------------
  C     10.161630   12.861660   -3.569190
  S     11.072840   13.800950   -4.657320
  C     10.527040   12.799310   -5.959650
  N     10.976760   13.092670   -7.264160
  O     10.584450   12.382060   -8.165250
  O     11.726290   14.041980   -7.382360
  C      9.687260   11.797590   -5.560220
  C      9.465630   11.823790   -4.161350
  C      8.639210   10.918320   -3.410580
  C      7.949140    9.882790   -3.929680
  C      7.142920    9.008250   -3.147770
  O      7.003920    9.168360   -1.818020
  C      6.185100    8.186750   -1.357440
  C      5.787410    7.377000   -2.405320
  C      6.398490    7.900350   -3.561300
  C      6.295760    7.425550   -4.876740
  N      6.215710    7.045080   -5.955170
  C      5.845190    8.105200    0.018810
  C      6.278660    8.987730    0.952530
  C      5.942010    8.940730    2.326420
  O      6.409420    9.904880    3.145240
  C      5.948480    9.670510    4.401590
  C      5.168150    8.521320    4.398170
  C      5.159220    8.048750    3.076000
  C      4.493630    6.903980    2.616760
  N      3.941480    5.961260    2.266920
  C      6.300770   10.571750    5.427880
  C      5.874790   10.476030    6.723060
  C      6.211320   11.386790    7.729080
  S      7.248860   12.760500    7.425010
  C      7.121290   13.340960    9.082010
  C      6.278520   12.476570    9.843670
  C      5.786770   11.379050    9.074030
  C      4.969350   10.419330    9.690480
  C      4.625970   10.557200   11.013410
  N      3.924110    9.447330   11.636270
  O      3.014360    8.958650   11.011570
  O      4.369340    9.050620   12.685260
  C      5.060270   11.675060   11.753780
  N      4.558150   11.944980   13.072380
  O      3.475000   11.480590   13.357240
  O      5.225170   12.669750   13.781410
  C      5.893180   12.615680   11.170710
  C      7.797990   14.474670    9.448040
  S      7.795150   15.179500   11.041160
  C      8.851600   16.527940   10.666770
  C      9.306690   16.603360    9.382660
  S      8.769470   15.342760    8.287730
  C     10.203550   17.642250    8.834750
  O     10.621780   18.561040    9.500900
  C     10.557170   17.466610    7.383620
  C      9.161000   17.452820   11.728530
  C      8.694280   17.338790   12.969830
  H     10.169610   13.105880   -2.524480
  H      9.261130   11.090510   -6.247420
  H      8.584530   11.102360   -2.346410
  H      7.973680    9.655610   -4.985120
  H      5.142300    6.524560   -2.346860
  H      5.198590    7.284760    0.290200
  H      6.921490    9.806620    0.660470
  H      4.667500    8.074670    5.232230
  H      6.942890   11.392130    5.137120
  H      5.227280    9.658860    7.004130
  H      4.619880    9.555660    9.147320
  H      6.198740   13.456320   11.772010
  H      9.655400   17.480310    6.773650
  H     11.055190   16.510310    7.232120
  H     11.217000   18.272970    7.074800
  H      9.812880   18.267270   11.447240
  H      8.043610   16.532890   13.271980
  H      8.955330   18.055620   13.727670

 Total Charge           Charge          ....    0
 Multiplicity           Mult            ....    2
 Number of Electrons    NEL             ....  399
 Basis Dimension        Dim             ....  848

ORBITAL ENERGIES
----------------
                 SPIN UP ORBITALS
  NO   OCC          E(Eh)            E(eV)
   0   1.0000     -88.995294     -2421.6851
   1   1.0000     -88.994799     -2421.6716
   2   1.0000     -88.991491     -2421.5816
   3   1.0000     -88.977162     -2421.1917
   4   1.0000     -19.322469      -525.7911
   5   1.0000     -19.318792      -525.6911
   6   1.0000     -19.253138      -523.9045
   7   1.0000     -19.252971      -523.9000
   8   1.0000     -19.252484      -523.8867
   9   1.0000     -19.251748      -523.8667
  10   1.0000     -19.249734      -523.8119
  11   1.0000     -19.249572      -523.8075
  12   1.0000     -19.230023      -523.2755
  13   1.0000     -14.660870      -398.9426
  14   1.0000     -14.659439      -398.9036
  15   1.0000     -14.658947      -398.8902
  16   1.0000     -14.421641      -392.4328
  17   1.0000     -14.414693      -392.2437
  18   1.0000     -10.390244      -282.7329
  19   1.0000     -10.372744      -282.2567
  20   1.0000     -10.372268      -282.2438
  21   1.0000     -10.369284      -282.1626
  22   1.0000     -10.358987      -281.8824
  23   1.0000     -10.358416      -281.8668
  24   1.0000     -10.357784      -281.8496
  25   1.0000     -10.357256      -281.8353
  26   1.0000     -10.356724      -281.8208
  27   1.0000     -10.354795      -281.7683
  28   1.0000     -10.337196      -281.2894
  29   1.0000     -10.336599      -281.2732
  30   1.0000     -10.335946      -281.2554
  31   1.0000     -10.331416      -281.1321
  32   1.0000     -10.328663      -281.0572
  33   1.0000     -10.327220      -281.0179
  34   1.0000     -10.325302      -280.9657
  35   1.0000     -10.324931      -280.9557
  36   1.0000     -10.324007      -280.9305
  37   1.0000     -10.323998      -280.9303
  38   1.0000     -10.322190      -280.8811
  39   1.0000     -10.317188      -280.7450
  40   1.0000     -10.316498      -280.7262
  41   1.0000     -10.314937      -280.6837
  42   1.0000     -10.313047      -280.6323
  43   1.0000     -10.312309      -280.6122
  44   1.0000     -10.311027      -280.5773
  45   1.0000     -10.310173      -280.5541
  46   1.0000     -10.309146      -280.5261
  47   1.0000     -10.308383      -280.5054
  48   1.0000     -10.307660      -280.4857
  49   1.0000     -10.306880      -280.4645
  50   1.0000     -10.300145      -280.2812
  51   1.0000     -10.297782      -280.2169
  52   1.0000     -10.291134      -280.0360
  53   1.0000      -8.090503      -220.1538
  54   1.0000      -8.090392      -220.1508
  55   1.0000      -8.086880      -220.0552
  56   1.0000      -8.072913      -219.6751
  57   1.0000      -6.060278      -164.9086
  58   1.0000      -6.059788      -164.8952
  59   1.0000      -6.056961      -164.8183
  60   1.0000      -6.055828      -164.7874
  61   1.0000      -6.055250      -164.7717
  62   1.0000      -6.052879      -164.7072
  63   1.0000      -6.052336      -164.6924
  64   1.0000      -6.051691      -164.6749
  65   1.0000      -6.047989      -164.5741
  66   1.0000      -6.042577      -164.4269
  67   1.0000      -6.038421      -164.3138
  68   1.0000      -6.034469      -164.2062
  69   1.0000      -1.338000       -36.4088
  70   1.0000      -1.332485       -36.2587
  71   1.0000      -1.330656       -36.2090
  72   1.0000      -1.241094       -33.7719
  73   1.0000      -1.238832       -33.7103
  74   1.0000      -1.158043       -31.5119
  75   1.0000      -1.151934       -31.3457
  76   1.0000      -1.151788       -31.3418
  77   1.0000      -1.149977       -31.2925
  78   1.0000      -1.039596       -28.2888
  79   1.0000      -1.025039       -27.8927
  80   1.0000      -1.021697       -27.8018
  81   1.0000      -1.007725       -27.4216
  82   1.0000      -1.000608       -27.2279
  83   1.0000      -0.991516       -26.9805
  84   1.0000      -0.954275       -25.9671
  85   1.0000      -0.947449       -25.7814
  86   1.0000      -0.941071       -25.6078
  87   1.0000      -0.935877       -25.4665
  88   1.0000      -0.933057       -25.3898
  89   1.0000      -0.925910       -25.1953
  90   1.0000      -0.919650       -25.0250
  91   1.0000      -0.911169       -24.7942
  92   1.0000      -0.905897       -24.6507
  93   1.0000      -0.897265       -24.4158
  94   1.0000      -0.885193       -24.0873
  95   1.0000      -0.871285       -23.7089
  96   1.0000      -0.853252       -23.2182
  97   1.0000      -0.852083       -23.1864
  98   1.0000      -0.841199       -22.8902
  99   1.0000      -0.825581       -22.4652
 100   1.0000      -0.801503       -21.8100
 101   1.0000      -0.796894       -21.6846
 102   1.0000      -0.792654       -21.5692
 103   1.0000      -0.774863       -21.0851
 104   1.0000      -0.771164       -20.9844
 105   1.0000      -0.758395       -20.6370
 106   1.0000      -0.738780       -20.1032
 107   1.0000      -0.735617       -20.0171
 108   1.0000      -0.727606       -19.7992
 109   1.0000      -0.713382       -19.4121
 110   1.0000      -0.706696       -19.2302
 111   1.0000      -0.697505       -18.9801
 112   1.0000      -0.688920       -18.7465
 113   1.0000      -0.676379       -18.4052
 114   1.0000      -0.666353       -18.1324
 115   1.0000      -0.663225       -18.0473
 116   1.0000      -0.660311       -17.9680
 117   1.0000      -0.655978       -17.8501
 118   1.0000      -0.652990       -17.7688
 119   1.0000      -0.645983       -17.5781
 120   1.0000      -0.642202       -17.4752
 121   1.0000      -0.639677       -17.4065
 122   1.0000      -0.637272       -17.3410
 123   1.0000      -0.632333       -17.2067
 124   1.0000      -0.629939       -17.1415
 125   1.0000      -0.617834       -16.8121
 126   1.0000      -0.614225       -16.7139
 127   1.0000      -0.610188       -16.6041
 128   1.0000      -0.599691       -16.3184
 129   1.0000      -0.593771       -16.1573
 130   1.0000      -0.592418       -16.1205
 131   1.0000      -0.590569       -16.0702
 132   1.0000      -0.590295       -16.0627
 133   1.0000      -0.586868       -15.9695
 134   1.0000      -0.584997       -15.9186
 135   1.0000      -0.579631       -15.7726
 136   1.0000      -0.572816       -15.5871
 137   1.0000      -0.569494       -15.4967
 138   1.0000      -0.565682       -15.3930
 139   1.0000      -0.560505       -15.2521
 140   1.0000      -0.556591       -15.1456
 141   1.0000      -0.554264       -15.0823
 142   1.0000      -0.542418       -14.7600
 143   1.0000      -0.539520       -14.6811
 144   1.0000      -0.537571       -14.6280
 145   1.0000      -0.535306       -14.5664
 146   1.0000      -0.531625       -14.4662
 147   1.0000      -0.528528       -14.3820
 148   1.0000      -0.527165       -14.3449
 149   1.0000      -0.522173       -14.2091
 150   1.0000      -0.516665       -14.0592
 151   1.0000      -0.510366       -13.8878
 152   1.0000      -0.506727       -13.7888
 153   1.0000      -0.506065       -13.7707
 154   1.0000      -0.502612       -13.6768
 155   1.0000      -0.498237       -13.5577
 156   1.0000      -0.493770       -13.4362
 157   1.0000      -0.488062       -13.2808
 158   1.0000      -0.486057       -13.2263
 159   1.0000      -0.482778       -13.1371
 160   1.0000      -0.476335       -12.9617
 161   1.0000      -0.473893       -12.8953
 162   1.0000      -0.472795       -12.8654
 163   1.0000      -0.471565       -12.8319
 164   1.0000      -0.466287       -12.6883
 165   1.0000      -0.466119       -12.6837
 166   1.0000      -0.465330       -12.6623
 167   1.0000      -0.459033       -12.4909
 168   1.0000      -0.450635       -12.2624
 169   1.0000      -0.448417       -12.2021
 170   1.0000      -0.444389       -12.0924
 171   1.0000      -0.443423       -12.0662
 172   1.0000      -0.441177       -12.0050
 173   1.0000      -0.422581       -11.4990
 174   1.0000      -0.420711       -11.4481
 175   1.0000      -0.418881       -11.3983
 176   1.0000      -0.417188       -11.3523
 177   1.0000      -0.410981       -11.1834
 178   1.0000      -0.403398       -10.9770
 179   1.0000      -0.401364       -10.9217
 180   1.0000      -0.395993       -10.7755
 181   1.0000      -0.395418       -10.7599
 182   1.0000      -0.391970       -10.6661
 183   1.0000      -0.388666       -10.5761
 184   1.0000      -0.388477       -10.5710
 185   1.0000      -0.385932       -10.5017
 186   1.0000      -0.378311       -10.2944
 187   1.0000      -0.377117       -10.2619
 188   1.0000      -0.377043       -10.2599
 189   1.0000      -0.376146       -10.2355
 190   1.0000      -0.370341       -10.0775
 191   1.0000      -0.357856        -9.7378
 192   1.0000      -0.352650        -9.5961
 193   1.0000      -0.352090        -9.5808
 194   1.0000      -0.351460        -9.5637
 195   1.0000      -0.342995        -9.3334
 196   1.0000      -0.318720        -8.6728
 197   1.0000      -0.291729        -7.9384
 198   1.0000      -0.262536        -7.1440
 199   1.0000      -0.234084        -6.3697
 200   0.0000      -0.081584        -2.2200
 201   0.0000      -0.068204        -1.8559
 202   0.0000      -0.066476        -1.8089
 203   0.0000      -0.064569        -1.7570
 204   0.0000      -0.050897        -1.3850

                 SPIN DOWN ORBITALS
  NO   OCC          E(Eh)            E(eV)
   0   1.0000     -88.994970     -2421.6763
   1   1.0000     -88.994778     -2421.6710
   2   1.0000     -88.991140     -2421.5720
   3   1.0000     -88.976716     -2421.1795
   4   1.0000     -19.322419      -525.7898
   5   1.0000     -19.318613      -525.6862
   6   1.0000     -19.253295      -523.9088
   7   1.0000     -19.252731      -523.8934
   8   1.0000     -19.252369      -523.8836
   9   1.0000     -19.251368      -523.8564
  10   1.0000     -19.249739      -523.8120
  11   1.0000     -19.249612      -523.8086
  12   1.0000     -19.229853      -523.2709
  13   1.0000     -14.660853      -398.9421
  14   1.0000     -14.659292      -398.8996
  15   1.0000     -14.659229      -398.8979
  16   1.0000     -14.422435      -392.4544
  17   1.0000     -14.415014      -392.2525
  18   1.0000     -10.390272      -282.7337
  19   1.0000     -10.371006      -282.2094
  20   1.0000     -10.369851      -282.1780
  21   1.0000     -10.365200      -282.0514
  22   1.0000     -10.361744      -281.9574
  23   1.0000     -10.359694      -281.9016
  24   1.0000     -10.359675      -281.9011
  25   1.0000     -10.356853      -281.8243
  26   1.0000     -10.354986      -281.7735
  27   1.0000     -10.354689      -281.7654
  28   1.0000     -10.338210      -281.3170
  29   1.0000     -10.336417      -281.2682
  30   1.0000     -10.331144      -281.1247
  31   1.0000     -10.330976      -281.1201
  32   1.0000     -10.328964      -281.0654
  33   1.0000     -10.327559      -281.0272
  34   1.0000     -10.326360      -280.9945
  35   1.0000     -10.324773      -280.9514
  36   1.0000     -10.323678      -280.9216
  37   1.0000     -10.323577      -280.9188
  38   1.0000     -10.322883      -280.8999
  39   1.0000     -10.317030      -280.7407
  40   1.0000     -10.316317      -280.7212
  41   1.0000     -10.315213      -280.6912
  42   1.0000     -10.312974      -280.6303
  43   1.0000     -10.311308      -280.5849
  44   1.0000     -10.310602      -280.5657
  45   1.0000     -10.309649      -280.5398
  46   1.0000     -10.309099      -280.5248
  47   1.0000     -10.307093      -280.4703
  48   1.0000     -10.305459      -280.4258
  49   1.0000     -10.305457      -280.4257
  50   1.0000     -10.300062      -280.2789
  51   1.0000     -10.297913      -280.2205
  52   1.0000     -10.291133      -280.0360
  53   1.0000      -8.090481      -220.1532
  54   1.0000      -8.090066      -220.1419
  55   1.0000      -8.086527      -220.0456
  56   1.0000      -8.072466      -219.6630
  57   1.0000      -6.060156      -164.9052
  58   1.0000      -6.059779      -164.8950
  59   1.0000      -6.056825      -164.8146
  60   1.0000      -6.055686      -164.7836
  61   1.0000      -6.055244      -164.7716
  62   1.0000      -6.052797      -164.7050
  63   1.0000      -6.052187      -164.6884
  64   1.0000      -6.050520      -164.6430
  65   1.0000      -6.046712      -164.5394
  66   1.0000      -6.042344      -164.4205
  67   1.0000      -6.038229      -164.3086
  68   1.0000      -6.032914      -164.1639
  69   1.0000      -1.337995       -36.4087
  70   1.0000      -1.332503       -36.2592
  71   1.0000      -1.330398       -36.2020
  72   1.0000      -1.240918       -33.7671
  73   1.0000      -1.238315       -33.6963
  74   1.0000      -1.158166       -31.5153
  75   1.0000      -1.151827       -31.3428
  76   1.0000      -1.151323       -31.3291
  77   1.0000      -1.149714       -31.2853
  78   1.0000      -1.037648       -28.2358
  79   1.0000      -1.024851       -27.8876
  80   1.0000      -1.019935       -27.7538
  81   1.0000      -1.008757       -27.4497
  82   1.0000      -1.001019       -27.2391
  83   1.0000      -0.989562       -26.9274
  84   1.0000      -0.953023       -25.9331
  85   1.0000      -0.945475       -25.7277
  86   1.0000      -0.940375       -25.5889
  87   1.0000      -0.934901       -25.4399
  88   1.0000      -0.931545       -25.3486
  89   1.0000      -0.925099       -25.1732
  90   1.0000      -0.917993       -24.9799
  91   1.0000      -0.909870       -24.7588
  92   1.0000      -0.904872       -24.6228
  93   1.0000      -0.895823       -24.3766
  94   1.0000      -0.884795       -24.0765
  95   1.0000      -0.869733       -23.6667
  96   1.0000      -0.852434       -23.1959
  97   1.0000      -0.851083       -23.1591
  98   1.0000      -0.840020       -22.8581
  99   1.0000      -0.825822       -22.4718
 100   1.0000      -0.799839       -21.7647
 101   1.0000      -0.795683       -21.6516
 102   1.0000      -0.791759       -21.5449
 103   1.0000      -0.772551       -21.0222
 104   1.0000      -0.769736       -20.9456
 105   1.0000      -0.757563       -20.6144
 106   1.0000      -0.737420       -20.0662
 107   1.0000      -0.734927       -19.9984
 108   1.0000      -0.726259       -19.7625
 109   1.0000      -0.712223       -19.3806
 110   1.0000      -0.704571       -19.1724
 111   1.0000      -0.696656       -18.9570
 112   1.0000      -0.688046       -18.7227
 113   1.0000      -0.676059       -18.3965
 114   1.0000      -0.664966       -18.0946
 115   1.0000      -0.662692       -18.0328
 116   1.0000      -0.659633       -17.9495
 117   1.0000      -0.655703       -17.8426
 118   1.0000      -0.652336       -17.7510
 119   1.0000      -0.645041       -17.5525
 120   1.0000      -0.642286       -17.4775
 121   1.0000      -0.639507       -17.4019
 122   1.0000      -0.636477       -17.3194
 123   1.0000      -0.631433       -17.1822
 124   1.0000      -0.628995       -17.1158
 125   1.0000      -0.616825       -16.7847
 126   1.0000      -0.613663       -16.6986
 127   1.0000      -0.609772       -16.5927
 128   1.0000      -0.598846       -16.2954
 129   1.0000      -0.593593       -16.1525
 130   1.0000      -0.592419       -16.1205
 131   1.0000      -0.590105       -16.0576
 132   1.0000      -0.588815       -16.0225
 133   1.0000      -0.584820       -15.9138
 134   1.0000      -0.584572       -15.9070
 135   1.0000      -0.579489       -15.7687
 136   1.0000      -0.572418       -15.5763
 137   1.0000      -0.569204       -15.4888
 138   1.0000      -0.565272       -15.3818
 139   1.0000      -0.559229       -15.2174
 140   1.0000      -0.555763       -15.1231
 141   1.0000      -0.553170       -15.0525
 142   1.0000      -0.540982       -14.7209
 143   1.0000      -0.537416       -14.6238
 144   1.0000      -0.534771       -14.5519
 145   1.0000      -0.534214       -14.5367
 146   1.0000      -0.530795       -14.4437
 147   1.0000      -0.527828       -14.3629
 148   1.0000      -0.525738       -14.3061
 149   1.0000      -0.521983       -14.2039
 150   1.0000      -0.515593       -14.0300
 151   1.0000      -0.505785       -13.7631
 152   1.0000      -0.505612       -13.7584
 153   1.0000      -0.505171       -13.7464
 154   1.0000      -0.502247       -13.6668
 155   1.0000      -0.497961       -13.5502
 156   1.0000      -0.493009       -13.4155
 157   1.0000      -0.488093       -13.2817
 158   1.0000      -0.484912       -13.1951
 159   1.0000      -0.482351       -13.1254
 160   1.0000      -0.476069       -12.9545
 161   1.0000      -0.473890       -12.8952
 162   1.0000      -0.471923       -12.8417
 163   1.0000      -0.468918       -12.7599
 164   1.0000      -0.467224       -12.7138
 165   1.0000      -0.465123       -12.6567
 166   1.0000      -0.458849       -12.4859
 167   1.0000      -0.458721       -12.4824
 168   1.0000      -0.451797       -12.2940
 169   1.0000      -0.444933       -12.1072
 170   1.0000      -0.443916       -12.0796
 171   1.0000      -0.442738       -12.0475
 172   1.0000      -0.436853       -11.8874
 173   1.0000      -0.419543       -11.4163
 174   1.0000      -0.418307       -11.3827
 175   1.0000      -0.417532       -11.3616
 176   1.0000      -0.417199       -11.3526
 177   1.0000      -0.406735       -11.0678
 178   1.0000      -0.401916       -10.9367
 179   1.0000      -0.397017       -10.8034
 180   1.0000      -0.395451       -10.7608
 181   1.0000      -0.392626       -10.6839
 182   1.0000      -0.390519       -10.6266
 183   1.0000      -0.388649       -10.5757
 184   1.0000      -0.387108       -10.5338
 185   1.0000      -0.382895       -10.4191
 186   1.0000      -0.377054       -10.2601
 187   1.0000      -0.374942       -10.2027
 188   1.0000      -0.374607       -10.1936
 189   1.0000      -0.371469       -10.1082
 190   1.0000      -0.366358        -9.9691
 191   1.0000      -0.355522        -9.6742
 192   1.0000      -0.351257        -9.5582
 193   1.0000      -0.349985        -9.5236
 194   1.0000      -0.347132        -9.4459
 195   1.0000      -0.334998        -9.1158
 196   1.0000      -0.312205        -8.4955
 197   1.0000      -0.281295        -7.6544
 198   1.0000      -0.258800        -7.0423
 199   0.0000      -0.107962        -2.9378
 200   0.0000      -0.077478        -2.1083
 201   0.0000      -0.066042        -1.7971
 202   0.0000      -0.064255        -1.7485
 203   0.0000      -0.056746        -1.5441

MULLIKEN ATOMIC CHARGES AND SPIN POPULATIONS
--------------------------------------------
   0 C :   -0.107876    0.029153
   1 S :    0.206537    0.003180
   2 C :   -0.042936   -0.008074
   3 N :    0.274137    0.000772
   4 O :   -0.234336   -0.001462
   5 O :   -0.250579   -0.000223
   6 C :    0.043021    0.011966
   7 C :    0.088033   -0.023307
   8 C :    0.019987    0.076778
   9 C :   -0.040547   -0.058131
  10 C :    0.163869    0.080559
  11 O :   -0.200685    0.001823
  12 C :    0.184989   -0.091402
  13 C :   -0.025127    0.103836
  14 C :   -0.087450   -0.060743
  15 C :   -0.192390    0.013516
  16 N :    0.155505   -0.015673
  17 C :   -0.026722    0.186664
  18 C :   -0.027317   -0.161409
  19 C :    0.194318    0.186610
  20 O :   -0.191139    0.005531
  21 C :    0.194487   -0.200597
  22 C :   -0.041200    0.224768
  23 C :   -0.118458   -0.136460
  24 C :   -0.162802    0.031066
  25 N :    0.140628   -0.038523
  26 C :   -0.006502    0.419096
  27 C :   -0.022942   -0.295635
  28 C :   -0.057911    0.399049
  29 S :    0.098659    0.075682
  30 C :   -0.036196   -0.163335
  31 C :    0.117021    0.173200
  32 C :    0.136407   -0.193670
  33 C :   -0.065101    0.166391
  34 C :    0.087245   -0.136304
  35 N :    0.251446    0.008183
  36 O :   -0.224634   -0.005211
  37 O :   -0.214037   -0.008015
  38 C :    0.136454    0.175184
  39 N :    0.255257   -0.013806
  40 O :   -0.222947    0.021171
  41 O :   -0.233774    0.013711
  42 C :   -0.106950   -0.114227
  43 C :   -0.165227    0.236201
  44 S :    0.109203    0.052832
  45 C :   -0.017180   -0.015227
  46 C :   -0.063324    0.010134
  47 S :    0.100905    0.057167
  48 C :    0.015130   -0.001597
  49 O :   -0.169154    0.006010
  50 C :    0.019910   -0.000305
  51 C :   -0.014697    0.007287
  52 C :   -0.002898   -0.009390
  53 H :    0.034142   -0.001235
  54 H :    0.021536   -0.000479
  55 H :   -0.004947   -0.003182
  56 H :    0.018432    0.002168
  57 H :    0.006311   -0.004025
  58 H :    0.018701   -0.007699
  59 H :    0.003559    0.006385
  60 H :    0.000637   -0.008762
  61 H :    0.004274   -0.017292
  62 H :   -0.008655    0.011116
  63 H :   -0.005981   -0.006567
  64 H :    0.011022    0.003735
  65 H :    0.053331    0.000427
  66 H :    0.052075    0.000416
  67 H :    0.047036   -0.000101
  68 H :    0.038960   -0.000334
  69 H :    0.043217    0.000215
  70 H :    0.046238    0.000421
Sum of atomic charges         :   -0.0000000

LOEWDIN ATOMIC CHARGES AND SPIN POPULATIONS
-------------------------------------------
   0 C :   -0.158715    0.023470
   1 S :    0.503799    0.004039
   2 C :   -0.194624   -0.005831
   3 N :    0.272756    0.000377
   4 O :   -0.200422   -0.001408
   5 O :   -0.216096   -0.000237
   6 C :   -0.005697    0.008223
   7 C :   -0.068734   -0.011343
   8 C :    0.005553    0.055999
   9 C :   -0.040549   -0.035828
  10 C :    0.070180    0.059500
  11 O :    0.019767    0.001828
  12 C :    0.034308   -0.055511
  13 C :   -0.016876    0.075988
  14 C :   -0.107530   -0.034901
  15 C :   -0.035730    0.006448
  16 N :   -0.046389   -0.014226
  17 C :   -0.013841    0.132319
  18 C :   -0.039636   -0.104382
  19 C :    0.063228    0.135766
  20 O :    0.019240    0.005867
  21 C :    0.033437   -0.118814
  22 C :   -0.021022    0.165190
  23 C :   -0.104638   -0.079698
  24 C :   -0.029682    0.015310
  25 N :   -0.051069   -0.035029
  26 C :   -0.039147    0.299514
  27 C :   -0.039792   -0.181697
  28 C :   -0.152554    0.297071
  29 S :    0.396271    0.077006
  30 C :   -0.223085   -0.103048
  31 C :   -0.029120    0.110137
  32 C :   -0.024087   -0.105026
  33 C :    0.009238    0.113332
  34 C :   -0.010646   -0.087640
  35 N :    0.280404    0.003454
  36 O :   -0.189887   -0.005390
  37 O :   -0.183108   -0.008146
  38 C :   -0.026403    0.126363
  39 N :    0.284451   -0.005592
  40 O :   -0.190023    0.020839
  41 O :   -0.201610    0.013644
  42 C :    0.001206   -0.070429
  43 C :   -0.318366    0.192330
  44 S :    0.442183    0.055783
  45 C :   -0.124482   -0.009234
  46 C :   -0.232707    0.008989
  47 S :    0.407393    0.061236
  48 C :    0.069380   -0.000360
  49 O :   -0.133821    0.005727
  50 C :   -0.086477    0.000008
  51 C :   -0.044367    0.004659
  52 C :   -0.008113   -0.007350
  53 H :    0.029506    0.000024
  54 H :    0.046034   -0.000022
  55 H :    0.034854   -0.000044
  56 H :    0.044002   -0.000061
  57 H :    0.044742    0.000086
  58 H :    0.047914    0.000114
  59 H :    0.040432    0.000009
  60 H :    0.039503    0.000303
  61 H :    0.032536    0.000407
  62 H :    0.034193   -0.000289
  63 H :    0.042224   -0.000174
  64 H :    0.026907   -0.000038
  65 H :    0.042801    0.000276
  66 H :    0.042841    0.000273
  67 H :    0.045706   -0.000062
  68 H :    0.043464   -0.000057
  69 H :    0.021604   -0.000043
  70 H :    0.036983    0.000004

  Mayer bond orders larger than 0.100000
B(  0-C ,  1-S ) :   1.1954 B(  0-C ,  7-C ) :   1.4794 B(  0-C , 53-H ) :   0.9736
B(  1-S ,  2-C ) :   1.1465 B(  2-C ,  3-N ) :   0.9401 B(  2-C ,  6-C ) :   1.5141
B(  3-N ,  4-O ) :   1.5500 B(  3-N ,  5-O ) :   1.5270 B(  4-O ,  5-O ) :   0.2722
B(  6-C ,  7-C ) :   1.2164 B(  6-C , 54-H ) :   0.9939 B(  7-C ,  8-C ) :   1.0644
B(  8-C ,  9-C ) :   1.6647 B(  8-C , 55-H ) :   0.9940 B(  9-C , 10-C ) :   1.1876
B(  9-C , 56-H ) :   0.9478 B( 10-C , 11-O ) :   1.1768 B( 10-C , 14-C ) :   1.4006
B( 11-O , 12-C ) :   1.1124 B( 12-C , 13-C ) :   1.4274 B( 12-C , 17-C ) :   1.1715
B( 13-C , 14-C ) :   1.2341 B( 13-C , 57-H ) :   1.0254 B( 14-C , 15-C ) :   1.1029
B( 15-C , 16-N ) :   3.0360 B( 17-C , 18-C ) :   1.5864 B( 17-C , 58-H ) :   0.9500
B( 18-C , 19-C ) :   1.1830 B( 18-C , 59-H ) :   0.9583 B( 19-C , 20-O ) :   1.1598
B( 19-C , 23-C ) :   1.3782 B( 20-O , 21-C ) :   1.1057 B( 21-C , 22-C ) :   1.3890
B( 21-C , 26-C ) :   1.1876 B( 22-C , 23-C ) :   1.2921 B( 22-C , 60-H ) :   1.0128
B( 23-C , 24-C ) :   1.1084 B( 24-C , 25-N ) :   2.9813 B( 26-C , 27-C ) :   1.4431
B( 26-C , 61-H ) :   0.9580 B( 27-C , 28-C ) :   1.3411 B( 27-C , 62-H ) :   0.9641
B( 28-C , 29-S ) :   1.0841 B( 28-C , 32-C ) :   1.2000 B( 29-S , 30-C ) :   1.0328
B( 30-C , 31-C ) :   1.1848 B( 30-C , 43-C ) :   1.6060 B( 31-C , 32-C ) :   1.2520
B( 31-C , 42-C ) :   1.2444 B( 32-C , 33-C ) :   1.2184 B( 33-C , 34-C ) :   1.4851
B( 33-C , 63-H ) :   0.9937 B( 34-C , 35-N ) :   0.8581 B( 34-C , 38-C ) :   1.3105
B( 35-N , 36-O ) :   1.5446 B( 35-N , 37-O ) :   1.5676 B( 36-O , 37-O ) :   0.2800
B( 38-C , 39-N ) :   0.8877 B( 38-C , 42-C ) :   1.4459 B( 39-N , 40-O ) :   1.5588
B( 39-N , 41-O ) :   1.5324 B( 40-O , 41-O ) :   0.2738 B( 42-C , 64-H ) :   0.9754
B( 43-C , 44-S ) :   1.0723 B( 43-C , 47-S ) :   1.0597 B( 44-S , 45-C ) :   1.0484
B( 45-C , 46-C ) :   1.6519 B( 45-C , 51-C ) :   1.1526 B( 46-C , 47-S ) :   1.0194
B( 46-C , 48-C ) :   0.9698 B( 48-C , 49-O ) :   2.1446 B( 48-C , 50-C ) :   1.0769
B( 50-C , 65-H ) :   0.9421 B( 50-C , 66-H ) :   0.9429 B( 50-C , 67-H ) :   0.9457
B( 51-C , 52-C ) :   1.8902 B( 51-C , 68-H ) :   0.9465 B( 52-C , 69-H ) :   0.9517
B( 52-C , 70-H ) :   0.9505

-----------------------------------------------------------------------------
         ABSORPTION SPECTRUM VIA TRANSITION ELECTRIC DIPOLE MOMENTS
-----------------------------------------------------------------------------
State   Energy  Wavelength   fosc         T2         TX        TY        TZ
        (cm-1)    (nm)                  (au**2)     (au)      (au)      (au)
-----------------------------------------------------------------------------
   0   14322.7    698.2   0.053984825   1.24086  -0.58303  -0.90630  -0.28205
   1   16591.2    602.7   0.861806334  17.10043  -0.13137  -1.68158  -3.77564
   2   17512.4    571.0   0.261836878   4.92221   0.02651   0.90267   2.02650
   3   18479.8    541.1   0.018381165   0.32746  -0.27611  -0.44792  -0.22493
   4   20705.2    483.0   0.027817258   0.44229  -0.30427  -0.48172  -0.34301
   5   22042.7    453.7   0.593168625   8.85909  -1.22597  -0.98126   2.52848
   6   22922.9    436.2   0.122342109   1.75704  -0.78593  -0.79880   0.70800
   7   24946.3    400.9   0.042445998   0.56015   0.31095   0.22503  -0.64252
   8   25092.1    398.5   0.032306870   0.42387  -0.33261  -0.26270   0.49419
   9   25316.6    395.0   0.010752725   0.13983  -0.21839  -0.24637   0.17730
  10   25987.0    384.8   0.319773516   4.05100   0.96368   0.87768  -1.53362
  11   26601.4    375.9   0.093191380   1.15331  -0.53196  -0.46122   0.81093
  12   27489.1    363.8   0.075876860   0.90871  -0.26833  -0.63246  -0.66084
  13   27947.1    357.8   0.001170713   0.01379   0.05184   0.05005   0.09273
  14   28465.7    351.3   0.013455397   0.15561  -0.06636  -0.15215  -0.35786
  15   28809.7    347.1   0.247154181   2.82426  -0.84745  -1.39616  -0.39600
  16   29185.0    342.6   0.170658314   1.92506  -0.70035  -1.13504  -0.38245
  17   29660.7    337.1   0.005580913   0.06194   0.14601   0.19317  -0.05754
  18   30001.7    333.3   0.077657124   0.85214  -0.43862  -0.28044   0.76230
  19   30730.3    325.4   0.022559825   0.24168   0.31996   0.34665  -0.13836
  20   30889.0    323.7   0.052544140   0.56001   0.16710  -0.06467  -0.72657
  21   31325.3    319.2   0.010922297   0.11479  -0.08365   0.13645   0.29862
  22   31816.2    314.3   0.204206628   2.11299   0.60349   1.16280   0.62984
  23   31909.7    313.4   0.000045234   0.00047  -0.01167   0.01659   0.00743
  24   32017.2    312.3   0.073914599   0.76002  -0.17006   0.13437   0.84442
  25   32064.4    311.9   0.000322655   0.00331   0.01842  -0.03181  -0.04429
  26   32493.8    307.8   0.046500613   0.47112   0.20761   0.43804   0.48594
  27   32654.2    306.2   0.040707275   0.41040  -0.35505  -0.44121   0.29945
  28   32911.5    303.8   0.026344584   0.26352  -0.20018  -0.40121  -0.24996
  29   33181.9    301.4   0.000006458   0.00006  -0.00677   0.00391  -0.00174
  30   33324.8    300.1   0.015511990   0.15324   0.20283   0.23287  -0.24057
  31   33356.8    299.8   0.000003273   0.00003  -0.00537   0.00178   0.00061
  32   33387.3    299.5   0.006594745   0.06503  -0.06960  -0.18249  -0.16395
  33   33937.6    294.7   0.000141219   0.00137  -0.01805  -0.02280   0.02290
  34   34566.5    289.3   0.003087130   0.02940   0.06010   0.06651  -0.14617
  35   34936.0    286.2   0.109275989   1.02974  -0.64852  -0.77859   0.05449
  36   35350.9    282.9   0.133077953   1.23931  -0.41239  -0.77306  -0.68676
  37   35442.7    282.1   0.004319772   0.04012  -0.00228  -0.04313  -0.19560
  38   35750.5    279.7   0.221826257   2.04271  -0.90125  -1.08940   0.20892
  39   36138.5    276.7   0.016788730   0.15294  -0.17122  -0.12609   0.32821
  40   36569.9    273.4   0.009785274   0.08809   0.14655   0.10825  -0.23430
  41   36712.8    272.4   0.068043744   0.61016   0.31634   0.13768  -0.70081
  42   36872.7    271.2   0.011966180   0.10684   0.19323   0.25877   0.05038
  43   37583.9    266.1   0.036762613   0.32202  -0.28589  -0.43791  -0.22028
  44   37738.7    265.0   0.025849401   0.22550  -0.21212  -0.14584   0.39904
  45   37781.1    264.7   0.000117433   0.00102   0.01298   0.00510  -0.02879
  46   37804.8    264.5   0.004584281   0.03992   0.16226  -0.02789  -0.11321
  47   38248.5    261.4   0.019463032   0.16752   0.15425   0.09790  -0.36626
  48   38416.9    260.3   0.010462988   0.08966   0.16964   0.05038  -0.24155
  49   38448.5    260.1   0.003788326   0.03244   0.09319   0.01784  -0.15308
  50   38721.2    258.3   0.001666254   0.01417   0.10817  -0.04512  -0.02074
  51   38945.8    256.8   0.006514462   0.05507   0.01433  -0.08178  -0.21949
  52   38963.0    256.7   0.006374455   0.05386  -0.00172   0.07947   0.21804
  53   39059.4    256.0   0.136400411   1.14965  -0.39506  -0.76095  -0.64384
  54   39414.2    253.7   0.005085819   0.04248   0.00772  -0.05602  -0.19820
  55   39570.0    252.7   0.012860022   0.10699   0.19727   0.10729   0.23783
  56   40194.4    248.8   0.005666212   0.04641  -0.08485  -0.19756   0.01341

FINAL SINGLE POINT ENERGY     -3884.405932483723

DIPOLE MOMENT
-------------
                                X             Y             Z
Electronic contribution:     -6.23270      -9.04784      -1.41031
Nuclear contribution   :      8.07083      11.55100       2.29129
                        -----------------------------------------
Total Dipole Moment    :      1.83813       2.50316       0.88097
                        -----------------------------------------
Magnitude (a.u.)       :      3.22810
Magnitude (Debye)      :      8.20518

Rotational constants in cm-1:     0.001688     0.000437     0.000348
Rotational constants in MHz :    50.607160    13.105054    10.429653

                             ****ORCA TERMINATED NORMALLY****
TOTAL RUN TIME: 0 days 0 hours 9 minutes 4 seconds 207 msec
