                         Program Version 4.2.0 -  RELEASE  -
|  1> # ORCA input file
|  2> # SCF done       -157.235832528515          0.000780266727
|  3> ! CAM-B3LYP def2-SVP def2/J RIJCOSX Grid4 TightSCF
|  4> %maxcore 5000
|  5> %tddft
|  6>     Mode sTDDFT
|  7>     Ethresh 5.0
|  8>     maxcore 5000
|  9> end
| 10>
| 11> %pal
| 12>   nprocs 6
| 13>   end
| 14> * xyz 0 1
| 15>    C        4.04778        -2.23221        -2.27119
| 16>    S        3.83978        -3.49175        -3.39764
| 17>    C        4.87777        -2.65733        -4.50302
| 18>    N        5.13903        -3.24147        -5.75883
| 19>    O        5.86989        -2.63609        -6.51596
| 20>    O        4.61042        -4.31139        -5.98786
| 21>    C        5.35078        -1.47133        -4.01338
| 22>    C        4.87192        -1.21120        -2.70682
| 23>    C        5.17476        -0.05979        -1.89693
| 24>    C        5.97380         0.95570        -2.27459
| 25>    C        6.28817         2.09289        -1.46963
| 26>    S        7.36276         3.31015        -2.09596
| 27>    C        7.26290         4.24962        -0.64134
| 28>    C        6.41483         3.62197         0.27849
| 29>    C        5.87410         2.41517        -0.19614
| 30>    C        6.11063         4.10563         1.56109
| 31>    N        5.83441         4.45900         2.61830
| 32>    C        8.01362         5.44532        -0.54745
| 33>    C        8.05372         6.26580         0.53641
| 34>    C        8.86654         7.42379         0.57351
| 35>    N        8.96391         8.25029         1.66942
| 36>    C        8.30360         8.07745         2.94142
| 37>    C        8.99095         7.02155         3.80322
| 38>    C        9.86866         9.30748         1.45513
| 39>    O       10.12386        10.16054         2.27918
| 40>    C       10.33690         9.09798         0.10304
| 41>    C        9.70482         7.94316        -0.41388
| 42>    C       10.19037         7.75412        -1.75911
| 43>    O        9.94716         6.90999        -2.60137
| 44>    N       11.10166         8.81018        -1.96608
| 45>    C       11.72344         8.96527        -3.25859
| 46>    C       11.09094        10.09810        -4.06344
| 47>    C       11.20035         9.61922        -0.85478
| 48>    C       12.02573        10.74664        -0.58968
| 49>    C       12.97415        11.33266        -1.35342
| 50>    C       13.79388        12.44567        -0.94251
| 51>    C       14.73597        12.95209        -1.84280
| 52>    C       15.56418        14.00639        -1.50334
| 53>    N       16.58994        14.33330        -2.46144
| 54>    O       16.27802        14.32130        -3.63334
| 55>    O       17.70892        14.55006        -2.04626
| 56>    C       15.46935        14.64421        -0.25435
| 57>    C       14.54655        14.10241         0.65218
| 58>    C       13.73515        13.04183         0.32720
| 59>    C       16.20545        15.82588         0.12838
| 60>    C       16.62175        16.80652        -0.69449
| 61>    C       17.31048        17.97562        -0.25470
| 62>    S       17.32050        18.44021         1.41783
| 63>    C       18.18472        19.88001         1.01722
| 64>    N       18.52585        20.76679         2.05065
| 65>    O       19.11791        21.78465         1.74713
| 66>    O       18.19873        20.44946         3.17999
| 67>    C       18.45355        19.99648        -0.32301
| 68>    C       17.97325        18.90199        -1.06146
| 69>    C       18.20440        18.76566        -2.49160
| 70>    C       18.47285        17.62591        -3.11641
| 71>    H        3.55318        -2.28735        -1.32060
| 72>    H        6.00692        -0.83615        -4.57872
| 73>    H        4.71142        -0.04871        -0.92080
| 74>    H        6.43713         0.94394        -3.25076
| 75>    H        5.20528         1.81087         0.38991
| 76>    H        8.60722         5.69647        -1.41770
| 77>    H        7.46449         6.03688         1.41070
| 78>    H        7.25385         7.81912         2.77897
| 79>    H        8.35619         9.04879         3.44122
| 80>    H        8.97451         6.04882         3.31704
| 81>    H        8.47863         6.93994         4.75735
| 82>    H       10.02523         7.30411         3.98437
| 83>    H       11.55918         8.01625        -3.77856
| 84>    H       12.80015         9.10927        -3.13791
| 85>    H       10.03938         9.88294        -4.23719
| 86>    H       11.58872        10.18963        -5.02495
| 87>    H       11.16481        11.04674        -3.53635
| 88>    H       11.83668        11.13618         0.40216
| 89>    H       13.17944        10.97462        -2.35022
| 90>    H       14.85016        12.50572        -2.82065
| 91>    H       14.46305        14.55512         1.62863
| 92>    H       13.04407        12.66887         1.06573
| 93>    H       16.37650        15.93730         1.19204
| 94>    H       16.42642        16.77087        -1.75759
| 95>    H       18.99131        20.82926        -0.73945
| 96>    H       18.20324        19.69992        -3.03891
| 97>    H       18.55823        16.68599        -2.59595
| 98>    H       18.65013        17.60200        -4.17786
| 99> *
|100>
|101>                          ****END OF INPUT****

CARTESIAN COORDINATES (ANGSTROEM)
---------------------------------
  C      4.047780   -2.232210   -2.271190
  S      3.839780   -3.491750   -3.397640
  C      4.877770   -2.657330   -4.503020
  N      5.139030   -3.241470   -5.758830
  O      5.869890   -2.636090   -6.515960
  O      4.610420   -4.311390   -5.987860
  C      5.350780   -1.471330   -4.013380
  C      4.871920   -1.211200   -2.706820
  C      5.174760   -0.059790   -1.896930
  C      5.973800    0.955700   -2.274590
  C      6.288170    2.092890   -1.469630
  S      7.362760    3.310150   -2.095960
  C      7.262900    4.249620   -0.641340
  C      6.414830    3.621970    0.278490
  C      5.874100    2.415170   -0.196140
  C      6.110630    4.105630    1.561090
  N      5.834410    4.459000    2.618300
  C      8.013620    5.445320   -0.547450
  C      8.053720    6.265800    0.536410
  C      8.866540    7.423790    0.573510
  N      8.963910    8.250290    1.669420
  C      8.303600    8.077450    2.941420
  C      8.990950    7.021550    3.803220
  C      9.868660    9.307480    1.455130
  O     10.123860   10.160540    2.279180
  C     10.336900    9.097980    0.103040
  C      9.704820    7.943160   -0.413880
  C     10.190370    7.754120   -1.759110
  O      9.947160    6.909990   -2.601370
  N     11.101660    8.810180   -1.966080
  C     11.723440    8.965270   -3.258590
  C     11.090940   10.098100   -4.063440
  C     11.200350    9.619220   -0.854780
  C     12.025730   10.746640   -0.589680
  C     12.974150   11.332660   -1.353420
  C     13.793880   12.445670   -0.942510
  C     14.735970   12.952090   -1.842800
  C     15.564180   14.006390   -1.503340
  N     16.589940   14.333300   -2.461440
  O     16.278020   14.321300   -3.633340
  O     17.708920   14.550060   -2.046260
  C     15.469350   14.644210   -0.254350
  C     14.546550   14.102410    0.652180
  C     13.735150   13.041830    0.327200
  C     16.205450   15.825880    0.128380
  C     16.621750   16.806520   -0.694490
  C     17.310480   17.975620   -0.254700
  S     17.320500   18.440210    1.417830
  C     18.184720   19.880010    1.017220
  N     18.525850   20.766790    2.050650
  O     19.117910   21.784650    1.747130
  O     18.198730   20.449460    3.179990
  C     18.453550   19.996480   -0.323010
  C     17.973250   18.901990   -1.061460
  C     18.204400   18.765660   -2.491600
  C     18.472850   17.625910   -3.116410
  H      3.553180   -2.287350   -1.320600
  H      6.006920   -0.836150   -4.578720
  H      4.711420   -0.048710   -0.920800
  H      6.437130    0.943940   -3.250760
  H      5.205280    1.810870    0.389910
  H      8.607220    5.696470   -1.417700
  H      7.464490    6.036880    1.410700
  H      7.253850    7.819120    2.778970
  H      8.356190    9.048790    3.441220
  H      8.974510    6.048820    3.317040
  H      8.478630    6.939940    4.757350
  H     10.025230    7.304110    3.984370
  H     11.559180    8.016250   -3.778560
  H     12.800150    9.109270   -3.137910
  H     10.039380    9.882940   -4.237190
  H     11.588720   10.189630   -5.024950
  H     11.164810   11.046740   -3.536350
  H     11.836680   11.136180    0.402160
  H     13.179440   10.974620   -2.350220
  H     14.850160   12.505720   -2.820650
  H     14.463050   14.555120    1.628630
  H     13.044070   12.668870    1.065730
  H     16.376500   15.937300    1.192040
  H     16.426420   16.770870   -1.757590
  H     18.991310   20.829260   -0.739450
  H     18.203240   19.699920   -3.038910
  H     18.558230   16.685990   -2.595950
  H     18.650130   17.602000   -4.177860

 Total Charge           Charge          ....    0
 Multiplicity           Mult            ....    1
 Number of Electrons    NEL             ....  416
 Basis Dimension        Dim             ....  936

ORBITAL ENERGIES
----------------

  NO   OCC          E(Eh)            E(eV)
   0   2.0000     -88.992865     -2421.6190
   1   2.0000     -88.984947     -2421.4035
   2   2.0000     -88.977597     -2421.2035
   3   2.0000     -19.256051      -523.9838
   4   2.0000     -19.255022      -523.9558
   5   2.0000     -19.249094      -523.7945
   6   2.0000     -19.248719      -523.7843
   7   2.0000     -19.237003      -523.4655
   8   2.0000     -19.236405      -523.4492
   9   2.0000     -19.195914      -522.3474
  10   2.0000     -19.194541      -522.3100
  11   2.0000     -14.660062      -398.9206
  12   2.0000     -14.659007      -398.8919
  13   2.0000     -14.647838      -398.5879
  14   2.0000     -14.458161      -393.4266
  15   2.0000     -14.456748      -393.3881
  16   2.0000     -14.421939      -392.4409
  17   2.0000     -10.378354      -282.4094
  18   2.0000     -10.377894      -282.3969
  19   2.0000     -10.355303      -281.7821
  20   2.0000     -10.346557      -281.5441
  21   2.0000     -10.343216      -281.4532
  22   2.0000     -10.341179      -281.3978
  23   2.0000     -10.340128      -281.3692
  24   2.0000     -10.337293      -281.2920
  25   2.0000     -10.330575      -281.1092
  26   2.0000     -10.328847      -281.0622
  27   2.0000     -10.328380      -281.0495
  28   2.0000     -10.323360      -280.9129
  29   2.0000     -10.322887      -280.9000
  30   2.0000     -10.318137      -280.7708
  31   2.0000     -10.315586      -280.7014
  32   2.0000     -10.313195      -280.6363
  33   2.0000     -10.311694      -280.5955
  34   2.0000     -10.308027      -280.4957
  35   2.0000     -10.308001      -280.4950
  36   2.0000     -10.307792      -280.4893
  37   2.0000     -10.307078      -280.4699
  38   2.0000     -10.307038      -280.4688
  39   2.0000     -10.306966      -280.4668
  40   2.0000     -10.306724      -280.4602
  41   2.0000     -10.302339      -280.3409
  42   2.0000     -10.301426      -280.3161
  43   2.0000     -10.300611      -280.2939
  44   2.0000     -10.300065      -280.2790
  45   2.0000     -10.299337      -280.2592
  46   2.0000     -10.298997      -280.2500
  47   2.0000     -10.298886      -280.2469
  48   2.0000     -10.298302      -280.2311
  49   2.0000     -10.296848      -280.1915
  50   2.0000     -10.283615      -279.8314
  51   2.0000     -10.270793      -279.4825
  52   2.0000     -10.267826      -279.4018
  53   2.0000     -10.266050      -279.3534
  54   2.0000     -10.264798      -279.3193
  55   2.0000     -10.261615      -279.2327
  56   2.0000      -8.088508      -220.0995
  57   2.0000      -8.080603      -219.8844
  58   2.0000      -8.073068      -219.6793
  59   2.0000      -6.057824      -164.8418
  60   2.0000      -6.053261      -164.7176
  61   2.0000      -6.050852      -164.6520
  62   2.0000      -6.049668      -164.6198
  63   2.0000      -6.045593      -164.5090
  64   2.0000      -6.043018      -164.4389
  65   2.0000      -6.042410      -164.4223
  66   2.0000      -6.038134      -164.3060
  67   2.0000      -6.035063      -164.2224
  68   2.0000      -1.335575       -36.3428
  69   2.0000      -1.331438       -36.2303
  70   2.0000      -1.318169       -35.8692
  71   2.0000      -1.153794       -31.3963
  72   2.0000      -1.150566       -31.3085
  73   2.0000      -1.137360       -30.9491
  74   2.0000      -1.137009       -30.9396
  75   2.0000      -1.130595       -30.7651
  76   2.0000      -1.067173       -29.0392
  77   2.0000      -1.058313       -28.7982
  78   2.0000      -1.024106       -27.8673
  79   2.0000      -1.022219       -27.8160
  80   2.0000      -1.012009       -27.5382
  81   2.0000      -0.999720       -27.2038
  82   2.0000      -0.998615       -27.1737
  83   2.0000      -0.938390       -25.5349
  84   2.0000      -0.937446       -25.5092
  85   2.0000      -0.931937       -25.3593
  86   2.0000      -0.921824       -25.0841
  87   2.0000      -0.918269       -24.9874
  88   2.0000      -0.904613       -24.6158
  89   2.0000      -0.899658       -24.4809
  90   2.0000      -0.895519       -24.3683
  91   2.0000      -0.881130       -23.9768
  92   2.0000      -0.879975       -23.9453
  93   2.0000      -0.872592       -23.7444
  94   2.0000      -0.866311       -23.5735
  95   2.0000      -0.853108       -23.2143
  96   2.0000      -0.837534       -22.7905
  97   2.0000      -0.831472       -22.6255
  98   2.0000      -0.823012       -22.3953
  99   2.0000      -0.806485       -21.9456
 100   2.0000      -0.802959       -21.8496
 101   2.0000      -0.795516       -21.6471
 102   2.0000      -0.778694       -21.1893
 103   2.0000      -0.764203       -20.7950
 104   2.0000      -0.762851       -20.7582
 105   2.0000      -0.740215       -20.1423
 106   2.0000      -0.730571       -19.8798
 107   2.0000      -0.718525       -19.5521
 108   2.0000      -0.717164       -19.5150
 109   2.0000      -0.712506       -19.3883
 110   2.0000      -0.703822       -19.1520
 111   2.0000      -0.697151       -18.9705
 112   2.0000      -0.679493       -18.4899
 113   2.0000      -0.673747       -18.3336
 114   2.0000      -0.667886       -18.1741
 115   2.0000      -0.661929       -18.0120
 116   2.0000      -0.660120       -17.9628
 117   2.0000      -0.655716       -17.8429
 118   2.0000      -0.651979       -17.7412
 119   2.0000      -0.642025       -17.4704
 120   2.0000      -0.641406       -17.4535
 121   2.0000      -0.640214       -17.4211
 122   2.0000      -0.635470       -17.2920
 123   2.0000      -0.632346       -17.2070
 124   2.0000      -0.629154       -17.1201
 125   2.0000      -0.621265       -16.9055
 126   2.0000      -0.611910       -16.6509
 127   2.0000      -0.609380       -16.5821
 128   2.0000      -0.604695       -16.4546
 129   2.0000      -0.599468       -16.3124
 130   2.0000      -0.598533       -16.2869
 131   2.0000      -0.591579       -16.0977
 132   2.0000      -0.590093       -16.0572
 133   2.0000      -0.588250       -16.0071
 134   2.0000      -0.578988       -15.7551
 135   2.0000      -0.577096       -15.7036
 136   2.0000      -0.574563       -15.6346
 137   2.0000      -0.570090       -15.5129
 138   2.0000      -0.568761       -15.4768
 139   2.0000      -0.559590       -15.2272
 140   2.0000      -0.552980       -15.0474
 141   2.0000      -0.551002       -14.9935
 142   2.0000      -0.537935       -14.6380
 143   2.0000      -0.537247       -14.6192
 144   2.0000      -0.534579       -14.5466
 145   2.0000      -0.532153       -14.4806
 146   2.0000      -0.529169       -14.3994
 147   2.0000      -0.523690       -14.2503
 148   2.0000      -0.522888       -14.2285
 149   2.0000      -0.517338       -14.0775
 150   2.0000      -0.516159       -14.0454
 151   2.0000      -0.513587       -13.9754
 152   2.0000      -0.510663       -13.8959
 153   2.0000      -0.506171       -13.7736
 154   2.0000      -0.504211       -13.7203
 155   2.0000      -0.504013       -13.7149
 156   2.0000      -0.502087       -13.6625
 157   2.0000      -0.495146       -13.4736
 158   2.0000      -0.488701       -13.2982
 159   2.0000      -0.485871       -13.2212
 160   2.0000      -0.483137       -13.1468
 161   2.0000      -0.482295       -13.1239
 162   2.0000      -0.475867       -12.9490
 163   2.0000      -0.473683       -12.8896
 164   2.0000      -0.471320       -12.8253
 165   2.0000      -0.469466       -12.7748
 166   2.0000      -0.468860       -12.7583
 167   2.0000      -0.459677       -12.5085
 168   2.0000      -0.457673       -12.4539
 169   2.0000      -0.455881       -12.4052
 170   2.0000      -0.455536       -12.3958
 171   2.0000      -0.454191       -12.3592
 172   2.0000      -0.452162       -12.3040
 173   2.0000      -0.450510       -12.2590
 174   2.0000      -0.447691       -12.1823
 175   2.0000      -0.445579       -12.1248
 176   2.0000      -0.445038       -12.1101
 177   2.0000      -0.441089       -12.0027
 178   2.0000      -0.428610       -11.6631
 179   2.0000      -0.427211       -11.6250
 180   2.0000      -0.426030       -11.5929
 181   2.0000      -0.417043       -11.3483
 182   2.0000      -0.416682       -11.3385
 183   2.0000      -0.415516       -11.3068
 184   2.0000      -0.397844       -10.8259
 185   2.0000      -0.394919       -10.7463
 186   2.0000      -0.392603       -10.6833
 187   2.0000      -0.389171       -10.5899
 188   2.0000      -0.385447       -10.4885
 189   2.0000      -0.383800       -10.4437
 190   2.0000      -0.383503       -10.4357
 191   2.0000      -0.381620       -10.3844
 192   2.0000      -0.376591       -10.2476
 193   2.0000      -0.376292       -10.2394
 194   2.0000      -0.374499       -10.1906
 195   2.0000      -0.363616        -9.8945
 196   2.0000      -0.352953        -9.6043
 197   2.0000      -0.351698        -9.5702
 198   2.0000      -0.349966        -9.5231
 199   2.0000      -0.345879        -9.4119
 200   2.0000      -0.336634        -9.1603
 201   2.0000      -0.335802        -9.1376
 202   2.0000      -0.332584        -9.0501
 203   2.0000      -0.320102        -8.7104
 204   2.0000      -0.318123        -8.6566
 205   2.0000      -0.286598        -7.7987
 206   2.0000      -0.279459        -7.6045
 207   2.0000      -0.239085        -6.5058
 208   0.0000      -0.101981        -2.7750
 209   0.0000      -0.076282        -2.0757
 210   0.0000      -0.063938        -1.7398
 211   0.0000      -0.051517        -1.4019
 212   0.0000      -0.047345        -1.2883

MULLIKEN ATOMIC CHARGES
-----------------------
   0 C :   -0.111964
   1 S :    0.206746
   2 C :   -0.044515
   3 N :    0.272901
   4 O :   -0.238938
   5 O :   -0.249441
   6 C :    0.034691
   7 C :    0.092816
   8 C :    0.012195
   9 C :    0.077795
  10 C :   -0.068066
  11 S :    0.183389
  12 C :   -0.066767
  13 C :   -0.075621
  14 C :    0.005211
  15 C :   -0.166788
  16 N :    0.115230
  17 C :    0.064841
  18 C :   -0.042824
  19 C :    0.144473
  20 N :   -0.263249
  21 C :    0.095522
  22 C :    0.009711
  23 C :    0.152788
  24 O :   -0.196127
  25 C :   -0.042972
  26 C :   -0.060963
  27 C :    0.161615
  28 O :   -0.218284
  29 N :   -0.266227
  30 C :    0.098659
  31 C :    0.002028
  32 C :    0.109212
  33 C :   -0.010106
  34 C :    0.005547
  35 C :    0.103006
  36 C :   -0.047051
  37 C :    0.112212
  38 N :    0.230232
  39 O :   -0.229223
  40 O :   -0.219075
  41 C :    0.093862
  42 C :   -0.020614
  43 C :    0.013934
  44 C :   -0.030067
  45 C :    0.021902
  46 C :   -0.114556
  47 S :    0.178276
  48 C :   -0.000474
  49 N :    0.271168
  50 O :   -0.245569
  51 O :   -0.257202
  52 C :    0.017278
  53 C :    0.084737
  54 C :   -0.042719
  55 C :   -0.028825
  56 H :    0.034384
  57 H :    0.016563
  58 H :   -0.016924
  59 H :   -0.015223
  60 H :   -0.004719
  61 H :    0.004456
  62 H :   -0.014236
  63 H :    0.035594
  64 H :    0.040869
  65 H :    0.016965
  66 H :    0.028664
  67 H :    0.023932
  68 H :    0.044077
  69 H :    0.026218
  70 H :    0.026930
  71 H :    0.022936
  72 H :    0.021814
  73 H :    0.004336
  74 H :   -0.027359
  75 H :   -0.004556
  76 H :   -0.010027
  77 H :    0.004233
  78 H :    0.007547
  79 H :    0.019712
  80 H :    0.008633
  81 H :    0.007276
  82 H :    0.050115
  83 H :    0.034043
Sum of atomic charges:   -0.0000000

LOEWDIN ATOMIC CHARGES
----------------------
   0 C :   -0.160872
   1 S :    0.502751
   2 C :   -0.196004
   3 N :    0.273015
   4 O :   -0.205059
   5 O :   -0.215317
   6 C :   -0.008790
   7 C :   -0.066327
   8 C :   -0.004728
   9 C :   -0.040464
  10 C :   -0.162323
  11 S :    0.488396
  12 C :   -0.147912
  13 C :   -0.098878
  14 C :   -0.026013
  15 C :   -0.025244
  16 N :   -0.059599
  17 C :    0.003653
  18 C :   -0.036903
  19 C :    0.083643
  20 N :   -0.001325
  21 C :    0.036717
  22 C :   -0.059004
  23 C :    0.079909
  24 O :   -0.197272
  25 C :   -0.108400
  26 C :   -0.127354
  27 C :    0.081501
  28 O :   -0.206309
  29 N :   -0.002789
  30 C :    0.034535
  31 C :   -0.062692
  32 C :    0.065437
  33 C :   -0.022516
  34 C :   -0.008784
  35 C :   -0.023381
  36 C :    0.007887
  37 C :   -0.024645
  38 N :    0.283541
  39 O :   -0.196488
  40 O :   -0.189478
  41 C :   -0.005862
  42 C :   -0.002172
  43 C :    0.013357
  44 C :   -0.026421
  45 C :   -0.018570
  46 C :   -0.146365
  47 S :    0.481557
  48 C :   -0.196575
  49 N :    0.272703
  50 O :   -0.211371
  51 O :   -0.223677
  52 C :   -0.008630
  53 C :   -0.053455
  54 C :   -0.031781
  55 C :   -0.021355
  56 H :    0.029580
  57 H :    0.043061
  58 H :    0.031927
  59 H :    0.029312
  60 H :    0.037576
  61 H :    0.037462
  62 H :    0.035415
  63 H :    0.027703
  64 H :    0.037497
  65 H :    0.022913
  66 H :    0.033716
  67 H :    0.029777
  68 H :    0.037567
  69 H :    0.020495
  70 H :    0.032418
  71 H :    0.031107
  72 H :    0.022253
  73 H :    0.043782
  74 H :    0.028469
  75 H :    0.038277
  76 H :    0.036992
  77 H :    0.039094
  78 H :    0.027588
  79 H :    0.035650
  80 H :    0.044885
  81 H :    0.032854
  82 H :    0.024459
  83 H :    0.030673

  Mayer bond orders larger than 0.100000
B(  0-C ,  1-S ) :   1.1927 B(  0-C ,  7-C ) :   1.4798 B(  0-C , 56-H ) :   0.9725
B(  1-S ,  2-C ) :   1.1483 B(  2-C ,  3-N ) :   0.9419 B(  2-C ,  6-C ) :   1.5111
B(  3-N ,  4-O ) :   1.5466 B(  3-N ,  5-O ) :   1.5292 B(  4-O ,  5-O ) :   0.2711
B(  6-C ,  7-C ) :   1.2174 B(  6-C , 57-H ) :   0.9942 B(  7-C ,  8-C ) :   1.0866
B(  8-C ,  9-C ) :   1.7318 B(  8-C , 58-H ) :   0.9818 B(  9-C , 10-C ) :   1.0924
B(  9-C , 59-H ) :   0.9552 B( 10-C , 11-S ) :   1.1325 B( 10-C , 14-C ) :   1.4812
B( 11-S , 12-C ) :   1.1481 B( 12-C , 13-C ) :   1.4209 B( 12-C , 17-C ) :   1.1597
B( 13-C , 14-C ) :   1.3094 B( 13-C , 15-C ) :   1.1216 B( 14-C , 60-H ) :   1.0008
B( 15-C , 16-N ) :   2.9660 B( 17-C , 18-C ) :   1.6063 B( 17-C , 61-H ) :   0.9211
B( 18-C , 19-C ) :   1.1734 B( 18-C , 62-H ) :   0.9496 B( 19-C , 20-N ) :   1.1692
B( 19-C , 26-C ) :   1.3188 B( 20-N , 21-C ) :   0.9385 B( 20-N , 23-C ) :   1.0416
B( 21-C , 22-C ) :   1.1240 B( 21-C , 63-H ) :   0.9484 B( 21-C , 64-H ) :   0.9275
B( 22-C , 65-H ) :   0.9675 B( 22-C , 66-H ) :   0.9673 B( 22-C , 67-H ) :   0.9634
B( 23-C , 24-O ) :   2.1214 B( 23-C , 25-C ) :   0.9733 B( 25-C , 26-C ) :   1.2423
B( 25-C , 32-C ) :   1.3571 B( 26-C , 27-C ) :   0.9951 B( 27-C , 28-O ) :   2.0065
B( 27-C , 29-N ) :   1.0650 B( 28-O , 61-H ) :   0.1182 B( 29-N , 30-C ) :   0.9434
B( 29-N , 32-C ) :   1.1589 B( 30-C , 31-C ) :   1.1169 B( 30-C , 68-H ) :   0.9232
B( 30-C , 69-H ) :   0.9506 B( 31-C , 70-H ) :   0.9616 B( 31-C , 71-H ) :   0.9682
B( 31-C , 72-H ) :   0.9682 B( 32-C , 33-C ) :   1.1726 B( 33-C , 34-C ) :   1.5956
B( 33-C , 73-H ) :   0.9407 B( 34-C , 35-C ) :   1.0774 B( 34-C , 74-H ) :   0.9907
B( 35-C , 36-C ) :   1.2930 B( 35-C , 43-C ) :   1.3169 B( 36-C , 37-C ) :   1.3902
B( 36-C , 75-H ) :   0.9981 B( 37-C , 38-N ) :   0.8568 B( 37-C , 41-C ) :   1.3524
B( 38-N , 39-O ) :   1.5370 B( 38-N , 40-O ) :   1.5278 B( 39-O , 40-O ) :   0.2683
B( 41-C , 42-C ) :   1.3203 B( 41-C , 44-C ) :   1.0784 B( 42-C , 43-C ) :   1.4217
B( 42-C , 76-H ) :   0.9918 B( 43-C , 77-H ) :   0.9915 B( 44-C , 45-C ) :   1.7075
B( 44-C , 78-H ) :   0.9582 B( 45-C , 46-C ) :   1.1755 B( 45-C , 79-H ) :   0.9578
B( 46-C , 47-S ) :   1.1258 B( 46-C , 53-C ) :   1.4544 B( 47-S , 48-C ) :   1.1273
B( 48-C , 49-N ) :   0.9539 B( 48-C , 52-C ) :   1.4822 B( 49-N , 50-O ) :   1.5419
B( 49-N , 51-O ) :   1.5212 B( 50-O , 51-O ) :   0.2658 B( 52-C , 53-C ) :   1.2285
B( 52-C , 80-H ) :   1.0049 B( 53-C , 54-C ) :   1.0458 B( 54-C , 55-C ) :   1.9455
B( 54-C , 81-H ) :   0.9612 B( 55-C , 82-H ) :   0.9550 B( 55-C , 83-H ) :   0.9522

-----------------------------------------------------------------------------
         ABSORPTION SPECTRUM VIA TRANSITION ELECTRIC DIPOLE MOMENTS
-----------------------------------------------------------------------------
State   Energy  Wavelength   fosc         T2         TX        TY        TZ
        (cm-1)    (nm)                  (au**2)     (au)      (au)      (au)
-----------------------------------------------------------------------------
   0   14908.5    670.8   1.271287480  28.07285  -3.27751  -4.12170   0.58513
   1   22285.1    448.7   0.174716377   2.58104  -0.86786  -1.32447  -0.27138
   2   24743.0    404.2   0.000585427   0.00779  -0.05451   0.03415   0.06042
   3   25462.2    392.7   1.023289671  13.23056   1.47717   3.13279   1.11093
   4   26614.9    375.7   0.025473423   0.31509   0.36920   0.22614  -0.35728
   5   27309.3    366.2   0.117424393   1.41554  -0.88093  -0.41886   0.68122
   6   27778.7    360.0   0.022704052   0.26907   0.31453   0.22178  -0.34779
   7   28490.5    351.0   0.349388401   4.03723   0.44192   1.56988   1.17363
   8   28594.4    349.7   0.085877437   0.98872  -0.26096  -0.74593  -0.60350
   9   29955.8    333.8   0.015716146   0.17272  -0.30826  -0.19035  -0.20362
  10   31643.8    316.0   0.119544792   1.24371  -0.39778  -0.94560  -0.43740
  11   32351.8    309.1   0.000019123   0.00019  -0.00034   0.01097   0.00861
  12   32594.8    306.8   0.034683402   0.35031  -0.32200  -0.49647  -0.01188
  13   33226.0    301.0   0.000012739   0.00013  -0.00249   0.00648  -0.00883
  14   33476.0    298.7   0.043390984   0.42672  -0.37528  -0.15630   0.51133
  15   33725.2    296.5   0.145750194   1.42275  -0.45838  -0.86661  -0.67943
  16   34911.5    286.4   0.089677062   0.84565  -0.01106   0.58980   0.70545
  17   35863.5    278.8   0.031454716   0.28874  -0.07904   0.33943   0.40900
  18   35926.0    278.3   0.145498421   1.33329   0.66275   0.94466   0.04096
  19   36862.9    271.3   0.265259802   2.36896  -0.99149  -1.17321  -0.09739
  20   37255.3    268.4   0.148567511   1.31284  -0.76390  -0.63012   0.57640
  21   37411.2    267.3   0.070370116   0.61925   0.40474   0.01702  -0.67464
  22   37717.7    265.1   0.000005092   0.00004  -0.00012   0.00250  -0.00618
  23   38245.9    261.5   0.024375621   0.20982   0.11162   0.32861   0.29895
  24   38489.8    259.8   0.086287429   0.73804  -0.50686  -0.57183   0.39261
  25   39265.9    254.7   0.292278253   2.45051  -0.17590  -1.13379  -1.06493
  26   39461.4    253.4   0.009214579   0.07687  -0.05126  -0.23121  -0.14419
  27   39672.4    252.1   0.030130411   0.25003   0.14716   0.42695   0.21469
  28   40055.3    249.7   0.047944709   0.39405   0.05731   0.32893   0.53158

FINAL SINGLE POINT ENERGY     -3624.180323581997

DIPOLE MOMENT
-------------
                                X             Y             Z
Electronic contribution:     -5.90382     -17.71778      -3.89978
Nuclear contribution   :      4.16084      15.84439       3.57550
                        -----------------------------------------
Total Dipole Moment    :     -1.74298      -1.87339      -0.32428
                        -----------------------------------------
Magnitude (a.u.)       :      2.57929
Magnitude (Debye)      :      6.55604

Rotational constants in cm-1:     0.003940     0.000257     0.000243
Rotational constants in MHz :   118.110771     7.706447     7.273012

                             ****ORCA TERMINATED NORMALLY****
TOTAL RUN TIME: 0 days 0 hours 8 minutes 16 seconds 125 msec
