                         Program Version 4.2.0 -  RELEASE  -
|  1> # ORCA input file
|  2> # SCF done       -184.672708084575          0.000846502006
|  3> ! CAM-B3LYP def2-SVP def2/J RIJCOSX Grid4 TightSCF
|  4> %maxcore 5000
|  5> %tddft
|  6>     Mode sTDDFT
|  7>     Ethresh 5.0
|  8>     maxcore 5000
|  9> end
| 10>
| 11> %pal
| 12>   nprocs 6
| 13>   end
| 14> * xyz 0 1
| 15>    C       -7.39979        -1.17841        -4.16719
| 16>    C       -6.42687        -2.12268        -4.07906
| 17>    C       -5.66887        -2.30178        -5.28101
| 18>    C       -6.01840        -1.41814        -6.35705
| 19>    O       -5.54847        -1.23245        -7.43686
| 20>    S       -7.44975        -0.42244        -5.71092
| 21>    C       -4.73086        -3.27839        -5.03647
| 22>    O       -4.82998        -3.70740        -3.74863
| 23>    C       -5.87560        -3.04587        -3.09640
| 24>    O       -6.14789        -3.27662        -1.95590
| 25>    C       -3.73777        -3.85182        -5.88043
| 26>    C       -3.85180        -4.21361        -7.21329
| 27>    N       -4.99656        -4.15836        -8.04811
| 28>    O       -6.07927        -3.96917        -7.52771
| 29>    O       -4.82161        -4.35485        -9.23230
| 30>    C       -2.64045        -4.86545        -7.62627
| 31>    C       -1.80794        -4.96393        -6.55572
| 32>    C       -2.42419        -4.32360        -5.43084
| 33>    C       -1.85762        -4.01206        -4.20534
| 34>    C       -2.13751        -2.83913        -3.45103
| 35>    C       -1.28308        -2.78209        -2.39003
| 36>    C       -0.48220        -3.96657        -2.36465
| 37>    N        0.53658        -4.10052        -1.40525
| 38>    O        1.34046        -5.01854        -1.50057
| 39>    O        0.58672        -3.25777        -0.52701
| 40>    C       -0.82371        -4.77282        -3.46367
| 41>    C       -0.51156        -6.10172        -3.78948
| 42>    C        0.06349        -7.02048        -2.94437
| 43>    C        0.44041        -8.31125        -3.33967
| 44>    N        0.96451        -9.24021        -2.47125
| 45>    C        1.20530        -9.05673        -1.05674
| 46>    C        2.45850        -8.22798        -0.78833
| 47>    C        1.31041       -10.43210        -3.11367
| 48>    O        1.77959       -11.40031        -2.55016
| 49>    C        0.96272       -10.20556        -4.50662
| 50>    C        0.42526        -8.91082        -4.61349
| 51>    C        0.10360        -8.67767        -6.00689
| 52>    O       -0.37008        -7.72122        -6.58315
| 53>    N        0.48265        -9.86729        -6.65795
| 54>    C        0.26918       -10.04094        -8.07599
| 55>    C       -0.97492       -10.87666        -8.36432
| 56>    C        0.99275       -10.78869        -5.78315
| 57>    C        1.46942       -12.06684        -6.16768
| 58>    C        1.95054       -12.95487        -5.26264
| 59>    C        2.45554       -14.27010        -5.54830
| 60>    C        2.58679       -14.78576        -6.84074
| 61>    C        3.07050       -16.06386        -7.04382
| 62>    N        3.27689       -16.48909        -8.40845
| 63>    O        2.66669       -15.89713        -9.27099
| 64>    O        4.06754       -17.38598        -8.60465
| 65>    C        3.42881       -16.90368        -5.97425
| 66>    C        3.32106       -16.36635        -4.68505
| 67>    C        2.85443       -15.08929        -4.47739
| 68>    C        3.81845       -18.28095        -6.17742
| 69>    C        4.78611       -18.89499        -5.46673
| 70>    C        5.14750       -20.26000        -5.65272
| 71>    C        4.56651       -21.23993        -6.42050
| 72>    C        5.23315       -22.51318        -6.37424
| 73>    C        6.40211       -22.56959        -5.52832
| 74>    O        7.16356       -23.44983        -5.27295
| 75>    S        6.55890       -20.88353        -4.81223
| 76>    C        4.53359       -23.35896        -7.17497
| 77>    O        3.47541       -22.75006        -7.72465
| 78>    C        3.42266       -21.41772        -7.29514
| 79>    O        2.54089       -20.67974        -7.64148
| 80>    H       -8.09562        -0.88293        -3.40468
| 81>    H       -2.46837        -5.21598        -8.62572
| 82>    H       -0.81388        -5.36266        -6.57731
| 83>    H       -2.81607        -2.06438        -3.75024
| 84>    H       -1.18556        -1.98815        -1.67339
| 85>    H       -0.80187        -6.43705        -4.77506
| 86>    H        0.25655        -6.75270        -1.91916
| 87>    H        1.33280       -10.06166        -0.64443
| 88>    H        0.32738        -8.59704        -0.59603
| 89>    H        3.31913        -8.68858        -1.26725
| 90>    H        2.63942        -8.18806         0.28192
| 91>    H        2.35372        -7.21098        -1.15760
| 92>    H        1.15703       -10.49242        -8.52628
| 93>    H        0.13941        -9.03663        -8.48801
| 94>    H       -0.89402       -11.86775        -7.92368
| 95>    H       -1.10351       -10.98147        -9.43756
| 96>    H       -1.85572       -10.38735        -7.95638
| 97>    H        1.43408       -12.31042        -7.21898
| 98>    H        1.95713       -12.67382        -4.21726
| 99>    H        2.33705       -14.19922        -7.71153
|100>    H        3.58173       -16.98821        -3.84284
|101>    H        2.77895       -14.70119        -3.47265
|102>    H        3.28938       -18.83825        -6.94013
|103>    H        5.38122       -18.34493        -4.74982
|104>    H        4.68880       -24.39318        -7.42287
|105> *
|106>
|107>                          ****END OF INPUT****

CARTESIAN COORDINATES (ANGSTROEM)
---------------------------------
  C     -7.399790   -1.178410   -4.167190
  C     -6.426870   -2.122680   -4.079060
  C     -5.668870   -2.301780   -5.281010
  C     -6.018400   -1.418140   -6.357050
  O     -5.548470   -1.232450   -7.436860
  S     -7.449750   -0.422440   -5.710920
  C     -4.730860   -3.278390   -5.036470
  O     -4.829980   -3.707400   -3.748630
  C     -5.875600   -3.045870   -3.096400
  O     -6.147890   -3.276620   -1.955900
  C     -3.737770   -3.851820   -5.880430
  C     -3.851800   -4.213610   -7.213290
  N     -4.996560   -4.158360   -8.048110
  O     -6.079270   -3.969170   -7.527710
  O     -4.821610   -4.354850   -9.232300
  C     -2.640450   -4.865450   -7.626270
  C     -1.807940   -4.963930   -6.555720
  C     -2.424190   -4.323600   -5.430840
  C     -1.857620   -4.012060   -4.205340
  C     -2.137510   -2.839130   -3.451030
  C     -1.283080   -2.782090   -2.390030
  C     -0.482200   -3.966570   -2.364650
  N      0.536580   -4.100520   -1.405250
  O      1.340460   -5.018540   -1.500570
  O      0.586720   -3.257770   -0.527010
  C     -0.823710   -4.772820   -3.463670
  C     -0.511560   -6.101720   -3.789480
  C      0.063490   -7.020480   -2.944370
  C      0.440410   -8.311250   -3.339670
  N      0.964510   -9.240210   -2.471250
  C      1.205300   -9.056730   -1.056740
  C      2.458500   -8.227980   -0.788330
  C      1.310410  -10.432100   -3.113670
  O      1.779590  -11.400310   -2.550160
  C      0.962720  -10.205560   -4.506620
  C      0.425260   -8.910820   -4.613490
  C      0.103600   -8.677670   -6.006890
  O     -0.370080   -7.721220   -6.583150
  N      0.482650   -9.867290   -6.657950
  C      0.269180  -10.040940   -8.075990
  C     -0.974920  -10.876660   -8.364320
  C      0.992750  -10.788690   -5.783150
  C      1.469420  -12.066840   -6.167680
  C      1.950540  -12.954870   -5.262640
  C      2.455540  -14.270100   -5.548300
  C      2.586790  -14.785760   -6.840740
  C      3.070500  -16.063860   -7.043820
  N      3.276890  -16.489090   -8.408450
  O      2.666690  -15.897130   -9.270990
  O      4.067540  -17.385980   -8.604650
  C      3.428810  -16.903680   -5.974250
  C      3.321060  -16.366350   -4.685050
  C      2.854430  -15.089290   -4.477390
  C      3.818450  -18.280950   -6.177420
  C      4.786110  -18.894990   -5.466730
  C      5.147500  -20.260000   -5.652720
  C      4.566510  -21.239930   -6.420500
  C      5.233150  -22.513180   -6.374240
  C      6.402110  -22.569590   -5.528320
  O      7.163560  -23.449830   -5.272950
  S      6.558900  -20.883530   -4.812230
  C      4.533590  -23.358960   -7.174970
  O      3.475410  -22.750060   -7.724650
  C      3.422660  -21.417720   -7.295140
  O      2.540890  -20.679740   -7.641480
  H     -8.095620   -0.882930   -3.404680
  H     -2.468370   -5.215980   -8.625720
  H     -0.813880   -5.362660   -6.577310
  H     -2.816070   -2.064380   -3.750240
  H     -1.185560   -1.988150   -1.673390
  H     -0.801870   -6.437050   -4.775060
  H      0.256550   -6.752700   -1.919160
  H      1.332800  -10.061660   -0.644430
  H      0.327380   -8.597040   -0.596030
  H      3.319130   -8.688580   -1.267250
  H      2.639420   -8.188060    0.281920
  H      2.353720   -7.210980   -1.157600
  H      1.157030  -10.492420   -8.526280
  H      0.139410   -9.036630   -8.488010
  H     -0.894020  -11.867750   -7.923680
  H     -1.103510  -10.981470   -9.437560
  H     -1.855720  -10.387350   -7.956380
  H      1.434080  -12.310420   -7.218980
  H      1.957130  -12.673820   -4.217260
  H      2.337050  -14.199220   -7.711530
  H      3.581730  -16.988210   -3.842840
  H      2.778950  -14.701190   -3.472650
  H      3.289380  -18.838250   -6.940130
  H      5.381220  -18.344930   -4.749820
  H      4.688800  -24.393180   -7.422870

 Total Charge           Charge          ....    0
 Multiplicity           Mult            ....    1
 Number of Electrons    NEL             ....  468
 Basis Dimension        Dim             .... 1043

ORBITAL ENERGIES
----------------

  NO   OCC          E(Eh)            E(eV)
   0   2.0000     -88.958253     -2420.6771
   1   2.0000     -88.951280     -2420.4874
   2   2.0000     -19.300930      -525.2050
   3   2.0000     -19.293082      -524.9914
   4   2.0000     -19.261096      -524.1211
   5   2.0000     -19.258810      -524.0589
   6   2.0000     -19.245242      -523.6897
   7   2.0000     -19.242592      -523.6176
   8   2.0000     -19.241702      -523.5933
   9   2.0000     -19.240103      -523.5498
  10   2.0000     -19.232773      -523.3504
  11   2.0000     -19.229239      -523.2542
  12   2.0000     -19.227236      -523.1997
  13   2.0000     -19.223973      -523.1109
  14   2.0000     -19.221192      -523.0352
  15   2.0000     -19.207682      -522.6676
  16   2.0000     -14.665232      -399.0613
  17   2.0000     -14.652316      -398.7098
  18   2.0000     -14.651190      -398.6792
  19   2.0000     -14.480008      -394.0210
  20   2.0000     -14.469515      -393.7355
  21   2.0000     -10.423980      -283.6509
  22   2.0000     -10.418406      -283.4992
  23   2.0000     -10.403144      -283.0839
  24   2.0000     -10.401724      -283.0453
  25   2.0000     -10.392166      -282.7852
  26   2.0000     -10.391869      -282.7771
  27   2.0000     -10.385131      -282.5938
  28   2.0000     -10.378480      -282.4128
  29   2.0000     -10.367879      -282.1243
  30   2.0000     -10.355309      -281.7823
  31   2.0000     -10.352137      -281.6960
  32   2.0000     -10.351957      -281.6911
  33   2.0000     -10.345935      -281.5272
  34   2.0000     -10.337639      -281.3015
  35   2.0000     -10.334103      -281.2052
  36   2.0000     -10.332174      -281.1528
  37   2.0000     -10.332061      -281.1497
  38   2.0000     -10.331632      -281.1380
  39   2.0000     -10.330513      -281.1076
  40   2.0000     -10.328942      -281.0648
  41   2.0000     -10.324249      -280.9371
  42   2.0000     -10.321302      -280.8569
  43   2.0000     -10.320896      -280.8459
  44   2.0000     -10.316897      -280.7370
  45   2.0000     -10.315943      -280.7111
  46   2.0000     -10.315103      -280.6882
  47   2.0000     -10.314320      -280.6669
  48   2.0000     -10.313273      -280.6384
  49   2.0000     -10.312974      -280.6303
  50   2.0000     -10.312875      -280.6276
  51   2.0000     -10.310076      -280.5514
  52   2.0000     -10.308768      -280.5158
  53   2.0000     -10.306428      -280.4522
  54   2.0000     -10.301723      -280.3241
  55   2.0000     -10.299106      -280.2529
  56   2.0000     -10.298825      -280.2453
  57   2.0000     -10.296966      -280.1947
  58   2.0000     -10.293629      -280.1039
  59   2.0000     -10.292291      -280.0675
  60   2.0000     -10.291861      -280.0558
  61   2.0000     -10.288685      -279.9694
  62   2.0000     -10.285325      -279.8779
  63   2.0000     -10.280539      -279.7477
  64   2.0000     -10.262989      -279.2701
  65   2.0000      -8.055883      -219.2117
  66   2.0000      -8.048960      -219.0233
  67   2.0000      -6.025271      -163.9560
  68   2.0000      -6.021297      -163.8478
  69   2.0000      -6.018289      -163.7660
  70   2.0000      -6.017003      -163.7310
  71   2.0000      -6.014177      -163.6541
  72   2.0000      -6.010337      -163.5496
  73   2.0000      -1.341649       -36.5081
  74   2.0000      -1.324807       -36.0498
  75   2.0000      -1.320510       -35.9329
  76   2.0000      -1.232772       -33.5454
  77   2.0000      -1.224571       -33.3223
  78   2.0000      -1.161657       -31.6103
  79   2.0000      -1.161336       -31.6016
  80   2.0000      -1.156794       -31.4780
  81   2.0000      -1.150211       -31.2988
  82   2.0000      -1.147515       -31.2255
  83   2.0000      -1.142140       -31.0792
  84   2.0000      -1.138040       -30.9676
  85   2.0000      -1.136491       -30.9255
  86   2.0000      -1.131232       -30.7824
  87   2.0000      -1.089977       -29.6598
  88   2.0000      -1.075865       -29.2758
  89   2.0000      -1.022845       -27.8330
  90   2.0000      -1.012231       -27.5442
  91   2.0000      -1.003287       -27.3008
  92   2.0000      -0.994310       -27.0565
  93   2.0000      -0.982117       -26.7248
  94   2.0000      -0.952277       -25.9128
  95   2.0000      -0.945874       -25.7385
  96   2.0000      -0.925956       -25.1966
  97   2.0000      -0.923503       -25.1298
  98   2.0000      -0.916118       -24.9288
  99   2.0000      -0.912309       -24.8252
 100   2.0000      -0.895303       -24.3624
 101   2.0000      -0.893032       -24.3006
 102   2.0000      -0.885944       -24.1078
 103   2.0000      -0.883969       -24.0540
 104   2.0000      -0.867403       -23.6032
 105   2.0000      -0.866851       -23.5882
 106   2.0000      -0.855561       -23.2810
 107   2.0000      -0.843888       -22.9634
 108   2.0000      -0.835556       -22.7366
 109   2.0000      -0.824972       -22.4486
 110   2.0000      -0.817521       -22.2459
 111   2.0000      -0.812705       -22.1148
 112   2.0000      -0.804282       -21.8856
 113   2.0000      -0.783079       -21.3087
 114   2.0000      -0.774912       -21.0864
 115   2.0000      -0.773223       -21.0405
 116   2.0000      -0.767438       -20.8830
 117   2.0000      -0.755180       -20.5495
 118   2.0000      -0.735684       -20.0190
 119   2.0000      -0.730754       -19.8848
 120   2.0000      -0.727510       -19.7966
 121   2.0000      -0.724093       -19.7036
 122   2.0000      -0.720808       -19.6142
 123   2.0000      -0.716555       -19.4985
 124   2.0000      -0.703647       -19.1472
 125   2.0000      -0.695728       -18.9317
 126   2.0000      -0.688420       -18.7328
 127   2.0000      -0.677611       -18.4387
 128   2.0000      -0.672494       -18.2995
 129   2.0000      -0.667236       -18.1564
 130   2.0000      -0.665022       -18.0962
 131   2.0000      -0.662158       -18.0182
 132   2.0000      -0.656559       -17.8659
 133   2.0000      -0.648709       -17.6523
 134   2.0000      -0.641880       -17.4665
 135   2.0000      -0.638188       -17.3660
 136   2.0000      -0.638153       -17.3650
 137   2.0000      -0.633766       -17.2456
 138   2.0000      -0.632059       -17.1992
 139   2.0000      -0.626807       -17.0563
 140   2.0000      -0.625300       -17.0153
 141   2.0000      -0.620404       -16.8821
 142   2.0000      -0.613993       -16.7076
 143   2.0000      -0.611549       -16.6411
 144   2.0000      -0.608358       -16.5543
 145   2.0000      -0.603636       -16.4258
 146   2.0000      -0.601040       -16.3551
 147   2.0000      -0.597604       -16.2616
 148   2.0000      -0.591921       -16.1070
 149   2.0000      -0.590392       -16.0654
 150   2.0000      -0.588596       -16.0165
 151   2.0000      -0.587025       -15.9738
 152   2.0000      -0.584564       -15.9068
 153   2.0000      -0.580510       -15.7965
 154   2.0000      -0.575891       -15.6708
 155   2.0000      -0.568818       -15.4783
 156   2.0000      -0.562838       -15.3156
 157   2.0000      -0.559318       -15.2198
 158   2.0000      -0.557061       -15.1584
 159   2.0000      -0.553526       -15.0622
 160   2.0000      -0.550469       -14.9790
 161   2.0000      -0.548663       -14.9299
 162   2.0000      -0.546536       -14.8720
 163   2.0000      -0.543828       -14.7983
 164   2.0000      -0.543013       -14.7761
 165   2.0000      -0.539020       -14.6675
 166   2.0000      -0.534621       -14.5478
 167   2.0000      -0.529978       -14.4214
 168   2.0000      -0.526512       -14.3271
 169   2.0000      -0.522151       -14.2085
 170   2.0000      -0.521672       -14.1954
 171   2.0000      -0.521139       -14.1809
 172   2.0000      -0.519387       -14.1332
 173   2.0000      -0.518107       -14.0984
 174   2.0000      -0.516391       -14.0517
 175   2.0000      -0.513534       -13.9740
 176   2.0000      -0.509180       -13.8555
 177   2.0000      -0.505129       -13.7453
 178   2.0000      -0.503978       -13.7139
 179   2.0000      -0.501685       -13.6515
 180   2.0000      -0.497694       -13.5429
 181   2.0000      -0.496321       -13.5056
 182   2.0000      -0.495751       -13.4901
 183   2.0000      -0.492220       -13.3940
 184   2.0000      -0.491234       -13.3672
 185   2.0000      -0.482693       -13.1347
 186   2.0000      -0.481957       -13.1147
 187   2.0000      -0.478942       -13.0327
 188   2.0000      -0.475930       -12.9507
 189   2.0000      -0.473365       -12.8809
 190   2.0000      -0.472831       -12.8664
 191   2.0000      -0.472490       -12.8571
 192   2.0000      -0.470093       -12.7919
 193   2.0000      -0.465426       -12.6649
 194   2.0000      -0.459958       -12.5161
 195   2.0000      -0.457796       -12.4573
 196   2.0000      -0.452952       -12.3254
 197   2.0000      -0.451611       -12.2890
 198   2.0000      -0.450566       -12.2605
 199   2.0000      -0.445807       -12.1310
 200   2.0000      -0.443916       -12.0796
 201   2.0000      -0.441977       -12.0268
 202   2.0000      -0.440394       -11.9837
 203   2.0000      -0.431179       -11.7330
 204   2.0000      -0.430635       -11.7182
 205   2.0000      -0.420783       -11.4501
 206   2.0000      -0.402266       -10.9462
 207   2.0000      -0.397401       -10.8138
 208   2.0000      -0.394482       -10.7344
 209   2.0000      -0.391899       -10.6641
 210   2.0000      -0.388818       -10.5803
 211   2.0000      -0.384217       -10.4551
 212   2.0000      -0.380425       -10.3519
 213   2.0000      -0.380255       -10.3473
 214   2.0000      -0.375990       -10.2312
 215   2.0000      -0.375690       -10.2231
 216   2.0000      -0.374453       -10.1894
 217   2.0000      -0.373268       -10.1571
 218   2.0000      -0.368658       -10.0317
 219   2.0000      -0.366425        -9.9709
 220   2.0000      -0.364314        -9.9135
 221   2.0000      -0.354278        -9.6404
 222   2.0000      -0.353558        -9.6208
 223   2.0000      -0.353205        -9.6112
 224   2.0000      -0.351025        -9.5519
 225   2.0000      -0.344574        -9.3763
 226   2.0000      -0.340881        -9.2758
 227   2.0000      -0.338191        -9.2026
 228   2.0000      -0.329573        -8.9681
 229   2.0000      -0.325868        -8.8673
 230   2.0000      -0.307607        -8.3704
 231   2.0000      -0.287404        -7.8207
 232   2.0000      -0.278804        -7.5867
 233   2.0000      -0.251316        -6.8387
 234   0.0000      -0.152745        -4.1564
 235   0.0000      -0.105897        -2.8816
 236   0.0000      -0.088519        -2.4087
 237   0.0000      -0.072490        -1.9725
 238   0.0000      -0.060902        -1.6572

MULLIKEN ATOMIC CHARGES
-----------------------
   0 C :   -0.081617
   1 C :   -0.048886
   2 C :    0.081224
   3 C :    0.026252
   4 O :   -0.127535
   5 S :    0.031546
   6 C :    0.017381
   7 O :   -0.244919
   8 C :    0.244016
   9 O :   -0.114140
  10 C :    0.041786
  11 C :    0.103071
  12 N :    0.272734
  13 O :   -0.236043
  14 O :   -0.229872
  15 C :   -0.002742
  16 C :    0.041055
  17 C :    0.038500
  18 C :    0.031779
  19 C :    0.018229
  20 C :    0.033051
  21 C :    0.037885
  22 N :    0.278836
  23 O :   -0.270219
  24 O :   -0.243363
  25 C :    0.080281
  26 C :   -0.027904
  27 C :    0.038713
  28 C :    0.121134
  29 N :   -0.251270
  30 C :    0.094532
  31 C :   -0.004942
  32 C :    0.172940
  33 O :   -0.212762
  34 C :   -0.078115
  35 C :   -0.049053
  36 C :    0.167182
  37 O :   -0.192180
  38 N :   -0.252770
  39 C :    0.095905
  40 C :    0.001490
  41 C :    0.147304
  42 C :    0.000726
  43 C :    0.008945
  44 C :    0.107540
  45 C :   -0.060371
  46 C :    0.159209
  47 N :    0.245790
  48 O :   -0.226154
  49 O :   -0.217268
  50 C :    0.032864
  51 C :   -0.015317
  52 C :    0.017219
  53 C :    0.033346
  54 C :    0.019254
  55 C :   -0.097857
  56 C :   -0.054699
  57 C :    0.023025
  58 C :    0.059968
  59 O :   -0.122452
  60 S :    0.034974
  61 C :    0.124454
  62 O :   -0.222965
  63 C :    0.254896
  64 O :   -0.143437
  65 H :    0.051247
  66 H :    0.006451
  67 H :    0.011053
  68 H :   -0.002011
  69 H :    0.012739
  70 H :    0.003268
  71 H :   -0.003622
  72 H :    0.041157
  73 H :    0.029180
  74 H :    0.019862
  75 H :    0.027429
  76 H :    0.041602
  77 H :    0.031257
  78 H :    0.045451
  79 H :    0.019069
  80 H :    0.034497
  81 H :    0.031965
  82 H :   -0.021854
  83 H :    0.012765
  84 H :    0.001357
  85 H :   -0.002172
  86 H :    0.014604
  87 H :    0.047319
  88 H :   -0.007019
  89 H :    0.044222
Sum of atomic charges:   -0.0000000

LOEWDIN ATOMIC CHARGES
----------------------
   0 C :   -0.095213
   1 C :   -0.128004
   2 C :   -0.132375
   3 C :   -0.033892
   4 O :   -0.124672
   5 S :    0.338851
   6 C :    0.109011
   7 O :   -0.045907
   8 C :    0.105821
   9 O :   -0.120741
  10 C :   -0.037853
  11 C :   -0.000555
  12 N :    0.285268
  13 O :   -0.193822
  14 O :   -0.191009
  15 C :    0.004508
  16 C :   -0.011223
  17 C :    0.028286
  18 C :    0.066702
  19 C :   -0.046253
  20 C :    0.040584
  21 C :   -0.065438
  22 N :    0.287455
  23 O :   -0.228328
  24 O :   -0.208388
  25 C :    0.018231
  26 C :    0.006231
  27 C :    0.014994
  28 C :    0.063220
  29 N :    0.008141
  30 C :    0.037717
  31 C :   -0.062127
  32 C :    0.078546
  33 O :   -0.201927
  34 C :   -0.119222
  35 C :   -0.092150
  36 C :    0.087714
  37 O :   -0.178632
  38 N :    0.005384
  39 C :    0.037506
  40 C :   -0.059267
  41 C :    0.092381
  42 C :   -0.047675
  43 C :    0.050503
  44 C :   -0.030020
  45 C :    0.021281
  46 C :   -0.019855
  47 N :    0.285187
  48 O :   -0.195966
  49 O :   -0.176816
  50 C :   -0.000045
  51 C :   -0.002271
  52 C :    0.024720
  53 C :    0.042775
  54 C :   -0.053039
  55 C :   -0.085302
  56 C :   -0.130311
  57 C :   -0.147636
  58 C :   -0.033955
  59 O :   -0.125392
  60 S :    0.329760
  61 C :    0.139728
  62 O :   -0.032406
  63 C :    0.111083
  64 O :   -0.129944
  65 H :    0.038870
  66 H :    0.039972
  67 H :    0.032801
  68 H :    0.030129
  69 H :    0.041815
  70 H :    0.039003
  71 H :    0.031563
  72 H :    0.036866
  73 H :    0.026149
  74 H :    0.028859
  75 H :    0.033763
  76 H :    0.027962
  77 H :    0.026098
  78 H :    0.038889
  79 H :    0.023432
  80 H :    0.035485
  81 H :    0.033424
  82 H :    0.029982
  83 H :    0.039713
  84 H :    0.038447
  85 H :    0.038621
  86 H :    0.044492
  87 H :    0.037694
  88 H :    0.030680
  89 H :    0.041337

  Mayer bond orders larger than 0.100000
B(  0-C ,  1-C ) :   1.5654 B(  0-C ,  5-S ) :   1.1425 B(  0-C , 65-H ) :   0.9626
B(  1-C ,  2-C ) :   1.1223 B(  1-C ,  8-C ) :   0.9462 B(  2-C ,  3-C ) :   0.9213
B(  2-C ,  6-C ) :   1.5108 B(  3-C ,  4-O ) :   2.2035 B(  3-C ,  5-S ) :   0.9694
B(  4-O ,  5-S ) :   0.1112 B(  6-C ,  7-O ) :   1.1606 B(  6-C , 10-C ) :   1.0419
B(  7-O ,  8-C ) :   0.9752 B(  8-C ,  9-O ) :   2.2905 B( 10-C , 11-C ) :   1.5692
B( 10-C , 17-C ) :   1.0652 B( 11-C , 12-N ) :   0.9186 B( 11-C , 15-C ) :   1.1428
B( 12-N , 13-O ) :   1.5185 B( 12-N , 14-O ) :   1.5397 B( 13-O , 14-O ) :   0.2760
B( 15-C , 16-C ) :   1.5743 B( 15-C , 66-H ) :   1.0128 B( 16-C , 17-C ) :   1.1164
B( 16-C , 67-H ) :   0.9940 B( 17-C , 18-C ) :   1.4502 B( 18-C , 19-C ) :   1.1779
B( 18-C , 25-C ) :   1.0121 B( 19-C , 20-C ) :   1.5316 B( 19-C , 68-H ) :   0.9985
B( 20-C , 21-C ) :   1.1610 B( 20-C , 69-H ) :   1.0047 B( 21-C , 22-N ) :   0.9682
B( 21-C , 25-C ) :   1.3964 B( 22-N , 23-O ) :   1.4531 B( 22-N , 24-O ) :   1.5384
B( 23-O , 24-O ) :   0.2401 B( 25-C , 26-C ) :   1.2466 B( 26-C , 27-C ) :   1.4915
B( 26-C , 70-H ) :   0.9414 B( 27-C , 28-C ) :   1.2396 B( 27-C , 71-H ) :   0.9353
B( 28-C , 29-N ) :   1.1527 B( 28-C , 35-C ) :   1.2751 B( 29-N , 30-C ) :   0.9339
B( 29-N , 32-C ) :   1.0864 B( 30-C , 31-C ) :   1.1217 B( 30-C , 72-H ) :   0.9277
B( 30-C , 73-H ) :   0.9494 B( 31-C , 74-H ) :   0.9605 B( 31-C , 75-H ) :   0.9657
B( 31-C , 76-H ) :   0.9641 B( 32-C , 33-O ) :   2.0143 B( 32-C , 34-C ) :   0.9789
B( 33-O , 83-H ) :   0.1239 B( 34-C , 35-C ) :   1.3074 B( 34-C , 41-C ) :   1.2935
B( 35-C , 36-C ) :   0.9800 B( 36-C , 37-O ) :   2.0385 B( 36-C , 38-N ) :   1.0527
B( 38-N , 39-C ) :   0.9376 B( 38-N , 41-C ) :   1.1816 B( 39-C , 40-C ) :   1.1203
B( 39-C , 77-H ) :   0.9496 B( 39-C , 78-H ) :   0.9280 B( 40-C , 79-H ) :   0.9688
B( 40-C , 80-H ) :   0.9678 B( 40-C , 81-H ) :   0.9638 B( 41-C , 42-C ) :   1.1650
B( 42-C , 43-C ) :   1.5888 B( 42-C , 82-H ) :   0.9574 B( 43-C , 44-C ) :   1.0830
B( 43-C , 83-H ) :   0.9633 B( 44-C , 45-C ) :   1.2744 B( 44-C , 52-C ) :   1.3154
B( 45-C , 46-C ) :   1.4050 B( 45-C , 84-H ) :   0.9860 B( 46-C , 47-N ) :   0.8767
B( 46-C , 50-C ) :   1.3399 B( 47-N , 48-O ) :   1.5534 B( 47-N , 49-O ) :   1.5352
B( 48-O , 49-O ) :   0.2686 B( 50-C , 51-C ) :   1.3558 B( 50-C , 53-C ) :   1.0485
B( 51-C , 52-C ) :   1.3774 B( 51-C , 85-H ) :   0.9924 B( 52-C , 86-H ) :   1.0025
B( 53-C , 54-C ) :   1.7234 B( 53-C , 87-H ) :   0.9085 B( 54-C , 55-C ) :   1.1517
B( 54-C , 88-H ) :   0.9638 B( 55-C , 56-C ) :   1.5117 B( 55-C , 60-S ) :   1.0767
B( 56-C , 57-C ) :   1.1315 B( 56-C , 63-C ) :   0.9942 B( 57-C , 58-C ) :   0.9078
B( 57-C , 61-C ) :   1.5376 B( 58-C , 59-O ) :   2.2297 B( 58-C , 60-S ) :   0.9704
B( 59-O , 60-S ) :   0.1158 B( 61-C , 62-O ) :   1.1575 B( 61-C , 89-H ) :   1.0022
B( 62-O , 63-C ) :   1.0097 B( 63-C , 64-O ) :   2.1291

-----------------------------------------------------------------------------
         ABSORPTION SPECTRUM VIA TRANSITION ELECTRIC DIPOLE MOMENTS
-----------------------------------------------------------------------------
State   Energy  Wavelength   fosc         T2         TX        TY        TZ
        (cm-1)    (nm)                  (au**2)     (au)      (au)      (au)
-----------------------------------------------------------------------------
   0    5630.5   1776.1   0.239813547  14.02185  -1.71520   3.31629   0.28666
   1   10254.6    975.2   0.043202849   1.38698   0.98842  -0.62708   0.12951
   2   15471.3    646.4   0.170611034   3.63042   0.18148  -1.52252  -1.13111
   3   16997.6    588.3   0.332827301   6.44626   0.35433  -2.18650  -1.24094
   4   18954.4    527.6   0.002131760   0.03703   0.02552  -0.18262  -0.05498
   5   21166.3    472.4   0.222455450   3.45999   0.45758  -1.79748  -0.14028
   6   22187.4    450.7   0.041411157   0.61445  -0.29963   0.72287   0.04619
   7   22783.9    438.9   0.054080715   0.78143   0.36427  -0.79819  -0.10782
   8   23029.3    434.2   0.030762456   0.43976   0.40895  -0.15597   0.49819
   9   23438.4    426.7   0.235158240   3.30299  -1.43522   0.65322  -0.90357
  10   24115.2    414.7   0.011659787   0.15917   0.02622  -0.03753  -0.39633
  11   24372.7    410.3   0.056365667   0.76135  -0.20959  -0.65077  -0.54214
  12   24652.6    405.6   0.051566769   0.68863  -0.48996  -0.62742  -0.23433
  13   24865.6    402.2   0.026002629   0.34427   0.31224  -0.15352   0.47244
  14   25525.0    391.8   0.102935207   1.32762  -0.25860   0.95622  -0.58855
  15   26109.9    383.0   0.248228971   3.12985   0.85887   0.37795   1.49978
  16   26830.3    372.7   0.297627299   3.65193   0.67995  -1.78254  -0.11025
  17   27532.4    363.2   0.041113936   0.49161   0.28969  -0.63537   0.06324
  18   27839.0    359.2   0.145259322   1.71778   0.71810  -1.05707   0.29106
  19   28384.9    352.3   0.030446504   0.35312  -0.15524  -0.54028  -0.19267
  20   28504.0    350.8   0.031143349   0.35970   0.38293   0.40053   0.22942
  21   28707.0    348.3   0.112831747   1.29395  -0.28054   1.08296   0.20602
  22   29046.9    344.3   0.122324608   1.38640   0.52896   0.61923   0.85039
  23   29487.0    339.1   0.068796079   0.76808   0.47869   0.29245   0.67336
  24   29783.4    335.8   0.055813186   0.61693   0.50622   0.26925   0.53682
  25   30627.6    326.5   0.076579301   0.82314  -0.08464   0.72286   0.54171
  26   30868.1    324.0   0.107431007   1.14577  -0.75256   0.67542  -0.35105
  27   30912.3    323.5   0.057216367   0.60935   0.62058  -0.22368   0.41736
  28   31260.7    319.9   0.099361879   1.04640   0.68029  -0.63408   0.42607
  29   31608.1    316.4   0.007926775   0.08256  -0.08206   0.25488  -0.10423
  30   31648.9    316.0   0.027814301   0.28932   0.17502  -0.49028   0.13533
  31   32364.9    309.0   0.146299127   1.48814  -0.26461   0.62163   1.01572
  32   32639.0    306.4   0.014031254   0.14153   0.34855  -0.12382  -0.06862
  33   32770.6    305.2   0.026729926   0.26853   0.31516  -0.15325   0.38173
  34   33051.9    302.6   0.100064573   0.99669  -0.42665   0.50114  -0.75068
  35   33290.9    300.4   0.125286926   1.23896  -0.56967   0.92691  -0.23509
  36   33370.6    299.7   0.167304450   1.65052   0.00734  -1.21083  -0.42936
  37   33803.9    295.8   0.002676351   0.02606  -0.13630   0.00225   0.08650
  38   34102.1    293.2   0.007245651   0.06995   0.00661   0.26255   0.03114
  39   34119.2    293.1   0.007996507   0.07716   0.05219  -0.06913   0.26392
  40   34615.3    288.9   0.055692805   0.52967  -0.33971   0.49192  -0.41507
  41   34811.5    287.3   0.025302083   0.23928   0.01588  -0.46158  -0.16116
  42   35084.9    285.0   0.069586418   0.65295  -0.42912   0.39694  -0.55790
  43   35277.8    283.5   0.005862539   0.05471  -0.12964   0.16392   0.10504
  44   35850.7    278.9   0.031750547   0.29156  -0.23534  -0.11996  -0.47094
  45   35996.4    277.8   0.033345145   0.30496  -0.28858   0.40935  -0.23263
  46   36239.6    275.9   0.014352236   0.13038   0.00885   0.36002   0.02620
  47   36310.4    275.4   0.088032446   0.79815  -0.43240   0.53820   0.56703
  48   37138.2    269.3   0.004872881   0.04320   0.06060  -0.09550  -0.17437
  49   37491.0    266.7   0.022135570   0.19437  -0.08725   0.12736  -0.41297
  50   37627.8    265.8   0.001318318   0.01153  -0.04786   0.01888   0.09427
  51   37790.0    264.6   0.005414674   0.04717   0.03739  -0.08576  -0.19601
  52   37849.7    264.2   0.003762719   0.03273  -0.11475   0.13985  -0.00183
  53   38010.7    263.1   0.001718092   0.01488  -0.05876  -0.01337   0.10606
  54   38095.1    262.5   0.010151823   0.08773   0.03365   0.16527   0.24349
  55   38207.3    261.7   0.085791852   0.73922   0.02321  -0.70756  -0.48790
  56   38800.6    257.7   0.073980321   0.62770  -0.57428   0.43026  -0.33582
  57   39319.9    254.3   0.013332432   0.11163  -0.08509  -0.07376  -0.31456
  58   39418.6    253.7   0.074984369   0.62625  -0.39065   0.52606  -0.44373
  59   39709.3    251.8   0.134807345   1.11763   0.50310  -0.78127   0.50412
  60   39829.7    251.1   0.009284093   0.07674  -0.23303   0.14928  -0.01217
  61   40254.6    248.4   0.032820024   0.26841  -0.37569   0.26145  -0.24272

FINAL SINGLE POINT ENERGY     -3810.739232647456

DIPOLE MOMENT
-------------
                                X             Y             Z
Electronic contribution:    -13.98739       1.19671      -8.53865
Nuclear contribution   :     15.10591      -2.51737       9.29016
                        -----------------------------------------
Total Dipole Moment    :      1.11852      -1.32066       0.75151
                        -----------------------------------------
Magnitude (a.u.)       :      1.88680
Magnitude (Debye)      :      4.79586

Rotational constants in cm-1:     0.002636     0.000282     0.000263
Rotational constants in MHz :    79.013432     8.451490     7.893013

                             ****ORCA TERMINATED NORMALLY****
TOTAL RUN TIME: 0 days 0 hours 9 minutes 57 seconds 624 msec
