                         Program Version 4.2.0 -  RELEASE  -
|  1> # ORCA input file
|  2> # SCF done       -204.651484059959          0.000883714210
|  3> ! CAM-B3LYP def2-SVP def2/J RIJCOSX Grid4 TightSCF
|  4> %maxcore 5000
|  5> %tddft
|  6>     Mode sTDDFT
|  7>     Ethresh 5.0
|  8>     maxcore 5000
|  9> end
| 10>
| 11> %pal
| 12>   nprocs 6
| 13>   end
| 14> * xyz 0 1
| 15>    C       -1.67351         0.97277        -7.74827
| 16>    C       -1.26978        -0.17528        -7.14108
| 17>    C       -2.04127        -1.32867        -7.48764
| 18>    C       -3.15062        -1.07464        -8.36380
| 19>    O       -4.03709        -1.76242        -8.76644
| 20>    S       -3.03982         0.73855        -8.76291
| 21>    C       -1.51886        -2.40010        -6.79551
| 22>    O       -0.48999        -1.98823        -6.00966
| 23>    C       -0.26013        -0.61895        -6.18747
| 24>    O        0.60707        -0.04682        -5.59904
| 25>    C       -1.90149        -3.76985        -6.79267
| 26>    C       -2.31511        -4.53684        -7.87204
| 27>    N       -2.35992        -4.18599        -9.24652
| 28>    O       -2.92071        -4.96298        -9.98970
| 29>    O       -1.79744        -3.16861        -9.60034
| 30>    C       -2.53671        -5.88509        -7.43540
| 31>    C       -2.20942        -5.97527        -6.11925
| 32>    C       -1.81850        -4.67834        -5.64573
| 33>    C       -1.57318        -4.32569        -4.32963
| 34>    C       -1.85394        -3.07919        -3.70715
| 35>    C       -1.70531        -3.22257        -2.35665
| 36>    C       -1.27896        -4.55289        -2.06120
| 37>    N       -1.02393        -4.92770        -0.72765
| 38>    O       -0.96368        -4.03421         0.09512
| 39>    O       -0.90182        -6.11185        -0.44965
| 40>    C       -1.14325        -5.26563        -3.26612
| 41>    C       -0.53239        -6.47545        -3.61609
| 42>    C       -0.18560        -7.53199        -2.80129
| 43>    C        0.41649        -8.68221        -3.31698
| 44>    N        0.72183        -9.78898        -2.56577
| 45>    C        0.46355        -9.96302        -1.15295
| 46>    C       -0.99327       -10.32682        -0.88451
| 47>    C        1.29072       -10.81049        -3.33236
| 48>    O        1.62749       -11.88831        -2.88704
| 49>    C        1.35354       -10.25967        -4.68082
| 50>    C        0.81886        -8.97261        -4.64597
| 51>    C        0.89342        -8.41659        -5.99192
| 52>    O        0.54200        -7.34598        -6.44015
| 53>    N        1.49493        -9.42651        -6.75219
| 54>    C        1.72489        -9.26335        -8.17124
| 55>    C        0.63811        -9.93831        -9.00193
| 56>    C        1.77071       -10.54348        -6.00753
| 57>    C        2.34265       -11.70887        -6.52682
| 58>    C        2.52317       -12.82359        -5.73850
| 59>    C        3.06486       -14.06954        -6.08122
| 60>    C        3.89747       -14.52496        -7.11850
| 61>    N        4.30050       -13.90768        -8.32040
| 62>    O        3.70856       -12.91194        -8.70864
| 63>    O        5.21622       -14.42688        -8.92762
| 64>    C        4.38814       -15.82321        -6.78498
| 65>    C        3.89020       -16.20057        -5.57113
| 66>    C        3.01722       -15.17594        -5.10020
| 67>    C        2.13103       -15.26285        -4.03956
| 68>    C        0.82408       -14.68583        -3.99742
| 69>    C        0.14135       -15.21068        -2.94004
| 70>    C        1.01172       -16.08762        -2.21967
| 71>    N        0.61808       -16.73265        -1.02775
| 72>    O       -0.52594       -16.55202        -0.65475
| 73>    O        1.42799       -17.43390        -0.44759
| 74>    C        2.25290       -16.13055        -2.85180
| 75>    C        3.43134       -16.72822        -2.35847
| 76>    C        4.69354       -16.33611        -2.69362
| 77>    C        5.87020       -16.94950        -2.22032
| 78>    C        7.14828       -16.56455        -2.56374
| 79>    C        8.20309       -17.32996        -1.97675
| 80>    C        7.75935       -18.40016        -1.10861
| 81>    O        8.35719       -19.21171        -0.47419
| 82>    S        5.91804       -18.32751        -1.13054
| 83>    C        9.37136       -16.80207        -2.43785
| 84>    O        9.15291       -15.77460        -3.26789
| 85>    C        7.76889       -15.56364        -3.40394
| 86>    O        7.31497       -14.70399        -4.10773
| 87>    H       -1.23831         1.94977        -7.65345
| 88>    H       -2.88903        -6.66432        -8.08383
| 89>    H       -2.33314        -6.83935        -5.49675
| 90>    H       -2.23278        -2.20777        -4.20287
| 91>    H       -1.88202        -2.47945        -1.60132
| 92>    H       -0.31072        -6.57467        -4.67067
| 93>    H       -0.40472        -7.49360        -1.74549
| 94>    H        0.73588        -9.04941        -0.62030
| 95>    H        1.11420       -10.77689        -0.82270
| 96>    H       -1.65991        -9.53172        -1.20881
| 97>    H       -1.13537       -10.48275         0.18045
| 98>    H       -1.25546       -11.24357        -1.40738
| 99>    H        2.70822        -9.66407        -8.42619
|100>    H        1.71766        -8.18666        -8.35950
|101>    H        0.62429       -11.01140        -8.82810
|102>    H        0.82863        -9.76194       -10.05611
|103>    H       -0.33709        -9.52696        -8.75234
|104>    H        2.61685       -11.73163        -7.56995
|105>    H        2.20850       -12.74871        -4.70554
|106>    H        5.04115       -16.38726        -7.42418
|107>    H        4.03054       -17.15281        -5.09836
|108>    H        0.40914       -14.05525        -4.75915
|109>    H       -0.87806       -15.02371        -2.65988
|110>    H        3.30689       -17.50019        -1.60697
|111>    H        4.85851       -15.48494        -3.34186
|112>    H       10.39475       -17.07070        -2.24867
|113> *
|114>
|115>                          ****END OF INPUT****

CARTESIAN COORDINATES (ANGSTROEM)
---------------------------------
  C     -1.673510    0.972770   -7.748270
  C     -1.269780   -0.175280   -7.141080
  C     -2.041270   -1.328670   -7.487640
  C     -3.150620   -1.074640   -8.363800
  O     -4.037090   -1.762420   -8.766440
  S     -3.039820    0.738550   -8.762910
  C     -1.518860   -2.400100   -6.795510
  O     -0.489990   -1.988230   -6.009660
  C     -0.260130   -0.618950   -6.187470
  O      0.607070   -0.046820   -5.599040
  C     -1.901490   -3.769850   -6.792670
  C     -2.315110   -4.536840   -7.872040
  N     -2.359920   -4.185990   -9.246520
  O     -2.920710   -4.962980   -9.989700
  O     -1.797440   -3.168610   -9.600340
  C     -2.536710   -5.885090   -7.435400
  C     -2.209420   -5.975270   -6.119250
  C     -1.818500   -4.678340   -5.645730
  C     -1.573180   -4.325690   -4.329630
  C     -1.853940   -3.079190   -3.707150
  C     -1.705310   -3.222570   -2.356650
  C     -1.278960   -4.552890   -2.061200
  N     -1.023930   -4.927700   -0.727650
  O     -0.963680   -4.034210    0.095120
  O     -0.901820   -6.111850   -0.449650
  C     -1.143250   -5.265630   -3.266120
  C     -0.532390   -6.475450   -3.616090
  C     -0.185600   -7.531990   -2.801290
  C      0.416490   -8.682210   -3.316980
  N      0.721830   -9.788980   -2.565770
  C      0.463550   -9.963020   -1.152950
  C     -0.993270  -10.326820   -0.884510
  C      1.290720  -10.810490   -3.332360
  O      1.627490  -11.888310   -2.887040
  C      1.353540  -10.259670   -4.680820
  C      0.818860   -8.972610   -4.645970
  C      0.893420   -8.416590   -5.991920
  O      0.542000   -7.345980   -6.440150
  N      1.494930   -9.426510   -6.752190
  C      1.724890   -9.263350   -8.171240
  C      0.638110   -9.938310   -9.001930
  C      1.770710  -10.543480   -6.007530
  C      2.342650  -11.708870   -6.526820
  C      2.523170  -12.823590   -5.738500
  C      3.064860  -14.069540   -6.081220
  C      3.897470  -14.524960   -7.118500
  N      4.300500  -13.907680   -8.320400
  O      3.708560  -12.911940   -8.708640
  O      5.216220  -14.426880   -8.927620
  C      4.388140  -15.823210   -6.784980
  C      3.890200  -16.200570   -5.571130
  C      3.017220  -15.175940   -5.100200
  C      2.131030  -15.262850   -4.039560
  C      0.824080  -14.685830   -3.997420
  C      0.141350  -15.210680   -2.940040
  C      1.011720  -16.087620   -2.219670
  N      0.618080  -16.732650   -1.027750
  O     -0.525940  -16.552020   -0.654750
  O      1.427990  -17.433900   -0.447590
  C      2.252900  -16.130550   -2.851800
  C      3.431340  -16.728220   -2.358470
  C      4.693540  -16.336110   -2.693620
  C      5.870200  -16.949500   -2.220320
  C      7.148280  -16.564550   -2.563740
  C      8.203090  -17.329960   -1.976750
  C      7.759350  -18.400160   -1.108610
  O      8.357190  -19.211710   -0.474190
  S      5.918040  -18.327510   -1.130540
  C      9.371360  -16.802070   -2.437850
  O      9.152910  -15.774600   -3.267890
  C      7.768890  -15.563640   -3.403940
  O      7.314970  -14.703990   -4.107730
  H     -1.238310    1.949770   -7.653450
  H     -2.889030   -6.664320   -8.083830
  H     -2.333140   -6.839350   -5.496750
  H     -2.232780   -2.207770   -4.202870
  H     -1.882020   -2.479450   -1.601320
  H     -0.310720   -6.574670   -4.670670
  H     -0.404720   -7.493600   -1.745490
  H      0.735880   -9.049410   -0.620300
  H      1.114200  -10.776890   -0.822700
  H     -1.659910   -9.531720   -1.208810
  H     -1.135370  -10.482750    0.180450
  H     -1.255460  -11.243570   -1.407380
  H      2.708220   -9.664070   -8.426190
  H      1.717660   -8.186660   -8.359500
  H      0.624290  -11.011400   -8.828100
  H      0.828630   -9.761940  -10.056110
  H     -0.337090   -9.526960   -8.752340
  H      2.616850  -11.731630   -7.569950
  H      2.208500  -12.748710   -4.705540
  H      5.041150  -16.387260   -7.424180
  H      4.030540  -17.152810   -5.098360
  H      0.409140  -14.055250   -4.759150
  H     -0.878060  -15.023710   -2.659880
  H      3.306890  -17.500190   -1.606970
  H      4.858510  -15.484940   -3.341860
  H     10.394750  -17.070700   -2.248670

 Total Charge           Charge          ....    0
 Multiplicity           Mult            ....    1
 Number of Electrons    NEL             ....  516
 Basis Dimension        Dim             .... 1146

ORBITAL ENERGIES
----------------

  NO   OCC          E(Eh)            E(eV)
   0   2.0000     -88.962121     -2420.7824
   1   2.0000     -88.953506     -2420.5479
   2   2.0000     -19.306747      -525.3633
   3   2.0000     -19.295825      -525.0661
   4   2.0000     -19.252775      -523.8946
   5   2.0000     -19.251598      -523.8626
   6   2.0000     -19.248847      -523.7877
   7   2.0000     -19.248809      -523.7867
   8   2.0000     -19.248750      -523.7851
   9   2.0000     -19.248098      -523.7674
  10   2.0000     -19.247255      -523.7444
  11   2.0000     -19.246146      -523.7143
  12   2.0000     -19.237567      -523.4808
  13   2.0000     -19.236191      -523.4434
  14   2.0000     -19.229674      -523.2660
  15   2.0000     -19.225173      -523.1436
  16   2.0000     -19.223495      -523.0979
  17   2.0000     -19.221091      -523.0325
  18   2.0000     -14.661452      -398.9584
  19   2.0000     -14.657694      -398.8561
  20   2.0000     -14.657539      -398.8519
  21   2.0000     -14.655896      -398.8072
  22   2.0000     -14.481892      -394.0723
  23   2.0000     -14.479613      -394.0103
  24   2.0000     -10.429797      -283.8092
  25   2.0000     -10.420573      -283.5582
  26   2.0000     -10.407030      -283.1897
  27   2.0000     -10.405704      -283.1536
  28   2.0000     -10.403268      -283.0873
  29   2.0000     -10.394437      -282.8470
  30   2.0000     -10.387703      -282.6638
  31   2.0000     -10.387482      -282.6578
  32   2.0000     -10.368456      -282.1400
  33   2.0000     -10.364925      -282.0440
  34   2.0000     -10.354329      -281.7556
  35   2.0000     -10.350578      -281.6535
  36   2.0000     -10.347663      -281.5742
  37   2.0000     -10.343283      -281.4550
  38   2.0000     -10.343169      -281.4519
  39   2.0000     -10.342534      -281.4347
  40   2.0000     -10.341662      -281.4109
  41   2.0000     -10.340529      -281.3801
  42   2.0000     -10.336920      -281.2819
  43   2.0000     -10.336007      -281.2571
  44   2.0000     -10.335035      -281.2306
  45   2.0000     -10.334829      -281.2250
  46   2.0000     -10.332441      -281.1600
  47   2.0000     -10.327928      -281.0372
  48   2.0000     -10.325325      -280.9664
  49   2.0000     -10.324135      -280.9340
  50   2.0000     -10.319267      -280.8015
  51   2.0000     -10.318934      -280.7925
  52   2.0000     -10.317166      -280.7444
  53   2.0000     -10.316187      -280.7177
  54   2.0000     -10.313976      -280.6576
  55   2.0000     -10.312857      -280.6271
  56   2.0000     -10.311077      -280.5787
  57   2.0000     -10.310794      -280.5710
  58   2.0000     -10.310315      -280.5579
  59   2.0000     -10.309446      -280.5343
  60   2.0000     -10.305696      -280.4323
  61   2.0000     -10.302477      -280.3447
  62   2.0000     -10.301545      -280.3193
  63   2.0000     -10.300840      -280.3001
  64   2.0000     -10.300674      -280.2956
  65   2.0000     -10.299863      -280.2735
  66   2.0000     -10.298728      -280.2426
  67   2.0000     -10.298031      -280.2237
  68   2.0000     -10.296072      -280.1704
  69   2.0000     -10.295645      -280.1588
  70   2.0000     -10.276973      -279.6506
  71   2.0000     -10.276079      -279.6263
  72   2.0000      -8.059152      -219.3007
  73   2.0000      -8.051134      -219.0825
  74   2.0000      -6.028598      -164.0465
  75   2.0000      -6.024602      -163.9377
  76   2.0000      -6.020435      -163.8244
  77   2.0000      -6.020255      -163.8195
  78   2.0000      -6.016361      -163.7135
  79   2.0000      -6.012547      -163.6097
  80   2.0000      -1.332366       -36.2555
  81   2.0000      -1.328802       -36.1585
  82   2.0000      -1.328740       -36.1569
  83   2.0000      -1.328010       -36.1370
  84   2.0000      -1.237730       -33.6804
  85   2.0000      -1.227372       -33.3985
  86   2.0000      -1.165165       -31.7058
  87   2.0000      -1.161538       -31.6071
  88   2.0000      -1.158155       -31.5150
  89   2.0000      -1.153184       -31.3797
  90   2.0000      -1.149097       -31.2685
  91   2.0000      -1.146392       -31.1949
  92   2.0000      -1.145875       -31.1808
  93   2.0000      -1.144661       -31.1478
  94   2.0000      -1.143598       -31.1189
  95   2.0000      -1.134122       -30.8610
  96   2.0000      -1.094229       -29.7755
  97   2.0000      -1.084634       -29.5144
  98   2.0000      -1.032017       -28.0826
  99   2.0000      -1.028116       -27.9765
 100   2.0000      -1.010871       -27.5072
 101   2.0000      -1.008084       -27.4314
 102   2.0000      -1.000105       -27.2142
 103   2.0000      -0.984113       -26.7791
 104   2.0000      -0.954765       -25.9805
 105   2.0000      -0.935307       -25.4510
 106   2.0000      -0.931666       -25.3519
 107   2.0000      -0.929084       -25.2817
 108   2.0000      -0.923275       -25.1236
 109   2.0000      -0.920817       -25.0567
 110   2.0000      -0.898541       -24.4505
 111   2.0000      -0.894357       -24.3367
 112   2.0000      -0.891609       -24.2619
 113   2.0000      -0.888439       -24.1756
 114   2.0000      -0.886900       -24.1338
 115   2.0000      -0.870139       -23.6777
 116   2.0000      -0.866628       -23.5822
 117   2.0000      -0.860383       -23.4122
 118   2.0000      -0.858781       -23.3686
 119   2.0000      -0.841018       -22.8853
 120   2.0000      -0.839819       -22.8526
 121   2.0000      -0.827931       -22.5291
 122   2.0000      -0.821169       -22.3451
 123   2.0000      -0.807913       -21.9844
 124   2.0000      -0.789256       -21.4768
 125   2.0000      -0.782019       -21.2798
 126   2.0000      -0.779102       -21.2004
 127   2.0000      -0.775481       -21.1019
 128   2.0000      -0.771405       -20.9910
 129   2.0000      -0.745073       -20.2745
 130   2.0000      -0.742021       -20.1914
 131   2.0000      -0.739236       -20.1156
 132   2.0000      -0.738570       -20.0975
 133   2.0000      -0.728631       -19.8271
 134   2.0000      -0.722871       -19.6703
 135   2.0000      -0.718769       -19.5587
 136   2.0000      -0.712792       -19.3961
 137   2.0000      -0.698933       -19.0189
 138   2.0000      -0.692451       -18.8425
 139   2.0000      -0.686800       -18.6888
 140   2.0000      -0.682528       -18.5725
 141   2.0000      -0.680443       -18.5158
 142   2.0000      -0.672248       -18.2928
 143   2.0000      -0.668967       -18.2035
 144   2.0000      -0.667369       -18.1600
 145   2.0000      -0.661228       -17.9929
 146   2.0000      -0.652300       -17.7500
 147   2.0000      -0.646225       -17.5847
 148   2.0000      -0.644810       -17.5462
 149   2.0000      -0.641735       -17.4625
 150   2.0000      -0.639128       -17.3916
 151   2.0000      -0.638880       -17.3848
 152   2.0000      -0.636160       -17.3108
 153   2.0000      -0.634048       -17.2533
 154   2.0000      -0.631690       -17.1891
 155   2.0000      -0.630392       -17.1538
 156   2.0000      -0.626814       -17.0565
 157   2.0000      -0.618316       -16.8252
 158   2.0000      -0.615999       -16.7622
 159   2.0000      -0.610122       -16.6023
 160   2.0000      -0.609304       -16.5800
 161   2.0000      -0.605886       -16.4870
 162   2.0000      -0.604847       -16.4587
 163   2.0000      -0.600443       -16.3389
 164   2.0000      -0.594360       -16.1734
 165   2.0000      -0.593377       -16.1466
 166   2.0000      -0.592958       -16.1352
 167   2.0000      -0.592627       -16.1262
 168   2.0000      -0.588692       -16.0191
 169   2.0000      -0.580334       -15.7917
 170   2.0000      -0.574743       -15.6395
 171   2.0000      -0.573730       -15.6120
 172   2.0000      -0.570305       -15.5188
 173   2.0000      -0.565520       -15.3886
 174   2.0000      -0.564063       -15.3489
 175   2.0000      -0.561300       -15.2738
 176   2.0000      -0.555680       -15.1208
 177   2.0000      -0.552908       -15.0454
 178   2.0000      -0.552106       -15.0236
 179   2.0000      -0.547535       -14.8992
 180   2.0000      -0.544007       -14.8032
 181   2.0000      -0.542810       -14.7706
 182   2.0000      -0.541856       -14.7446
 183   2.0000      -0.540786       -14.7155
 184   2.0000      -0.538626       -14.6568
 185   2.0000      -0.532213       -14.4823
 186   2.0000      -0.530151       -14.4262
 187   2.0000      -0.526770       -14.3341
 188   2.0000      -0.526464       -14.3258
 189   2.0000      -0.523320       -14.2403
 190   2.0000      -0.522033       -14.2052
 191   2.0000      -0.518624       -14.1125
 192   2.0000      -0.517177       -14.0731
 193   2.0000      -0.516355       -14.0507
 194   2.0000      -0.511583       -13.9209
 195   2.0000      -0.510861       -13.9012
 196   2.0000      -0.505786       -13.7631
 197   2.0000      -0.505418       -13.7531
 198   2.0000      -0.501360       -13.6427
 199   2.0000      -0.500448       -13.6179
 200   2.0000      -0.499527       -13.5928
 201   2.0000      -0.496831       -13.5195
 202   2.0000      -0.496254       -13.5038
 203   2.0000      -0.493911       -13.4400
 204   2.0000      -0.493174       -13.4200
 205   2.0000      -0.489714       -13.3258
 206   2.0000      -0.488835       -13.3019
 207   2.0000      -0.485486       -13.2107
 208   2.0000      -0.481551       -13.1037
 209   2.0000      -0.477720       -12.9994
 210   2.0000      -0.475564       -12.9408
 211   2.0000      -0.472215       -12.8496
 212   2.0000      -0.470341       -12.7986
 213   2.0000      -0.468842       -12.7578
 214   2.0000      -0.464455       -12.6385
 215   2.0000      -0.459980       -12.5167
 216   2.0000      -0.456934       -12.4338
 217   2.0000      -0.456664       -12.4264
 218   2.0000      -0.455089       -12.3836
 219   2.0000      -0.448969       -12.2171
 220   2.0000      -0.446412       -12.1475
 221   2.0000      -0.443788       -12.0761
 222   2.0000      -0.442428       -12.0391
 223   2.0000      -0.440016       -11.9734
 224   2.0000      -0.433299       -11.7907
 225   2.0000      -0.403534       -10.9807
 226   2.0000      -0.400769       -10.9055
 227   2.0000      -0.398599       -10.8464
 228   2.0000      -0.397306       -10.8113
 229   2.0000      -0.395305       -10.7568
 230   2.0000      -0.393628       -10.7112
 231   2.0000      -0.392601       -10.6832
 232   2.0000      -0.388030       -10.5588
 233   2.0000      -0.385884       -10.5004
 234   2.0000      -0.383800       -10.4437
 235   2.0000      -0.383523       -10.4362
 236   2.0000      -0.380671       -10.3586
 237   2.0000      -0.380258       -10.3474
 238   2.0000      -0.379482       -10.3262
 239   2.0000      -0.376359       -10.2413
 240   2.0000      -0.374559       -10.1923
 241   2.0000      -0.373046       -10.1511
 242   2.0000      -0.370508       -10.0820
 243   2.0000      -0.363288        -9.8856
 244   2.0000      -0.361580        -9.8391
 245   2.0000      -0.356644        -9.7048
 246   2.0000      -0.355832        -9.6827
 247   2.0000      -0.350199        -9.5294
 248   2.0000      -0.348336        -9.4787
 249   2.0000      -0.345912        -9.4127
 250   2.0000      -0.344805        -9.3826
 251   2.0000      -0.329588        -8.9685
 252   2.0000      -0.324421        -8.8279
 253   2.0000      -0.319115        -8.6836
 254   2.0000      -0.310408        -8.4466
 255   2.0000      -0.283274        -7.7083
 256   2.0000      -0.280405        -7.6302
 257   2.0000      -0.250181        -6.8078
 258   0.0000      -0.166266        -4.5243
 259   0.0000      -0.144830        -3.9410
 260   0.0000      -0.108796        -2.9605
 261   0.0000      -0.091264        -2.4834
 262   0.0000      -0.074416        -2.0250

MULLIKEN ATOMIC CHARGES
-----------------------
   0 C :   -0.080484
   1 C :   -0.049198
   2 C :    0.073558
   3 C :    0.025718
   4 O :   -0.130197
   5 S :    0.034846
   6 C :    0.028008
   7 O :   -0.246597
   8 C :    0.244561
   9 O :   -0.113406
  10 C :    0.044768
  11 C :    0.107559
  12 N :    0.272301
  13 O :   -0.228537
  14 O :   -0.233024
  15 C :    0.002617
  16 C :    0.034841
  17 C :    0.059677
  18 C :    0.021951
  19 C :    0.031536
  20 C :    0.026459
  21 C :    0.066755
  22 N :    0.278142
  23 O :   -0.239271
  24 O :   -0.262023
  25 C :    0.095978
  26 C :   -0.094254
  27 C :   -0.010189
  28 C :    0.143578
  29 N :   -0.243944
  30 C :    0.092200
  31 C :    0.006356
  32 C :    0.169399
  33 O :   -0.198508
  34 C :   -0.066485
  35 C :   -0.058710
  36 C :    0.169929
  37 O :   -0.187669
  38 N :   -0.245351
  39 C :    0.094047
  40 C :    0.003661
  41 C :    0.151785
  42 C :   -0.015562
  43 C :   -0.085993
  44 C :    0.093397
  45 C :    0.085631
  46 N :    0.277125
  47 O :   -0.257270
  48 O :   -0.234351
  49 C :    0.026096
  50 C :    0.015225
  51 C :   -0.000862
  52 C :    0.044505
  53 C :    0.029995
  54 C :    0.013140
  55 C :    0.099749
  56 N :    0.270009
  57 O :   -0.239762
  58 O :   -0.245668
  59 C :    0.038886
  60 C :   -0.023813
  61 C :   -0.032906
  62 C :   -0.079344
  63 C :   -0.044511
  64 C :    0.033446
  65 C :    0.057247
  66 O :   -0.118233
  67 S :    0.045926
  68 C :    0.133221
  69 O :   -0.227284
  70 C :    0.234270
  71 O :   -0.130613
  72 H :    0.051497
  73 H :    0.004053
  74 H :    0.000354
  75 H :   -0.003083
  76 H :    0.014373
  77 H :    0.037061
  78 H :    0.004435
  79 H :    0.044964
  80 H :    0.045253
  81 H :    0.022856
  82 H :    0.035777
  83 H :    0.022157
  84 H :    0.045062
  85 H :    0.047267
  86 H :    0.023635
  87 H :    0.036783
  88 H :    0.022954
  89 H :    0.004214
  90 H :    0.034710
  91 H :    0.011198
  92 H :    0.006232
  93 H :   -0.002699
  94 H :    0.006337
  95 H :    0.040454
  96 H :    0.042643
  97 H :    0.047441
Sum of atomic charges:   -0.0000000

LOEWDIN ATOMIC CHARGES
----------------------
   0 C :   -0.095373
   1 C :   -0.128301
   2 C :   -0.132040
   3 C :   -0.034205
   4 O :   -0.125878
   5 S :    0.341234
   6 C :    0.107913
   7 O :   -0.045750
   8 C :    0.105992
   9 O :   -0.118359
  10 C :   -0.038733
  11 C :    0.006179
  12 N :    0.285575
  13 O :   -0.189572
  14 O :   -0.190558
  15 C :    0.002595
  16 C :   -0.009654
  17 C :    0.040181
  18 C :    0.062712
  19 C :   -0.034247
  20 C :    0.034813
  21 C :   -0.047765
  22 N :    0.286426
  23 O :   -0.203397
  24 O :   -0.222799
  25 C :    0.007345
  26 C :    0.014134
  27 C :   -0.006491
  28 C :    0.069099
  29 N :    0.010489
  30 C :    0.040001
  31 C :   -0.057996
  32 C :    0.079649
  33 O :   -0.185202
  34 C :   -0.102601
  35 C :   -0.094118
  36 C :    0.082089
  37 O :   -0.173841
  38 N :    0.011086
  39 C :    0.040341
  40 C :   -0.058059
  41 C :    0.079532
  42 C :   -0.017440
  43 C :    0.023111
  44 C :   -0.002737
  45 C :   -0.031699
  46 N :    0.286764
  47 O :   -0.217641
  48 O :   -0.197819
  49 C :    0.020736
  50 C :   -0.032171
  51 C :    0.047715
  52 C :    0.049642
  53 C :   -0.023286
  54 C :    0.019868
  55 C :   -0.031935
  56 N :    0.284045
  57 O :   -0.204234
  58 O :   -0.208763
  59 C :    0.001090
  60 C :    0.010832
  61 C :   -0.021300
  62 C :   -0.097805
  63 C :   -0.115667
  64 C :   -0.149563
  65 C :   -0.031744
  66 O :   -0.120556
  67 S :    0.332596
  68 C :    0.148199
  69 O :   -0.036945
  70 C :    0.107784
  71 O :   -0.126775
  72 H :    0.039069
  73 H :    0.038782
  74 H :    0.031799
  75 H :    0.030729
  76 H :    0.042467
  77 H :    0.040621
  78 H :    0.030658
  79 H :    0.032567
  80 H :    0.038760
  81 H :    0.025280
  82 H :    0.036769
  83 H :    0.028858
  84 H :    0.032796
  85 H :    0.039540
  86 H :    0.025283
  87 H :    0.037193
  88 H :    0.029082
  89 H :    0.030516
  90 H :    0.040662
  91 H :    0.041360
  92 H :    0.033649
  93 H :    0.031541
  94 H :    0.039620
  95 H :    0.038610
  96 H :    0.044469
  97 H :    0.042572

  Mayer bond orders larger than 0.100000
B(  0-C ,  1-C ) :   1.5630 B(  0-C ,  5-S ) :   1.1444 B(  0-C , 72-H ) :   0.9629
B(  1-C ,  2-C ) :   1.1253 B(  1-C ,  8-C ) :   0.9466 B(  2-C ,  3-C ) :   0.9218
B(  2-C ,  6-C ) :   1.5072 B(  3-C ,  4-O ) :   2.1982 B(  3-C ,  5-S ) :   0.9706
B(  4-O ,  5-S ) :   0.1108 B(  6-C ,  7-O ) :   1.1646 B(  6-C , 10-C ) :   1.0473
B(  7-O ,  8-C ) :   0.9724 B(  8-C ,  9-O ) :   2.2901 B( 10-C , 11-C ) :   1.5667
B( 10-C , 17-C ) :   1.0734 B( 11-C , 12-N ) :   0.9159 B( 11-C , 15-C ) :   1.1512
B( 12-N , 13-O ) :   1.5416 B( 12-N , 14-O ) :   1.5225 B( 13-O , 14-O ) :   0.2768
B( 15-C , 16-C ) :   1.5641 B( 15-C , 73-H ) :   1.0109 B( 16-C , 17-C ) :   1.1207
B( 16-C , 74-H ) :   1.0025 B( 17-C , 18-C ) :   1.4702 B( 18-C , 19-C ) :   1.1678
B( 18-C , 25-C ) :   1.0060 B( 19-C , 20-C ) :   1.5320 B( 19-C , 75-H ) :   1.0018
B( 20-C , 21-C ) :   1.1619 B( 20-C , 76-H ) :   1.0056 B( 21-C , 22-N ) :   0.9634
B( 21-C , 25-C ) :   1.4109 B( 22-N , 23-O ) :   1.5449 B( 22-N , 24-O ) :   1.4555
B( 23-O , 24-O ) :   0.2492 B( 24-O , 78-H ) :   0.1080 B( 25-C , 26-C ) :   1.2279
B( 26-C , 27-C ) :   1.4716 B( 26-C , 77-H ) :   0.9380 B( 27-C , 28-C ) :   1.2179
B( 27-C , 78-H ) :   0.9443 B( 28-C , 29-N ) :   1.1662 B( 28-C , 35-C ) :   1.2315
B( 29-N , 30-C ) :   0.9305 B( 29-N , 32-C ) :   1.0823 B( 30-C , 31-C ) :   1.1246
B( 30-C , 79-H ) :   0.9478 B( 30-C , 80-H ) :   0.9294 B( 31-C , 81-H ) :   0.9677
B( 31-C , 82-H ) :   0.9674 B( 31-C , 83-H ) :   0.9635 B( 32-C , 33-O ) :   2.0148
B( 32-C , 34-C ) :   0.9744 B( 33-O , 90-H ) :   0.1145 B( 34-C , 35-C ) :   1.3567
B( 34-C , 41-C ) :   1.2250 B( 35-C , 36-C ) :   0.9685 B( 36-C , 37-O ) :   2.0272
B( 36-C , 38-N ) :   1.0739 B( 37-O , 77-H ) :   0.1074 B( 38-N , 39-C ) :   0.9293
B( 38-N , 41-C ) :   1.1764 B( 39-C , 40-C ) :   1.1225 B( 39-C , 84-H ) :   0.9481
B( 39-C , 85-H ) :   0.9298 B( 40-C , 86-H ) :   0.9680 B( 40-C , 87-H ) :   0.9678
B( 40-C , 88-H ) :   0.9639 B( 41-C , 42-C ) :   1.2059 B( 42-C , 43-C ) :   1.4933
B( 42-C , 89-H ) :   0.9469 B( 43-C , 44-C ) :   1.2083 B( 43-C , 90-H ) :   0.9347
B( 44-C , 45-C ) :   1.4171 B( 44-C , 51-C ) :   1.0192 B( 45-C , 46-N ) :   0.9546
B( 45-C , 49-C ) :   1.1745 B( 46-N , 47-O ) :   1.4624 B( 46-N , 48-O ) :   1.5477
B( 47-O , 48-O ) :   0.2553 B( 47-O , 89-H ) :   0.1033 B( 49-C , 50-C ) :   1.5321
B( 49-C , 91-H ) :   1.0051 B( 50-C , 51-C ) :   1.1600 B( 50-C , 92-H ) :   0.9989
B( 51-C , 52-C ) :   1.4655 B( 52-C , 53-C ) :   1.1622 B( 52-C , 59-C ) :   1.0150
B( 53-C , 54-C ) :   1.5389 B( 53-C , 93-H ) :   1.0026 B( 54-C , 55-C ) :   1.1536
B( 54-C , 94-H ) :   1.0104 B( 55-C , 56-N ) :   0.9381 B( 55-C , 59-C ) :   1.4974
B( 56-N , 57-O ) :   1.5396 B( 56-N , 58-O ) :   1.5009 B( 57-O , 58-O ) :   0.2660
B( 59-C , 60-C ) :   1.1910 B( 60-C , 61-C ) :   1.5264 B( 60-C , 95-H ) :   0.9553
B( 61-C , 62-C ) :   1.2325 B( 61-C , 96-H ) :   0.9609 B( 62-C , 63-C ) :   1.4896
B( 62-C , 67-S ) :   1.0627 B( 63-C , 64-C ) :   1.1362 B( 63-C , 70-C ) :   0.9871
B( 64-C , 65-C ) :   0.9002 B( 64-C , 68-C ) :   1.5222 B( 65-C , 66-O ) :   2.2329
B( 65-C , 67-S ) :   0.9754 B( 66-O , 67-S ) :   0.1174 B( 68-C , 69-O ) :   1.1656
B( 68-C , 97-H ) :   1.0017 B( 69-O , 70-C ) :   0.9938 B( 70-C , 71-O ) :   2.2080

-----------------------------------------------------------------------------
         ABSORPTION SPECTRUM VIA TRANSITION ELECTRIC DIPOLE MOMENTS
-----------------------------------------------------------------------------
State   Energy  Wavelength   fosc         T2         TX        TY        TZ
        (cm-1)    (nm)                  (au**2)     (au)      (au)      (au)
-----------------------------------------------------------------------------
   0    3207.2   3118.0   0.165592989  16.99776   1.89259  -3.66246  -0.04743
   1    7616.2   1313.0   0.003005143   0.12990  -0.09398   0.34403  -0.05208
   2    9707.6   1030.1   0.015909090   0.53952  -0.36730  -0.54643   0.32561
   3    9983.6   1001.6   0.047487672   1.56592   0.87502  -0.13151   0.88485
   4   15202.7    657.8   0.006243011   0.13519  -0.32920  -0.16288   0.01700
   5   15662.6    638.5   0.193926203   4.07614   0.02287   0.63754   1.91550
   6   16400.9    609.7   0.029669147   0.59554  -0.01280  -0.72500  -0.26411
   7   18196.3    549.6   0.007183393   0.12996   0.21683  -0.28395  -0.04819
   8   18564.2    538.7   0.023250671   0.41232   0.03450   0.61691  -0.17478
   9   18622.9    537.0   0.032202539   0.56927  -0.69178  -0.07117   0.29264
  10   18855.3    530.4   0.030260807   0.52835   0.59065   0.33051  -0.26504
  11   20145.1    496.4   0.119839869   1.95843   1.29421  -0.48006  -0.23021
  12   21552.0    464.0   0.011721207   0.17904   0.33116  -0.24088   0.10655
  13   22171.2    451.0   0.400674326   5.94946   1.21315  -1.90482   0.92162
  14   22526.0    443.9   0.002352704   0.03438  -0.05529  -0.16061   0.07437
  15   22801.9    438.6   0.002074662   0.02995  -0.06952  -0.06086  -0.14634
  16   23121.8    432.5   0.052446494   0.74674   0.64814   0.55909   0.11863
  17   23481.8    425.9   0.089077565   1.24886  -0.46519  -0.91053  -0.45099
  18   23744.0    421.2   0.114618036   1.58919  -0.42079  -0.25134   1.16144
  19   23896.6    418.5   0.031964900   0.44037  -0.49278  -0.00369  -0.44443
  20   24265.0    412.1   0.084534841   1.14691  -0.88200   0.59912   0.10026
  21   24442.3    409.1   0.035736908   0.48134  -0.33470   0.11664   0.59641
  22   24883.5    401.9   0.047404044   0.62716  -0.67467  -0.40667   0.08122
  23   25603.1    390.6   0.102151206   1.31349  -0.43664  -0.14629   1.04949
  24   25769.3    388.1   0.008423071   0.10761  -0.31893  -0.02858  -0.07122
  25   25913.3    385.9   0.005505740   0.06995  -0.18253  -0.04311  -0.18647
  26   26699.6    374.5   0.255355898   3.14859  -0.30565  -0.81644   1.54551
  27   26765.5    373.6   0.234205763   2.88070   0.82862  -0.31553  -1.44725
  28   27029.4    370.0   0.022240399   0.27088  -0.08952  -0.46149   0.22338
  29   27288.0    366.5   0.068575491   0.82732   0.18442  -0.11756   0.88288
  30   27448.9    364.3   0.009141178   0.10964   0.15175   0.25892  -0.13989
  31   27590.5    362.4   0.034841218   0.41573   0.34412  -0.12616   0.53047
  32   28028.6    356.8   0.075561145   0.88751  -0.46666  -0.02600   0.81796
  33   28111.3    355.7   0.036333529   0.42550  -0.59391  -0.00500   0.26971
  34   28415.5    351.9   0.322974128   3.74186   1.88269  -0.10942  -0.43054
  35   28769.2    347.6   0.072964332   0.83495   0.09465   0.90823   0.03321
  36   29051.2    344.2   0.002975504   0.03372   0.08685  -0.02173   0.16033
  37   29148.8    343.1   0.018982214   0.21439   0.43608  -0.05738   0.14467
  38   29358.3    340.6   0.025539237   0.28639   0.39518   0.19401  -0.30427
  39   29848.7    335.0   0.195088468   2.15170  -0.53377   1.22980   0.59530
  40   30032.7    333.0   0.043730716   0.47937   0.04238  -0.66251   0.19660
  41   30099.6    332.2   0.050872551   0.55641   0.26349  -0.65315   0.24572
  42   30237.4    330.7   0.013623878   0.14833   0.19648  -0.31637  -0.09815
  43   30539.9    327.4   0.037750338   0.40694  -0.20235   0.26323  -0.54470
  44   30564.3    327.2   0.008221016   0.08855  -0.29684  -0.01628  -0.01312
  45   30790.4    324.8   0.079945608   0.85478  -0.41007   0.16851   0.81131
  46   30919.1    323.4   0.211034506   2.24700   1.15292  -0.76120  -0.58168
  47   31035.2    322.2   0.014376065   0.15250   0.07016   0.10967   0.36817
  48   31182.4    320.7   0.011205894   0.11831  -0.04117   0.03558   0.33963
  49   31248.8    320.0   0.015546650   0.16379  -0.22571   0.31282   0.12240
  50   31533.8    317.1   0.046253422   0.48288   0.44917  -0.05663   0.52718
  51   31678.2    315.7   0.019918591   0.20700  -0.19217  -0.40574   0.07380
  52   31768.2    314.8   0.099048606   1.02643  -0.26149  -0.10862   0.97276
  53   31933.8    313.1   0.002399353   0.02474   0.07995   0.12817  -0.04376
  54   32231.2    310.3   0.212304178   2.16849   0.94958   0.45158  -1.03095
  55   32595.6    306.8   0.205878403   2.07935   0.25169   0.03425   1.41945
  56   32724.0    305.6   0.004155695   0.04181  -0.09088  -0.09104  -0.15893
  57   32753.6    305.3   0.014338672   0.14412   0.35428  -0.12815   0.04670
  58   32911.9    303.8   0.198819157   1.98875   0.31315  -1.31856  -0.38998
  59   33111.1    302.0   0.009364972   0.09311   0.03340   0.18004  -0.24410
  60   33321.4    300.1   0.080669273   0.79700   0.57838   0.34199   0.58781
  61   33404.4    299.4   0.027595053   0.27196  -0.37404  -0.02157  -0.36275
  62   33608.8    297.5   0.023258072   0.22782  -0.31043   0.28061   0.22960
  63   33713.5    296.6   0.003359901   0.03281   0.05039  -0.14143  -0.10133
  64   33897.4    295.0   0.079708881   0.77413   0.51868  -0.52861  -0.47506
  65   34360.5    291.0   0.005098058   0.04885  -0.11996   0.18248  -0.03401
  66   34507.9    289.8   0.000773237   0.00738  -0.07556  -0.03250  -0.02473
  67   34743.0    287.8   0.007576921   0.07180   0.15108  -0.13864   0.17248
  68   35015.1    285.6   0.064763109   0.60890  -0.63857  -0.19911  -0.40185
  69   35190.5    284.2   0.008596359   0.08042  -0.24345   0.06498   0.13011
  70   35305.6    283.2   0.039897311   0.37203   0.00927  -0.08405   0.60405
  71   35531.2    281.4   0.042347298   0.39237   0.26155  -0.26404   0.50422
  72   35630.9    280.7   0.002005595   0.01853   0.10139   0.04026   0.08142
  73   35736.3    279.8   0.008231298   0.07583  -0.22859   0.14970   0.03416
  74   36097.3    277.0   0.031160281   0.28419  -0.32747   0.14232   0.39584
  75   36214.3    276.1   0.008004522   0.07277   0.21388   0.00401  -0.16433
  76   36322.1    275.3   0.008515392   0.07718   0.14604  -0.08575  -0.22023
  77   36607.5    273.2   0.006769489   0.06088  -0.09173  -0.16048  -0.16343
  78   36647.9    272.9   0.001928323   0.01732   0.06677  -0.11146   0.02096
  79   36852.1    271.4   0.001698687   0.01517  -0.02617  -0.00708   0.12017
  80   37092.1    269.6   0.007268158   0.06451  -0.00059   0.15191  -0.20355
  81   37138.9    269.3   0.006359493   0.05637   0.23697  -0.01469  -0.00088
  82   37354.1    267.7   0.023301738   0.20536   0.06806   0.36460   0.26038
  83   37396.2    267.4   0.013539636   0.11919  -0.00307   0.29251  -0.18336
  84   37630.4    265.7   0.009297546   0.08134   0.16267  -0.02978   0.23236
  85   37837.2    264.3   0.003574113   0.03110   0.02045  -0.16782  -0.05014
  86   37934.2    263.6   0.042378735   0.36778   0.22518  -0.38853  -0.40758
  87   38044.9    262.8   0.002056871   0.01780   0.04941  -0.05108  -0.11291
  88   38339.3    260.8   0.027322477   0.23461   0.07676  -0.47279  -0.07205
  89   38496.2    259.8   0.016398176   0.14023  -0.03701   0.33788   0.15716
  90   38609.2    259.0   0.025402479   0.21660   0.32333  -0.21259   0.25858
  91   38871.2    257.3   0.018875583   0.15986  -0.19774  -0.15370  -0.31167
  92   38896.7    257.1   0.002302272   0.01949  -0.12836  -0.05452   0.00611
  93   38980.2    256.5   0.017046044   0.14396  -0.10464   0.04076  -0.36243
  94   39292.2    254.5   0.009465101   0.07930   0.14042  -0.16412  -0.18069
  95   39522.6    253.0   0.005062666   0.04217   0.18882   0.01801  -0.07869
  96   39581.0    252.6   0.008712023   0.07246   0.22885  -0.04591  -0.13409
  97   39711.5    251.8   0.016171378   0.13406  -0.11912   0.03128   0.34481
  98   40096.5    249.4   0.006784160   0.05570   0.10161  -0.09948   0.18836

FINAL SINGLE POINT ENERGY     -4168.352040244979

DIPOLE MOMENT
-------------
                                X             Y             Z
Electronic contribution:     10.12187      12.18527      -1.64123
Nuclear contribution   :    -10.07279     -13.22773       1.59971
                        -----------------------------------------
Total Dipole Moment    :      0.04908      -1.04246      -0.04152
                        -----------------------------------------
Magnitude (a.u.)       :      1.04444
Magnitude (Debye)      :      2.65476

Rotational constants in cm-1:     0.001814     0.000337     0.000316
Rotational constants in MHz :    54.374010    10.102963     9.478244

                             ****ORCA TERMINATED NORMALLY****
TOTAL RUN TIME: 0 days 0 hours 13 minutes 24 seconds 156 msec
