                         Program Version 4.2.0 -  RELEASE  -
|  1> # ORCA input file
|  2> # SCF done       -221.286821612600          0.000603053383
|  3> ! CAM-B3LYP def2-SVP def2/J RIJCOSX Grid4 TightSCF
|  4> %maxcore 5000
|  5> %tddft
|  6>     Mode sTDDFT
|  7>     Ethresh 5.0
|  8>     maxcore 5000
|  9> end
| 10>
| 11> %pal
| 12>   nprocs 6
| 13>   end
| 14> * xyz 0 1
| 15>    C        7.98754        -5.03790         8.51440
| 16>    S        6.50904        -5.88009         8.62687
| 17>    C        6.57630        -6.45072         6.98874
| 18>    C        7.74164        -5.97597         6.38109
| 19>    C        8.54133        -5.16608         7.26015
| 20>    N        9.70071        -4.61921         6.83529
| 21>    C       10.05831        -4.84658         5.60309
| 22>    C       11.31056        -4.15959         5.14400
| 23>    C       10.97844        -2.92482         4.29672
| 24>    O       10.25651        -2.01667         5.09326
| 25>    C        9.28250        -5.69110         4.73495
| 26>    C        9.77411        -6.14531         3.38149
| 27>    N       10.58417        -7.35261         3.48604
| 28>    N        8.15885        -6.23525         5.12835
| 29>    C        5.55092        -7.27957         6.46878
| 30>    C        5.53332        -7.72403         5.18941
| 31>    C        4.54926        -8.58387         4.62634
| 32>    C        3.46940        -9.18418         5.22472
| 33>    C        2.71005       -10.00994         4.36000
| 34>    C        3.26418       -10.00747         3.05140
| 35>    S        4.67768        -9.00504         2.93456
| 36>    C        2.78381       -10.71352         1.95542
| 37>    O        3.49957       -10.52061         0.82210
| 38>    C        3.15918       -11.14673        -0.39082
| 39>    C        1.64764       -11.52090         2.17240
| 40>    C        1.09491       -11.52368         3.48093
| 41>    C        1.56443       -10.80633         4.57058
| 42>    O        0.83174       -10.99134         5.70083
| 43>    C        1.15914       -10.35268         6.90885
| 44>    S       -0.28393       -12.57687         3.61426
| 45>    C       -0.12869       -13.03287         1.93135
| 46>    C        0.91940       -12.38272         1.32278
| 47>    C       -0.98404       -13.96084         1.28073
| 48>    S       -0.84858       -14.16322        -0.43736
| 49>    C       -2.07708       -15.40222        -0.45695
| 50>    C       -2.57546       -15.60864         0.83394
| 51>    C       -1.96240       -14.80673         1.80072
| 52>    C       -2.33253       -14.84829         3.24810
| 53>    C       -3.15429       -16.08938         3.60297
| 54>    C       -2.25244       -17.30501         3.76240
| 55>    F       -1.39331       -17.49819         2.75220
| 56>    F       -1.50092       -17.20177         4.87008
| 57>    F       -2.94962       -18.44695         3.88355
| 58>    C       -4.26471       -16.31684         2.56544
| 59>    O       -5.08134       -15.16628         2.61841
| 60>    C       -6.38671       -15.34444         2.12473
| 61>    C       -3.67480       -16.56537         1.17062
| 62>    C       -2.36347       -15.96967        -1.71303
| 63>    C       -3.11663       -17.08820        -1.95467
| 64>    C       -3.38609       -17.70142        -3.19284
| 65>    C       -2.89032       -17.54903        -4.49844
| 66>    N       -2.14181       -16.53317        -5.09759
| 67>    O       -1.95929       -15.47412        -4.50715
| 68>    O       -1.71387       -16.74418        -6.22350
| 69>    C       -3.28236       -18.68927        -5.27315
| 70>    C       -3.99282       -19.55130        -4.49444
| 71>    C       -4.15529       -18.96505        -3.20824
| 72>    C       -5.02126       -19.39201        -2.21113
| 73>    C       -5.79206       -18.53461        -1.36470
| 74>    C       -6.72551       -19.27970        -0.70930
| 75>    C       -6.53993       -20.65546        -1.05440
| 76>    N       -7.30254       -21.67982        -0.48761
| 77>    O       -8.14928       -21.36089         0.33527
| 78>    O       -7.10303       -22.83677        -0.83575
| 79>    C       -5.48521       -20.76082        -1.96714
| 80>    C       -4.87853       -21.95762        -2.41059
| 81>    C       -3.60160       -22.07029        -2.86364
| 82>    C       -3.01712       -23.27942        -3.30302
| 83>    S       -3.87825       -24.79360        -3.40046
| 84>    C       -2.50080       -25.60545        -3.98586
| 85>    C       -1.40501       -24.78182        -4.11686
| 86>    C       -1.70033       -23.43972        -3.72468
| 87>    O       -0.82855       -22.43626        -3.75219
| 88>    C       -0.05791       -25.12903        -4.58641
| 89>    O        0.82187       -24.29813        -4.65742
| 90>    O        0.18045       -26.39627        -4.93718
| 91>    H        8.36875        -4.48723         9.34961
| 92>    H       11.94440        -4.82890         4.56168
| 93>    H       11.84505        -3.82416         6.03292
| 94>    H       10.38553        -3.21364         3.41568
| 95>    H       11.91946        -2.47468         3.94785
| 96>    H       10.08761        -1.21364         4.59057
| 97>    H       10.37381        -5.37878         2.88912
| 98>    H        8.91155        -6.38132         2.75478
| 99>    H       10.02506        -8.11067         3.86300
|100>    H       11.36970        -7.20548         4.11233
|101>    H        4.76476        -7.54770         7.16148
|102>    H        6.33288        -7.41321         4.53280
|103>    H        3.25619        -9.02711         6.26354
|104>    H        2.15627       -10.86425        -0.72201
|105>    H        3.24142       -12.23461        -0.31798
|106>    H        3.88964       -10.78176        -1.11201
|107>    H        0.40002       -10.68147         7.61809
|108>    H        1.11196        -9.26407         6.81354
|109>    H        2.14400       -10.66022         7.27190
|110>    H        1.13614       -12.56217         0.28712
|111>    H       -2.93189       -13.96538         3.48322
|112>    H       -1.43511       -14.81719         3.87058
|113>    H       -3.62486       -15.93835         4.57990
|114>    H       -4.85933       -17.19928         2.85453
|115>    H       -6.91803       -14.42051         2.34241
|116>    H       -6.88785       -16.18143         2.62433
|117>    H       -6.40144       -15.51772         1.04343
|118>    H       -4.47786       -16.46910         0.43828
|119>    H       -3.30312       -17.59286         1.12390
|120>    H       -1.91664       -15.46002        -2.55600
|121>    H       -3.52004       -17.62490        -1.11118
|122>    H       -3.04064       -18.80045        -6.31332
|123>    H       -4.46197       -20.46096        -4.81472
|124>    H       -5.74160       -17.46256        -1.38329
|125>    H       -7.49473       -18.93171        -0.04619
|126>    H       -5.47025       -22.85787        -2.29359
|127>    H       -2.93709       -21.21730        -2.88277
|128>    H       -2.58180       -26.65435        -4.20151
|129>    H        0.02854       -22.78797        -4.08951
|130>    H       -0.59013       -26.96927        -4.83941
|131> *
|132>
|133>                          ****END OF INPUT****

CARTESIAN COORDINATES (ANGSTROEM)
---------------------------------
  C      7.987540   -5.037900    8.514400
  S      6.509040   -5.880090    8.626870
  C      6.576300   -6.450720    6.988740
  C      7.741640   -5.975970    6.381090
  C      8.541330   -5.166080    7.260150
  N      9.700710   -4.619210    6.835290
  C     10.058310   -4.846580    5.603090
  C     11.310560   -4.159590    5.144000
  C     10.978440   -2.924820    4.296720
  O     10.256510   -2.016670    5.093260
  C      9.282500   -5.691100    4.734950
  C      9.774110   -6.145310    3.381490
  N     10.584170   -7.352610    3.486040
  N      8.158850   -6.235250    5.128350
  C      5.550920   -7.279570    6.468780
  C      5.533320   -7.724030    5.189410
  C      4.549260   -8.583870    4.626340
  C      3.469400   -9.184180    5.224720
  C      2.710050  -10.009940    4.360000
  C      3.264180  -10.007470    3.051400
  S      4.677680   -9.005040    2.934560
  C      2.783810  -10.713520    1.955420
  O      3.499570  -10.520610    0.822100
  C      3.159180  -11.146730   -0.390820
  C      1.647640  -11.520900    2.172400
  C      1.094910  -11.523680    3.480930
  C      1.564430  -10.806330    4.570580
  O      0.831740  -10.991340    5.700830
  C      1.159140  -10.352680    6.908850
  S     -0.283930  -12.576870    3.614260
  C     -0.128690  -13.032870    1.931350
  C      0.919400  -12.382720    1.322780
  C     -0.984040  -13.960840    1.280730
  S     -0.848580  -14.163220   -0.437360
  C     -2.077080  -15.402220   -0.456950
  C     -2.575460  -15.608640    0.833940
  C     -1.962400  -14.806730    1.800720
  C     -2.332530  -14.848290    3.248100
  C     -3.154290  -16.089380    3.602970
  C     -2.252440  -17.305010    3.762400
  F     -1.393310  -17.498190    2.752200
  F     -1.500920  -17.201770    4.870080
  F     -2.949620  -18.446950    3.883550
  C     -4.264710  -16.316840    2.565440
  O     -5.081340  -15.166280    2.618410
  C     -6.386710  -15.344440    2.124730
  C     -3.674800  -16.565370    1.170620
  C     -2.363470  -15.969670   -1.713030
  C     -3.116630  -17.088200   -1.954670
  C     -3.386090  -17.701420   -3.192840
  C     -2.890320  -17.549030   -4.498440
  N     -2.141810  -16.533170   -5.097590
  O     -1.959290  -15.474120   -4.507150
  O     -1.713870  -16.744180   -6.223500
  C     -3.282360  -18.689270   -5.273150
  C     -3.992820  -19.551300   -4.494440
  C     -4.155290  -18.965050   -3.208240
  C     -5.021260  -19.392010   -2.211130
  C     -5.792060  -18.534610   -1.364700
  C     -6.725510  -19.279700   -0.709300
  C     -6.539930  -20.655460   -1.054400
  N     -7.302540  -21.679820   -0.487610
  O     -8.149280  -21.360890    0.335270
  O     -7.103030  -22.836770   -0.835750
  C     -5.485210  -20.760820   -1.967140
  C     -4.878530  -21.957620   -2.410590
  C     -3.601600  -22.070290   -2.863640
  C     -3.017120  -23.279420   -3.303020
  S     -3.878250  -24.793600   -3.400460
  C     -2.500800  -25.605450   -3.985860
  C     -1.405010  -24.781820   -4.116860
  C     -1.700330  -23.439720   -3.724680
  O     -0.828550  -22.436260   -3.752190
  C     -0.057910  -25.129030   -4.586410
  O      0.821870  -24.298130   -4.657420
  O      0.180450  -26.396270   -4.937180
  H      8.368750   -4.487230    9.349610
  H     11.944400   -4.828900    4.561680
  H     11.845050   -3.824160    6.032920
  H     10.385530   -3.213640    3.415680
  H     11.919460   -2.474680    3.947850
  H     10.087610   -1.213640    4.590570
  H     10.373810   -5.378780    2.889120
  H      8.911550   -6.381320    2.754780
  H     10.025060   -8.110670    3.863000
  H     11.369700   -7.205480    4.112330
  H      4.764760   -7.547700    7.161480
  H      6.332880   -7.413210    4.532800
  H      3.256190   -9.027110    6.263540
  H      2.156270  -10.864250   -0.722010
  H      3.241420  -12.234610   -0.317980
  H      3.889640  -10.781760   -1.112010
  H      0.400020  -10.681470    7.618090
  H      1.111960   -9.264070    6.813540
  H      2.144000  -10.660220    7.271900
  H      1.136140  -12.562170    0.287120
  H     -2.931890  -13.965380    3.483220
  H     -1.435110  -14.817190    3.870580
  H     -3.624860  -15.938350    4.579900
  H     -4.859330  -17.199280    2.854530
  H     -6.918030  -14.420510    2.342410
  H     -6.887850  -16.181430    2.624330
  H     -6.401440  -15.517720    1.043430
  H     -4.477860  -16.469100    0.438280
  H     -3.303120  -17.592860    1.123900
  H     -1.916640  -15.460020   -2.556000
  H     -3.520040  -17.624900   -1.111180
  H     -3.040640  -18.800450   -6.313320
  H     -4.461970  -20.460960   -4.814720
  H     -5.741600  -17.462560   -1.383290
  H     -7.494730  -18.931710   -0.046190
  H     -5.470250  -22.857870   -2.293590
  H     -2.937090  -21.217300   -2.882770
  H     -2.581800  -26.654350   -4.201510
  H      0.028540  -22.787970   -4.089510
  H     -0.590130  -26.969270   -4.839410

 Total Charge           Charge          ....    0
 Multiplicity           Mult            ....    1
 Number of Electrons    NEL             ....  582
 Basis Dimension        Dim             .... 1284

ORBITAL ENERGIES
----------------

  NO   OCC          E(Eh)            E(eV)
   0   2.0000     -88.984391     -2421.3884
   1   2.0000     -88.968554     -2420.9574
   2   2.0000     -88.957784     -2420.6644
   3   2.0000     -88.948294     -2420.4061
   4   2.0000     -88.938043     -2420.1272
   5   2.0000     -24.800937      -674.8678
   6   2.0000     -24.799190      -674.8203
   7   2.0000     -24.795375      -674.7165
   8   2.0000     -19.284560      -524.7596
   9   2.0000     -19.255374      -523.9654
  10   2.0000     -19.247378      -523.7478
  11   2.0000     -19.246948      -523.7361
  12   2.0000     -19.228427      -523.2321
  13   2.0000     -19.225888      -523.1630
  14   2.0000     -19.219515      -522.9896
  15   2.0000     -19.219045      -522.9768
  16   2.0000     -19.218208      -522.9540
  17   2.0000     -19.216239      -522.9004
  18   2.0000     -19.205727      -522.6144
  19   2.0000     -14.628966      -398.0744
  20   2.0000     -14.627518      -398.0350
  21   2.0000     -14.414197      -392.2302
  22   2.0000     -14.408524      -392.0759
  23   2.0000     -14.385436      -391.4476
  24   2.0000     -10.511375      -286.0291
  25   2.0000     -10.432512      -283.8831
  26   2.0000     -10.362619      -281.9812
  27   2.0000     -10.340921      -281.3908
  28   2.0000     -10.335775      -281.2507
  29   2.0000     -10.334368      -281.2125
  30   2.0000     -10.332580      -281.1638
  31   2.0000     -10.325412      -280.9688
  32   2.0000     -10.324128      -280.9338
  33   2.0000     -10.318061      -280.7687
  34   2.0000     -10.317582      -280.7557
  35   2.0000     -10.316348      -280.7221
  36   2.0000     -10.315988      -280.7123
  37   2.0000     -10.314128      -280.6617
  38   2.0000     -10.312121      -280.6071
  39   2.0000     -10.311793      -280.5982
  40   2.0000     -10.311112      -280.5796
  41   2.0000     -10.310142      -280.5532
  42   2.0000     -10.309506      -280.5359
  43   2.0000     -10.308002      -280.4950
  44   2.0000     -10.307954      -280.4937
  45   2.0000     -10.307282      -280.4754
  46   2.0000     -10.307165      -280.4722
  47   2.0000     -10.304489      -280.3994
  48   2.0000     -10.300656      -280.2951
  49   2.0000     -10.300129      -280.2807
  50   2.0000     -10.300058      -280.2788
  51   2.0000     -10.299980      -280.2767
  52   2.0000     -10.299825      -280.2725
  53   2.0000     -10.294583      -280.1298
  54   2.0000     -10.294088      -280.1164
  55   2.0000     -10.292764      -280.0803
  56   2.0000     -10.291469      -280.0451
  57   2.0000     -10.291109      -280.0353
  58   2.0000     -10.290384      -280.0156
  59   2.0000     -10.288617      -279.9675
  60   2.0000     -10.287061      -279.9252
  61   2.0000     -10.285492      -279.8825
  62   2.0000     -10.285443      -279.8811
  63   2.0000     -10.284547      -279.8568
  64   2.0000     -10.283971      -279.8411
  65   2.0000     -10.283830      -279.8373
  66   2.0000     -10.283470      -279.8275
  67   2.0000     -10.282934      -279.8129
  68   2.0000     -10.282278      -279.7950
  69   2.0000     -10.280713      -279.7524
  70   2.0000     -10.279758      -279.7264
  71   2.0000     -10.273218      -279.5485
  72   2.0000     -10.269978      -279.4603
  73   2.0000     -10.269739      -279.4538
  74   2.0000     -10.268466      -279.4192
  75   2.0000     -10.267737      -279.3993
  76   2.0000      -8.079732      -219.8607
  77   2.0000      -8.063822      -219.4277
  78   2.0000      -8.053346      -219.1427
  79   2.0000      -8.042730      -218.8538
  80   2.0000      -8.033492      -218.6024
  81   2.0000      -6.048834      -164.5971
  82   2.0000      -6.044756      -164.4862
  83   2.0000      -6.042123      -164.4145
  84   2.0000      -6.032609      -164.1556
  85   2.0000      -6.028540      -164.0449
  86   2.0000      -6.027014      -164.0034
  87   2.0000      -6.022586      -163.8829
  88   2.0000      -6.018610      -163.7747
  89   2.0000      -6.015353      -163.6861
  90   2.0000      -6.012502      -163.6085
  91   2.0000      -6.008220      -163.4920
  92   2.0000      -6.004078      -163.3793
  93   2.0000      -6.003023      -163.3506
  94   2.0000      -5.999015      -163.2415
  95   2.0000      -5.994942      -163.1307
  96   2.0000      -1.389267       -37.8039
  97   2.0000      -1.296876       -35.2898
  98   2.0000      -1.295342       -35.2480
  99   2.0000      -1.291942       -35.1555
 100   2.0000      -1.288898       -35.0727
 101   2.0000      -1.210037       -32.9268
 102   2.0000      -1.160820       -31.5875
 103   2.0000      -1.152157       -31.3518
 104   2.0000      -1.150486       -31.3063
 105   2.0000      -1.129255       -30.7286
 106   2.0000      -1.121242       -30.5105
 107   2.0000      -1.113302       -30.2945
 108   2.0000      -1.110840       -30.2275
 109   2.0000      -1.095718       -29.8160
 110   2.0000      -1.070060       -29.1178
 111   2.0000      -1.006186       -27.3797
 112   2.0000      -1.003584       -27.3089
 113   2.0000      -1.001991       -27.2656
 114   2.0000      -0.996599       -27.1188
 115   2.0000      -0.987475       -26.8706
 116   2.0000      -0.981743       -26.7146
 117   2.0000      -0.979257       -26.6469
 118   2.0000      -0.969232       -26.3742
 119   2.0000      -0.957986       -26.0681
 120   2.0000      -0.936325       -25.4787
 121   2.0000      -0.916098       -24.9283
 122   2.0000      -0.912417       -24.8281
 123   2.0000      -0.900476       -24.5032
 124   2.0000      -0.895768       -24.3751
 125   2.0000      -0.882973       -24.0269
 126   2.0000      -0.874390       -23.7934
 127   2.0000      -0.871236       -23.7075
 128   2.0000      -0.867871       -23.6160
 129   2.0000      -0.866624       -23.5820
 130   2.0000      -0.862874       -23.4800
 131   2.0000      -0.854063       -23.2402
 132   2.0000      -0.845376       -23.0038
 133   2.0000      -0.840233       -22.8639
 134   2.0000      -0.833425       -22.6786
 135   2.0000      -0.826184       -22.4816
 136   2.0000      -0.820053       -22.3148
 137   2.0000      -0.809294       -22.0220
 138   2.0000      -0.805894       -21.9295
 139   2.0000      -0.797443       -21.6995
 140   2.0000      -0.795518       -21.6472
 141   2.0000      -0.784484       -21.3469
 142   2.0000      -0.778395       -21.1812
 143   2.0000      -0.767471       -20.8840
 144   2.0000      -0.764532       -20.8040
 145   2.0000      -0.757244       -20.6057
 146   2.0000      -0.741539       -20.1783
 147   2.0000      -0.740325       -20.1453
 148   2.0000      -0.736681       -20.0461
 149   2.0000      -0.731283       -19.8992
 150   2.0000      -0.723805       -19.6957
 151   2.0000      -0.720401       -19.6031
 152   2.0000      -0.716136       -19.4871
 153   2.0000      -0.710784       -19.3414
 154   2.0000      -0.707376       -19.2487
 155   2.0000      -0.697505       -18.9801
 156   2.0000      -0.693101       -18.8602
 157   2.0000      -0.675083       -18.3699
 158   2.0000      -0.672896       -18.3104
 159   2.0000      -0.670667       -18.2498
 160   2.0000      -0.669304       -18.2127
 161   2.0000      -0.668556       -18.1923
 162   2.0000      -0.664217       -18.0743
 163   2.0000      -0.662645       -18.0315
 164   2.0000      -0.659286       -17.9401
 165   2.0000      -0.650304       -17.6957
 166   2.0000      -0.644349       -17.5336
 167   2.0000      -0.640421       -17.4267
 168   2.0000      -0.633053       -17.2262
 169   2.0000      -0.630510       -17.1570
 170   2.0000      -0.626014       -17.0347
 171   2.0000      -0.621426       -16.9099
 172   2.0000      -0.619583       -16.8597
 173   2.0000      -0.610552       -16.6140
 174   2.0000      -0.609406       -16.5828
 175   2.0000      -0.608261       -16.5516
 176   2.0000      -0.607758       -16.5379
 177   2.0000      -0.605170       -16.4675
 178   2.0000      -0.603061       -16.4101
 179   2.0000      -0.598098       -16.2751
 180   2.0000      -0.596614       -16.2347
 181   2.0000      -0.584595       -15.9076
 182   2.0000      -0.583699       -15.8833
 183   2.0000      -0.582516       -15.8511
 184   2.0000      -0.577038       -15.7020
 185   2.0000      -0.571799       -15.5594
 186   2.0000      -0.566832       -15.4243
 187   2.0000      -0.566199       -15.4071
 188   2.0000      -0.566014       -15.4020
 189   2.0000      -0.563680       -15.3385
 190   2.0000      -0.560418       -15.2498
 191   2.0000      -0.559176       -15.2159
 192   2.0000      -0.558290       -15.1918
 193   2.0000      -0.555068       -15.1042
 194   2.0000      -0.554127       -15.0786
 195   2.0000      -0.554000       -15.0751
 196   2.0000      -0.553897       -15.0723
 197   2.0000      -0.551638       -15.0108
 198   2.0000      -0.547069       -14.8865
 199   2.0000      -0.543413       -14.7870
 200   2.0000      -0.538333       -14.6488
 201   2.0000      -0.538254       -14.6466
 202   2.0000      -0.535847       -14.5811
 203   2.0000      -0.532638       -14.4938
 204   2.0000      -0.531978       -14.4759
 205   2.0000      -0.529856       -14.4181
 206   2.0000      -0.523469       -14.2443
 207   2.0000      -0.522259       -14.2114
 208   2.0000      -0.521551       -14.1921
 209   2.0000      -0.519457       -14.1351
 210   2.0000      -0.516554       -14.0561
 211   2.0000      -0.510640       -13.8952
 212   2.0000      -0.510102       -13.8806
 213   2.0000      -0.508073       -13.8254
 214   2.0000      -0.504631       -13.7317
 215   2.0000      -0.500668       -13.6239
 216   2.0000      -0.498097       -13.5539
 217   2.0000      -0.495636       -13.4869
 218   2.0000      -0.494620       -13.4593
 219   2.0000      -0.493814       -13.4374
 220   2.0000      -0.490840       -13.3564
 221   2.0000      -0.489522       -13.3206
 222   2.0000      -0.488699       -13.2982
 223   2.0000      -0.487296       -13.2600
 224   2.0000      -0.485704       -13.2167
 225   2.0000      -0.484380       -13.1807
 226   2.0000      -0.483428       -13.1547
 227   2.0000      -0.481099       -13.0914
 228   2.0000      -0.479020       -13.0348
 229   2.0000      -0.475007       -12.9256
 230   2.0000      -0.471388       -12.8271
 231   2.0000      -0.469211       -12.7679
 232   2.0000      -0.467717       -12.7272
 233   2.0000      -0.464207       -12.6317
 234   2.0000      -0.461038       -12.5455
 235   2.0000      -0.457894       -12.4599
 236   2.0000      -0.456456       -12.4208
 237   2.0000      -0.454679       -12.3725
 238   2.0000      -0.452872       -12.3233
 239   2.0000      -0.450896       -12.2695
 240   2.0000      -0.449569       -12.2334
 241   2.0000      -0.448904       -12.2153
 242   2.0000      -0.446055       -12.1378
 243   2.0000      -0.443158       -12.0589
 244   2.0000      -0.442673       -12.0457
 245   2.0000      -0.441254       -12.0071
 246   2.0000      -0.436437       -11.8761
 247   2.0000      -0.435138       -11.8407
 248   2.0000      -0.432735       -11.7753
 249   2.0000      -0.429999       -11.7009
 250   2.0000      -0.426912       -11.6169
 251   2.0000      -0.423436       -11.5223
 252   2.0000      -0.419772       -11.4226
 253   2.0000      -0.419122       -11.4049
 254   2.0000      -0.418357       -11.3841
 255   2.0000      -0.414462       -11.2781
 256   2.0000      -0.412656       -11.2289
 257   2.0000      -0.411312       -11.1924
 258   2.0000      -0.402696       -10.9579
 259   2.0000      -0.401330       -10.9207
 260   2.0000      -0.398333       -10.8392
 261   2.0000      -0.394223       -10.7273
 262   2.0000      -0.388973       -10.5845
 263   2.0000      -0.387290       -10.5387
 264   2.0000      -0.379700       -10.3321
 265   2.0000      -0.373997       -10.1770
 266   2.0000      -0.371504       -10.1091
 267   2.0000      -0.369603       -10.0574
 268   2.0000      -0.367823       -10.0090
 269   2.0000      -0.360828        -9.8186
 270   2.0000      -0.358905        -9.7663
 271   2.0000      -0.350340        -9.5332
 272   2.0000      -0.346609        -9.4317
 273   2.0000      -0.343995        -9.3606
 274   2.0000      -0.343618        -9.3503
 275   2.0000      -0.340598        -9.2682
 276   2.0000      -0.339131        -9.2282
 277   2.0000      -0.334583        -9.1045
 278   2.0000      -0.328271        -8.9327
 279   2.0000      -0.326892        -8.8952
 280   2.0000      -0.323617        -8.8061
 281   2.0000      -0.316559        -8.6140
 282   2.0000      -0.316043        -8.6000
 283   2.0000      -0.310916        -8.4605
 284   2.0000      -0.309074        -8.4103
 285   2.0000      -0.295645        -8.0449
 286   2.0000      -0.290351        -7.9008
 287   2.0000      -0.261837        -7.1249
 288   2.0000      -0.247703        -6.7403
 289   2.0000      -0.243472        -6.6252
 290   2.0000      -0.219629        -5.9764
 291   0.0000      -0.124367        -3.3842
 292   0.0000      -0.064927        -1.7668
 293   0.0000      -0.056799        -1.5456
 294   0.0000      -0.039572        -1.0768
 295   0.0000      -0.022888        -0.6228

MULLIKEN ATOMIC CHARGES
-----------------------
   0 C :   -0.154538
   1 S :    0.160325
   2 C :   -0.170699
   3 C :    0.039844
   4 C :    0.060898
   5 N :    0.029941
   6 C :   -0.154782
   7 C :    0.118124
   8 C :    0.166032
   9 O :   -0.305093
  10 C :   -0.176561
  11 C :    0.233776
  12 N :   -0.222109
  13 N :   -0.010011
  14 C :    0.035138
  15 C :    0.046705
  16 C :   -0.027005
  17 C :   -0.105247
  18 C :    0.071778
  19 C :   -0.155019
  20 S :    0.143849
  21 C :    0.144061
  22 O :   -0.308347
  23 C :    0.181396
  24 C :    0.086313
  25 C :   -0.138426
  26 C :    0.137312
  27 O :   -0.315812
  28 C :    0.187273
  29 S :    0.121151
  30 C :   -0.031299
  31 C :   -0.129240
  32 C :   -0.074992
  33 S :    0.131993
  34 C :   -0.128822
  35 C :   -0.042978
  36 C :   -0.106467
  37 C :    0.142054
  38 C :   -0.116413
  39 C :    0.480077
  40 F :   -0.158197
  41 F :   -0.162420
  42 F :   -0.163709
  43 C :    0.135959
  44 O :   -0.377390
  45 C :    0.187084
  46 C :    0.129381
  47 C :    0.084544
  48 C :   -0.103425
  49 C :    0.097045
  50 C :    0.036995
  51 N :    0.283215
  52 O :   -0.271292
  53 O :   -0.265182
  54 C :    0.031635
  55 C :   -0.004271
  56 C :   -0.001191
  57 C :    0.018733
  58 C :   -0.027462
  59 C :    0.005473
  60 C :    0.065315
  61 N :    0.278661
  62 O :   -0.265665
  63 O :   -0.268425
  64 C :    0.056527
  65 C :   -0.071640
  66 C :    0.042453
  67 C :   -0.198125
  68 S :    0.182507
  69 C :   -0.121788
  70 C :   -0.057425
  71 C :    0.160422
  72 O :   -0.159103
  73 C :    0.204968
  74 O :   -0.226452
  75 O :   -0.134597
  76 H :    0.014597
  77 H :    0.003815
  78 H :    0.021349
  79 H :   -0.003527
  80 H :    0.003900
  81 H :    0.168007
  82 H :   -0.006834
  83 H :    0.016329
  84 H :    0.098291
  85 H :    0.086502
  86 H :   -0.037225
  87 H :   -0.011462
  88 H :   -0.046356
  89 H :    0.032513
  90 H :    0.034276
  91 H :    0.039040
  92 H :    0.035097
  93 H :    0.030969
  94 H :    0.030282
  95 H :   -0.021238
  96 H :    0.045556
  97 H :    0.044571
  98 H :    0.034077
  99 H :    0.005139
 100 H :    0.035244
 101 H :    0.009328
 102 H :    0.008183
 103 H :    0.005048
 104 H :    0.057167
 105 H :    0.009341
 106 H :   -0.013003
 107 H :    0.000720
 108 H :   -0.007834
 109 H :   -0.000827
 110 H :   -0.006021
 111 H :    0.018998
 112 H :    0.035534
 113 H :    0.033554
 114 H :    0.205858
 115 H :    0.183704
Sum of atomic charges:   -0.0000000

LOEWDIN ATOMIC CHARGES
----------------------
   0 C :   -0.200928
   1 S :    0.491858
   2 C :   -0.188544
   3 C :   -0.052977
   4 C :   -0.054863
   5 N :   -0.033070
   6 C :   -0.002835
   7 C :   -0.043434
   8 C :    0.075102
   9 O :   -0.141280
  10 C :   -0.018776
  11 C :    0.015866
  12 N :   -0.101367
  13 N :   -0.044807
  14 C :   -0.037902
  15 C :   -0.035722
  16 C :   -0.152645
  17 C :   -0.071188
  18 C :   -0.067314
  19 C :   -0.176408
  20 S :    0.420162
  21 C :    0.023795
  22 O :   -0.103445
  23 C :    0.080224
  24 C :   -0.076115
  25 C :   -0.174058
  26 C :    0.018123
  27 O :   -0.110168
  28 C :    0.078792
  29 S :    0.432194
  30 C :   -0.180427
  31 C :   -0.057980
  32 C :   -0.157201
  33 S :    0.457121
  34 C :   -0.177204
  35 C :   -0.024778
  36 C :   -0.056353
  37 C :   -0.028253
  38 C :   -0.065080
  39 C :    0.162887
  40 F :   -0.053617
  41 F :   -0.061419
  42 F :   -0.063095
  43 C :    0.074710
  44 O :   -0.167406
  45 C :    0.071447
  46 C :   -0.042139
  47 C :    0.017697
  48 C :   -0.051475
  49 C :    0.021819
  50 C :   -0.080657
  51 N :    0.288830
  52 O :   -0.234066
  53 O :   -0.228511
  54 C :    0.025979
  55 C :   -0.062629
  56 C :    0.049390
  57 C :    0.019054
  58 C :   -0.063694
  59 C :    0.009674
  60 C :   -0.073507
  61 N :    0.287894
  62 O :   -0.229756
  63 O :   -0.232630
  64 C :    0.017561
  65 C :   -0.044496
  66 C :    0.012617
  67 C :   -0.225474
  68 S :    0.494085
  69 C :   -0.161716
  70 C :   -0.162778
  71 C :    0.054840
  72 O :   -0.028242
  73 C :    0.101361
  74 O :   -0.163703
  75 O :   -0.011018
  76 H :    0.027862
  77 H :    0.027265
  78 H :    0.040999
  79 H :    0.001504
  80 H :    0.007130
  81 H :    0.079313
  82 H :    0.016307
  83 H :    0.033122
  84 H :    0.056993
  85 H :    0.049577
  86 H :    0.022306
  87 H :    0.026087
  88 H :    0.020485
  89 H :    0.017875
  90 H :    0.018048
  91 H :    0.031976
  92 H :    0.030076
  93 H :    0.016932
  94 H :    0.016716
  95 H :    0.018596
  96 H :    0.044655
  97 H :    0.025888
  98 H :    0.049012
  99 H :    0.014481
 100 H :    0.027554
 101 H :    0.010602
 102 H :    0.005972
 103 H :    0.035372
 104 H :    0.040736
 105 H :    0.028717
 106 H :    0.030779
 107 H :    0.036424
 108 H :    0.028743
 109 H :    0.024171
 110 H :    0.033637
 111 H :    0.027990
 112 H :    0.044687
 113 H :    0.024292
 114 H :    0.082690
 115 H :    0.098495

  Mayer bond orders larger than 0.100000
B(  0-C ,  1-S ) :   1.1926 B(  0-C ,  2-C ) :   0.1207 B(  0-C ,  4-C ) :   1.3993
B(  0-C , 76-H ) :   0.9760 B(  1-S ,  2-C ) :   1.1839 B(  2-C ,  3-C ) :   1.3228
B(  2-C , 14-C ) :   1.1535 B(  3-C ,  4-C ) :   1.2047 B(  3-C , 13-N ) :   1.3742
B(  4-C ,  5-N ) :   1.3514 B(  5-N ,  6-C ) :   1.7763 B(  6-C ,  7-C ) :   1.0500
B(  6-C , 10-C ) :   1.1040 B(  7-C ,  8-C ) :   1.0853 B(  7-C , 77-H ) :   0.9152
B(  7-C , 78-H ) :   0.9041 B(  8-C ,  9-O ) :   1.0757 B(  8-C , 79-H ) :   0.9414
B(  8-C , 80-H ) :   0.9486 B(  9-O , 81-H ) :   0.9784 B( 10-C , 11-C ) :   1.0230
B( 10-C , 13-N ) :   1.7098 B( 11-C , 12-N ) :   1.1133 B( 11-C , 82-H ) :   0.9244
B( 11-C , 83-H ) :   0.9237 B( 12-N , 84-H ) :   0.9713 B( 12-N , 85-H ) :   0.9783
B( 14-C , 15-C ) :   1.7027 B( 14-C , 86-H ) :   0.9513 B( 15-C , 16-C ) :   1.0905
B( 15-C , 87-H ) :   0.9453 B( 16-C , 17-C ) :   1.5702 B( 16-C , 20-S ) :   1.0690
B( 17-C , 18-C ) :   1.1681 B( 17-C , 88-H ) :   0.9908 B( 18-C , 19-C ) :   1.3232
B( 18-C , 26-C ) :   1.1957 B( 19-C , 20-S ) :   1.0478 B( 19-C , 21-C ) :   1.4121
B( 21-C , 22-O ) :   1.2618 B( 21-C , 24-C ) :   1.1989 B( 22-O , 23-C ) :   0.9496
B( 23-C , 89-H ) :   0.9687 B( 23-C , 90-H ) :   0.9686 B( 23-C , 91-H ) :   0.9738
B( 24-C , 25-C ) :   1.3052 B( 24-C , 31-C ) :   1.1776 B( 25-C , 26-C ) :   1.4261
B( 25-C , 29-S ) :   1.0298 B( 26-C , 27-O ) :   1.2484 B( 27-O , 28-C ) :   0.9537
B( 28-C , 92-H ) :   0.9737 B( 28-C , 93-H ) :   0.9685 B( 28-C , 94-H ) :   0.9690
B( 29-S , 30-C ) :   1.0571 B( 30-C , 31-C ) :   1.5407 B( 30-C , 32-C ) :   1.1469
B( 31-C , 95-H ) :   0.9887 B( 32-C , 33-S ) :   1.1536 B( 32-C , 36-C ) :   1.4613
B( 33-S , 34-C ) :   1.0970 B( 34-C , 35-C ) :   1.4150 B( 34-C , 47-C ) :   1.2017
B( 35-C , 36-C ) :   1.3677 B( 35-C , 46-C ) :   1.0366 B( 36-C , 37-C ) :   1.0459
B( 37-C , 38-C ) :   1.0254 B( 37-C , 96-H ) :   0.8940 B( 37-C , 97-H ) :   0.9030
B( 38-C , 39-C ) :   0.9784 B( 38-C , 43-C ) :   1.0001 B( 38-C , 98-H ) :   0.8933
B( 39-C , 40-F ) :   1.1354 B( 39-C , 41-F ) :   1.1477 B( 39-C , 42-F ) :   1.1428
B( 43-C , 44-O ) :   1.0483 B( 43-C , 46-C ) :   1.0248 B( 43-C , 99-H ) :   0.9266
B( 44-O , 45-C ) :   0.9865 B( 45-C ,100-H ) :   0.9812 B( 45-C ,101-H ) :   0.9659
B( 45-C ,102-H ) :   0.9650 B( 46-C ,103-H ) :   0.8922 B( 46-C ,104-H ) :   0.8814
B( 47-C , 48-C ) :   1.5258 B( 47-C ,105-H ) :   0.9225 B( 48-C , 49-C ) :   1.2437
B( 48-C ,106-H ) :   0.9527 B( 49-C , 50-C ) :   1.3918 B( 49-C , 56-C ) :   1.0157
B( 50-C , 51-N ) :   0.9898 B( 50-C , 54-C ) :   1.1581 B( 51-N , 52-O ) :   1.4511
B( 51-N , 53-O ) :   1.5215 B( 52-O , 53-O ) :   0.2349 B( 52-O ,105-H ) :   0.1099
B( 54-C , 55-C ) :   1.5346 B( 54-C ,107-H ) :   1.0033 B( 55-C , 56-C ) :   1.1750
B( 55-C ,108-H ) :   1.0026 B( 56-C , 57-C ) :   1.4374 B( 57-C , 58-C ) :   1.1629
B( 57-C , 64-C ) :   1.0432 B( 58-C , 59-C ) :   1.5371 B( 58-C ,109-H ) :   0.9962
B( 59-C , 60-C ) :   1.1563 B( 59-C ,110-H ) :   1.0099 B( 60-C , 61-N ) :   0.9708
B( 60-C , 64-C ) :   1.4527 B( 61-N , 62-O ) :   1.5212 B( 61-N , 63-O ) :   1.4837
B( 62-O , 63-O ) :   0.2477 B( 64-C , 65-C ) :   1.2180 B( 65-C , 66-C ) :   1.5264
B( 65-C ,111-H ) :   0.9504 B( 66-C , 67-C ) :   1.2134 B( 66-C ,112-H ) :   0.9664
B( 67-C , 68-S ) :   1.0901 B( 67-C , 71-C ) :   1.4176 B( 68-S , 69-C ) :   1.2431
B( 69-C , 70-C ) :   1.4483 B( 69-C ,113-H ) :   0.9682 B( 70-C , 71-C ) :   1.1776
B( 70-C , 73-C ) :   0.9342 B( 71-C , 72-O ) :   1.3673 B( 72-O ,114-H ) :   0.8858
B( 73-C , 74-O ) :   2.0179 B( 73-C , 75-O ) :   1.2901 B( 74-O ,114-H ) :   0.1245
B( 75-O ,115-H ) :   0.9533

-----------------------------------------------------------------------------
         ABSORPTION SPECTRUM VIA TRANSITION ELECTRIC DIPOLE MOMENTS
-----------------------------------------------------------------------------
State   Energy  Wavelength   fosc         T2         TX        TY        TZ
        (cm-1)    (nm)                  (au**2)     (au)      (au)      (au)
-----------------------------------------------------------------------------
   0    7231.8   1382.8   0.387095380  17.62163  -1.63519  -3.36688  -1.90050
   1   11336.2    882.1   0.099001571   2.87509   1.53737  -0.02158   0.71493
   2   13081.2    764.5   0.045557591   1.14654  -0.42676  -0.92648  -0.32567
   3   18411.2    543.1   0.279881430   5.00459   1.19733   1.31673   1.35544
   4   20140.2    496.5   0.982686805  16.06305  -2.92478  -2.21333  -1.61550
   5   21801.0    458.7   0.083018751   1.25365  -0.11791  -0.28688  -1.07584
   6   22236.6    449.7   0.042228816   0.62520   0.00873  -0.77607   0.15112
   7   24028.1    416.2   0.118344717   1.62145   0.78757  -0.95685  -0.29261
   8   24324.8    411.1   0.095252523   1.28915  -0.26187   1.03724  -0.38042
   9   24665.2    405.4   0.205564530   2.74372  -0.86210  -1.06522  -0.93049
  10   25580.3    390.9   0.146166645   1.88112  -0.15774  -0.94226  -0.98407
  11   25639.0    390.0   0.007172451   0.09210   0.20289   0.22496  -0.01801
  12   26043.7    384.0   0.002433022   0.03076  -0.06052  -0.16222  -0.02790
  13   27365.2    365.4   0.021545814   0.25920  -0.31252   0.33572   0.22098
  14   27473.8    364.0   0.211061466   2.52910   1.49954   0.52355  -0.07994
  15   27675.8    361.3   0.003139895   0.03735   0.17758   0.07304   0.02192
  16   28645.6    349.1   0.609766351   7.00779   0.64188  -0.94880  -2.38654
  17   29626.8    337.5   0.364271654   4.04778  -1.57248  -1.23504   0.22307
  18   30057.9    332.7   0.068735107   0.75283   0.76557   0.10860  -0.39362
  19   30255.8    330.5   0.162440592   1.76751  -1.19915  -0.06425   0.57045
  20   30582.6    327.0   0.004529821   0.04876  -0.00047  -0.20384   0.08493
  21   30830.3    324.4   0.030033825   0.32071   0.03511  -0.50551  -0.25285
  22   31111.1    321.4   0.089740177   0.94961  -0.50513  -0.74845   0.36644
  23   31197.9    320.5   0.136700314   1.44251   0.66241   0.83940  -0.54693
  24   31435.7    318.1   0.065151228   0.68230  -0.54988  -0.39099   0.47650
  25   31562.9    316.8   0.010198052   0.10637  -0.06360  -0.31841  -0.03059
  26   31771.7    314.7   0.006038493   0.06257  -0.05565   0.20982  -0.12428
  27   32215.8    310.4   0.167514680   1.71183  -0.86009  -0.10031   0.98082
  28   32537.3    307.3   0.011713269   0.11851   0.14455   0.28821  -0.12065
  29   32621.9    306.5   0.228963390   2.31064  -0.89205  -0.55584   1.09815
  30   32857.6    304.3   0.021100943   0.21142  -0.44435   0.10493  -0.05440
  31   33503.0    298.5   0.072400294   0.71143   0.57092   0.54567   0.29619
  32   33684.0    296.9   0.024909902   0.24346  -0.35015  -0.29233  -0.18813
  33   34305.2    291.5   0.092967965   0.89217  -0.48304   0.15941   0.79588
  34   34665.0    288.5   0.038213212   0.36291  -0.17209  -0.30131  -0.49245
  35   34935.3    286.2   0.019102703   0.18001   0.21495   0.26178  -0.25550
  36   35016.5    285.6   0.016659155   0.15662   0.22804   0.28143   0.15942
  37   35071.4    285.1   0.146345808   1.37373   0.71377  -0.02327  -0.92937
  38   35450.4    282.1   0.134060424   1.24496  -0.80894  -0.69601   0.32578
  39   36198.9    276.3   0.018006052   0.16376  -0.14717  -0.30486   0.22172
  40   37084.4    269.7   0.018783331   0.16675  -0.25494  -0.21170  -0.23861
  41   37372.7    267.6   0.002224227   0.01959   0.01603  -0.12865  -0.05277
  42   37817.6    264.4   0.032635229   0.28410   0.22793   0.13698   0.46194
  43   38057.3    262.8   0.005829531   0.05043  -0.16931  -0.01646   0.14660
  44   38215.8    261.7   0.008851723   0.07625  -0.15839  -0.07811  -0.21229
  45   38332.5    260.9   0.139000462   1.19378  -0.78107  -0.71708  -0.26364
  46   38477.2    259.9   0.010294123   0.08808  -0.14531   0.22229   0.13247
  47   38758.3    258.0   0.071201275   0.60478   0.34503   0.49383   0.49180
  48   38900.2    257.1   0.041394957   0.35032   0.28770   0.27431   0.43853
  49   38974.8    256.6   0.004789973   0.04046   0.03724  -0.19059   0.05245
  50   39426.8    253.6   0.059899958   0.50016   0.18760  -0.53328  -0.42495
  51   39812.3    251.2   0.087832507   0.72630  -0.78452  -0.29528   0.15375
  52   40074.2    249.5   0.069866829   0.57396  -0.26711  -0.66783  -0.23794
  53   40265.1    248.4   0.028331171   0.23164  -0.31784   0.32593  -0.15617

FINAL SINGLE POINT ENERGY     -5392.318832969503

DIPOLE MOMENT
-------------
                                X             Y             Z
Electronic contribution:    -40.57644     -63.39504     -10.61280
Nuclear contribution   :     41.46498      64.01278      11.71371
                        -----------------------------------------
Total Dipole Moment    :      0.88854       0.61774       1.10091
                        -----------------------------------------
Magnitude (a.u.)       :      1.54374
Magnitude (Debye)      :      3.92386

Rotational constants in cm-1:     0.001430     0.000199     0.000188
Rotational constants in MHz :    42.861190     5.969799     5.640160

                             ****ORCA TERMINATED NORMALLY****
TOTAL RUN TIME: 0 days 0 hours 16 minutes 42 seconds 767 msec
