                         Program Version 4.2.0 -  RELEASE  -
|  1> # ORCA input file
|  2> # SCF done       -180.690665489456          0.000742401445
|  3> ! CAM-B3LYP def2-SVP def2/J RIJCOSX Grid4 TightSCF
|  4> %maxcore 5000
|  5> %tddft
|  6>     Mode sTDDFT
|  7>     Ethresh 5.0
|  8>     maxcore 5000
|  9> end
| 10>
| 11> %pal
| 12>   nprocs 6
| 13>   end
| 14> * xyz 0 1
| 15>    C       -1.19899        -3.33706         0.87225
| 16>    N       -0.81493        -2.07561         1.23955
| 17>    C        0.23292        -1.75169         0.43795
| 18>    N        0.93807        -0.63639         0.37979
| 19>    C        1.86856        -0.69182        -0.55328
| 20>    N        2.79300         0.21966        -0.91233
| 21>    C        3.51657        -0.32793        -1.94440
| 22>    N        3.10696        -1.54844        -2.25281
| 23>    C        2.08122        -1.82959        -1.43232
| 24>    N        1.34330        -2.92183        -1.36552
| 25>    C        0.42388        -2.89394        -0.42189
| 26>    N       -0.50101        -3.83904        -0.09507
| 27>    C        4.62057         0.30456        -2.58702
| 28>    C        5.43456         1.37393        -2.18438
| 29>    N        5.28753         2.31831        -1.16046
| 30>    O        4.23604         2.37100        -0.52071
| 31>    O        6.21384         3.07888        -0.95891
| 32>    C        6.58150         1.42996        -3.04453
| 33>    C        6.50949         0.41222        -3.93992
| 34>    C        5.28130        -0.30088        -3.73042
| 35>    C        4.75515        -1.24584        -4.60613
| 36>    C        3.40247        -1.37848        -5.00300
| 37>    C        3.33957        -2.16622        -6.12379
| 38>    C        4.64811        -2.61998        -6.44994
| 39>    N        4.91125        -3.47847        -7.52872
| 40>    O        6.06462        -3.83030        -7.73382
| 41>    O        3.96589        -3.81408        -8.22072
| 42>    C        5.55494        -2.10990        -5.50753
| 43>    C        6.89270        -2.47932        -5.35666
| 44>    C        7.64495        -2.32002        -4.21321
| 45>    C        9.00594        -2.64066        -4.11875
| 46>    C        9.78261        -2.52754        -2.96632
| 47>    C       11.11416        -2.89821        -3.25811
| 48>    C       11.13039        -3.26434        -4.68878
| 49>    C        9.87673        -3.10858        -5.18733
| 50>    C       12.23668        -3.70176        -5.42809
| 51>    N       13.12426        -4.06151        -6.06164
| 52>    C       12.19605        -2.91538        -2.39719
| 53>    C       13.53832        -3.25511        -2.68759
| 54>    C       14.30482        -3.12266        -1.54566
| 55>    C       13.42413        -2.68837        -0.46682
| 56>    C       12.16618        -2.56038        -0.95895
| 57>    C       11.04915        -2.16605        -0.21513
| 58>    N       10.15137        -1.84026         0.42378
| 59>    C       15.70270        -3.35730        -1.46075
| 60>    C       16.41648        -3.20291        -0.32618
| 61>    N       17.77226        -3.39686        -0.19451
| 62>    C       18.42005        -3.19103         1.05359
| 63>    O       17.84063        -2.86309         2.05385
| 64>    C       19.83520        -3.45560         0.81651
| 65>    C       20.02788        -3.79895        -0.48035
| 66>    C       18.69297        -3.77573        -1.16947
| 67>    O       18.43856        -4.02279        -2.31755
| 68>    C       21.24392        -4.12535        -1.14790
| 69>    C       22.50736        -4.09832        -0.60231
| 70>    C       23.45637        -4.47903        -1.60432
| 71>    C       22.67144        -4.75325        -2.81949
| 72>    C       21.35932        -4.53711        -2.53858
| 73>    C       23.17248        -5.16664        -4.05994
| 74>    N       23.56285        -5.50879        -5.08438
| 75>    C       24.81942        -4.55873        -1.46906
| 76>    C       25.77598        -4.92664        -2.46415
| 77>    C       27.03558        -4.86954        -1.92685
| 78>    C       26.90918        -4.45215        -0.53200
| 79>    C       25.59827        -4.26395        -0.24297
| 80>    C       25.09233        -3.86216         0.99740
| 81>    N       24.70542        -3.53070         2.02736
| 82>    C       28.30111        -5.14890        -2.54400
| 83>    C       28.45841        -5.53327        -3.81331
| 84>    H       -2.00962        -3.85038         1.35146
| 85>    H       -1.21082        -1.49547         1.96131
| 86>    H        3.00209         1.13486        -0.50758
| 87>    H        7.34353         2.18078        -2.96245
| 88>    H        7.18715         0.22800        -4.75032
| 89>    H        2.57955        -0.85598        -4.55977
| 90>    H        2.46358        -2.41600        -6.69289
| 91>    H        7.32857        -3.00654        -6.19602
| 92>    H        7.17087        -1.95684        -3.31088
| 93>    H        9.42489        -2.19943        -2.01005
| 94>    H        9.57364        -3.30070        -6.19930
| 95>    H       13.90256        -3.56051        -3.64859
| 96>    H       13.72262        -2.50159         0.54733
| 97>    H       16.19387        -3.66825        -2.37107
| 98>    H       15.96543        -2.89704         0.60967
| 99>    H       20.56958        -3.37380         1.59528
|100>    H       22.75906        -3.83005         0.40415
|101>    H       20.53038        -4.64553        -3.21158
|102>    H       25.52099        -5.19972        -3.46806
|103>    H       27.73684        -4.32087         0.14113
|104>    H       29.16819        -5.02901        -1.90663
|105>    H       27.62106        -5.66315        -4.47723
|106>    H       29.43399        -5.72872        -4.22311
|107> *
|108>
|109>                          ****END OF INPUT****

CARTESIAN COORDINATES (ANGSTROEM)
---------------------------------
  C     -1.198990   -3.337060    0.872250
  N     -0.814930   -2.075610    1.239550
  C      0.232920   -1.751690    0.437950
  N      0.938070   -0.636390    0.379790
  C      1.868560   -0.691820   -0.553280
  N      2.793000    0.219660   -0.912330
  C      3.516570   -0.327930   -1.944400
  N      3.106960   -1.548440   -2.252810
  C      2.081220   -1.829590   -1.432320
  N      1.343300   -2.921830   -1.365520
  C      0.423880   -2.893940   -0.421890
  N     -0.501010   -3.839040   -0.095070
  C      4.620570    0.304560   -2.587020
  C      5.434560    1.373930   -2.184380
  N      5.287530    2.318310   -1.160460
  O      4.236040    2.371000   -0.520710
  O      6.213840    3.078880   -0.958910
  C      6.581500    1.429960   -3.044530
  C      6.509490    0.412220   -3.939920
  C      5.281300   -0.300880   -3.730420
  C      4.755150   -1.245840   -4.606130
  C      3.402470   -1.378480   -5.003000
  C      3.339570   -2.166220   -6.123790
  C      4.648110   -2.619980   -6.449940
  N      4.911250   -3.478470   -7.528720
  O      6.064620   -3.830300   -7.733820
  O      3.965890   -3.814080   -8.220720
  C      5.554940   -2.109900   -5.507530
  C      6.892700   -2.479320   -5.356660
  C      7.644950   -2.320020   -4.213210
  C      9.005940   -2.640660   -4.118750
  C      9.782610   -2.527540   -2.966320
  C     11.114160   -2.898210   -3.258110
  C     11.130390   -3.264340   -4.688780
  C      9.876730   -3.108580   -5.187330
  C     12.236680   -3.701760   -5.428090
  N     13.124260   -4.061510   -6.061640
  C     12.196050   -2.915380   -2.397190
  C     13.538320   -3.255110   -2.687590
  C     14.304820   -3.122660   -1.545660
  C     13.424130   -2.688370   -0.466820
  C     12.166180   -2.560380   -0.958950
  C     11.049150   -2.166050   -0.215130
  N     10.151370   -1.840260    0.423780
  C     15.702700   -3.357300   -1.460750
  C     16.416480   -3.202910   -0.326180
  N     17.772260   -3.396860   -0.194510
  C     18.420050   -3.191030    1.053590
  O     17.840630   -2.863090    2.053850
  C     19.835200   -3.455600    0.816510
  C     20.027880   -3.798950   -0.480350
  C     18.692970   -3.775730   -1.169470
  O     18.438560   -4.022790   -2.317550
  C     21.243920   -4.125350   -1.147900
  C     22.507360   -4.098320   -0.602310
  C     23.456370   -4.479030   -1.604320
  C     22.671440   -4.753250   -2.819490
  C     21.359320   -4.537110   -2.538580
  C     23.172480   -5.166640   -4.059940
  N     23.562850   -5.508790   -5.084380
  C     24.819420   -4.558730   -1.469060
  C     25.775980   -4.926640   -2.464150
  C     27.035580   -4.869540   -1.926850
  C     26.909180   -4.452150   -0.532000
  C     25.598270   -4.263950   -0.242970
  C     25.092330   -3.862160    0.997400
  N     24.705420   -3.530700    2.027360
  C     28.301110   -5.148900   -2.544000
  C     28.458410   -5.533270   -3.813310
  H     -2.009620   -3.850380    1.351460
  H     -1.210820   -1.495470    1.961310
  H      3.002090    1.134860   -0.507580
  H      7.343530    2.180780   -2.962450
  H      7.187150    0.228000   -4.750320
  H      2.579550   -0.855980   -4.559770
  H      2.463580   -2.416000   -6.692890
  H      7.328570   -3.006540   -6.196020
  H      7.170870   -1.956840   -3.310880
  H      9.424890   -2.199430   -2.010050
  H      9.573640   -3.300700   -6.199300
  H     13.902560   -3.560510   -3.648590
  H     13.722620   -2.501590    0.547330
  H     16.193870   -3.668250   -2.371070
  H     15.965430   -2.897040    0.609670
  H     20.569580   -3.373800    1.595280
  H     22.759060   -3.830050    0.404150
  H     20.530380   -4.645530   -3.211580
  H     25.520990   -5.199720   -3.468060
  H     27.736840   -4.320870    0.141130
  H     29.168190   -5.029010   -1.906630
  H     27.621060   -5.663150   -4.477230
  H     29.433990   -5.728720   -4.223110

 Total Charge           Charge          ....    0
 Multiplicity           Mult            ....    1
 Number of Electrons    NEL             ....  462
 Basis Dimension        Dim             .... 1081

ORBITAL ENERGIES
----------------

  NO   OCC          E(Eh)            E(eV)
   0   2.0000     -19.253524      -523.9150
   1   2.0000     -19.252450      -523.8858
   2   2.0000     -19.251499      -523.8599
   3   2.0000     -19.246839      -523.7331
   4   2.0000     -19.230486      -523.2881
   5   2.0000     -19.229542      -523.2624
   6   2.0000     -14.660830      -398.9415
   7   2.0000     -14.639829      -398.3700
   8   2.0000     -14.495080      -394.4312
   9   2.0000     -14.478791      -393.9879
  10   2.0000     -14.465923      -393.6378
  11   2.0000     -14.428451      -392.6181
  12   2.0000     -14.425444      -392.5363
  13   2.0000     -14.417744      -392.3268
  14   2.0000     -14.413512      -392.2116
  15   2.0000     -14.413441      -392.2097
  16   2.0000     -14.408334      -392.0707
  17   2.0000     -14.402525      -391.9126
  18   2.0000     -14.394829      -391.7032
  19   2.0000     -10.429989      -283.8144
  20   2.0000     -10.422635      -283.6143
  21   2.0000     -10.360208      -281.9156
  22   2.0000     -10.350032      -281.6387
  23   2.0000     -10.348334      -281.5925
  24   2.0000     -10.348028      -281.5842
  25   2.0000     -10.345717      -281.5213
  26   2.0000     -10.345270      -281.5091
  27   2.0000     -10.343647      -281.4649
  28   2.0000     -10.339850      -281.3616
  29   2.0000     -10.338558      -281.3265
  30   2.0000     -10.334390      -281.2130
  31   2.0000     -10.333366      -281.1852
  32   2.0000     -10.328612      -281.0558
  33   2.0000     -10.327950      -281.0378
  34   2.0000     -10.327579      -281.0277
  35   2.0000     -10.327281      -281.0196
  36   2.0000     -10.326940      -281.0103
  37   2.0000     -10.326865      -281.0083
  38   2.0000     -10.326590      -281.0008
  39   2.0000     -10.326038      -280.9858
  40   2.0000     -10.325925      -280.9827
  41   2.0000     -10.324011      -280.9306
  42   2.0000     -10.323273      -280.9105
  43   2.0000     -10.322324      -280.8847
  44   2.0000     -10.322020      -280.8764
  45   2.0000     -10.320887      -280.8456
  46   2.0000     -10.319872      -280.8180
  47   2.0000     -10.319427      -280.8059
  48   2.0000     -10.318152      -280.7712
  49   2.0000     -10.317214      -280.7457
  50   2.0000     -10.315212      -280.6912
  51   2.0000     -10.314483      -280.6714
  52   2.0000     -10.313753      -280.6515
  53   2.0000     -10.310050      -280.5507
  54   2.0000     -10.310035      -280.5503
  55   2.0000     -10.309226      -280.5283
  56   2.0000     -10.308240      -280.5015
  57   2.0000     -10.304461      -280.3987
  58   2.0000     -10.302339      -280.3409
  59   2.0000     -10.300514      -280.2912
  60   2.0000     -10.298625      -280.2398
  61   2.0000     -10.296618      -280.1852
  62   2.0000     -10.296537      -280.1830
  63   2.0000     -10.293325      -280.0956
  64   2.0000     -10.293108      -280.0897
  65   2.0000     -10.292021      -280.0601
  66   2.0000     -10.288626      -279.9677
  67   2.0000     -10.280726      -279.7528
  68   2.0000     -10.280702      -279.7521
  69   2.0000      -1.329292       -36.1719
  70   2.0000      -1.309004       -35.6198
  71   2.0000      -1.195737       -32.5377
  72   2.0000      -1.172274       -31.8992
  73   2.0000      -1.146836       -31.2070
  74   2.0000      -1.142150       -31.0795
  75   2.0000      -1.127313       -30.6758
  76   2.0000      -1.125995       -30.6399
  77   2.0000      -1.086682       -29.5701
  78   2.0000      -1.050235       -28.5784
  79   2.0000      -1.032331       -28.0912
  80   2.0000      -1.029538       -28.0151
  81   2.0000      -1.019068       -27.7303
  82   2.0000      -1.017435       -27.6858
  83   2.0000      -1.015318       -27.6282
  84   2.0000      -1.002914       -27.2907
  85   2.0000      -1.000022       -27.2120
  86   2.0000      -0.997582       -27.1456
  87   2.0000      -0.996744       -27.1228
  88   2.0000      -0.988478       -26.8979
  89   2.0000      -0.983652       -26.7665
  90   2.0000      -0.982497       -26.7351
  91   2.0000      -0.965364       -26.2689
  92   2.0000      -0.949303       -25.8318
  93   2.0000      -0.920210       -25.0402
  94   2.0000      -0.914260       -24.8783
  95   2.0000      -0.913008       -24.8442
  96   2.0000      -0.901028       -24.5182
  97   2.0000      -0.883960       -24.0538
  98   2.0000      -0.880969       -23.9724
  99   2.0000      -0.874329       -23.7917
 100   2.0000      -0.867293       -23.6002
 101   2.0000      -0.863443       -23.4955
 102   2.0000      -0.853866       -23.2349
 103   2.0000      -0.848905       -23.0999
 104   2.0000      -0.838984       -22.8299
 105   2.0000      -0.827797       -22.5255
 106   2.0000      -0.816333       -22.2135
 107   2.0000      -0.811637       -22.0858
 108   2.0000      -0.801654       -21.8141
 109   2.0000      -0.787754       -21.4359
 110   2.0000      -0.774150       -21.0657
 111   2.0000      -0.764144       -20.7934
 112   2.0000      -0.760585       -20.6966
 113   2.0000      -0.740739       -20.1565
 114   2.0000      -0.738985       -20.1088
 115   2.0000      -0.732122       -19.9221
 116   2.0000      -0.730374       -19.8745
 117   2.0000      -0.727802       -19.8045
 118   2.0000      -0.726880       -19.7794
 119   2.0000      -0.722378       -19.6569
 120   2.0000      -0.715375       -19.4663
 121   2.0000      -0.704748       -19.1772
 122   2.0000      -0.696148       -18.9431
 123   2.0000      -0.684433       -18.6244
 124   2.0000      -0.682263       -18.5653
 125   2.0000      -0.676946       -18.4206
 126   2.0000      -0.672701       -18.3051
 127   2.0000      -0.667073       -18.1520
 128   2.0000      -0.661623       -18.0037
 129   2.0000      -0.656521       -17.8648
 130   2.0000      -0.654815       -17.8184
 131   2.0000      -0.642259       -17.4768
 132   2.0000      -0.639667       -17.4062
 133   2.0000      -0.637315       -17.3422
 134   2.0000      -0.636133       -17.3101
 135   2.0000      -0.632138       -17.2014
 136   2.0000      -0.625379       -17.0174
 137   2.0000      -0.624220       -16.9859
 138   2.0000      -0.620687       -16.8898
 139   2.0000      -0.616264       -16.7694
 140   2.0000      -0.611997       -16.6533
 141   2.0000      -0.607125       -16.5207
 142   2.0000      -0.599259       -16.3067
 143   2.0000      -0.599194       -16.3049
 144   2.0000      -0.588904       -16.0249
 145   2.0000      -0.587164       -15.9775
 146   2.0000      -0.581673       -15.8281
 147   2.0000      -0.577024       -15.7016
 148   2.0000      -0.576323       -15.6826
 149   2.0000      -0.574509       -15.6332
 150   2.0000      -0.565433       -15.3862
 151   2.0000      -0.563310       -15.3284
 152   2.0000      -0.560701       -15.2575
 153   2.0000      -0.558441       -15.1960
 154   2.0000      -0.548803       -14.9337
 155   2.0000      -0.547013       -14.8850
 156   2.0000      -0.545085       -14.8325
 157   2.0000      -0.544175       -14.8078
 158   2.0000      -0.541311       -14.7298
 159   2.0000      -0.538378       -14.6500
 160   2.0000      -0.536980       -14.6120
 161   2.0000      -0.536599       -14.6016
 162   2.0000      -0.533682       -14.5222
 163   2.0000      -0.533318       -14.5123
 164   2.0000      -0.527637       -14.3577
 165   2.0000      -0.524187       -14.2639
 166   2.0000      -0.523721       -14.2512
 167   2.0000      -0.517725       -14.0880
 168   2.0000      -0.515958       -14.0399
 169   2.0000      -0.514190       -13.9918
 170   2.0000      -0.511703       -13.9241
 171   2.0000      -0.508013       -13.8237
 172   2.0000      -0.506493       -13.7824
 173   2.0000      -0.503690       -13.7061
 174   2.0000      -0.502681       -13.6786
 175   2.0000      -0.499271       -13.5859
 176   2.0000      -0.498546       -13.5661
 177   2.0000      -0.493719       -13.4348
 178   2.0000      -0.492400       -13.3989
 179   2.0000      -0.489255       -13.3133
 180   2.0000      -0.485600       -13.2138
 181   2.0000      -0.481137       -13.0924
 182   2.0000      -0.476872       -12.9764
 183   2.0000      -0.470485       -12.8026
 184   2.0000      -0.467831       -12.7303
 185   2.0000      -0.464681       -12.6446
 186   2.0000      -0.463037       -12.5999
 187   2.0000      -0.459878       -12.5139
 188   2.0000      -0.454866       -12.3775
 189   2.0000      -0.453913       -12.3516
 190   2.0000      -0.452060       -12.3012
 191   2.0000      -0.449782       -12.2392
 192   2.0000      -0.447818       -12.1857
 193   2.0000      -0.447650       -12.1812
 194   2.0000      -0.442699       -12.0464
 195   2.0000      -0.439338       -11.9550
 196   2.0000      -0.437492       -11.9048
 197   2.0000      -0.432519       -11.7694
 198   2.0000      -0.431005       -11.7282
 199   2.0000      -0.430052       -11.7023
 200   2.0000      -0.418529       -11.3888
 201   2.0000      -0.415553       -11.3078
 202   2.0000      -0.412245       -11.2178
 203   2.0000      -0.410553       -11.1717
 204   2.0000      -0.402598       -10.9552
 205   2.0000      -0.399773       -10.8784
 206   2.0000      -0.399435       -10.8692
 207   2.0000      -0.396952       -10.8016
 208   2.0000      -0.392684       -10.6855
 209   2.0000      -0.387056       -10.5323
 210   2.0000      -0.384646       -10.4667
 211   2.0000      -0.382341       -10.4040
 212   2.0000      -0.377703       -10.2778
 213   2.0000      -0.376143       -10.2354
 214   2.0000      -0.376081       -10.2337
 215   2.0000      -0.370962       -10.0944
 216   2.0000      -0.365334        -9.9412
 217   2.0000      -0.358683        -9.7603
 218   2.0000      -0.356694        -9.7061
 219   2.0000      -0.343688        -9.3522
 220   2.0000      -0.339275        -9.2321
 221   2.0000      -0.334242        -9.0952
 222   2.0000      -0.331444        -9.0190
 223   2.0000      -0.320143        -8.7115
 224   2.0000      -0.319077        -8.6825
 225   2.0000      -0.313191        -8.5224
 226   2.0000      -0.310320        -8.4442
 227   2.0000      -0.304178        -8.2771
 228   2.0000      -0.289258        -7.8711
 229   2.0000      -0.276381        -7.5207
 230   2.0000      -0.255783        -6.9602
 231   0.0000      -0.146178        -3.9777
 232   0.0000      -0.142041        -3.8651
 233   0.0000      -0.116273        -3.1640
 234   0.0000      -0.083650        -2.2762
 235   0.0000      -0.063355        -1.7240

MULLIKEN ATOMIC CHARGES
-----------------------
   0 C :    0.120518
   1 N :   -0.058997
   2 C :   -0.045442
   3 N :    0.037289
   4 C :   -0.045585
   5 N :   -0.007918
   6 C :   -0.093526
   7 N :   -0.051802
   8 C :   -0.120532
   9 N :    0.072915
  10 C :   -0.125349
  11 N :   -0.070351
  12 C :    0.120831
  13 C :    0.045569
  14 N :    0.299660
  15 O :   -0.297963
  16 O :   -0.223434
  17 C :    0.001068
  18 C :    0.011160
  19 C :   -0.036472
  20 C :    0.094777
  21 C :    0.065803
  22 C :    0.008758
  23 C :    0.093645
  24 N :    0.274710
  25 O :   -0.260378
  26 O :   -0.248228
  27 C :    0.041645
  28 C :   -0.059228
  29 C :    0.009237
  30 C :    0.092795
  31 C :   -0.095578
  32 C :    0.115329
  33 C :   -0.099575
  34 C :   -0.005844
  35 C :   -0.171231
  36 N :    0.137312
  37 C :    0.137243
  38 C :   -0.121190
  39 C :    0.116488
  40 C :   -0.003309
  41 C :   -0.102058
  42 C :   -0.169202
  43 N :    0.134237
  44 C :   -0.011403
  45 C :    0.081771
  46 N :   -0.234295
  47 C :    0.223503
  48 O :   -0.138014
  49 C :   -0.098397
  50 C :    0.032226
  51 C :    0.217338
  52 O :   -0.144766
  53 C :    0.082490
  54 C :   -0.099861
  55 C :    0.100924
  56 C :   -0.087250
  57 C :    0.000638
  58 C :   -0.175051
  59 N :    0.141890
  60 C :    0.108964
  61 C :   -0.102419
  62 C :    0.104495
  63 C :    0.006121
  64 C :   -0.094118
  65 C :   -0.171480
  66 N :    0.136047
  67 C :   -0.013156
  68 C :    0.017441
  69 H :    0.022922
  70 H :    0.141375
  71 H :    0.154303
  72 H :    0.004801
  73 H :    0.003570
  74 H :   -0.013304
  75 H :    0.008956
  76 H :    0.024093
  77 H :    0.027300
  78 H :    0.006190
  79 H :    0.011518
  80 H :    0.003532
  81 H :    0.002731
  82 H :    0.024992
  83 H :    0.032020
  84 H :    0.026208
  85 H :    0.005248
  86 H :    0.024677
  87 H :    0.002279
  88 H :    0.005445
  89 H :   -0.005607
  90 H :    0.043912
  91 H :    0.041402
Sum of atomic charges:   -0.0000000

LOEWDIN ATOMIC CHARGES
----------------------
   0 C :    0.062970
   1 N :    0.056834
   2 C :   -0.003008
   3 N :   -0.088333
   4 C :   -0.002078
   5 N :    0.076137
   6 C :    0.031862
   7 N :   -0.098317
   8 C :   -0.046946
   9 N :   -0.029429
  10 C :   -0.039441
  11 N :   -0.108484
  12 C :   -0.014321
  13 C :   -0.044150
  14 N :    0.296647
  15 O :   -0.227874
  16 O :   -0.184976
  17 C :   -0.012304
  18 C :   -0.029179
  19 C :    0.025370
  20 C :    0.085355
  21 C :   -0.022034
  22 C :    0.030917
  23 C :   -0.053059
  24 N :    0.285826
  25 O :   -0.226192
  26 O :   -0.212223
  27 C :    0.014799
  28 C :   -0.011020
  29 C :    0.028473
  30 C :   -0.027035
  31 C :   -0.000500
  32 C :    0.019019
  33 C :   -0.075747
  34 C :    0.050674
  35 C :   -0.029727
  36 N :   -0.059268
  37 C :    0.051108
  38 C :   -0.043574
  39 C :    0.006155
  40 C :    0.052118
  41 C :   -0.073283
  42 C :   -0.030551
  43 N :   -0.059308
  44 C :   -0.047259
  45 C :    0.054646
  46 N :   -0.021421
  47 C :    0.096182
  48 O :   -0.122955
  49 C :   -0.010061
  50 C :   -0.013569
  51 C :    0.108880
  52 O :   -0.120626
  53 C :   -0.032024
  54 C :    0.018610
  55 C :    0.026639
  56 C :   -0.085818
  57 C :    0.059239
  58 C :   -0.028813
  59 N :   -0.059801
  60 C :    0.061118
  61 C :   -0.026506
  62 C :    0.001385
  63 C :    0.063649
  64 C :   -0.082045
  65 C :   -0.031032
  66 N :   -0.060978
  67 C :   -0.035102
  68 C :    0.016845
  69 H :    0.024110
  70 H :    0.098882
  71 H :    0.075505
  72 H :    0.037626
  73 H :    0.032721
  74 H :    0.029712
  75 H :    0.041109
  76 H :    0.037914
  77 H :    0.042136
  78 H :    0.036838
  79 H :    0.040703
  80 H :    0.036385
  81 H :    0.037009
  82 H :    0.041636
  83 H :    0.034274
  84 H :    0.048187
  85 H :    0.035729
  86 H :    0.042280
  87 H :    0.035136
  88 H :    0.039961
  89 H :    0.033235
  90 H :    0.033594
  91 H :    0.034230

  Mayer bond orders larger than 0.100000
B(  0-C ,  1-N ) :   1.1571 B(  0-C , 11-N ) :   1.7207 B(  0-C , 69-H ) :   0.9816
B(  1-N ,  2-C ) :   1.2097 B(  1-N , 70-H ) :   0.9286 B(  2-C ,  3-N ) :   1.5420
B(  2-C , 10-C ) :   1.1304 B(  3-N ,  4-C ) :   1.5376 B(  4-C ,  5-N ) :   1.2201
B(  4-C ,  8-C ) :   1.1005 B(  5-N ,  6-C ) :   1.2530 B(  5-N , 71-H ) :   0.8597
B(  6-C ,  7-N ) :   1.6459 B(  6-C , 12-C ) :   1.0187 B(  7-N ,  8-C ) :   1.3963
B(  8-C ,  9-N ) :   1.5111 B(  9-N , 10-C ) :   1.5454 B( 10-C , 11-N ) :   1.3632
B( 12-C , 13-C ) :   1.4713 B( 12-C , 19-C ) :   1.1033 B( 13-C , 14-N ) :   0.9722
B( 13-C , 17-C ) :   1.1540 B( 14-N , 15-O ) :   1.4076 B( 14-N , 16-O ) :   1.5659
B( 15-O , 16-O ) :   0.2468 B( 15-O , 71-H ) :   0.1132 B( 17-C , 18-C ) :   1.5650
B( 17-C , 72-H ) :   1.0095 B( 18-C , 19-C ) :   1.1385 B( 18-C , 73-H ) :   0.9978
B( 19-C , 20-C ) :   1.4384 B( 20-C , 21-C ) :   1.1948 B( 20-C , 27-C ) :   0.9880
B( 21-C , 22-C ) :   1.5238 B( 21-C , 74-H ) :   1.0035 B( 22-C , 23-C ) :   1.1407
B( 22-C , 75-H ) :   1.0103 B( 23-C , 24-N ) :   0.9611 B( 23-C , 27-C ) :   1.4539
B( 24-N , 25-O ) :   1.4866 B( 24-N , 26-O ) :   1.5322 B( 25-O , 26-O ) :   0.2550
B( 27-C , 28-C ) :   1.2485 B( 28-C , 29-C ) :   1.4657 B( 28-C , 76-H ) :   0.9507
B( 29-C , 30-C ) :   1.1781 B( 29-C , 77-H ) :   0.9651 B( 30-C , 31-C ) :   1.4530
B( 30-C , 34-C ) :   1.0559 B( 31-C , 32-C ) :   1.1403 B( 31-C , 78-H ) :   1.0073
B( 32-C , 33-C ) :   1.1111 B( 32-C , 37-C ) :   1.3743 B( 33-C , 34-C ) :   1.6741
B( 33-C , 35-C ) :   1.0900 B( 34-C , 79-H ) :   1.0164 B( 35-C , 36-N ) :   2.9681
B( 37-C , 38-C ) :   1.1446 B( 37-C , 41-C ) :   1.0920 B( 38-C , 39-C ) :   1.5143
B( 38-C , 80-H ) :   1.0092 B( 39-C , 40-C ) :   1.0309 B( 39-C , 44-C ) :   1.1207
B( 40-C , 41-C ) :   1.6989 B( 40-C , 81-H ) :   1.0127 B( 41-C , 42-C ) :   1.0917
B( 42-C , 43-N ) :   2.9612 B( 44-C , 45-C ) :   1.6524 B( 44-C , 82-H ) :   0.9692
B( 45-C , 46-N ) :   1.0529 B( 45-C , 83-H ) :   0.9643 B( 46-N , 47-C ) :   0.9697
B( 46-N , 51-C ) :   1.0412 B( 47-C , 48-O ) :   2.1703 B( 47-C , 49-C ) :   0.9645
B( 49-C , 50-C ) :   1.6656 B( 49-C , 84-H ) :   1.0239 B( 50-C , 51-C ) :   0.8998
B( 50-C , 53-C ) :   1.0533 B( 51-C , 52-O ) :   2.1299 B( 53-C , 54-C ) :   1.5726
B( 53-C , 57-C ) :   1.0724 B( 54-C , 55-C ) :   1.0974 B( 54-C , 85-H ) :   0.9986
B( 55-C , 56-C ) :   1.1157 B( 55-C , 60-C ) :   1.4338 B( 56-C , 57-C ) :   1.6342
B( 56-C , 58-C ) :   1.0898 B( 57-C , 86-H ) :   1.0184 B( 58-C , 59-N ) :   2.9712
B( 60-C , 61-C ) :   1.1250 B( 60-C , 64-C ) :   1.0844 B( 61-C , 62-C ) :   1.5828
B( 61-C , 87-H ) :   0.9968 B( 62-C , 63-C ) :   1.0208 B( 62-C , 67-C ) :   1.0901
B( 63-C , 64-C ) :   1.6893 B( 63-C , 88-H ) :   1.0215 B( 64-C , 65-C ) :   1.0922
B( 65-C , 66-N ) :   2.9637 B( 67-C , 68-C ) :   1.9127 B( 67-C , 89-H ) :   0.9665
B( 68-C , 90-H ) :   0.9547 B( 68-C , 91-H ) :   0.9494

-----------------------------------------------------------------------------
         ABSORPTION SPECTRUM VIA TRANSITION ELECTRIC DIPOLE MOMENTS
-----------------------------------------------------------------------------
State   Energy  Wavelength   fosc         T2         TX        TY        TZ
        (cm-1)    (nm)                  (au**2)     (au)      (au)      (au)
-----------------------------------------------------------------------------
   0    7164.6   1395.8   0.262950073  12.08252  -3.42053   0.61226  -0.08719
   1   11875.0    842.1   0.062052399   1.72029  -0.21734  -0.71580   1.07735
   2   13871.2    720.9   0.555685358  13.18840  -3.10108   0.21523  -1.87760
   3   15190.4    658.3   0.040970391   0.88792   0.80723  -0.07559  -0.48020
   4   15707.7    636.6   0.022131517   0.46385  -0.64751  -0.09014   0.19094
   5   16286.3    614.0   0.056552582   1.14316  -1.05898   0.12855   0.07200
   6   18298.3    546.5   0.009440634   0.16985   0.10297  -0.39290  -0.06982
   7   18554.1    539.0   0.005082682   0.09018   0.29852  -0.03188   0.00737
   8   19835.4    504.2   0.032413615   0.53798   0.55881   0.40783  -0.24367
   9   20551.2    486.6   0.018253035   0.29240   0.26009  -0.47379   0.01668
  10   21145.2    472.9   0.017594402   0.27393   0.37840   0.29259  -0.21244
  11   21308.8    469.3   0.014457249   0.22336  -0.13496   0.34496  -0.29351
  12   22210.9    450.2   0.155445160   2.30402  -1.49971   0.21235  -0.09903
  13   23844.1    419.4   0.257800971   3.55942   1.61581  -0.95069   0.21156
  14   23916.8    418.1   0.198865649   2.73736   1.51458   0.22066  -0.62827
  15   24140.4    414.2   0.018030794   0.24589   0.43266  -0.01669   0.24171
  16   24455.5    408.9   0.612207295   8.24133  -2.12402  -0.44152  -1.88014
  17   24786.6    403.4   0.011520140   0.15301   0.04194  -0.00886   0.38881
  18   25076.7    398.8   0.020432493   0.26824  -0.15241  -0.38147   0.31543
  19   25414.9    393.5   0.029249560   0.37888   0.46170   0.22003  -0.34249
  20   26758.6    373.7   0.045135603   0.55531  -0.15712   0.27438   0.67478
  21   27159.0    368.2   0.756327796   9.16795  -2.98183   0.22082   0.47738
  22   27298.0    366.3   0.012512255   0.15090  -0.22083   0.29625   0.11987
  23   28147.0    355.3   0.062560781   0.73172   0.78444   0.34079   0.01562
  24   28837.3    346.8   0.013799039   0.15753   0.12858   0.36278  -0.09689
  25   29041.4    344.3   0.064366730   0.72966  -0.69079  -0.45882  -0.20481
  26   29516.8    338.8   0.001763085   0.01966   0.10604   0.07373  -0.05462
  27   29720.4    336.5   0.057354040   0.63531   0.70054   0.37557  -0.05919
  28   29764.7    336.0   0.099273790   1.09802  -0.76401  -0.63844  -0.32667
  29   29961.2    333.8   0.204213269   2.24389   0.97487   1.10982   0.24859
  30   30246.0    330.6   0.001879122   0.02045   0.04077   0.08261  -0.10940
  31   30430.0    328.6   0.102330324   1.10708   0.95472  -0.12467  -0.42432
  32   30620.7    326.6   0.112024852   1.20441   0.02105  -0.55046  -0.94919
  33   30843.5    324.2   0.021553413   0.23005   0.44488   0.17925   0.00061
  34   31058.4    322.0   0.140379927   1.48799  -0.42219  -0.70372  -0.90251
  35   31210.3    320.4   0.006933847   0.07314  -0.05754   0.17693   0.19627
  36   31520.8    317.3   0.050127065   0.52354   0.39060   0.23747   0.56088
  37   31900.3    313.5   0.000797561   0.00823  -0.07843   0.04361  -0.01333
  38   32361.8    309.0   0.062438535   0.63518   0.69449  -0.11600  -0.37337
  39   32649.6    306.3   0.489493015   4.93565   0.66617   1.37728   1.61089
  40   32846.3    304.4   0.008531589   0.08551  -0.11954  -0.17685  -0.19986
  41   33049.2    302.6   0.031891289   0.31768  -0.34580   0.05927  -0.44112
  42   33249.1    300.8   0.010300160   0.10199  -0.03171   0.14436   0.28309
  43   33509.3    298.4   0.021411332   0.21036  -0.38796   0.01016   0.24442
  44   33995.3    294.2   0.003834269   0.03713  -0.12197  -0.11102  -0.09965
  45   34046.4    293.7   0.044361804   0.42896   0.16964   0.21335   0.59553
  46   34093.4    293.3   0.027522397   0.26576   0.14893   0.08391   0.48635
  47   34620.6    288.8   0.000272252   0.00259  -0.02960  -0.02342   0.03412
  48   34862.4    286.8   0.014333833   0.13536  -0.14592   0.17157   0.29091
  49   35220.8    283.9   0.059071391   0.55215   0.71359  -0.06265  -0.19752
  50   35309.1    283.2   0.090086411   0.83994   0.89875  -0.14727  -0.10243
  51   35455.3    282.0   0.041670798   0.38692  -0.55535  -0.22878   0.16176
  52   35518.2    281.5   0.010974188   0.10172   0.22649   0.22101  -0.03971
  53   35734.5    279.8   0.153071075   1.41020   0.71593   0.91541  -0.24426
  54   35737.6    279.8   0.005631433   0.05188  -0.14824  -0.16484   0.05222
  55   35874.2    278.8   0.006175031   0.05667  -0.22920   0.06430   0.00035
  56   35914.3    278.4   0.005989978   0.05491   0.01867   0.21189  -0.09830
  57   36003.3    277.8   0.006869902   0.06282  -0.22748   0.08878   0.05647
  58   36296.1    275.5   0.014414607   0.13074   0.28084  -0.05998  -0.21972
  59   36344.9    275.1   0.000269088   0.00244   0.01827   0.04370   0.01391
  60   36416.6    274.6   0.008084447   0.07308  -0.18590   0.09967   0.16909
  61   36915.0    270.9   0.019983752   0.17822  -0.33701  -0.20927   0.14439
  62   37004.3    270.2   0.000093981   0.00084   0.02320  -0.01723   0.00113
  63   37286.6    268.2   0.016732284   0.14773  -0.37570   0.05930   0.05536
  64   37513.8    266.6   0.004805288   0.04217   0.20485  -0.00762   0.01219
  65   37809.7    264.5   0.040613226   0.35362  -0.46761   0.13627   0.34116
  66   38152.4    262.1   0.197881756   1.70750  -0.69156   0.42352   1.02463
  67   38512.3    259.7   0.015170280   0.12968  -0.13377   0.25855   0.21198
  68   38698.4    258.4   0.003225816   0.02744  -0.14610  -0.06853   0.03744
  69   38717.3    258.3   0.000763126   0.00649   0.07436  -0.03084  -0.00288
  70   38951.2    256.7   0.014339094   0.12119   0.25474   0.06423   0.22842
  71   39033.3    256.2   0.461976479   3.89637  -1.97296  -0.02605  -0.05593
  72   39230.2    254.9   0.007604530   0.06382  -0.19274  -0.16296  -0.01052
  73   39336.0    254.2   0.329535262   2.75795  -1.43194   0.66641  -0.51324
  74   39495.0    253.2   0.007494122   0.06247  -0.19493  -0.06148   0.14385
  75   39558.4    252.8   0.073091576   0.60828   0.54516  -0.02174  -0.55732
  76   40165.4    249.0   0.113677240   0.93174   0.91996  -0.19180   0.22055

FINAL SINGLE POINT ENERGY     -3078.025183489776

DIPOLE MOMENT
-------------
                                X             Y             Z
Electronic contribution:    -36.08438       6.48229       4.51134
Nuclear contribution   :     39.29505      -5.63413      -2.24718
                        -----------------------------------------
Total Dipole Moment    :      3.21067       0.84816       2.26416
                        -----------------------------------------
Magnitude (a.u.)       :      4.01923
Magnitude (Debye)      :     10.21607

Rotational constants in cm-1:     0.002315     0.000232     0.000220
Rotational constants in MHz :    69.415607     6.945545     6.593925

                             ****ORCA TERMINATED NORMALLY****
TOTAL RUN TIME: 0 days 0 hours 8 minutes 39 seconds 990 msec
