                         Program Version 4.2.0 -  RELEASE  -
|  1> # ORCA input file
|  2> # SCF done       -181.583884415564          0.000724858966
|  3> ! CAM-B3LYP def2-SVP def2/J RIJCOSX Grid4 TightSCF
|  4> %maxcore 5000
|  5> %tddft
|  6>     Mode sTDDFT
|  7>     Ethresh 5.0
|  8>     maxcore 5000
|  9> end
| 10>
| 11> %pal
| 12>   nprocs 6
| 13>   end
| 14> * xyz 0 1
| 15>    C        0.05106         0.53316        -8.68092
| 16>    N        0.85070         0.06006        -9.68611
| 17>    C        1.83393        -0.65725        -9.07910
| 18>    N        2.84038        -1.32668        -9.61769
| 19>    C        3.57667        -1.91407        -8.69259
| 20>    N        4.68123        -2.67539        -8.82140
| 21>    C        5.05956        -3.05117        -7.55332
| 22>    N        4.25997        -2.55872        -6.62330
| 23>    C        3.31369        -1.84993        -7.26643
| 24>    N        2.29157        -1.18376        -6.76091
| 25>    C        1.55154        -0.57749        -7.67125
| 26>    N        0.42905         0.17815        -7.49529
| 27>    C        6.19216        -3.86716        -7.26241
| 28>    C        7.32632        -4.18041        -8.04436
| 29>    N        7.64471        -3.90591        -9.37017
| 30>    O        8.80459        -4.07582        -9.71751
| 31>    O        6.77835        -3.51440       -10.15758
| 32>    C        8.27188        -4.87062        -7.22203
| 33>    C        7.77274        -4.95266        -5.96167
| 34>    C        6.47461        -4.34306        -5.93366
| 35>    C        5.64768        -4.34748        -4.79957
| 36>    C        4.27299        -4.62688        -4.72419
| 37>    C        3.94126        -4.90701        -3.41496
| 38>    C        5.08997        -4.76097        -2.59879
| 39>    N        5.09960        -4.99981        -1.22343
| 40>    O        6.17308        -4.98679        -0.62780
| 41>    O        4.03414        -5.24598        -0.67999
| 42>    C        6.16301        -4.33896        -3.41123
| 43>    C        7.38326        -3.83794        -2.96707
| 44>    C        8.28281        -3.15941        -3.76673
| 45>    C        9.62662        -2.89253        -3.49228
| 46>    S       10.62456        -2.47498        -4.87264
| 47>    C       12.08281        -2.66946        -3.94954
| 48>    C       11.79177        -2.95531        -2.61332
| 49>    C       10.42167        -3.08338        -2.35023
| 50>    S        9.69751        -3.30624        -0.76526
| 51>    C       10.46968        -4.87350        -0.18615
| 52>    C        9.52626        -5.51099         0.81397
| 53>    S       13.09479        -3.14453        -1.43732
| 54>    C       12.72511        -1.73071        -0.31588
| 55>    C       13.61897        -1.80862         0.90428
| 56>    C       13.35953        -2.54131        -4.52985
| 57>    C       13.56021        -2.25603        -5.84441
| 58>    C       14.82293        -2.16203        -6.46435
| 59>    S       16.28940        -2.44868        -5.56078
| 60>    C       17.25919        -2.12307        -6.96394
| 61>    C       16.48114        -1.80694        -8.06689
| 62>    C       15.10446        -1.84635        -7.79040
| 63>    C       14.05605        -1.54513        -8.82480
| 64>    C       12.94735        -2.56438        -8.84979
| 65>    C       11.66797        -2.26596        -8.97960
| 66>    C       14.68751        -1.49211       -10.22674
| 67>    C       15.98899        -0.70080       -10.22047
| 68>    C       17.03698        -1.44608        -9.40013
| 69>    C       18.67689        -2.19804        -6.89639
| 70>    N       19.34512        -2.53091        -5.73203
| 71>    C       20.66778        -2.51673        -6.02610
| 72>    N       21.70073        -2.77446        -5.23887
| 73>    C       22.83362        -2.65258        -5.91995
| 74>    N       24.11206        -2.83093        -5.49304
| 75>    C       24.91148        -2.58424        -6.57866
| 76>    N       24.26421        -2.26673        -7.65146
| 77>    C       22.94103        -2.29046        -7.30614
| 78>    N       21.89234        -2.03580        -8.07129
| 79>    C       20.74732        -2.15447        -7.41827
| 80>    N       19.49175        -1.97328        -7.90108
| 81>    H       -0.81031         1.14173        -8.87598
| 82>    H        0.75039         0.20775       -10.67682
| 83>    H        5.21463        -2.91566        -9.65899
| 84>    H        9.20313        -5.25937        -7.58623
| 85>    H        8.21649        -5.46594        -5.13072
| 86>    H        3.61453        -4.70600        -5.56509
| 87>    H        2.97954        -5.21123        -3.04550
| 88>    H        7.60566        -3.99867        -1.92280
| 89>    H        7.96653        -2.88066        -4.76247
| 90>    H       11.43936        -4.64897         0.25597
| 91>    H       10.60429        -5.49674        -1.06860
| 92>    H        9.43070        -4.88653         1.69936
| 93>    H        9.91207        -6.48321         1.11284
| 94>    H        8.53574        -5.63995         0.38195
| 95>    H       11.67247        -1.78763        -0.04267
| 96>    H       12.90824        -0.82143        -0.88882
| 97>    H       13.43444        -2.72642         1.45804
| 98>    H       13.41872        -0.96224         1.55742
| 99>    H       14.66712        -1.78639         0.61426
|100>    H       14.20458        -2.70491        -3.87351
|101>    H       12.70211        -2.09724        -6.48462
|102>    H       13.62775        -0.56009        -8.59702
|103>    H       13.27260        -3.59591        -8.81843
|104>    H       11.32973        -1.24237        -9.02296
|105>    H       10.90709        -3.02236        -9.06597
|106>    H       13.96697        -1.04729       -10.91423
|107>    H       14.88810        -2.51028       -10.56743
|108>    H       16.35054        -0.56626       -11.24009
|109>    H       15.81612         0.28795        -9.78976
|110>    H       17.94699        -0.86001        -9.26903
|111>    H       17.33500        -2.36326        -9.91580
|112>    H       18.92834        -2.74916        -4.84171
|113>    H       24.39779        -3.09400        -4.56451
|114>    H       25.98054        -2.65418        -6.52386
|115> *
|116>
|117>                          ****END OF INPUT****

CARTESIAN COORDINATES (ANGSTROEM)
---------------------------------
  C      0.051060    0.533160   -8.680920
  N      0.850700    0.060060   -9.686110
  C      1.833930   -0.657250   -9.079100
  N      2.840380   -1.326680   -9.617690
  C      3.576670   -1.914070   -8.692590
  N      4.681230   -2.675390   -8.821400
  C      5.059560   -3.051170   -7.553320
  N      4.259970   -2.558720   -6.623300
  C      3.313690   -1.849930   -7.266430
  N      2.291570   -1.183760   -6.760910
  C      1.551540   -0.577490   -7.671250
  N      0.429050    0.178150   -7.495290
  C      6.192160   -3.867160   -7.262410
  C      7.326320   -4.180410   -8.044360
  N      7.644710   -3.905910   -9.370170
  O      8.804590   -4.075820   -9.717510
  O      6.778350   -3.514400  -10.157580
  C      8.271880   -4.870620   -7.222030
  C      7.772740   -4.952660   -5.961670
  C      6.474610   -4.343060   -5.933660
  C      5.647680   -4.347480   -4.799570
  C      4.272990   -4.626880   -4.724190
  C      3.941260   -4.907010   -3.414960
  C      5.089970   -4.760970   -2.598790
  N      5.099600   -4.999810   -1.223430
  O      6.173080   -4.986790   -0.627800
  O      4.034140   -5.245980   -0.679990
  C      6.163010   -4.338960   -3.411230
  C      7.383260   -3.837940   -2.967070
  C      8.282810   -3.159410   -3.766730
  C      9.626620   -2.892530   -3.492280
  S     10.624560   -2.474980   -4.872640
  C     12.082810   -2.669460   -3.949540
  C     11.791770   -2.955310   -2.613320
  C     10.421670   -3.083380   -2.350230
  S      9.697510   -3.306240   -0.765260
  C     10.469680   -4.873500   -0.186150
  C      9.526260   -5.510990    0.813970
  S     13.094790   -3.144530   -1.437320
  C     12.725110   -1.730710   -0.315880
  C     13.618970   -1.808620    0.904280
  C     13.359530   -2.541310   -4.529850
  C     13.560210   -2.256030   -5.844410
  C     14.822930   -2.162030   -6.464350
  S     16.289400   -2.448680   -5.560780
  C     17.259190   -2.123070   -6.963940
  C     16.481140   -1.806940   -8.066890
  C     15.104460   -1.846350   -7.790400
  C     14.056050   -1.545130   -8.824800
  C     12.947350   -2.564380   -8.849790
  C     11.667970   -2.265960   -8.979600
  C     14.687510   -1.492110  -10.226740
  C     15.988990   -0.700800  -10.220470
  C     17.036980   -1.446080   -9.400130
  C     18.676890   -2.198040   -6.896390
  N     19.345120   -2.530910   -5.732030
  C     20.667780   -2.516730   -6.026100
  N     21.700730   -2.774460   -5.238870
  C     22.833620   -2.652580   -5.919950
  N     24.112060   -2.830930   -5.493040
  C     24.911480   -2.584240   -6.578660
  N     24.264210   -2.266730   -7.651460
  C     22.941030   -2.290460   -7.306140
  N     21.892340   -2.035800   -8.071290
  C     20.747320   -2.154470   -7.418270
  N     19.491750   -1.973280   -7.901080
  H     -0.810310    1.141730   -8.875980
  H      0.750390    0.207750  -10.676820
  H      5.214630   -2.915660   -9.658990
  H      9.203130   -5.259370   -7.586230
  H      8.216490   -5.465940   -5.130720
  H      3.614530   -4.706000   -5.565090
  H      2.979540   -5.211230   -3.045500
  H      7.605660   -3.998670   -1.922800
  H      7.966530   -2.880660   -4.762470
  H     11.439360   -4.648970    0.255970
  H     10.604290   -5.496740   -1.068600
  H      9.430700   -4.886530    1.699360
  H      9.912070   -6.483210    1.112840
  H      8.535740   -5.639950    0.381950
  H     11.672470   -1.787630   -0.042670
  H     12.908240   -0.821430   -0.888820
  H     13.434440   -2.726420    1.458040
  H     13.418720   -0.962240    1.557420
  H     14.667120   -1.786390    0.614260
  H     14.204580   -2.704910   -3.873510
  H     12.702110   -2.097240   -6.484620
  H     13.627750   -0.560090   -8.597020
  H     13.272600   -3.595910   -8.818430
  H     11.329730   -1.242370   -9.022960
  H     10.907090   -3.022360   -9.065970
  H     13.966970   -1.047290  -10.914230
  H     14.888100   -2.510280  -10.567430
  H     16.350540   -0.566260  -11.240090
  H     15.816120    0.287950   -9.789760
  H     17.946990   -0.860010   -9.269030
  H     17.335000   -2.363260   -9.915800
  H     18.928340   -2.749160   -4.841710
  H     24.397790   -3.094000   -4.564510
  H     25.980540   -2.654180   -6.523860

 Total Charge           Charge          ....    0
 Multiplicity           Mult            ....    1
 Number of Electrons    NEL             ....  492
 Basis Dimension        Dim             .... 1110

ORBITAL ENERGIES
----------------

  NO   OCC          E(Eh)            E(eV)
   0   2.0000     -88.976829     -2421.1826
   1   2.0000     -88.970184     -2421.0018
   2   2.0000     -88.938115     -2420.1292
   3   2.0000     -88.934141     -2420.0210
   4   2.0000     -19.243365      -523.6386
   5   2.0000     -19.242255      -523.6084
   6   2.0000     -19.215162      -522.8711
   7   2.0000     -19.214609      -522.8561
   8   2.0000     -14.651013      -398.6743
   9   2.0000     -14.625485      -397.9797
  10   2.0000     -14.477460      -393.9517
  11   2.0000     -14.475550      -393.8997
  12   2.0000     -14.469746      -393.7418
  13   2.0000     -14.454126      -393.3168
  14   2.0000     -14.430580      -392.6761
  15   2.0000     -14.419362      -392.3708
  16   2.0000     -14.412153      -392.1746
  17   2.0000     -14.403524      -391.9398
  18   2.0000     -14.397014      -391.7627
  19   2.0000     -14.392206      -391.6318
  20   2.0000     -14.387922      -391.5153
  21   2.0000     -14.386423      -391.4745
  22   2.0000     -10.359159      -281.8871
  23   2.0000     -10.349320      -281.6193
  24   2.0000     -10.347936      -281.5817
  25   2.0000     -10.345773      -281.5228
  26   2.0000     -10.343409      -281.4585
  27   2.0000     -10.338973      -281.3378
  28   2.0000     -10.338832      -281.3339
  29   2.0000     -10.337110      -281.2871
  30   2.0000     -10.335144      -281.2336
  31   2.0000     -10.329294      -281.0744
  32   2.0000     -10.327675      -281.0303
  33   2.0000     -10.325383      -280.9680
  34   2.0000     -10.324389      -280.9409
  35   2.0000     -10.322218      -280.8818
  36   2.0000     -10.320797      -280.8432
  37   2.0000     -10.319393      -280.8050
  38   2.0000     -10.318846      -280.7901
  39   2.0000     -10.316614      -280.7293
  40   2.0000     -10.316280      -280.7203
  41   2.0000     -10.315771      -280.7064
  42   2.0000     -10.315020      -280.6860
  43   2.0000     -10.313876      -280.6548
  44   2.0000     -10.309581      -280.5380
  45   2.0000     -10.305416      -280.4246
  46   2.0000     -10.304051      -280.3875
  47   2.0000     -10.302595      -280.3479
  48   2.0000     -10.299194      -280.2553
  49   2.0000     -10.298899      -280.2473
  50   2.0000     -10.295914      -280.1661
  51   2.0000     -10.294147      -280.1180
  52   2.0000     -10.292582      -280.0754
  53   2.0000     -10.291663      -280.0504
  54   2.0000     -10.290492      -280.0185
  55   2.0000     -10.285335      -279.8782
  56   2.0000     -10.275606      -279.6135
  57   2.0000     -10.274998      -279.5969
  58   2.0000     -10.273372      -279.5527
  59   2.0000     -10.271850      -279.5113
  60   2.0000     -10.265910      -279.3496
  61   2.0000     -10.265024      -279.3255
  62   2.0000     -10.261040      -279.2171
  63   2.0000     -10.260277      -279.1963
  64   2.0000     -10.259656      -279.1794
  65   2.0000     -10.257711      -279.1265
  66   2.0000      -8.072362      -219.6601
  67   2.0000      -8.065651      -219.4775
  68   2.0000      -8.032525      -218.5761
  69   2.0000      -8.028765      -218.4738
  70   2.0000      -6.041511      -164.3979
  71   2.0000      -6.037710      -164.2944
  72   2.0000      -6.034821      -164.2158
  73   2.0000      -6.034294      -164.2015
  74   2.0000      -6.031061      -164.1135
  75   2.0000      -6.027679      -164.0215
  76   2.0000      -6.003049      -163.3513
  77   2.0000      -5.999329      -163.2500
  78   2.0000      -5.998855      -163.2371
  79   2.0000      -5.995340      -163.1415
  80   2.0000      -5.992201      -163.0561
  81   2.0000      -5.988244      -162.9484
  82   2.0000      -1.317155       -35.8416
  83   2.0000      -1.292495       -35.1706
  84   2.0000      -1.141682       -31.0667
  85   2.0000      -1.134803       -30.8796
  86   2.0000      -1.131067       -30.7779
  87   2.0000      -1.125400       -30.6237
  88   2.0000      -1.116228       -30.3741
  89   2.0000      -1.108780       -30.1714
  90   2.0000      -1.047656       -28.5082
  91   2.0000      -1.039273       -28.2801
  92   2.0000      -1.027526       -27.9604
  93   2.0000      -1.018876       -27.7250
  94   2.0000      -1.017079       -27.6761
  95   2.0000      -1.004475       -27.3332
  96   2.0000      -1.002317       -27.2744
  97   2.0000      -0.985157       -26.8075
  98   2.0000      -0.981369       -26.7044
  99   2.0000      -0.971562       -26.4376
 100   2.0000      -0.947759       -25.7898
 101   2.0000      -0.938328       -25.5332
 102   2.0000      -0.936595       -25.4861
 103   2.0000      -0.928125       -25.2556
 104   2.0000      -0.924864       -25.1668
 105   2.0000      -0.908487       -24.7212
 106   2.0000      -0.903849       -24.5950
 107   2.0000      -0.897058       -24.4102
 108   2.0000      -0.878978       -23.9182
 109   2.0000      -0.872095       -23.7309
 110   2.0000      -0.865996       -23.5649
 111   2.0000      -0.861272       -23.4364
 112   2.0000      -0.859036       -23.3756
 113   2.0000      -0.845822       -23.0160
 114   2.0000      -0.831063       -22.6144
 115   2.0000      -0.824143       -22.4261
 116   2.0000      -0.818237       -22.2654
 117   2.0000      -0.811847       -22.0915
 118   2.0000      -0.801046       -21.7976
 119   2.0000      -0.795110       -21.6360
 120   2.0000      -0.784900       -21.3582
 121   2.0000      -0.776294       -21.1240
 122   2.0000      -0.754326       -20.5263
 123   2.0000      -0.751585       -20.4517
 124   2.0000      -0.738880       -20.1059
 125   2.0000      -0.730885       -19.8884
 126   2.0000      -0.729103       -19.8399
 127   2.0000      -0.722289       -19.6545
 128   2.0000      -0.720443       -19.6042
 129   2.0000      -0.719132       -19.5686
 130   2.0000      -0.712411       -19.3857
 131   2.0000      -0.707826       -19.2609
 132   2.0000      -0.705008       -19.1842
 133   2.0000      -0.694680       -18.9032
 134   2.0000      -0.687727       -18.7140
 135   2.0000      -0.683562       -18.6007
 136   2.0000      -0.677204       -18.4277
 137   2.0000      -0.670051       -18.2330
 138   2.0000      -0.665910       -18.1203
 139   2.0000      -0.659486       -17.9455
 140   2.0000      -0.654133       -17.7999
 141   2.0000      -0.650819       -17.7097
 142   2.0000      -0.646260       -17.5856
 143   2.0000      -0.640652       -17.4330
 144   2.0000      -0.636256       -17.3134
 145   2.0000      -0.630087       -17.1455
 146   2.0000      -0.628952       -17.1146
 147   2.0000      -0.625626       -17.0242
 148   2.0000      -0.617017       -16.7899
 149   2.0000      -0.615212       -16.7408
 150   2.0000      -0.612751       -16.6738
 151   2.0000      -0.609349       -16.5812
 152   2.0000      -0.605837       -16.4857
 153   2.0000      -0.601239       -16.3606
 154   2.0000      -0.593095       -16.1389
 155   2.0000      -0.589200       -16.0329
 156   2.0000      -0.579579       -15.7711
 157   2.0000      -0.579167       -15.7599
 158   2.0000      -0.574899       -15.6438
 159   2.0000      -0.571248       -15.5444
 160   2.0000      -0.565839       -15.3973
 161   2.0000      -0.563048       -15.3213
 162   2.0000      -0.561800       -15.2874
 163   2.0000      -0.556088       -15.1319
 164   2.0000      -0.553625       -15.0649
 165   2.0000      -0.550259       -14.9733
 166   2.0000      -0.549050       -14.9404
 167   2.0000      -0.545045       -14.8314
 168   2.0000      -0.543966       -14.8021
 169   2.0000      -0.539325       -14.6758
 170   2.0000      -0.537605       -14.6290
 171   2.0000      -0.535142       -14.5620
 172   2.0000      -0.532938       -14.5020
 173   2.0000      -0.530991       -14.4490
 174   2.0000      -0.527751       -14.3608
 175   2.0000      -0.527101       -14.3432
 176   2.0000      -0.523800       -14.2533
 177   2.0000      -0.517619       -14.0851
 178   2.0000      -0.515125       -14.0173
 179   2.0000      -0.514408       -13.9978
 180   2.0000      -0.513834       -13.9821
 181   2.0000      -0.511680       -13.9235
 182   2.0000      -0.503136       -13.6910
 183   2.0000      -0.497831       -13.5467
 184   2.0000      -0.496219       -13.5028
 185   2.0000      -0.490832       -13.3562
 186   2.0000      -0.487466       -13.2646
 187   2.0000      -0.484601       -13.1867
 188   2.0000      -0.480290       -13.0694
 189   2.0000      -0.477122       -12.9831
 190   2.0000      -0.474839       -12.9210
 191   2.0000      -0.471356       -12.8263
 192   2.0000      -0.469020       -12.7627
 193   2.0000      -0.466140       -12.6843
 194   2.0000      -0.464653       -12.6438
 195   2.0000      -0.463359       -12.6086
 196   2.0000      -0.460065       -12.5190
 197   2.0000      -0.450797       -12.2668
 198   2.0000      -0.448507       -12.2045
 199   2.0000      -0.448202       -12.1962
 200   2.0000      -0.444857       -12.1052
 201   2.0000      -0.442172       -12.0321
 202   2.0000      -0.441244       -12.0069
 203   2.0000      -0.438975       -11.9451
 204   2.0000      -0.434177       -11.8145
 205   2.0000      -0.431558       -11.7433
 206   2.0000      -0.429908       -11.6984
 207   2.0000      -0.424467       -11.5503
 208   2.0000      -0.419613       -11.4182
 209   2.0000      -0.417143       -11.3510
 210   2.0000      -0.413731       -11.2582
 211   2.0000      -0.409827       -11.1520
 212   2.0000      -0.404029       -10.9942
 213   2.0000      -0.402986       -10.9658
 214   2.0000      -0.401109       -10.9147
 215   2.0000      -0.399697       -10.8763
 216   2.0000      -0.396809       -10.7977
 217   2.0000      -0.394312       -10.7298
 218   2.0000      -0.385006       -10.4765
 219   2.0000      -0.383325       -10.4308
 220   2.0000      -0.379763       -10.3339
 221   2.0000      -0.375303       -10.2125
 222   2.0000      -0.374386       -10.1876
 223   2.0000      -0.372040       -10.1237
 224   2.0000      -0.365729        -9.9520
 225   2.0000      -0.365390        -9.9428
 226   2.0000      -0.357323        -9.7232
 227   2.0000      -0.354568        -9.6483
 228   2.0000      -0.354132        -9.6364
 229   2.0000      -0.353332        -9.6146
 230   2.0000      -0.343108        -9.3364
 231   2.0000      -0.340562        -9.2672
 232   2.0000      -0.333845        -9.0844
 233   2.0000      -0.325927        -8.8689
 234   2.0000      -0.320362        -8.7175
 235   2.0000      -0.319468        -8.6932
 236   2.0000      -0.315503        -8.5853
 237   2.0000      -0.313907        -8.5419
 238   2.0000      -0.308290        -8.3890
 239   2.0000      -0.304845        -8.2953
 240   2.0000      -0.302806        -8.2398
 241   2.0000      -0.300338        -8.1726
 242   2.0000      -0.296412        -8.0658
 243   2.0000      -0.271739        -7.3944
 244   2.0000      -0.260962        -7.1011
 245   2.0000      -0.237272        -6.4565
 246   0.0000      -0.135533        -3.6880
 247   0.0000      -0.080458        -2.1894
 248   0.0000      -0.054941        -1.4950
 249   0.0000      -0.035509        -0.9662
 250   0.0000      -0.019737        -0.5371

MULLIKEN ATOMIC CHARGES
-----------------------
   0 C :    0.114893
   1 N :   -0.061565
   2 C :   -0.047004
   3 N :    0.032895
   4 C :   -0.051572
   5 N :   -0.009298
   6 C :   -0.111565
   7 N :   -0.059462
   8 C :   -0.118403
   9 N :    0.068984
  10 C :   -0.130068
  11 N :   -0.071346
  12 C :    0.138124
  13 C :    0.033292
  14 N :    0.307729
  15 O :   -0.241619
  16 O :   -0.301060
  17 C :   -0.011993
  18 C :   -0.003604
  19 C :   -0.065964
  20 C :    0.098648
  21 C :    0.052010
  22 C :    0.028078
  23 C :    0.064103
  24 N :    0.287343
  25 O :   -0.282329
  26 O :   -0.264138
  27 C :    0.024821
  28 C :   -0.047628
  29 C :    0.077778
  30 C :   -0.109127
  31 S :    0.143563
  32 C :   -0.062250
  33 C :   -0.034425
  34 C :   -0.021764
  35 S :   -0.004408
  36 C :   -0.096230
  37 C :    0.003424
  38 S :   -0.037976
  39 C :   -0.108077
  40 C :    0.012437
  41 C :   -0.010676
  42 C :    0.010936
  43 C :   -0.094115
  44 S :    0.094594
  45 C :   -0.097862
  46 C :   -0.114218
  47 C :   -0.003907
  48 C :    0.021109
  49 C :   -0.055466
  50 C :   -0.011149
  51 C :    0.060657
  52 C :    0.049699
  53 C :    0.167812
  54 C :    0.019512
  55 N :   -0.048876
  56 C :   -0.041123
  57 N :    0.013786
  58 C :   -0.041943
  59 N :   -0.063555
  60 C :    0.114718
  61 N :   -0.070192
  62 C :   -0.125794
  63 N :    0.064715
  64 C :   -0.109659
  65 N :   -0.056835
  66 H :    0.017712
  67 H :    0.137442
  68 H :    0.150026
  69 H :   -0.011251
  70 H :   -0.007299
  71 H :   -0.016240
  72 H :    0.007157
  73 H :    0.038975
  74 H :    0.034696
  75 H :    0.061549
  76 H :    0.053145
  77 H :    0.025628
  78 H :    0.027403
  79 H :    0.054005
  80 H :    0.064181
  81 H :    0.051516
  82 H :    0.026864
  83 H :    0.034832
  84 H :    0.025072
  85 H :    0.001880
  86 H :    0.008197
  87 H :    0.006871
  88 H :    0.004100
  89 H :    0.009599
  90 H :    0.035747
  91 H :    0.003622
  92 H :   -0.001457
  93 H :    0.004589
  94 H :    0.000852
  95 H :    0.034111
  96 H :    0.015957
  97 H :    0.135734
  98 H :    0.137232
  99 H :    0.020135
Sum of atomic charges:   -0.0000000

LOEWDIN ATOMIC CHARGES
----------------------
   0 C :    0.056197
   1 N :    0.054869
   2 C :   -0.009019
   3 N :   -0.091353
   4 C :   -0.005370
   5 N :    0.070982
   6 C :    0.034898
   7 N :   -0.108552
   8 C :   -0.046655
   9 N :   -0.033958
  10 C :   -0.043852
  11 N :   -0.110919
  12 C :   -0.032748
  13 C :   -0.055876
  14 N :    0.300804
  15 O :   -0.204560
  16 O :   -0.230812
  17 C :   -0.037424
  18 C :   -0.037042
  19 C :   -0.003017
  20 C :    0.083350
  21 C :   -0.038818
  22 C :    0.060253
  23 C :   -0.093299
  24 N :    0.289664
  25 O :   -0.247281
  26 O :   -0.228564
  27 C :    0.031615
  28 C :   -0.012205
  29 C :    0.024467
  30 C :   -0.186080
  31 S :    0.460106
  32 C :   -0.144431
  33 C :   -0.215174
  34 C :   -0.178144
  35 S :    0.338657
  36 C :   -0.117510
  37 C :   -0.072175
  38 S :    0.276314
  39 C :   -0.121977
  40 C :   -0.069500
  41 C :   -0.064581
  42 C :   -0.009610
  43 C :   -0.165351
  44 S :    0.418841
  45 C :   -0.188357
  46 C :   -0.022511
  47 C :   -0.031700
  48 C :   -0.027984
  49 C :   -0.017317
  50 C :   -0.054315
  51 C :   -0.016732
  52 C :   -0.029898
  53 C :   -0.024837
  54 C :    0.027924
  55 N :    0.054701
  56 C :   -0.003787
  57 N :   -0.096196
  58 C :   -0.010564
  59 N :    0.054439
  60 C :    0.054936
  61 N :   -0.108955
  62 C :   -0.043898
  63 N :   -0.028392
  64 C :   -0.041952
  65 N :   -0.108251
  66 H :    0.021759
  67 H :    0.096673
  68 H :    0.072676
  69 H :    0.030628
  70 H :    0.028494
  71 H :    0.028933
  72 H :    0.040785
  73 H :    0.021983
  74 H :    0.041364
  75 H :    0.011854
  76 H :    0.026016
  77 H :    0.027407
  78 H :    0.032392
  79 H :    0.033647
  80 H :    0.007992
  81 H :    0.021686
  82 H :    0.026487
  83 H :    0.035511
  84 H :    0.025480
  85 H :    0.019956
  86 H :    0.033116
  87 H :    0.036313
  88 H :    0.025997
  89 H :    0.020385
  90 H :    0.024667
  91 H :    0.027322
  92 H :    0.023243
  93 H :    0.027834
  94 H :    0.021225
  95 H :    0.039278
  96 H :    0.039851
  97 H :    0.088766
  98 H :    0.096585
  99 H :    0.022180

  Mayer bond orders larger than 0.100000
B(  0-C ,  1-N ) :   1.1604 B(  0-C , 11-N ) :   1.7200 B(  0-C , 66-H ) :   0.9816
B(  1-N ,  2-C ) :   1.2001 B(  1-N , 67-H ) :   0.9300 B(  2-C ,  3-N ) :   1.5363
B(  2-C , 10-C ) :   1.1469 B(  3-N ,  4-C ) :   1.5404 B(  4-C ,  5-N ) :   1.2158
B(  4-C ,  8-C ) :   1.1017 B(  5-N ,  6-C ) :   1.2567 B(  5-N , 68-H ) :   0.8599
B(  6-C ,  7-N ) :   1.6641 B(  6-C , 12-C ) :   0.9887 B(  7-N ,  8-C ) :   1.3831
B(  8-C ,  9-N ) :   1.5245 B(  9-N , 10-C ) :   1.5289 B( 10-C , 11-N ) :   1.3642
B( 12-C , 13-C ) :   1.4016 B( 12-C , 19-C ) :   1.1839 B( 13-C , 14-N ) :   0.9927
B( 13-C , 17-C ) :   1.1816 B( 14-N , 15-O ) :   1.5170 B( 14-N , 16-O ) :   1.4028
B( 15-O , 16-O ) :   0.2330 B( 16-O , 68-H ) :   0.1149 B( 17-C , 18-C ) :   1.5331
B( 17-C , 69-H ) :   1.0137 B( 18-C , 19-C ) :   1.1564 B( 18-C , 70-H ) :   0.9948
B( 19-C , 20-C ) :   1.3214 B( 20-C , 21-C ) :   1.2958 B( 20-C , 27-C ) :   0.9732
B( 21-C , 22-C ) :   1.4215 B( 21-C , 71-H ) :   1.0072 B( 22-C , 23-C ) :   1.1951
B( 22-C , 72-H ) :   1.0088 B( 23-C , 24-N ) :   0.9875 B( 23-C , 27-C ) :   1.3467
B( 24-N , 25-O ) :   1.4530 B( 24-N , 26-O ) :   1.5197 B( 25-O , 26-O ) :   0.2358
B( 27-C , 28-C ) :   1.3732 B( 28-C , 29-C ) :   1.3937 B( 28-C , 73-H ) :   0.9394
B( 29-C , 30-C ) :   1.2882 B( 29-C , 74-H ) :   0.9266 B( 30-C , 31-S ) :   1.0909
B( 30-C , 34-C ) :   1.3842 B( 31-S , 32-C ) :   1.1447 B( 32-C , 33-C ) :   1.4350
B( 32-C , 41-C ) :   1.2069 B( 33-C , 34-C ) :   1.3363 B( 33-C , 38-S ) :   1.0388
B( 34-C , 35-S ) :   1.0849 B( 35-S , 36-C ) :   0.9744 B( 36-C , 37-C ) :   1.0781
B( 36-C , 75-H ) :   0.9459 B( 36-C , 76-H ) :   0.9554 B( 37-C , 77-H ) :   0.9688
B( 37-C , 78-H ) :   0.9644 B( 37-C , 79-H ) :   0.9679 B( 38-S , 39-C ) :   0.9758
B( 39-C , 40-C ) :   1.0843 B( 39-C , 80-H ) :   0.9389 B( 39-C , 81-H ) :   0.9520
B( 40-C , 82-H ) :   0.9738 B( 40-C , 83-H ) :   0.9672 B( 40-C , 84-H ) :   0.9698
B( 41-C , 42-C ) :   1.5751 B( 41-C , 85-H ) :   0.9611 B( 42-C , 43-C ) :   1.2070
B( 42-C , 86-H ) :   0.9529 B( 43-C , 44-S ) :   1.0958 B( 43-C , 45-C ) :   0.1122
B( 43-C , 47-C ) :   1.4562 B( 44-S , 45-C ) :   1.1055 B( 45-C , 46-C ) :   1.5377
B( 45-C , 54-C ) :   1.0470 B( 46-C , 47-C ) :   1.3243 B( 46-C , 53-C ) :   1.0704
B( 47-C , 48-C ) :   0.9599 B( 48-C , 49-C ) :   1.0067 B( 48-C , 51-C ) :   1.0672
B( 48-C , 87-H ) :   0.8891 B( 49-C , 50-C ) :   1.9845 B( 49-C , 88-H ) :   0.9671
B( 50-C , 89-H ) :   0.9560 B( 50-C , 90-H ) :   0.9404 B( 51-C , 52-C ) :   1.0637
B( 51-C , 91-H ) :   0.9319 B( 51-C , 92-H ) :   0.9358 B( 52-C , 53-C ) :   1.0724
B( 52-C , 93-H ) :   0.9308 B( 52-C , 94-H ) :   0.9429 B( 53-C , 95-H ) :   0.8947
B( 53-C , 96-H ) :   0.8985 B( 54-C , 55-N ) :   1.2053 B( 54-C , 65-N ) :   1.6703
B( 55-N , 56-C ) :   1.1907 B( 55-N , 97-H ) :   0.9105 B( 56-C , 57-N ) :   1.5473
B( 56-C , 64-C ) :   1.1289 B( 57-N , 58-C ) :   1.5212 B( 58-C , 59-N ) :   1.2039
B( 58-C , 62-C ) :   1.1572 B( 59-N , 60-C ) :   1.1584 B( 59-N , 98-H ) :   0.9305
B( 60-C , 61-N ) :   1.7218 B( 60-C , 99-H ) :   0.9809 B( 61-N , 62-C ) :   1.3646
B( 62-C , 63-N ) :   1.5151 B( 63-N , 64-C ) :   1.5302 B( 64-C , 65-N ) :   1.3551

-----------------------------------------------------------------------------
         ABSORPTION SPECTRUM VIA TRANSITION ELECTRIC DIPOLE MOMENTS
-----------------------------------------------------------------------------
State   Energy  Wavelength   fosc         T2         TX        TY        TZ
        (cm-1)    (nm)                  (au**2)     (au)      (au)      (au)
-----------------------------------------------------------------------------
   0    5230.6   1911.8   0.186660647  11.74831   3.24074   0.22432   1.09344
   1   10989.3    910.0   0.041116643   1.23175   0.39466   1.00943  -0.23882
   2   14955.8    668.6   0.614856835  13.53441   3.56477   0.37870  -0.82668
   3   18091.6    552.7   0.048249503   0.87799   0.35787  -0.19708  -0.84325
   4   19191.2    521.1   0.612074383  10.49971   2.63612   0.87778  -1.66736
   5   19377.2    516.1   0.007886449   0.13399   0.01827  -0.32473   0.16794
   6   20261.2    493.6   0.032730791   0.53182   0.64063  -0.20263   0.28348
   7   20921.6    478.0   0.001821083   0.02866   0.16535   0.00836  -0.03528
   8   22791.0    438.8   0.230241887   3.32580   0.16143  -1.00266   1.51473
   9   23344.5    428.4   0.093037973   1.31205  -0.79998   0.14320   0.80720
  10   24179.0    413.6   0.911827299  12.41511   3.27812  -0.43079  -1.21797
  11   24420.5    409.5   0.034291280   0.46228   0.03069  -0.67921   0.00299
  12   25100.5    398.4   0.006529368   0.08564   0.21387  -0.14226  -0.14021
  13   25353.8    394.4   0.014922451   0.19376   0.00640  -0.14793   0.41454
  14   26153.1    382.4   0.007716236   0.09713   0.09113  -0.03985   0.29536
  15   27034.0    369.9   0.054789296   0.66721  -0.42651   0.08094   0.69192
  16   28121.0    355.6   0.008120108   0.09506  -0.20630   0.19213   0.12486
  17   28826.1    346.9   0.070782157   0.80838   0.64384   0.32371  -0.53765
  18   28939.5    345.5   0.038384160   0.43665   0.01906   0.11798  -0.64990
  19   29149.2    343.1   0.000071736   0.00081   0.01729   0.02261  -0.00032
  20   29278.8    341.5   0.001129197   0.01270   0.08818   0.05517  -0.04331
  21   29483.2    339.2   0.006610896   0.07382   0.16385   0.10392  -0.19018
  22   29703.7    336.7   0.015519900   0.17201   0.29894   0.18572  -0.21944
  23   30300.1    330.0   0.139234075   1.51278   1.10878  -0.17937   0.50122
  24   30398.6    329.0   0.169709770   1.83793   0.98794  -0.42023  -0.82783
  25   30591.5    326.9   0.007405730   0.07970  -0.03643  -0.04228   0.27674
  26   30743.2    325.3   0.075388998   0.80730  -0.28265  -0.34083   0.78182
  27   31534.2    317.1   0.096589053   1.00837   0.96394  -0.28019   0.02606
  28   31548.3    317.0   0.057547435   0.60052   0.58462   0.03683  -0.50733
  29   32194.6    310.6   0.098652750   1.00879  -0.40314  -0.02300  -0.91964
  30   32312.3    309.5   0.214846744   2.18895  -1.22716  -0.17554   0.80759
  31   33627.2    297.4   0.202374125   1.98125  -1.25889   0.59948  -0.19257
  32   33790.7    295.9   0.005656312   0.05511  -0.21012   0.06628   0.08101
  33   34014.3    294.0   0.120148301   1.16287   0.98777  -0.42165  -0.09696
  34   34375.3    290.9   0.011876591   0.11374  -0.19924   0.06329   0.26465
  35   34477.7    290.0   0.011568976   0.11047   0.22691  -0.03058  -0.24092
  36   34852.1    286.9   0.018910628   0.17863  -0.24795  -0.11613  -0.32197
  37   35100.1    284.9   0.067235041   0.63061  -0.02160  -0.19828   0.76865
  38   35425.9    282.3   0.016906676   0.15711  -0.02343   0.02665  -0.39478
  39   35469.6    281.9   0.073564222   0.68279  -0.01789  -0.12870   0.81603
  40   35745.3    279.8   0.061689837   0.56816  -0.29824  -0.01263  -0.69214
  41   35780.0    279.5   0.031270338   0.28772  -0.13497  -0.10821  -0.50773
  42   35896.3    278.6   0.028213547   0.25875   0.04678  -0.32199   0.39101
  43   36289.9    275.6   0.331027069   3.00298  -1.08870   0.16931  -1.33755
  44   37392.6    267.4   0.042256693   0.37204  -0.48283   0.32327   0.18550
  45   37576.3    266.1   0.005724195   0.05015  -0.18789  -0.11913  -0.02560
  46   37681.8    265.4   0.018110795   0.15823   0.09065   0.18473  -0.34042
  47   37724.9    265.1   0.046977755   0.40996  -0.58076   0.16207  -0.21541
  48   37951.2    263.5   0.016014953   0.13892   0.32649   0.16330  -0.07524
  49   37965.3    263.4   0.042418278   0.36783  -0.32209   0.37311  -0.35337
  50   38263.1    261.3   0.075926681   0.65327   0.04472  -0.51607   0.62043
  51   38624.3    258.9   0.005303532   0.04520   0.14209   0.15385   0.03665
  52   38867.0    257.3   0.187545985   1.58855  -1.05331   0.65210  -0.23207
  53   38927.3    256.9   0.024077364   0.20362   0.05535  -0.09236   0.43821
  54   39440.0    253.5   0.102345128   0.85429  -0.17947  -0.28052   0.86220
  55   39821.3    251.1   0.015044093   0.12437   0.28558  -0.00963  -0.20670
  56   40070.4    249.6   0.034863925   0.28644  -0.45291   0.23792  -0.15717

FINAL SINGLE POINT ENERGY     -4353.202974569791

DIPOLE MOMENT
-------------
                                X             Y             Z
Electronic contribution:    -21.43386      -1.06535     -15.23402
Nuclear contribution   :     24.11848       1.32223      15.90891
                        -----------------------------------------
Total Dipole Moment    :      2.68462       0.25688       0.67489
                        -----------------------------------------
Magnitude (a.u.)       :      2.78004
Magnitude (Debye)      :      7.06631

Rotational constants in cm-1:     0.001558     0.000402     0.000335
Rotational constants in MHz :    46.694449    12.062972    10.041855

                             ****ORCA TERMINATED NORMALLY****
TOTAL RUN TIME: 0 days 0 hours 11 minutes 23 seconds 335 msec
