                         Program Version 4.2.0 -  RELEASE  -
|  1> # ORCA input file
|  2> # SCF done       -192.396439808552          0.000535374612
|  3> ! CAM-B3LYP def2-SVP def2/J RIJCOSX Grid4 TightSCF
|  4> %maxcore 5000
|  5> %tddft
|  6>     Mode sTDDFT
|  7>     Ethresh 5.0
|  8>     maxcore 5000
|  9> end
| 10>
| 11> %pal
| 12>   nprocs 6
| 13>   end
| 14> * xyz 0 1
| 15>    C       -0.74610         0.19496        -6.82170
| 16>    N       -0.04911         0.82669        -7.81535
| 17>    C        1.22579         0.95222        -7.36037
| 18>    N        2.27561         1.51245        -7.93633
| 19>    C        3.34354         1.46073        -7.16535
| 20>    N        4.59643         1.90219        -7.38691
| 21>    C        5.33057         1.61185        -6.26153
| 22>    N        4.61006         0.99361        -5.33887
| 23>    C        3.36632         0.87809        -5.83317
| 24>    N        2.29568         0.34312        -5.27855
| 25>    C        1.22172         0.36794        -6.04476
| 26>    N       -0.03577        -0.08260        -5.77557
| 27>    C        6.71618         1.90505        -6.10656
| 28>    C        7.70998         2.20302        -7.06270
| 29>    N        7.63091         2.49935        -8.42278
| 30>    O        6.53358         2.69302        -8.95502
| 31>    O        8.67482         2.57732        -9.04697
| 32>    C        8.98596         2.17050        -6.41748
| 33>    C        8.80811         1.83644        -5.11058
| 34>    C        7.40817         1.68660        -4.85894
| 35>    C        6.84638         1.54115        -3.58225
| 36>    C        5.69991         2.18648        -3.08512
| 37>    C        5.64838         2.03433        -1.71423
| 38>    C        6.73970         1.24426        -1.29522
| 39>    N        6.97338         0.90288         0.03944
| 40>    O        6.17798         1.30254         0.87427
| 41>    O        7.96778         0.23930         0.31990
| 42>    C        7.49304         0.86975        -2.43827
| 43>    C        8.50363        -0.07743        -2.45049
| 44>    C        9.04538        -0.70494        -3.56241
| 45>    C       10.13173        -1.56384        -3.52489
| 46>    S       10.64021        -2.34136        -5.01184
| 47>    C       11.97805        -3.17565        -4.25780
| 48>    C       12.00570        -2.84738        -2.89503
| 49>    C       10.99650        -1.95275        -2.46925
| 50>    C       11.09971        -1.66517        -1.09104
| 51>    C       12.14256        -2.32861        -0.50728
| 52>    C       12.57347        -2.30483         0.89745
| 53>    O       13.50211        -2.94815         1.32028
| 54>    O       11.81145        -1.49210         1.63032
| 55>    C       12.13463        -1.40861         3.01158
| 56>    S       13.04874        -3.32484        -1.60524
| 57>    C       12.80839        -4.00186        -5.02079
| 58>    C       13.89188        -4.68524        -4.52865
| 59>    C       14.73336        -5.51688        -5.28366
| 60>    C       15.83841        -6.20167        -4.78426
| 61>    C       16.44226        -6.94350        -5.82127
| 62>    C       15.63801        -6.68118        -7.03116
| 63>    C       14.62977        -5.83209        -6.69937
| 64>    C       15.85533        -7.20087        -8.31166
| 65>    N       16.00753        -7.61031        -9.37472
| 66>    C       17.55691        -7.76207        -5.74243
| 67>    C       18.14189        -8.52900        -6.78078
| 68>    C       19.23253        -9.21875        -6.28168
| 69>    C       19.36027        -8.88023        -4.87363
| 70>    C       18.36798        -8.01369        -4.53751
| 71>    C       18.17500        -7.46483        -3.26573
| 72>    N       18.04422        -7.03013        -2.21021
| 73>    C       20.10652       -10.11437        -6.94789
| 74>    C       20.02029       -10.46303        -8.25616
| 75>    C       20.93233       -11.38275        -8.84178
| 76>    N       20.85567       -11.75498       -10.17393
| 77>    C       21.85683       -12.63844       -10.39141
| 78>    N       22.19014       -13.27503       -11.50104
| 79>    C       23.23782       -14.06051       -11.29498
| 80>    N       23.88657       -14.87731       -12.16589
| 81>    C       24.89731       -15.46624       -11.45250
| 82>    N       24.95113       -15.10051       -10.21349
| 83>    C       23.92972       -14.21090       -10.04227
| 84>    N       23.57786       -13.56325        -8.94689
| 85>    C       22.53377       -12.77094        -9.12008
| 86>    N       21.92229       -11.97866        -8.21334
| 87>    H       -1.78813        -0.04082        -6.91507
| 88>    H       -0.39191         1.13621        -8.71007
| 89>    H        5.00668         2.32679        -8.22260
| 90>    H        9.90774         2.39526        -6.91826
| 91>    H        9.56803         1.79275        -4.35455
| 92>    H        5.02785         2.78207        -3.66898
| 93>    H        4.91610         2.44996        -1.04743
| 94>    H        8.84297        -0.39612        -1.47620
| 95>    H        8.58787        -0.54643        -4.52949
| 96>    H       10.46257        -1.01539        -0.52043
| 97>    H       11.37944        -0.76644         3.45633
| 98>    H       13.13109        -0.98136         3.14193
| 99>    H       12.11517        -2.40117         3.46587
|100>    H       12.55675        -4.08480        -6.06874
|101>    H       14.13854        -4.59023        -3.47981
|102>    H       16.17620        -6.17188        -3.76701
|103>    H       13.88007        -5.45711        -7.37060
|104>    H       17.77785        -8.56096        -7.78795
|105>    H       20.12302        -9.26412        -4.22190
|106>    H       20.90322       -10.56049        -6.36802
|107>    H       19.25158       -10.05601        -8.89714
|108>    H       20.18442       -11.43390       -10.85241
|109>    H       23.65847       -15.01323       -13.13696
|110>    H       25.57553       -16.16730       -11.89862
|111> *
|112>
|113>                          ****END OF INPUT****

CARTESIAN COORDINATES (ANGSTROEM)
---------------------------------
  C     -0.746100    0.194960   -6.821700
  N     -0.049110    0.826690   -7.815350
  C      1.225790    0.952220   -7.360370
  N      2.275610    1.512450   -7.936330
  C      3.343540    1.460730   -7.165350
  N      4.596430    1.902190   -7.386910
  C      5.330570    1.611850   -6.261530
  N      4.610060    0.993610   -5.338870
  C      3.366320    0.878090   -5.833170
  N      2.295680    0.343120   -5.278550
  C      1.221720    0.367940   -6.044760
  N     -0.035770   -0.082600   -5.775570
  C      6.716180    1.905050   -6.106560
  C      7.709980    2.203020   -7.062700
  N      7.630910    2.499350   -8.422780
  O      6.533580    2.693020   -8.955020
  O      8.674820    2.577320   -9.046970
  C      8.985960    2.170500   -6.417480
  C      8.808110    1.836440   -5.110580
  C      7.408170    1.686600   -4.858940
  C      6.846380    1.541150   -3.582250
  C      5.699910    2.186480   -3.085120
  C      5.648380    2.034330   -1.714230
  C      6.739700    1.244260   -1.295220
  N      6.973380    0.902880    0.039440
  O      6.177980    1.302540    0.874270
  O      7.967780    0.239300    0.319900
  C      7.493040    0.869750   -2.438270
  C      8.503630   -0.077430   -2.450490
  C      9.045380   -0.704940   -3.562410
  C     10.131730   -1.563840   -3.524890
  S     10.640210   -2.341360   -5.011840
  C     11.978050   -3.175650   -4.257800
  C     12.005700   -2.847380   -2.895030
  C     10.996500   -1.952750   -2.469250
  C     11.099710   -1.665170   -1.091040
  C     12.142560   -2.328610   -0.507280
  C     12.573470   -2.304830    0.897450
  O     13.502110   -2.948150    1.320280
  O     11.811450   -1.492100    1.630320
  C     12.134630   -1.408610    3.011580
  S     13.048740   -3.324840   -1.605240
  C     12.808390   -4.001860   -5.020790
  C     13.891880   -4.685240   -4.528650
  C     14.733360   -5.516880   -5.283660
  C     15.838410   -6.201670   -4.784260
  C     16.442260   -6.943500   -5.821270
  C     15.638010   -6.681180   -7.031160
  C     14.629770   -5.832090   -6.699370
  C     15.855330   -7.200870   -8.311660
  N     16.007530   -7.610310   -9.374720
  C     17.556910   -7.762070   -5.742430
  C     18.141890   -8.529000   -6.780780
  C     19.232530   -9.218750   -6.281680
  C     19.360270   -8.880230   -4.873630
  C     18.367980   -8.013690   -4.537510
  C     18.175000   -7.464830   -3.265730
  N     18.044220   -7.030130   -2.210210
  C     20.106520  -10.114370   -6.947890
  C     20.020290  -10.463030   -8.256160
  C     20.932330  -11.382750   -8.841780
  N     20.855670  -11.754980  -10.173930
  C     21.856830  -12.638440  -10.391410
  N     22.190140  -13.275030  -11.501040
  C     23.237820  -14.060510  -11.294980
  N     23.886570  -14.877310  -12.165890
  C     24.897310  -15.466240  -11.452500
  N     24.951130  -15.100510  -10.213490
  C     23.929720  -14.210900  -10.042270
  N     23.577860  -13.563250   -8.946890
  C     22.533770  -12.770940   -9.120080
  N     21.922290  -11.978660   -8.213340
  H     -1.788130   -0.040820   -6.915070
  H     -0.391910    1.136210   -8.710070
  H      5.006680    2.326790   -8.222600
  H      9.907740    2.395260   -6.918260
  H      9.568030    1.792750   -4.354550
  H      5.027850    2.782070   -3.668980
  H      4.916100    2.449960   -1.047430
  H      8.842970   -0.396120   -1.476200
  H      8.587870   -0.546430   -4.529490
  H     10.462570   -1.015390   -0.520430
  H     11.379440   -0.766440    3.456330
  H     13.131090   -0.981360    3.141930
  H     12.115170   -2.401170    3.465870
  H     12.556750   -4.084800   -6.068740
  H     14.138540   -4.590230   -3.479810
  H     16.176200   -6.171880   -3.767010
  H     13.880070   -5.457110   -7.370600
  H     17.777850   -8.560960   -7.787950
  H     20.123020   -9.264120   -4.221900
  H     20.903220  -10.560490   -6.368020
  H     19.251580  -10.056010   -8.897140
  H     20.184420  -11.433900  -10.852410
  H     23.658470  -15.013230  -13.136960
  H     25.575530  -16.167300  -11.898620

 Total Charge           Charge          ....    0
 Multiplicity           Mult            ....    1
 Number of Electrons    NEL             ....  504
 Basis Dimension        Dim             .... 1136

ORBITAL ENERGIES
----------------

  NO   OCC          E(Eh)            E(eV)
   0   2.0000     -88.994311     -2421.6583
   1   2.0000     -88.985299     -2421.4131
   2   2.0000     -19.271260      -524.3976
   3   2.0000     -19.244504      -523.6696
   4   2.0000     -19.244413      -523.6671
   5   2.0000     -19.222192      -523.0624
   6   2.0000     -19.222064      -523.0590
   7   2.0000     -19.216676      -522.9123
   8   2.0000     -14.653461      -398.7410
   9   2.0000     -14.632652      -398.1747
  10   2.0000     -14.480915      -394.0457
  11   2.0000     -14.478708      -393.9857
  12   2.0000     -14.474265      -393.8648
  13   2.0000     -14.458778      -393.4434
  14   2.0000     -14.432459      -392.7272
  15   2.0000     -14.423320      -392.4785
  16   2.0000     -14.419296      -392.3690
  17   2.0000     -14.413700      -392.2167
  18   2.0000     -14.411798      -392.1650
  19   2.0000     -14.407768      -392.0553
  20   2.0000     -14.399308      -391.8251
  21   2.0000     -14.394814      -391.7028
  22   2.0000     -14.393972      -391.6799
  23   2.0000     -14.390541      -391.5865
  24   2.0000     -10.417121      -283.4643
  25   2.0000     -10.355707      -281.7931
  26   2.0000     -10.353310      -281.7279
  27   2.0000     -10.351548      -281.6799
  28   2.0000     -10.351060      -281.6667
  29   2.0000     -10.349506      -281.6244
  30   2.0000     -10.347083      -281.5584
  31   2.0000     -10.343929      -281.4726
  32   2.0000     -10.343488      -281.4606
  33   2.0000     -10.342187      -281.4252
  34   2.0000     -10.341992      -281.4199
  35   2.0000     -10.334380      -281.2128
  36   2.0000     -10.331599      -281.1371
  37   2.0000     -10.330398      -281.1044
  38   2.0000     -10.329819      -281.0887
  39   2.0000     -10.328937      -281.0647
  40   2.0000     -10.328024      -281.0398
  41   2.0000     -10.327382      -281.0224
  42   2.0000     -10.326973      -281.0112
  43   2.0000     -10.326236      -280.9912
  44   2.0000     -10.325898      -280.9820
  45   2.0000     -10.322781      -280.8971
  46   2.0000     -10.321649      -280.8663
  47   2.0000     -10.321527      -280.8630
  48   2.0000     -10.321468      -280.8614
  49   2.0000     -10.321212      -280.8545
  50   2.0000     -10.320098      -280.8241
  51   2.0000     -10.319871      -280.8180
  52   2.0000     -10.319829      -280.8168
  53   2.0000     -10.318733      -280.7870
  54   2.0000     -10.316633      -280.7299
  55   2.0000     -10.316377      -280.7229
  56   2.0000     -10.313905      -280.6556
  57   2.0000     -10.313774      -280.6521
  58   2.0000     -10.312915      -280.6287
  59   2.0000     -10.312281      -280.6114
  60   2.0000     -10.311722      -280.5962
  61   2.0000     -10.310155      -280.5536
  62   2.0000     -10.308312      -280.5034
  63   2.0000     -10.305146      -280.4173
  64   2.0000     -10.303612      -280.3755
  65   2.0000     -10.299736      -280.2701
  66   2.0000     -10.296318      -280.1770
  67   2.0000     -10.294482      -280.1271
  68   2.0000     -10.287750      -279.9439
  69   2.0000     -10.283224      -279.8208
  70   2.0000     -10.281538      -279.7749
  71   2.0000     -10.272815      -279.5375
  72   2.0000      -8.089487      -220.1261
  73   2.0000      -8.079979      -219.8674
  74   2.0000      -6.058702      -164.8657
  75   2.0000      -6.054650      -164.7554
  76   2.0000      -6.051652      -164.6738
  77   2.0000      -6.049636      -164.6190
  78   2.0000      -6.045212      -164.4986
  79   2.0000      -6.041641      -164.4014
  80   2.0000      -1.320364       -35.9289
  81   2.0000      -1.299938       -35.3731
  82   2.0000      -1.204041       -32.7636
  83   2.0000      -1.143875       -31.1264
  84   2.0000      -1.138906       -30.9912
  85   2.0000      -1.134935       -30.8832
  86   2.0000      -1.127825       -30.6897
  87   2.0000      -1.121197       -30.5093
  88   2.0000      -1.116356       -30.3776
  89   2.0000      -1.110849       -30.2277
  90   2.0000      -1.049732       -28.5646
  91   2.0000      -1.044382       -28.4191
  92   2.0000      -1.038741       -28.2656
  93   2.0000      -1.030159       -28.0321
  94   2.0000      -1.023696       -27.8562
  95   2.0000      -1.023420       -27.8487
  96   2.0000      -1.010787       -27.5049
  97   2.0000      -1.007212       -27.4076
  98   2.0000      -0.994133       -27.0517
  99   2.0000      -0.991440       -26.9785
 100   2.0000      -0.987325       -26.8665
 101   2.0000      -0.983870       -26.7725
 102   2.0000      -0.979458       -26.6524
 103   2.0000      -0.976534       -26.5728
 104   2.0000      -0.950411       -25.8620
 105   2.0000      -0.945011       -25.7151
 106   2.0000      -0.943211       -25.6661
 107   2.0000      -0.920306       -25.0428
 108   2.0000      -0.912984       -24.8436
 109   2.0000      -0.907804       -24.7026
 110   2.0000      -0.882879       -24.0244
 111   2.0000      -0.877808       -23.8864
 112   2.0000      -0.871009       -23.7014
 113   2.0000      -0.867921       -23.6173
 114   2.0000      -0.866938       -23.5906
 115   2.0000      -0.856281       -23.3006
 116   2.0000      -0.852632       -23.2013
 117   2.0000      -0.841336       -22.8939
 118   2.0000      -0.829241       -22.5648
 119   2.0000      -0.820877       -22.3372
 120   2.0000      -0.815267       -22.1845
 121   2.0000      -0.808487       -22.0000
 122   2.0000      -0.799826       -21.7644
 123   2.0000      -0.782638       -21.2967
 124   2.0000      -0.768730       -20.9182
 125   2.0000      -0.757696       -20.6180
 126   2.0000      -0.744695       -20.2642
 127   2.0000      -0.739434       -20.1210
 128   2.0000      -0.735398       -20.0112
 129   2.0000      -0.734609       -19.9897
 130   2.0000      -0.733735       -19.9660
 131   2.0000      -0.726762       -19.7762
 132   2.0000      -0.722988       -19.6735
 133   2.0000      -0.717134       -19.5142
 134   2.0000      -0.711333       -19.3564
 135   2.0000      -0.709628       -19.3100
 136   2.0000      -0.708242       -19.2723
 137   2.0000      -0.698990       -19.0205
 138   2.0000      -0.684033       -18.6135
 139   2.0000      -0.676081       -18.3971
 140   2.0000      -0.673649       -18.3309
 141   2.0000      -0.669555       -18.2195
 142   2.0000      -0.665558       -18.1107
 143   2.0000      -0.660006       -17.9597
 144   2.0000      -0.657715       -17.8973
 145   2.0000      -0.648988       -17.6599
 146   2.0000      -0.648204       -17.6385
 147   2.0000      -0.644360       -17.5339
 148   2.0000      -0.638974       -17.3874
 149   2.0000      -0.632298       -17.2057
 150   2.0000      -0.631695       -17.1893
 151   2.0000      -0.629458       -17.1284
 152   2.0000      -0.624786       -17.0013
 153   2.0000      -0.619653       -16.8616
 154   2.0000      -0.617305       -16.7977
 155   2.0000      -0.613093       -16.6831
 156   2.0000      -0.609382       -16.5821
 157   2.0000      -0.607076       -16.5194
 158   2.0000      -0.600113       -16.3299
 159   2.0000      -0.593703       -16.1555
 160   2.0000      -0.584457       -15.9039
 161   2.0000      -0.582467       -15.8497
 162   2.0000      -0.581446       -15.8220
 163   2.0000      -0.576524       -15.6880
 164   2.0000      -0.576478       -15.6868
 165   2.0000      -0.571638       -15.5551
 166   2.0000      -0.570527       -15.5248
 167   2.0000      -0.569930       -15.5086
 168   2.0000      -0.567849       -15.4520
 169   2.0000      -0.563469       -15.3328
 170   2.0000      -0.559054       -15.2126
 171   2.0000      -0.554916       -15.1000
 172   2.0000      -0.553085       -15.0502
 173   2.0000      -0.552259       -15.0277
 174   2.0000      -0.546563       -14.8727
 175   2.0000      -0.541531       -14.7358
 176   2.0000      -0.540742       -14.7143
 177   2.0000      -0.538168       -14.6443
 178   2.0000      -0.537996       -14.6396
 179   2.0000      -0.533565       -14.5191
 180   2.0000      -0.530074       -14.4240
 181   2.0000      -0.527773       -14.3614
 182   2.0000      -0.526758       -14.3338
 183   2.0000      -0.523588       -14.2476
 184   2.0000      -0.520119       -14.1532
 185   2.0000      -0.519210       -14.1284
 186   2.0000      -0.514997       -14.0138
 187   2.0000      -0.508802       -13.8452
 188   2.0000      -0.506713       -13.7884
 189   2.0000      -0.504795       -13.7362
 190   2.0000      -0.499570       -13.5940
 191   2.0000      -0.497505       -13.5378
 192   2.0000      -0.495446       -13.4818
 193   2.0000      -0.493620       -13.4321
 194   2.0000      -0.490689       -13.3523
 195   2.0000      -0.489287       -13.3142
 196   2.0000      -0.483679       -13.1616
 197   2.0000      -0.482461       -13.1284
 198   2.0000      -0.479156       -13.0385
 199   2.0000      -0.472377       -12.8540
 200   2.0000      -0.469938       -12.7877
 201   2.0000      -0.466267       -12.6878
 202   2.0000      -0.459513       -12.5040
 203   2.0000      -0.457091       -12.4381
 204   2.0000      -0.455894       -12.4055
 205   2.0000      -0.451906       -12.2970
 206   2.0000      -0.451597       -12.2886
 207   2.0000      -0.448614       -12.2074
 208   2.0000      -0.446999       -12.1635
 209   2.0000      -0.446273       -12.1437
 210   2.0000      -0.443905       -12.0793
 211   2.0000      -0.441407       -12.0113
 212   2.0000      -0.441045       -12.0014
 213   2.0000      -0.439254       -11.9527
 214   2.0000      -0.438562       -11.9339
 215   2.0000      -0.434231       -11.8160
 216   2.0000      -0.426891       -11.6163
 217   2.0000      -0.423384       -11.5209
 218   2.0000      -0.414840       -11.2884
 219   2.0000      -0.407011       -11.0753
 220   2.0000      -0.403457       -10.9786
 221   2.0000      -0.400977       -10.9111
 222   2.0000      -0.396232       -10.7820
 223   2.0000      -0.388444       -10.5701
 224   2.0000      -0.387406       -10.5419
 225   2.0000      -0.385992       -10.5034
 226   2.0000      -0.380534       -10.3548
 227   2.0000      -0.380356       -10.3500
 228   2.0000      -0.378305       -10.2942
 229   2.0000      -0.375177       -10.2091
 230   2.0000      -0.371860       -10.1188
 231   2.0000      -0.370476       -10.0812
 232   2.0000      -0.368472       -10.0266
 233   2.0000      -0.365236        -9.9386
 234   2.0000      -0.361607        -9.8398
 235   2.0000      -0.359767        -9.7898
 236   2.0000      -0.354771        -9.6538
 237   2.0000      -0.350107        -9.5269
 238   2.0000      -0.339270        -9.2320
 239   2.0000      -0.335103        -9.1186
 240   2.0000      -0.331605        -9.0234
 241   2.0000      -0.327635        -8.9154
 242   2.0000      -0.322895        -8.7864
 243   2.0000      -0.319251        -8.6873
 244   2.0000      -0.315183        -8.5766
 245   2.0000      -0.311324        -8.4716
 246   2.0000      -0.308873        -8.4049
 247   2.0000      -0.305597        -8.3157
 248   2.0000      -0.295282        -8.0350
 249   2.0000      -0.272581        -7.4173
 250   2.0000      -0.266093        -7.2408
 251   2.0000      -0.239736        -6.5236
 252   0.0000      -0.152720        -4.1557
 253   0.0000      -0.127934        -3.4813
 254   0.0000      -0.084879        -2.3097
 255   0.0000      -0.048424        -1.3177
 256   0.0000      -0.046629        -1.2688

MULLIKEN ATOMIC CHARGES
-----------------------
   0 C :    0.116734
   1 N :   -0.060917
   2 C :   -0.048825
   3 N :    0.039243
   4 C :   -0.057092
   5 N :   -0.003531
   6 C :   -0.111619
   7 N :   -0.053160
   8 C :   -0.121988
   9 N :    0.076382
  10 C :   -0.132881
  11 N :   -0.069366
  12 C :    0.123126
  13 C :    0.039963
  14 N :    0.300122
  15 O :   -0.304742
  16 O :   -0.234786
  17 C :   -0.007246
  18 C :   -0.012379
  19 C :   -0.036822
  20 C :    0.093601
  21 C :    0.055519
  22 C :    0.014686
  23 C :    0.069972
  24 N :    0.286424
  25 O :   -0.259301
  26 O :   -0.285570
  27 C :    0.048535
  28 C :   -0.067238
  29 C :    0.071714
  30 C :   -0.122922
  31 S :    0.186411
  32 C :   -0.118578
  33 C :   -0.049418
  34 C :    0.146048
  35 C :   -0.010807
  36 C :   -0.133965
  37 C :    0.212610
  38 O :   -0.193867
  39 O :   -0.289426
  40 C :    0.187420
  41 S :    0.185867
  42 C :    0.037513
  43 C :    0.003813
  44 C :    0.106899
  45 C :   -0.108664
  46 C :    0.123073
  47 C :   -0.101829
  48 C :   -0.009075
  49 C :   -0.165743
  50 N :    0.127972
  51 C :    0.124051
  52 C :   -0.122082
  53 C :    0.128452
  54 C :    0.000200
  55 C :   -0.096004
  56 C :   -0.175592
  57 N :    0.136120
  58 C :   -0.002074
  59 C :    0.029485
  60 C :    0.028941
  61 N :   -0.031376
  62 C :   -0.048235
  63 N :    0.021547
  64 C :   -0.042779
  65 N :   -0.061578
  66 C :    0.117379
  67 N :   -0.066358
  68 C :   -0.129172
  69 N :    0.068720
  70 C :   -0.117613
  71 N :   -0.039714
  72 H :    0.020244
  73 H :    0.139075
  74 H :    0.152156
  75 H :   -0.005811
  76 H :   -0.002655
  77 H :   -0.016853
  78 H :    0.008956
  79 H :    0.009875
  80 H :    0.024913
  81 H :    0.036121
  82 H :    0.048465
  83 H :    0.035625
  84 H :    0.038662
  85 H :   -0.014054
  86 H :    0.004788
  87 H :    0.008795
  88 H :    0.000058
  89 H :   -0.003235
  90 H :    0.005238
  91 H :    0.018246
  92 H :   -0.008680
  93 H :    0.135879
  94 H :    0.138808
  95 H :    0.021170
Sum of atomic charges:   -0.0000000

LOEWDIN ATOMIC CHARGES
----------------------
   0 C :    0.058673
   1 N :    0.055995
   2 C :   -0.007008
   3 N :   -0.089981
   4 C :   -0.004561
   5 N :    0.073260
   6 C :    0.033719
   7 N :   -0.105377
   8 C :   -0.047127
   9 N :   -0.033224
  10 C :   -0.042478
  11 N :   -0.110178
  12 C :   -0.026708
  13 C :   -0.053943
  14 N :    0.297930
  15 O :   -0.233472
  16 O :   -0.197206
  17 C :   -0.024951
  18 C :   -0.040753
  19 C :    0.007739
  20 C :    0.081772
  21 C :   -0.032871
  22 C :    0.050153
  23 C :   -0.080937
  24 N :    0.288672
  25 O :   -0.223653
  26 O :   -0.249511
  27 C :    0.022002
  28 C :   -0.007581
  29 C :    0.006704
  30 C :   -0.160869
  31 S :    0.477944
  32 C :   -0.157554
  33 C :   -0.185071
  34 C :   -0.052206
  35 C :   -0.015665
  36 C :   -0.183904
  37 C :    0.061329
  38 O :   -0.170453
  39 O :   -0.079726
  40 C :    0.086775
  41 S :    0.478958
  42 C :   -0.040430
  43 C :    0.005457
  44 C :   -0.020843
  45 C :   -0.013453
  46 C :    0.027713
  47 C :   -0.074551
  48 C :    0.047815
  49 C :   -0.027484
  50 N :   -0.066653
  51 C :    0.044362
  52 C :   -0.032475
  53 C :   -0.010560
  54 C :    0.058501
  55 C :   -0.081919
  56 C :   -0.031507
  57 N :   -0.060528
  58 C :    0.014962
  59 C :   -0.015558
  60 C :    0.033589
  61 N :    0.063793
  62 C :   -0.004707
  63 N :   -0.094973
  64 C :   -0.007503
  65 N :    0.055355
  66 C :    0.058852
  67 N :   -0.107831
  68 C :   -0.041299
  69 N :   -0.027511
  70 C :   -0.041346
  71 N :   -0.108185
  72 H :    0.022809
  73 H :    0.097632
  74 H :    0.072868
  75 H :    0.033436
  76 H :    0.029045
  77 H :    0.028673
  78 H :    0.041578
  79 H :    0.035589
  80 H :    0.040951
  81 H :    0.047486
  82 H :    0.032205
  83 H :    0.025597
  84 H :    0.026426
  85 H :    0.032228
  86 H :    0.027538
  87 H :    0.037498
  88 H :    0.035285
  89 H :    0.030284
  90 H :    0.040458
  91 H :    0.044199
  92 H :    0.034297
  93 H :    0.097581
  94 H :    0.097481
  95 H :    0.023117

  Mayer bond orders larger than 0.100000
B(  0-C ,  1-N ) :   1.1604 B(  0-C , 11-N ) :   1.7182 B(  0-C , 72-H ) :   0.9813
B(  1-N ,  2-C ) :   1.2045 B(  1-N , 73-H ) :   0.9295 B(  2-C ,  3-N ) :   1.5407
B(  2-C , 10-C ) :   1.1399 B(  3-N ,  4-C ) :   1.5418 B(  4-C ,  5-N ) :   1.2224
B(  4-C ,  8-C ) :   1.0959 B(  5-N ,  6-C ) :   1.2575 B(  5-N , 74-H ) :   0.8564
B(  6-C ,  7-N ) :   1.6553 B(  6-C , 12-C ) :   1.0030 B(  7-N ,  8-C ) :   1.3933
B(  8-C ,  9-N ) :   1.5242 B(  9-N , 10-C ) :   1.5345 B( 10-C , 11-N ) :   1.3683
B( 12-C , 13-C ) :   1.4225 B( 12-C , 19-C ) :   1.1546 B( 13-C , 14-N ) :   0.9837
B( 13-C , 17-C ) :   1.1790 B( 14-N , 15-O ) :   1.3983 B( 14-N , 16-O ) :   1.5561
B( 15-O , 16-O ) :   0.2398 B( 15-O , 74-H ) :   0.1180 B( 17-C , 18-C ) :   1.5311
B( 17-C , 75-H ) :   1.0106 B( 18-C , 19-C ) :   1.1551 B( 18-C , 76-H ) :   1.0013
B( 19-C , 20-C ) :   1.3465 B( 20-C , 21-C ) :   1.2726 B( 20-C , 27-C ) :   0.9862
B( 21-C , 22-C ) :   1.4433 B( 21-C , 77-H ) :   1.0045 B( 22-C , 23-C ) :   1.1889
B( 22-C , 78-H ) :   1.0093 B( 23-C , 24-N ) :   0.9884 B( 23-C , 27-C ) :   1.3441
B( 24-N , 25-O ) :   1.5246 B( 24-N , 26-O ) :   1.4567 B( 25-O , 26-O ) :   0.2374
B( 27-C , 28-C ) :   1.3745 B( 28-C , 29-C ) :   1.3607 B( 28-C , 79-H ) :   0.9469
B( 29-C , 30-C ) :   1.3169 B( 29-C , 80-H ) :   0.9407 B( 30-C , 31-S ) :   1.1038
B( 30-C , 34-C ) :   1.2412 B( 31-S , 32-C ) :   1.1477 B( 32-C , 33-C ) :   1.3746
B( 32-C , 42-C ) :   1.2066 B( 33-C , 34-C ) :   1.3099 B( 33-C , 41-S ) :   1.0846
B( 34-C , 35-C ) :   1.1638 B( 35-C , 36-C ) :   1.5899 B( 35-C , 81-H ) :   0.9958
B( 36-C , 37-C ) :   0.9405 B( 36-C , 41-S ) :   1.1018 B( 37-C , 38-O ) :   2.1445
B( 37-C , 39-O ) :   1.2602 B( 39-O , 40-C ) :   0.9108 B( 40-C , 82-H ) :   0.9809
B( 40-C , 83-H ) :   0.9776 B( 40-C , 84-H ) :   0.9750 B( 42-C , 43-C ) :   1.5462
B( 42-C , 85-H ) :   0.9582 B( 43-C , 44-C ) :   1.1901 B( 43-C , 86-H ) :   0.9630
B( 44-C , 45-C ) :   1.4578 B( 44-C , 48-C ) :   1.0457 B( 45-C , 46-C ) :   1.1522
B( 45-C , 87-H ) :   1.0077 B( 46-C , 47-C ) :   1.1058 B( 46-C , 51-C ) :   1.3637
B( 47-C , 48-C ) :   1.6831 B( 47-C , 49-C ) :   1.0905 B( 48-C , 88-H ) :   1.0134
B( 49-C , 50-N ) :   2.9635 B( 51-C , 52-C ) :   1.1554 B( 51-C , 55-C ) :   1.1049
B( 52-C , 53-C ) :   1.5187 B( 52-C , 89-H ) :   0.9948 B( 53-C , 54-C ) :   1.0354
B( 53-C , 58-C ) :   1.0771 B( 54-C , 55-C ) :   1.6636 B( 54-C , 90-H ) :   1.0263
B( 55-C , 56-C ) :   1.0888 B( 56-C , 57-N ) :   2.9642 B( 58-C , 59-C ) :   1.6706
B( 58-C , 91-H ) :   0.9870 B( 59-C , 60-C ) :   1.0933 B( 59-C , 92-H ) :   0.9541
B( 60-C , 61-N ) :   1.1554 B( 60-C , 71-N ) :   1.6623 B( 61-N , 62-C ) :   1.2051
B( 61-N , 93-H ) :   0.9178 B( 62-C , 63-N ) :   1.5433 B( 62-C , 70-C ) :   1.1220
B( 63-N , 64-C ) :   1.5312 B( 64-C , 65-N ) :   1.2065 B( 64-C , 68-C ) :   1.1453
B( 65-N , 66-C ) :   1.1575 B( 65-N , 94-H ) :   0.9299 B( 66-C , 67-N ) :   1.7209
B( 66-C , 95-H ) :   0.9812 B( 67-N , 68-C ) :   1.3676 B( 68-C , 69-N ) :   1.5281
B( 69-N , 70-C ) :   1.5182 B( 70-C , 71-N ) :   1.3844

-----------------------------------------------------------------------------
         ABSORPTION SPECTRUM VIA TRANSITION ELECTRIC DIPOLE MOMENTS
-----------------------------------------------------------------------------
State   Energy  Wavelength   fosc         T2         TX        TY        TZ
        (cm-1)    (nm)                  (au**2)     (au)      (au)      (au)
-----------------------------------------------------------------------------
   0    4136.5   2417.5   0.300239600  23.89532   3.90641  -2.92687   0.26217
   1   10336.5    967.4   0.196295746   6.25189   0.92074  -2.11862  -0.95685
   2   10847.3    921.9   0.728561469  22.11161  -3.47902   2.71087   1.63071
   3   13084.0    764.3   0.066320004   1.66870   1.04947  -0.70683  -0.26019
   4   15991.8    625.3   0.152525291   3.13992  -1.41949   1.05840  -0.06899
   5   17796.4    561.9   0.083948650   1.55295   0.36154  -1.11166  -0.43180
   6   18298.9    546.5   0.250553830   4.50766  -1.41039   1.22197   1.01255
   7   19316.2    517.7   0.017305753   0.29495   0.36672  -0.03080   0.39939
   8   19902.8    502.4   0.025214757   0.41708   0.27619  -0.44800  -0.37429
   9   20494.4    487.9   0.272688597   4.38034  -1.60778   0.96040   0.93435
  10   20592.8    485.6   0.032555432   0.52046  -0.59325  -0.06180  -0.40583
  11   21436.0    466.5   0.110859105   1.70257   0.60182  -0.97790  -0.61975
  12   22619.4    442.1   0.131483239   1.91366  -1.08163  -0.25728  -0.82313
  13   22884.5    437.0   0.172271794   2.47827  -0.31155  -0.07343   1.54137
  14   23935.5    417.8   0.000025551   0.00035   0.01012  -0.00965  -0.01249
  15   24004.9    416.6   0.239693489   3.28725  -1.02052   0.76216   1.29031
  16   24277.3    411.9   0.006507288   0.08824  -0.10056   0.05831   0.27337
  17   24913.9    401.4   0.017881266   0.23628   0.48338   0.01076  -0.05010
  18   25495.3    392.2   0.039135553   0.50534  -0.48625   0.22043  -0.46938
  19   25957.8    385.2   0.226588019   2.87372   1.47460   0.33851  -0.76465
  20   26514.5    377.2   0.069335279   0.86089  -0.86085   0.23662  -0.25264
  21   26661.5    375.1   0.083293184   1.02849   0.81267  -0.58386  -0.16482
  22   27434.4    364.5   0.010157048   0.12188  -0.13143   0.15143   0.28580
  23   27989.7    357.3   0.028788259   0.33861   0.41853  -0.11921   0.38630
  24   28386.7    352.3   0.004731269   0.05487   0.18641   0.10558  -0.09473
  25   28789.9    347.3   0.039157834   0.44777  -0.49993   0.05194  -0.44175
  26   29118.6    343.4   0.001669612   0.01888  -0.01143  -0.13374   0.02930
  27   29439.0    339.7   0.031719610   0.35472   0.44080  -0.36972  -0.15400
  28   29561.4    338.3   0.120838494   1.34573   0.74282  -0.73803  -0.49925
  29   29815.5    335.4   0.021030961   0.23222  -0.40017  -0.23871   0.12289
  30   29955.4    333.8   0.277892147   3.05406   1.01859  -0.82498  -1.15583
  31   30012.5    333.2   0.003052370   0.03348   0.12560   0.08234  -0.10453
  32   30509.9    327.8   0.373488306   4.03007   1.11774  -1.45515  -0.81442
  33   30660.4    326.2   0.352519297   3.78513   0.89419  -0.75304  -1.55515
  34   30890.6    323.7   0.294117875   3.13452  -0.04687   0.41801  -1.71976
  35   31195.9    320.6   0.113398335   1.19670   0.89318  -0.06358  -0.62839
  36   31666.9    315.8   0.093304963   0.97001  -0.80871  -0.50721   0.24235
  37   31846.2    314.0   0.099043864   1.02387  -0.25850  -0.10253   0.97290
  38   32029.6    312.2   0.000113551   0.00117  -0.01852  -0.02845   0.00383
  39   32403.6    308.6   0.116262475   1.18120   0.90471   0.09777  -0.59426
  40   32687.6    305.9   0.084146192   0.84748  -0.24650   0.37671  -0.80300
  41   33123.9    301.9   0.035706477   0.35488  -0.37169  -0.13498   0.44554
  42   33189.7    301.3   0.000418753   0.00415   0.04114   0.04960  -0.00088
  43   33254.0    300.7   0.001153285   0.01142   0.03977   0.03372  -0.09326
  44   33417.4    299.2   0.011070677   0.10906   0.12638  -0.03072  -0.30356
  45   33553.0    298.0   0.005016416   0.04922   0.06330   0.14261  -0.15771
  46   33715.3    296.6   0.021137130   0.20639  -0.35913   0.16266  -0.22574
  47   33884.9    295.1   0.017302172   0.16810   0.39518   0.09812  -0.04801
  48   34071.9    293.5   0.141197068   1.36429  -1.07755  -0.38996   0.22605
  49   34283.5    291.7   0.009098047   0.08737  -0.14983   0.05319  -0.24917
  50   34666.1    288.5   0.003579706   0.03400   0.01887  -0.14653   0.11031
  51   34716.2    288.1   0.016690459   0.15827  -0.17118   0.33313   0.13415
  52   34845.3    287.0   0.000100151   0.00095  -0.02566  -0.00938   0.01414
  53   34953.4    286.1   0.060227423   0.56726  -0.50244   0.45558   0.32750
  54   35472.1    281.9   0.041327133   0.38355  -0.35038   0.10250  -0.50028
  55   35880.8    278.7   0.007245011   0.06647  -0.21839  -0.00262   0.13701
  56   36264.6    275.8   0.020247159   0.18380   0.40135   0.14158  -0.05173
  57   36612.6    273.1   0.150149404   1.35011  -0.13159   0.13804   1.14618
  58   37626.5    265.8   0.056453904   0.49394   0.68772   0.13410   0.05475
  59   37885.1    264.0   0.007224844   0.06278   0.17242  -0.14259  -0.11278
  60   38058.6    262.8   0.008827693   0.07636   0.15372   0.01946   0.22881
  61   38220.0    261.6   0.016016123   0.13796  -0.13135   0.07448  -0.33935
  62   38264.7    261.3   0.006454446   0.05553   0.13371  -0.18496  -0.05869
  63   38336.0    260.9   0.003067004   0.02634   0.11441   0.03668   0.10911
  64   38410.4    260.3   0.033902619   0.29058   0.43518  -0.01567   0.31772
  65   38540.4    259.5   0.056396488   0.48174  -0.56018  -0.13904  -0.38549
  66   38751.3    258.1   0.039478649   0.33539   0.53145   0.04261   0.22612
  67   38799.6    257.7   0.002717082   0.02305   0.02929   0.14857   0.01112
  68   39010.1    256.3   0.062922263   0.53101   0.49127  -0.21602   0.49295
  69   39108.9    255.7   0.072526621   0.61052   0.13604  -0.41854  -0.64563
  70   39245.1    254.8   0.113362414   0.95095  -0.93165  -0.07639  -0.27774
  71   39416.7    253.7   0.000531659   0.00444  -0.04424  -0.04446   0.02250
  72   39564.7    252.8   0.025533179   0.21246  -0.18342   0.07624  -0.41594
  73   39718.1    251.8   0.005437667   0.04507  -0.19696   0.04050  -0.06809
  74   39925.0    250.5   0.029634137   0.24436   0.36316  -0.08827   0.32354
  75   40176.2    248.9   0.010406494   0.08527   0.08867   0.02257   0.27731
  76   40191.6    248.8   0.197924662   1.62121  -0.21497  -0.05055  -1.25397

FINAL SINGLE POINT ENERGY     -3962.859355163039

DIPOLE MOMENT
-------------
                                X             Y             Z
Electronic contribution:     -7.89238       1.86236     -11.83344
Nuclear contribution   :      7.90186      -2.52652       8.13503
                        -----------------------------------------
Total Dipole Moment    :      0.00948      -0.66415      -3.69841
                        -----------------------------------------
Magnitude (a.u.)       :      3.75758
Magnitude (Debye)      :      9.55101

Rotational constants in cm-1:     0.001389     0.000214     0.000193
Rotational constants in MHz :    41.655636     6.421940     5.780014

                             ****ORCA TERMINATED NORMALLY****
TOTAL RUN TIME: 0 days 0 hours 11 minutes 38 seconds 644 msec
