                         Program Version 4.2.0 -  RELEASE  -
|  1> # ORCA input file
|  2> # SCF done       -174.175693792985          0.000556103545
|  3> ! CAM-B3LYP def2-SVP def2/J RIJCOSX Grid4 TightSCF
|  4> %maxcore 5000
|  5> %tddft
|  6>     Mode sTDDFT
|  7>     Ethresh 5.0
|  8>     maxcore 5000
|  9> end
| 10>
| 11> %pal
| 12>   nprocs 6
| 13>   end
| 14> * xyz 0 1
| 15>    C        2.02831         4.27859         5.25721
| 16>    N        1.48398         3.88018         4.06411
| 17>    C        2.44359         3.14975         3.43860
| 18>    N        2.40248         2.54804         2.25808
| 19>    C        3.55004         1.93732         2.01162
| 20>    N        3.91608         1.21370         0.92455
| 21>    C        5.20948         0.79143         1.15796
| 22>    N        5.68171         1.19921         2.31219
| 23>    C        4.69192         1.92032         2.89259
| 24>    N        4.70486         2.53139         4.06567
| 25>    C        3.56933         3.14926         4.33587
| 26>    N        3.24007         3.87140         5.44789
| 27>    C        5.96026        -0.00583         0.25294
| 28>    S        7.57168        -0.47385         0.68738
| 29>    C        7.78449        -1.36665        -0.80581
| 30>    C        6.63365        -1.27544        -1.57796
| 31>    C        5.61161        -0.51175        -0.98559
| 32>    S        4.13276        -0.35293        -1.89165
| 33>    C        4.66045        -1.33884        -3.29264
| 34>    O        3.95726        -1.53729        -4.22921
| 35>    S        6.31371        -1.97126        -3.13914
| 36>    C        8.95098        -2.08591        -1.13587
| 37>    C       10.03826        -2.14850        -0.31707
| 38>    C       11.24848        -2.85193        -0.51203
| 39>    C       11.89247        -3.35381        -1.64799
| 40>    N       11.47320        -3.47189        -2.98286
| 41>    O       12.34316        -3.65155        -3.81870
| 42>    O       10.28291        -3.41119        -3.25649
| 43>    C       13.22549        -3.75375        -1.29253
| 44>    C       13.43344        -3.50522         0.02583
| 45>    C       12.22672        -2.97648         0.58626
| 46>    C       11.96461        -2.80793         1.93504
| 47>    C       10.70173        -2.99553         2.57856
| 48>    C       10.89539        -3.06182         3.92642
| 49>    C       12.28058        -2.84483         4.20690
| 50>    N       12.78784        -2.80368         5.51506
| 51>    O       12.00360        -3.01169         6.42481
| 52>    O       13.97781        -2.57537         5.68175
| 53>    C       12.96745        -2.65091         3.00586
| 54>    C       14.30950        -2.24211         2.88082
| 55>    C       14.84496        -1.57918         1.81462
| 56>    C       16.19987        -1.20879         1.70095
| 57>    S       16.71534        -0.24298         0.34171
| 58>    C       18.37653        -0.22475         0.86320
| 59>    C       18.50177        -0.94580         2.04488
| 60>    C       17.29531        -1.49681         2.51289
| 61>    S       17.36643        -2.43855         3.97499
| 62>    C       19.11482        -2.25144         4.24319
| 63>    O       19.69691        -2.73524         5.15893
| 64>    S       19.92417        -1.26066         2.99664
| 65>    C       19.34234         0.46128         0.08821
| 66>    C       20.66211         0.55841         0.37273
| 67>    C       21.55859         1.26877        -0.47536
| 68>    N       22.91015         1.36545        -0.19286
| 69>    C       23.46524         2.09487        -1.18895
| 70>    N       24.72694         2.45365        -1.36228
| 71>    C       24.85854         3.16678        -2.47181
| 72>    N       25.97618         3.72141        -3.00981
| 73>    C       25.57190         4.35131        -4.15783
| 74>    N       24.30606         4.24940        -4.39878
| 75>    C       23.78949         3.51134        -3.37186
| 76>    N       22.53735         3.14054        -3.17647
| 77>    C       22.37396         2.42557        -2.07541
| 78>    N       21.23158         1.89149        -1.58460
| 79>    H        1.48151         4.87661         5.96008
| 80>    H        0.56291         4.07836         3.70935
| 81>    H        3.34955         1.02383         0.11345
| 82>    H        8.93463        -2.61676        -2.07767
| 83>    H        9.97534        -1.59892         0.61482
| 84>    H       13.91117        -4.19280        -1.99211
| 85>    H       14.30529        -3.76804         0.59151
| 86>    H        9.77809        -3.19788         2.07284
| 87>    H       10.15755        -3.24805         4.68359
| 88>    H       14.92119        -2.40204         3.75966
| 89>    H       14.20909        -1.27186         0.99558
| 90>    H       18.98777         0.94715        -0.81007
| 91>    H       21.08661         0.09941         1.25348
| 92>    H       23.39204         0.97372         0.59970
| 93>    H       26.90714         3.67056        -2.63013
| 94>    H       26.26006         4.87843        -4.78965
| 95> *
| 96>
| 97>                          ****END OF INPUT****

CARTESIAN COORDINATES (ANGSTROEM)
---------------------------------
  C      2.028310    4.278590    5.257210
  N      1.483980    3.880180    4.064110
  C      2.443590    3.149750    3.438600
  N      2.402480    2.548040    2.258080
  C      3.550040    1.937320    2.011620
  N      3.916080    1.213700    0.924550
  C      5.209480    0.791430    1.157960
  N      5.681710    1.199210    2.312190
  C      4.691920    1.920320    2.892590
  N      4.704860    2.531390    4.065670
  C      3.569330    3.149260    4.335870
  N      3.240070    3.871400    5.447890
  C      5.960260   -0.005830    0.252940
  S      7.571680   -0.473850    0.687380
  C      7.784490   -1.366650   -0.805810
  C      6.633650   -1.275440   -1.577960
  C      5.611610   -0.511750   -0.985590
  S      4.132760   -0.352930   -1.891650
  C      4.660450   -1.338840   -3.292640
  O      3.957260   -1.537290   -4.229210
  S      6.313710   -1.971260   -3.139140
  C      8.950980   -2.085910   -1.135870
  C     10.038260   -2.148500   -0.317070
  C     11.248480   -2.851930   -0.512030
  C     11.892470   -3.353810   -1.647990
  N     11.473200   -3.471890   -2.982860
  O     12.343160   -3.651550   -3.818700
  O     10.282910   -3.411190   -3.256490
  C     13.225490   -3.753750   -1.292530
  C     13.433440   -3.505220    0.025830
  C     12.226720   -2.976480    0.586260
  C     11.964610   -2.807930    1.935040
  C     10.701730   -2.995530    2.578560
  C     10.895390   -3.061820    3.926420
  C     12.280580   -2.844830    4.206900
  N     12.787840   -2.803680    5.515060
  O     12.003600   -3.011690    6.424810
  O     13.977810   -2.575370    5.681750
  C     12.967450   -2.650910    3.005860
  C     14.309500   -2.242110    2.880820
  C     14.844960   -1.579180    1.814620
  C     16.199870   -1.208790    1.700950
  S     16.715340   -0.242980    0.341710
  C     18.376530   -0.224750    0.863200
  C     18.501770   -0.945800    2.044880
  C     17.295310   -1.496810    2.512890
  S     17.366430   -2.438550    3.974990
  C     19.114820   -2.251440    4.243190
  O     19.696910   -2.735240    5.158930
  S     19.924170   -1.260660    2.996640
  C     19.342340    0.461280    0.088210
  C     20.662110    0.558410    0.372730
  C     21.558590    1.268770   -0.475360
  N     22.910150    1.365450   -0.192860
  C     23.465240    2.094870   -1.188950
  N     24.726940    2.453650   -1.362280
  C     24.858540    3.166780   -2.471810
  N     25.976180    3.721410   -3.009810
  C     25.571900    4.351310   -4.157830
  N     24.306060    4.249400   -4.398780
  C     23.789490    3.511340   -3.371860
  N     22.537350    3.140540   -3.176470
  C     22.373960    2.425570   -2.075410
  N     21.231580    1.891490   -1.584600
  H      1.481510    4.876610    5.960080
  H      0.562910    4.078360    3.709350
  H      3.349550    1.023830    0.113450
  H      8.934630   -2.616760   -2.077670
  H      9.975340   -1.598920    0.614820
  H     13.911170   -4.192800   -1.992110
  H     14.305290   -3.768040    0.591510
  H      9.778090   -3.197880    2.072840
  H     10.157550   -3.248050    4.683590
  H     14.921190   -2.402040    3.759660
  H     14.209090   -1.271860    0.995580
  H     18.987770    0.947150   -0.810070
  H     21.086610    0.099410    1.253480
  H     23.392040    0.973720    0.599700
  H     26.907140    3.670560   -2.630130
  H     26.260060    4.878430   -4.789650

 Total Charge           Charge          ....    0
 Multiplicity           Mult            ....    1
 Number of Electrons    NEL             ....  486
 Basis Dimension        Dim             .... 1000

ORBITAL ENERGIES
----------------

  NO   OCC          E(Eh)            E(eV)
   0   2.0000     -88.985224     -2421.4111
   1   2.0000     -88.984585     -2421.3937
   2   2.0000     -88.983967     -2421.3768
   3   2.0000     -88.981497     -2421.3096
   4   2.0000     -88.980548     -2421.2838
   5   2.0000     -88.979681     -2421.2602
   6   2.0000     -19.247400      -523.7484
   7   2.0000     -19.243525      -523.6429
   8   2.0000     -19.240209      -523.5527
   9   2.0000     -19.237456      -523.4778
  10   2.0000     -19.232765      -523.3501
  11   2.0000     -19.232359      -523.3391
  12   2.0000     -14.647966      -398.5914
  13   2.0000     -14.642277      -398.4366
  14   2.0000     -14.486188      -394.1892
  15   2.0000     -14.479924      -394.0188
  16   2.0000     -14.478687      -393.9851
  17   2.0000     -14.476191      -393.9172
  18   2.0000     -14.435293      -392.8043
  19   2.0000     -14.430432      -392.6720
  20   2.0000     -14.416984      -392.3061
  21   2.0000     -14.411468      -392.1560
  22   2.0000     -14.406253      -392.0141
  23   2.0000     -14.396590      -391.7511
  24   2.0000     -14.396263      -391.7422
  25   2.0000     -14.392476      -391.6392
  26   2.0000     -10.427211      -283.7388
  27   2.0000     -10.421774      -283.5909
  28   2.0000     -10.368118      -282.1308
  29   2.0000     -10.354877      -281.7705
  30   2.0000     -10.354248      -281.7534
  31   2.0000     -10.351388      -281.6756
  32   2.0000     -10.348783      -281.6047
  33   2.0000     -10.348251      -281.5902
  34   2.0000     -10.346526      -281.5433
  35   2.0000     -10.344395      -281.4853
  36   2.0000     -10.342862      -281.4436
  37   2.0000     -10.341237      -281.3994
  38   2.0000     -10.340727      -281.3855
  39   2.0000     -10.339540      -281.3532
  40   2.0000     -10.339012      -281.3388
  41   2.0000     -10.338338      -281.3205
  42   2.0000     -10.336664      -281.2749
  43   2.0000     -10.332703      -281.1671
  44   2.0000     -10.331683      -281.1394
  45   2.0000     -10.331373      -281.1310
  46   2.0000     -10.331287      -281.1286
  47   2.0000     -10.330802      -281.1154
  48   2.0000     -10.327849      -281.0351
  49   2.0000     -10.326245      -280.9914
  50   2.0000     -10.325604      -280.9740
  51   2.0000     -10.325214      -280.9634
  52   2.0000     -10.324718      -280.9499
  53   2.0000     -10.323070      -280.9050
  54   2.0000     -10.318770      -280.7880
  55   2.0000     -10.308687      -280.5136
  56   2.0000     -10.307327      -280.4766
  57   2.0000     -10.304136      -280.3898
  58   2.0000     -10.303791      -280.3804
  59   2.0000     -10.302157      -280.3359
  60   2.0000     -10.301778      -280.3256
  61   2.0000     -10.296715      -280.1879
  62   2.0000     -10.286998      -279.9234
  63   2.0000     -10.286329      -279.9052
  64   2.0000      -8.080900      -219.8925
  65   2.0000      -8.080721      -219.8876
  66   2.0000      -8.078860      -219.8370
  67   2.0000      -8.078155      -219.8178
  68   2.0000      -8.076709      -219.7784
  69   2.0000      -8.076258      -219.7662
  70   2.0000      -6.050591      -164.6450
  71   2.0000      -6.050009      -164.6291
  72   2.0000      -6.048289      -164.5823
  73   2.0000      -6.047843      -164.5702
  74   2.0000      -6.046776      -164.5411
  75   2.0000      -6.046424      -164.5316
  76   2.0000      -6.046038      -164.5211
  77   2.0000      -6.045916      -164.5177
  78   2.0000      -6.044220      -164.4716
  79   2.0000      -6.043885      -164.4625
  80   2.0000      -6.042571      -164.4267
  81   2.0000      -6.042332      -164.4202
  82   2.0000      -6.041999      -164.4112
  83   2.0000      -6.041395      -164.3947
  84   2.0000      -6.040661      -164.3747
  85   2.0000      -6.038720      -164.3219
  86   2.0000      -6.037416      -164.2865
  87   2.0000      -6.036929      -164.2732
  88   2.0000      -1.317693       -35.8563
  89   2.0000      -1.311533       -35.6886
  90   2.0000      -1.177213       -32.0336
  91   2.0000      -1.173275       -31.9264
  92   2.0000      -1.148348       -31.2481
  93   2.0000      -1.141506       -31.0619
  94   2.0000      -1.133936       -30.8560
  95   2.0000      -1.131448       -30.7883
  96   2.0000      -1.128443       -30.7065
  97   2.0000      -1.125446       -30.6249
  98   2.0000      -1.054277       -28.6883
  99   2.0000      -1.047310       -28.4988
 100   2.0000      -1.034272       -28.1440
 101   2.0000      -1.033858       -28.1327
 102   2.0000      -1.032551       -28.0971
 103   2.0000      -1.027720       -27.9657
 104   2.0000      -1.019837       -27.7512
 105   2.0000      -0.998536       -27.1715
 106   2.0000      -0.988677       -26.9033
 107   2.0000      -0.981692       -26.7132
 108   2.0000      -0.961503       -26.1638
 109   2.0000      -0.960101       -26.1257
 110   2.0000      -0.952097       -25.9079
 111   2.0000      -0.948685       -25.8150
 112   2.0000      -0.941458       -25.6184
 113   2.0000      -0.931935       -25.3592
 114   2.0000      -0.913269       -24.8513
 115   2.0000      -0.909445       -24.7473
 116   2.0000      -0.897999       -24.4358
 117   2.0000      -0.889963       -24.2171
 118   2.0000      -0.881139       -23.9770
 119   2.0000      -0.866680       -23.5836
 120   2.0000      -0.855729       -23.2856
 121   2.0000      -0.843374       -22.9494
 122   2.0000      -0.837249       -22.7827
 123   2.0000      -0.831115       -22.6158
 124   2.0000      -0.829898       -22.5827
 125   2.0000      -0.817692       -22.2505
 126   2.0000      -0.806204       -21.9379
 127   2.0000      -0.796323       -21.6690
 128   2.0000      -0.770441       -20.9648
 129   2.0000      -0.766830       -20.8665
 130   2.0000      -0.744007       -20.2455
 131   2.0000      -0.737649       -20.0725
 132   2.0000      -0.737376       -20.0650
 133   2.0000      -0.733998       -19.9731
 134   2.0000      -0.731306       -19.8999
 135   2.0000      -0.720800       -19.6140
 136   2.0000      -0.717560       -19.5258
 137   2.0000      -0.712783       -19.3958
 138   2.0000      -0.708321       -19.2744
 139   2.0000      -0.705191       -19.1892
 140   2.0000      -0.686132       -18.6706
 141   2.0000      -0.675017       -18.3681
 142   2.0000      -0.673729       -18.3331
 143   2.0000      -0.666913       -18.1476
 144   2.0000      -0.663705       -18.0603
 145   2.0000      -0.662384       -18.0244
 146   2.0000      -0.657702       -17.8970
 147   2.0000      -0.652410       -17.7530
 148   2.0000      -0.647218       -17.6117
 149   2.0000      -0.643104       -17.4997
 150   2.0000      -0.637637       -17.3510
 151   2.0000      -0.634322       -17.2608
 152   2.0000      -0.631531       -17.1848
 153   2.0000      -0.627076       -17.0636
 154   2.0000      -0.623590       -16.9688
 155   2.0000      -0.620173       -16.8758
 156   2.0000      -0.619274       -16.8513
 157   2.0000      -0.617708       -16.8087
 158   2.0000      -0.609053       -16.5732
 159   2.0000      -0.602997       -16.4084
 160   2.0000      -0.590453       -16.0670
 161   2.0000      -0.582374       -15.8472
 162   2.0000      -0.581513       -15.8238
 163   2.0000      -0.578688       -15.7469
 164   2.0000      -0.576608       -15.6903
 165   2.0000      -0.574241       -15.6259
 166   2.0000      -0.570642       -15.5280
 167   2.0000      -0.569161       -15.4877
 168   2.0000      -0.564603       -15.3636
 169   2.0000      -0.563391       -15.3307
 170   2.0000      -0.560950       -15.2642
 171   2.0000      -0.553932       -15.0733
 172   2.0000      -0.553799       -15.0696
 173   2.0000      -0.552519       -15.0348
 174   2.0000      -0.548955       -14.9378
 175   2.0000      -0.548125       -14.9152
 176   2.0000      -0.547822       -14.9070
 177   2.0000      -0.544849       -14.8261
 178   2.0000      -0.542214       -14.7544
 179   2.0000      -0.539204       -14.6725
 180   2.0000      -0.538184       -14.6447
 181   2.0000      -0.533941       -14.5293
 182   2.0000      -0.526670       -14.3314
 183   2.0000      -0.519894       -14.1470
 184   2.0000      -0.516492       -14.0545
 185   2.0000      -0.514846       -14.0097
 186   2.0000      -0.512624       -13.9492
 187   2.0000      -0.509513       -13.8645
 188   2.0000      -0.506082       -13.7712
 189   2.0000      -0.503214       -13.6932
 190   2.0000      -0.493459       -13.4277
 191   2.0000      -0.489850       -13.3295
 192   2.0000      -0.485085       -13.1998
 193   2.0000      -0.480693       -13.0803
 194   2.0000      -0.478981       -13.0337
 195   2.0000      -0.475366       -12.9354
 196   2.0000      -0.468715       -12.7544
 197   2.0000      -0.462853       -12.5949
 198   2.0000      -0.456882       -12.4324
 199   2.0000      -0.454528       -12.3683
 200   2.0000      -0.454064       -12.3557
 201   2.0000      -0.453204       -12.3323
 202   2.0000      -0.449996       -12.2450
 203   2.0000      -0.449328       -12.2268
 204   2.0000      -0.446143       -12.1402
 205   2.0000      -0.441845       -12.0232
 206   2.0000      -0.436717       -11.8837
 207   2.0000      -0.433326       -11.7914
 208   2.0000      -0.424961       -11.5638
 209   2.0000      -0.417580       -11.3629
 210   2.0000      -0.416135       -11.3236
 211   2.0000      -0.413039       -11.2394
 212   2.0000      -0.405617       -11.0374
 213   2.0000      -0.389565       -10.6006
 214   2.0000      -0.388331       -10.5670
 215   2.0000      -0.387585       -10.5467
 216   2.0000      -0.385144       -10.4803
 217   2.0000      -0.384903       -10.4737
 218   2.0000      -0.384134       -10.4528
 219   2.0000      -0.378651       -10.3036
 220   2.0000      -0.378509       -10.2998
 221   2.0000      -0.376908       -10.2562
 222   2.0000      -0.372820       -10.1450
 223   2.0000      -0.370630       -10.0854
 224   2.0000      -0.368327       -10.0227
 225   2.0000      -0.363995        -9.9048
 226   2.0000      -0.362825        -9.8730
 227   2.0000      -0.361747        -9.8436
 228   2.0000      -0.358980        -9.7683
 229   2.0000      -0.357810        -9.7365
 230   2.0000      -0.342249        -9.3131
 231   2.0000      -0.339747        -9.2450
 232   2.0000      -0.328785        -8.9467
 233   2.0000      -0.319057        -8.6820
 234   2.0000      -0.318861        -8.6766
 235   2.0000      -0.315024        -8.5722
 236   2.0000      -0.314632        -8.5616
 237   2.0000      -0.313508        -8.5310
 238   2.0000      -0.311915        -8.4876
 239   2.0000      -0.298806        -8.1309
 240   2.0000      -0.288256        -7.8438
 241   2.0000      -0.263432        -7.1684
 242   2.0000      -0.252557        -6.8724
 243   0.0000      -0.139668        -3.8006
 244   0.0000      -0.086977        -2.3668
 245   0.0000      -0.067354        -1.8328
 246   0.0000      -0.044236        -1.2037
 247   0.0000      -0.030812        -0.8384

MULLIKEN ATOMIC CHARGES
-----------------------
   0 C :    0.117795
   1 N :   -0.059131
   2 C :   -0.045374
   3 N :    0.021995
   4 C :   -0.035673
   5 N :   -0.048174
   6 C :   -0.005824
   7 N :   -0.036102
   8 C :   -0.118671
   9 N :    0.069640
  10 C :   -0.122169
  11 N :   -0.070003
  12 C :   -0.148902
  13 S :    0.219068
  14 C :   -0.107682
  15 C :   -0.032330
  16 C :    0.014741
  17 S :    0.062507
  18 C :    0.080008
  19 O :   -0.137812
  20 S :    0.139410
  21 C :    0.010558
  22 C :   -0.100743
  23 C :    0.097407
  24 C :    0.059485
  25 N :    0.278684
  26 O :   -0.247197
  27 O :   -0.258454
  28 C :    0.022962
  29 C :   -0.009731
  30 C :    0.005121
  31 C :    0.034262
  32 C :   -0.015200
  33 C :    0.023401
  34 C :    0.078911
  35 N :    0.276448
  36 O :   -0.248264
  37 O :   -0.255961
  38 C :    0.040877
  39 C :   -0.073487
  40 C :    0.062460
  41 C :   -0.172056
  42 S :    0.187561
  43 C :   -0.130813
  44 C :   -0.012115
  45 C :   -0.004381
  46 S :    0.116896
  47 C :    0.097109
  48 O :   -0.139539
  49 S :    0.078328
  50 C :    0.055040
  51 C :    0.004072
  52 C :    0.015766
  53 N :   -0.035053
  54 C :   -0.046920
  55 N :    0.019350
  56 C :   -0.048316
  57 N :   -0.057627
  58 C :    0.115079
  59 N :   -0.067618
  60 C :   -0.127949
  61 N :    0.066997
  62 C :   -0.120803
  63 N :   -0.036949
  64 H :    0.022441
  65 H :    0.139862
  66 H :    0.135295
  67 H :    0.030171
  68 H :    0.012631
  69 H :    0.006041
  70 H :    0.004492
  71 H :   -0.002874
  72 H :    0.011691
  73 H :    0.038332
  74 H :    0.012029
  75 H :    0.020874
  76 H :   -0.018632
  77 H :    0.134589
  78 H :    0.138207
  79 H :    0.019936
Sum of atomic charges:   -0.0000000

LOEWDIN ATOMIC CHARGES
----------------------
   0 C :    0.059760
   1 N :    0.055790
   2 C :   -0.007197
   3 N :   -0.092425
   4 C :   -0.002724
   5 N :    0.059599
   6 C :    0.013029
   7 N :   -0.115015
   8 C :   -0.041653
   9 N :   -0.024945
  10 C :   -0.040342
  11 N :   -0.107216
  12 C :   -0.195536
  13 S :    0.500028
  14 C :   -0.185538
  15 C :   -0.202433
  16 C :   -0.212720
  17 S :    0.339400
  18 C :   -0.194315
  19 O :   -0.134113
  20 S :    0.389724
  21 C :    0.000127
  22 C :   -0.039204
  23 C :    0.008422
  24 C :   -0.050890
  25 N :    0.287632
  26 O :   -0.210750
  27 O :   -0.217367
  28 C :    0.010398
  29 C :   -0.049607
  30 C :    0.036967
  31 C :    0.037720
  32 C :   -0.055519
  33 C :    0.033017
  34 C :   -0.059516
  35 N :    0.286222
  36 O :   -0.212837
  37 O :   -0.223047
  38 C :    0.016982
  39 C :   -0.030433
  40 C :   -0.006910
  41 C :   -0.191881
  42 S :    0.475162
  43 C :   -0.177388
  44 C :   -0.209146
  45 C :   -0.197510
  46 S :    0.399242
  47 C :   -0.198981
  48 O :   -0.135972
  49 S :    0.362439
  50 C :   -0.004182
  51 C :   -0.046532
  52 C :    0.033977
  53 N :    0.061758
  54 C :   -0.006114
  55 N :   -0.095686
  56 C :   -0.009572
  57 N :    0.054926
  58 C :    0.057107
  59 N :   -0.108330
  60 C :   -0.042328
  61 N :   -0.028237
  62 C :   -0.041011
  63 N :   -0.112957
  64 H :    0.023540
  65 H :    0.098087
  66 H :    0.079291
  67 H :    0.032018
  68 H :    0.028453
  69 H :    0.038312
  70 H :    0.031657
  71 H :    0.030237
  72 H :    0.041753
  73 H :    0.022913
  74 H :    0.035898
  75 H :    0.045747
  76 H :    0.014884
  77 H :    0.096248
  78 H :    0.097083
  79 H :    0.022532

  Mayer bond orders larger than 0.100000
B(  0-C ,  1-N ) :   1.1572 B(  0-C , 11-N ) :   1.7228 B(  0-C , 64-H ) :   0.9810
B(  1-N ,  2-C ) :   1.2096 B(  1-N , 65-H ) :   0.9293 B(  2-C ,  3-N ) :   1.5280
B(  2-C , 10-C ) :   1.1466 B(  3-N ,  4-C ) :   1.5435 B(  4-C ,  5-N ) :   1.1865
B(  4-C ,  8-C ) :   1.1383 B(  5-N ,  6-C ) :   1.2059 B(  5-N , 66-H ) :   0.9044
B(  6-C ,  7-N ) :   1.7495 B(  6-C , 12-C ) :   1.0699 B(  7-N ,  8-C ) :   1.3743
B(  8-C ,  9-N ) :   1.5213 B(  9-N , 10-C ) :   1.5278 B( 10-C , 11-N ) :   1.3625
B( 12-C , 13-S ) :   1.1574 B( 12-C , 14-C ) :   0.1248 B( 12-C , 16-C ) :   1.5873
B( 13-S , 14-C ) :   1.0831 B( 14-C , 15-C ) :   1.5389 B( 14-C , 21-C ) :   1.1690
B( 15-C , 16-C ) :   1.2686 B( 15-C , 20-S ) :   1.0120 B( 16-C , 17-S ) :   0.9886
B( 17-S , 18-C ) :   0.9615 B( 17-S , 19-O ) :   0.1048 B( 18-C , 19-O ) :   2.1326
B( 18-C , 20-S ) :   0.9954 B( 19-O , 20-S ) :   0.1068 B( 21-C , 22-C ) :   1.5984
B( 21-C , 67-H ) :   0.9513 B( 22-C , 23-C ) :   1.1789 B( 22-C , 68-H ) :   0.9569
B( 23-C , 24-C ) :   1.4640 B( 23-C , 30-C ) :   1.0300 B( 24-C , 25-N ) :   0.9626
B( 24-C , 28-C ) :   1.1408 B( 25-N , 26-O ) :   1.5368 B( 25-N , 27-O ) :   1.4623
B( 26-O , 27-O ) :   0.2508 B( 28-C , 29-C ) :   1.5693 B( 28-C , 69-H ) :   1.0072
B( 29-C , 30-C ) :   1.1375 B( 29-C , 70-H ) :   0.9986 B( 30-C , 31-C ) :   1.4759
B( 31-C , 32-C ) :   1.1542 B( 31-C , 38-C ) :   1.0064 B( 32-C , 33-C ) :   1.5435
B( 32-C , 71-H ) :   1.0045 B( 33-C , 34-C ) :   1.1475 B( 33-C , 72-H ) :   1.0107
B( 34-C , 35-N ) :   0.9589 B( 34-C , 38-C ) :   1.4730 B( 35-N , 36-O ) :   1.5332
B( 35-N , 37-O ) :   1.4866 B( 36-O , 37-O ) :   0.2553 B( 38-C , 39-C ) :   1.2468
B( 39-C , 40-C ) :   1.5293 B( 39-C , 73-H ) :   0.9316 B( 40-C , 41-C ) :   1.1961
B( 40-C , 74-H ) :   0.9495 B( 41-C , 42-S ) :   1.1162 B( 41-C , 45-C ) :   1.5005
B( 42-S , 43-C ) :   1.1319 B( 43-C , 44-C ) :   1.5188 B( 43-C , 50-C ) :   1.1196
B( 44-C , 45-C ) :   1.2944 B( 44-C , 49-S ) :   1.0066 B( 45-C , 46-S ) :   1.0203
B( 46-S , 47-C ) :   0.9831 B( 46-S , 48-O ) :   0.1042 B( 47-C , 48-O ) :   2.1321
B( 47-C , 49-S ) :   0.9702 B( 48-O , 49-S ) :   0.1053 B( 50-C , 51-C ) :   1.6896
B( 50-C , 75-H ) :   0.9660 B( 51-C , 52-C ) :   1.1135 B( 51-C , 76-H ) :   0.9321
B( 52-C , 53-N ) :   1.1586 B( 52-C , 63-N ) :   1.6762 B( 53-N , 54-C ) :   1.1996
B( 53-N , 77-H ) :   0.9175 B( 54-C , 55-N ) :   1.5470 B( 54-C , 62-C ) :   1.1275
B( 55-N , 56-C ) :   1.5278 B( 56-C , 57-N ) :   1.2094 B( 56-C , 60-C ) :   1.1478
B( 57-N , 58-C ) :   1.1576 B( 57-N , 78-H ) :   0.9297 B( 58-C , 59-N ) :   1.7219
B( 58-C , 79-H ) :   0.9812 B( 59-N , 60-C ) :   1.3656 B( 60-C , 61-N ) :   1.5289
B( 61-N , 62-C ) :   1.5179 B( 62-C , 63-N ) :   1.3808

-----------------------------------------------------------------------------
         ABSORPTION SPECTRUM VIA TRANSITION ELECTRIC DIPOLE MOMENTS
-----------------------------------------------------------------------------
State   Energy  Wavelength   fosc         T2         TX        TY        TZ
        (cm-1)    (nm)                  (au**2)     (au)      (au)      (au)
-----------------------------------------------------------------------------
   0    8422.3   1187.3   0.399606490  15.61980   3.94917   0.10312   0.11491
   1   11601.2    862.0   0.076462951   2.16982  -0.22370  -1.44924   0.13960
   2   18791.4    532.2   0.422217414   7.39696  -2.26026  -0.70884   1.33631
   3   19948.9    501.3   0.186009384   3.06967   0.89938  -1.45197  -0.39059
   4   21709.7    460.6   0.402144633   6.09822   1.31662   1.90235  -0.86360
   5   22453.2    445.4   0.036356568   0.53307   0.34873  -0.46595   0.44085
   6   23212.9    430.8   0.171183177   2.42777   1.55776   0.00617   0.03326
   7   23507.1    425.4   0.823264088  11.52963  -3.02156   0.47950   1.47305
   8   25676.2    389.5   0.015591921   0.19991  -0.42221  -0.08235   0.12195
   9   25814.5    387.4   0.316396334   4.03499   0.90898   0.19181  -1.78100
  10   26572.9    376.3   0.053184458   0.65890   0.53680  -0.22305  -0.56657
  11   26972.4    370.7   0.011744315   0.14335   0.29893  -0.21775  -0.08107
  12   27144.4    368.4   0.008907341   0.10803  -0.07950  -0.02454   0.31797
  13   27236.5    367.2   0.049201796   0.59471   0.76046   0.00670   0.12795
  14   27653.4    361.6   0.000007512   0.00009  -0.00717  -0.00187   0.00588
  15   27744.3    360.4   0.500367068   5.93732  -1.42762  -1.12091   1.62566
  16   28833.0    346.8   0.080711034   0.92155   0.71932  -0.55757  -0.30536
  17   28991.3    344.9   0.045137108   0.51256   0.38045  -0.50585  -0.33456
  18   29103.2    343.6   0.572437120   6.47533   0.62022  -1.14493  -2.18627
  19   30333.7    329.7   0.066829014   0.72530  -0.34778   0.41214   0.65916
  20   30868.1    324.0   0.008965219   0.09562   0.18229   0.24801   0.02960
  21   31122.3    321.3   0.059423281   0.62858  -0.00702   0.53777   0.58253
  22   31983.9    312.7   0.001843272   0.01897  -0.10279  -0.09038   0.01543
  23   32196.9    310.6   0.046311633   0.47353   0.39424  -0.15324  -0.54280
  24   32457.5    308.1   0.022461064   0.22782   0.22195  -0.07607   0.41566
  25   32582.7    306.9   0.269140590   2.71937  -0.29317  -0.25728  -1.60226
  26   32950.0    303.5   0.000076948   0.00077  -0.00030  -0.01601  -0.02264
  27   33153.4    301.6   0.000245428   0.00244   0.03715   0.02966  -0.01331
  28   33568.2    297.9   0.003823111   0.03749  -0.01550   0.10804  -0.15994
  29   33628.4    297.4   0.086206308   0.84394   0.38355  -0.27332   0.78875
  30   34053.3    293.7   0.021181174   0.20477   0.13973   0.04692   0.42784
  31   34920.0    286.4   0.130994936   1.23497   0.31505   0.16573  -1.05273
  32   35237.3    283.8   0.235933792   2.20426   0.30390   0.04305   1.45260
  33   35731.7    279.9   0.028041951   0.25836   0.27250   0.42328   0.07031
  34   35970.5    278.0   0.031686635   0.29000   0.16642  -0.07622   0.50646
  35   36233.1    276.0   0.028971386   0.26323  -0.37992   0.30147   0.16735
  36   36505.7    273.9   0.000465610   0.00420   0.05774   0.02243   0.01903
  37   36651.6    272.8   0.017767574   0.15959  -0.21261  -0.01267  -0.33798
  38   36728.3    272.3   0.000118195   0.00106   0.01727  -0.02576   0.00990
  39   36759.4    272.0   0.072704598   0.65113   0.17404   0.16615  -0.77022
  40   37120.2    269.4   0.017230629   0.15282  -0.18014   0.32304   0.12653
  41   37287.6    268.2   0.020785873   0.18352   0.07132  -0.16815   0.38750
  42   37496.6    266.7   0.028972878   0.25438   0.13609  -0.09892   0.47547
  43   37515.8    266.6   0.000382559   0.00336  -0.03062   0.04126  -0.02679
  44   37825.1    264.4   0.010512566   0.09150   0.06510   0.05174   0.29083
  45   38044.9    262.8   0.257123259   2.22495  -0.97886  -0.21354  -1.10508
  46   38148.5    262.1   0.014673131   0.12663  -0.17741   0.02890  -0.30711
  47   38534.2    259.5   0.062930378   0.53764  -0.12070   0.08847  -0.71780
  48   39570.6    252.7   0.002680858   0.02230   0.05775   0.04857  -0.12888
  49   39946.4    250.3   0.011653411   0.09604  -0.16348  -0.11046   0.23898
  50   40171.0    248.9   0.020825375   0.17067   0.37626   0.16639   0.03752
  51   40306.3    248.1   0.052000393   0.42473  -0.37558   0.15347  -0.51002

FINAL SINGLE POINT ENERGY     -5060.512609490775

DIPOLE MOMENT
-------------
                                X             Y             Z
Electronic contribution:    -12.84722      -2.62019      -1.43549
Nuclear contribution   :     13.13872       3.53482       1.39509
                        -----------------------------------------
Total Dipole Moment    :      0.29150       0.91463      -0.04040
                        -----------------------------------------
Magnitude (a.u.)       :      0.96081
Magnitude (Debye)      :      2.44218

Rotational constants in cm-1:     0.001257     0.000308     0.000295
Rotational constants in MHz :    37.669205     9.234806     8.829359

                             ****ORCA TERMINATED NORMALLY****
TOTAL RUN TIME: 0 days 0 hours 7 minutes 25 seconds 117 msec
