                         Program Version 4.2.0 -  RELEASE  -
|  1> # ORCA input file
|  2> # SCF done       -192.945627101328          0.000549503289
|  3> ! CAM-B3LYP def2-SVP def2/J RIJCOSX Grid4 TightSCF
|  4> %maxcore 5000
|  5> %tddft
|  6>     Mode sTDDFT
|  7>     Ethresh 5.0
|  8>     maxcore 5000
|  9> end
| 10>
| 11> %pal
| 12>   nprocs 6
| 13>   end
| 14> * xyz 0 1
| 15>    C       -1.71908        -0.97639        -3.22205
| 16>    N       -1.67421         0.25856        -3.81167
| 17>    C       -0.42195         0.38503        -4.32618
| 18>    N        0.10866         1.39079        -5.00271
| 19>    C        1.35766         1.12668        -5.34509
| 20>    N        2.24546         1.88452        -6.01952
| 21>    C        3.40483         1.15182        -6.11634
| 22>    N        3.30545        -0.02999        -5.53132
| 23>    C        2.05450        -0.10759        -5.03910
| 24>    N        1.49109        -1.10133        -4.37277
| 25>    C        0.24792        -0.84811        -4.00766
| 26>    N       -0.61829        -1.64877        -3.31997
| 27>    C        4.60991         1.61902        -6.71962
| 28>    C        5.06533         2.92879        -6.95674
| 29>    N        4.40363         4.15598        -6.93189
| 30>    O        3.17269         4.19311        -6.86008
| 31>    O        5.08132         5.16666        -7.00624
| 32>    C        6.46090         2.87551        -7.26971
| 33>    C        6.87550         1.58141        -7.20756
| 34>    C        5.75106         0.74946        -6.90971
| 35>    C        5.75156        -0.64545        -6.96875
| 36>    C        4.72930        -1.49647        -7.43843
| 37>    C        5.22944        -2.76446        -7.55701
| 38>    C        6.59577        -2.78701        -7.13425
| 39>    N        7.27605        -3.98376        -7.00312
| 40>    O        8.44019        -3.99088        -6.57770
| 41>    O        6.69158        -5.01786        -7.29562
| 42>    C        6.95497        -1.47942        -6.74393
| 43>    C        8.06680        -0.97093        -6.07033
| 44>    C        9.33156        -1.50964        -6.07880
| 45>    N       10.36335        -1.10567        -5.31864
| 46>    C       10.18738        -0.24390        -4.21957
| 47>    C       11.12086         0.74949        -3.92149
| 48>    S       12.61900         0.90977        -4.83662
| 49>    C       12.77093        -0.73838        -5.44009
| 50>    C       14.04065        -1.18306        -5.79152
| 51>    C       14.21424        -2.44792        -6.31551
| 52>    C       13.11989        -3.28684        -6.46511
| 53>    C       11.85701        -2.85627        -6.10962
| 54>    C       11.66105        -1.56719        -5.61414
| 55>    C       10.87875         1.65177        -2.89221
| 56>    C        9.72963         1.55147        -2.13557
| 57>    C        8.83882         0.51316        -2.36893
| 58>    C        9.06855        -0.37883        -3.39597
| 59>    C        9.18417        -5.17628        -3.66630
| 60>    C       10.56872        -4.71292        -3.45592
| 61>    C       10.99791        -3.58316        -2.82830
| 62>    C       12.42129        -3.47481        -2.96390
| 63>    C       12.84724        -4.67908        -3.70714
| 64>    C       11.73283        -5.40730        -3.98335
| 65>    C       14.15537        -5.02129        -4.05376
| 66>    N       15.22298        -5.31860        -4.36071
| 67>    C       13.22212        -2.43142        -2.58214
| 68>    C       14.58379        -2.19980        -2.94837
| 69>    C       14.96616        -0.95353        -2.50869
| 70>    C       13.84771        -0.37787        -1.78021
| 71>    C       12.80474        -1.24911        -1.80851
| 72>    C       11.58801        -1.08135        -1.14420
| 73>    N       10.60283        -0.92119        -0.57400
| 74>    C       16.19511        -0.26599        -2.71517
| 75>    C       17.26421        -0.76663        -3.37521
| 76>    C       18.45304        -0.00209        -3.55535
| 77>    N       19.57214        -0.51308        -4.19017
| 78>    C       20.50421         0.46966        -4.18661
| 79>    N       21.73538         0.45552        -4.67613
| 80>    C       22.32045         1.62801        -4.46793
| 81>    N       23.57249         2.03184        -4.80942
| 82>    C       23.68535         3.32654        -4.37246
| 83>    N       22.62722         3.78240        -3.78787
| 84>    C       21.72015         2.75865        -3.81224
| 85>    N       20.48875         2.74856        -3.33316
| 86>    C       19.87903         1.58796        -3.52415
| 87>    N       18.62224         1.23874        -3.15999
| 88>    H       -2.59873        -1.33986        -2.72747
| 89>    H       -2.40618         0.94804        -3.85770
| 90>    H        2.15961         2.84372        -6.35805
| 91>    H        7.04280         3.74040        -7.52433
| 92>    H        7.85150         1.21938        -7.46791
| 93>    H        3.74318        -1.18234        -7.71241
| 94>    H        4.70925        -3.63632        -7.90750
| 95>    H        7.90166        -0.05346        -5.52032
| 96>    H        9.57031        -2.26153        -6.81110
| 97>    H        8.89809        -4.97496        -4.70333
| 98>    H       14.87810        -0.51630        -5.65544
| 99>    H       15.19882        -2.78792        -6.59360
|100>    H       13.25191        -4.28254        -6.85742
|101>    H       11.01670        -3.52693        -6.20261
|102>    H       11.60541         2.42564        -2.70015
|103>    H        9.54526         2.25741        -1.34226
|104>    H        7.96835         0.39375        -1.74525
|105>    H        8.39354        -1.20418        -3.56143
|106>    H        9.10539        -6.25108        -3.51318
|107>    H        8.49066        -4.65880        -3.00858
|108>    H       10.38255        -2.85807        -2.33208
|109>    H       11.69517        -6.34418        -4.50833
|110>    H       15.17570        -2.88933        -3.51504
|111>    H       13.86764         0.57922        -1.29227
|112>    H       16.27823         0.73863        -2.32378
|113>    H       17.25584        -1.76741        -3.78343
|114>    H       19.68450        -1.44025        -4.56608
|115>    H       24.26651         1.48001        -5.28568
|116>    H       24.58323         3.89656        -4.51294
|117> *
|118>
|119>                          ****END OF INPUT****

CARTESIAN COORDINATES (ANGSTROEM)
---------------------------------
  C     -1.719080   -0.976390   -3.222050
  N     -1.674210    0.258560   -3.811670
  C     -0.421950    0.385030   -4.326180
  N      0.108660    1.390790   -5.002710
  C      1.357660    1.126680   -5.345090
  N      2.245460    1.884520   -6.019520
  C      3.404830    1.151820   -6.116340
  N      3.305450   -0.029990   -5.531320
  C      2.054500   -0.107590   -5.039100
  N      1.491090   -1.101330   -4.372770
  C      0.247920   -0.848110   -4.007660
  N     -0.618290   -1.648770   -3.319970
  C      4.609910    1.619020   -6.719620
  C      5.065330    2.928790   -6.956740
  N      4.403630    4.155980   -6.931890
  O      3.172690    4.193110   -6.860080
  O      5.081320    5.166660   -7.006240
  C      6.460900    2.875510   -7.269710
  C      6.875500    1.581410   -7.207560
  C      5.751060    0.749460   -6.909710
  C      5.751560   -0.645450   -6.968750
  C      4.729300   -1.496470   -7.438430
  C      5.229440   -2.764460   -7.557010
  C      6.595770   -2.787010   -7.134250
  N      7.276050   -3.983760   -7.003120
  O      8.440190   -3.990880   -6.577700
  O      6.691580   -5.017860   -7.295620
  C      6.954970   -1.479420   -6.743930
  C      8.066800   -0.970930   -6.070330
  C      9.331560   -1.509640   -6.078800
  N     10.363350   -1.105670   -5.318640
  C     10.187380   -0.243900   -4.219570
  C     11.120860    0.749490   -3.921490
  S     12.619000    0.909770   -4.836620
  C     12.770930   -0.738380   -5.440090
  C     14.040650   -1.183060   -5.791520
  C     14.214240   -2.447920   -6.315510
  C     13.119890   -3.286840   -6.465110
  C     11.857010   -2.856270   -6.109620
  C     11.661050   -1.567190   -5.614140
  C     10.878750    1.651770   -2.892210
  C      9.729630    1.551470   -2.135570
  C      8.838820    0.513160   -2.368930
  C      9.068550   -0.378830   -3.395970
  C      9.184170   -5.176280   -3.666300
  C     10.568720   -4.712920   -3.455920
  C     10.997910   -3.583160   -2.828300
  C     12.421290   -3.474810   -2.963900
  C     12.847240   -4.679080   -3.707140
  C     11.732830   -5.407300   -3.983350
  C     14.155370   -5.021290   -4.053760
  N     15.222980   -5.318600   -4.360710
  C     13.222120   -2.431420   -2.582140
  C     14.583790   -2.199800   -2.948370
  C     14.966160   -0.953530   -2.508690
  C     13.847710   -0.377870   -1.780210
  C     12.804740   -1.249110   -1.808510
  C     11.588010   -1.081350   -1.144200
  N     10.602830   -0.921190   -0.574000
  C     16.195110   -0.265990   -2.715170
  C     17.264210   -0.766630   -3.375210
  C     18.453040   -0.002090   -3.555350
  N     19.572140   -0.513080   -4.190170
  C     20.504210    0.469660   -4.186610
  N     21.735380    0.455520   -4.676130
  C     22.320450    1.628010   -4.467930
  N     23.572490    2.031840   -4.809420
  C     23.685350    3.326540   -4.372460
  N     22.627220    3.782400   -3.787870
  C     21.720150    2.758650   -3.812240
  N     20.488750    2.748560   -3.333160
  C     19.879030    1.587960   -3.524150
  N     18.622240    1.238740   -3.159990
  H     -2.598730   -1.339860   -2.727470
  H     -2.406180    0.948040   -3.857700
  H      2.159610    2.843720   -6.358050
  H      7.042800    3.740400   -7.524330
  H      7.851500    1.219380   -7.467910
  H      3.743180   -1.182340   -7.712410
  H      4.709250   -3.636320   -7.907500
  H      7.901660   -0.053460   -5.520320
  H      9.570310   -2.261530   -6.811100
  H      8.898090   -4.974960   -4.703330
  H     14.878100   -0.516300   -5.655440
  H     15.198820   -2.787920   -6.593600
  H     13.251910   -4.282540   -6.857420
  H     11.016700   -3.526930   -6.202610
  H     11.605410    2.425640   -2.700150
  H      9.545260    2.257410   -1.342260
  H      7.968350    0.393750   -1.745250
  H      8.393540   -1.204180   -3.561430
  H      9.105390   -6.251080   -3.513180
  H      8.490660   -4.658800   -3.008580
  H     10.382550   -2.858070   -2.332080
  H     11.695170   -6.344180   -4.508330
  H     15.175700   -2.889330   -3.515040
  H     13.867640    0.579220   -1.292270
  H     16.278230    0.738630   -2.323780
  H     17.255840   -1.767410   -3.783430
  H     19.684500   -1.440250   -4.566080
  H     24.266510    1.480010   -5.285680
  H     24.583230    3.896560   -4.512940

 Total Charge           Charge          ....    0
 Multiplicity           Mult            ....    1
 Number of Electrons    NEL             ....  502
 Basis Dimension        Dim             .... 1171

ORBITAL ENERGIES
----------------

  NO   OCC          E(Eh)            E(eV)
   0   2.0000     -88.961971     -2420.7783
   1   2.0000     -19.238499      -523.5062
   2   2.0000     -19.238287      -523.5004
   3   2.0000     -19.222966      -523.0835
   4   2.0000     -19.219832      -522.9982
   5   2.0000     -14.647072      -398.5671
   6   2.0000     -14.630542      -398.1173
   7   2.0000     -14.511113      -394.8675
   8   2.0000     -14.478337      -393.9756
   9   2.0000     -14.476230      -393.9182
  10   2.0000     -14.470958      -393.7748
  11   2.0000     -14.455457      -393.3530
  12   2.0000     -14.431195      -392.6928
  13   2.0000     -14.421056      -392.4169
  14   2.0000     -14.414015      -392.2253
  15   2.0000     -14.412302      -392.1787
  16   2.0000     -14.408627      -392.0787
  17   2.0000     -14.405654      -391.9978
  18   2.0000     -14.395781      -391.7291
  19   2.0000     -14.393076      -391.6555
  20   2.0000     -14.390030      -391.5726
  21   2.0000     -14.388010      -391.5176
  22   2.0000     -10.357584      -281.8442
  23   2.0000     -10.353016      -281.7199
  24   2.0000     -10.348993      -281.6104
  25   2.0000     -10.348605      -281.5999
  26   2.0000     -10.346910      -281.5537
  27   2.0000     -10.345619      -281.5186
  28   2.0000     -10.344610      -281.4912
  29   2.0000     -10.343146      -281.4513
  30   2.0000     -10.340913      -281.3905
  31   2.0000     -10.340465      -281.3783
  32   2.0000     -10.338685      -281.3299
  33   2.0000     -10.327828      -281.0345
  34   2.0000     -10.327418      -281.0233
  35   2.0000     -10.325473      -280.9704
  36   2.0000     -10.324450      -280.9426
  37   2.0000     -10.324234      -280.9367
  38   2.0000     -10.323406      -280.9142
  39   2.0000     -10.322377      -280.8862
  40   2.0000     -10.321971      -280.8751
  41   2.0000     -10.321928      -280.8739
  42   2.0000     -10.318017      -280.7675
  43   2.0000     -10.317808      -280.7618
  44   2.0000     -10.317076      -280.7419
  45   2.0000     -10.316159      -280.7170
  46   2.0000     -10.313248      -280.6377
  47   2.0000     -10.311103      -280.5794
  48   2.0000     -10.310372      -280.5595
  49   2.0000     -10.308656      -280.5128
  50   2.0000     -10.306834      -280.4632
  51   2.0000     -10.304029      -280.3869
  52   2.0000     -10.302080      -280.3338
  53   2.0000     -10.300421      -280.2887
  54   2.0000     -10.299749      -280.2704
  55   2.0000     -10.299454      -280.2624
  56   2.0000     -10.298393      -280.2335
  57   2.0000     -10.297318      -280.2043
  58   2.0000     -10.296983      -280.1951
  59   2.0000     -10.295593      -280.1573
  60   2.0000     -10.295132      -280.1448
  61   2.0000     -10.294501      -280.1276
  62   2.0000     -10.292263      -280.0667
  63   2.0000     -10.291844      -280.0553
  64   2.0000     -10.291630      -280.0495
  65   2.0000     -10.288819      -279.9730
  66   2.0000     -10.288530      -279.9651
  67   2.0000     -10.286678      -279.9148
  68   2.0000     -10.277597      -279.6676
  69   2.0000     -10.277152      -279.6555
  70   2.0000     -10.274192      -279.5750
  71   2.0000     -10.265132      -279.3284
  72   2.0000     -10.264857      -279.3210
  73   2.0000      -8.056983      -219.2416
  74   2.0000      -6.027122      -164.0063
  75   2.0000      -6.023294      -163.9022
  76   2.0000      -6.016989      -163.7306
  77   2.0000      -1.314262       -35.7629
  78   2.0000      -1.295926       -35.2639
  79   2.0000      -1.141376       -31.0584
  80   2.0000      -1.134767       -30.8786
  81   2.0000      -1.129827       -30.7442
  82   2.0000      -1.125222       -30.6188
  83   2.0000      -1.122362       -30.5410
  84   2.0000      -1.117435       -30.4069
  85   2.0000      -1.110532       -30.2191
  86   2.0000      -1.047072       -28.4923
  87   2.0000      -1.040631       -28.3170
  88   2.0000      -1.027927       -27.9713
  89   2.0000      -1.020591       -27.7717
  90   2.0000      -1.016985       -27.6736
  91   2.0000      -1.005149       -27.3515
  92   2.0000      -1.002736       -27.2858
  93   2.0000      -0.988596       -26.9011
  94   2.0000      -0.986784       -26.8518
  95   2.0000      -0.983093       -26.7513
  96   2.0000      -0.982012       -26.7219
  97   2.0000      -0.980846       -26.6902
  98   2.0000      -0.979221       -26.6460
  99   2.0000      -0.972969       -26.4758
 100   2.0000      -0.947907       -25.7938
 101   2.0000      -0.939717       -25.5710
 102   2.0000      -0.921745       -25.0819
 103   2.0000      -0.915477       -24.9114
 104   2.0000      -0.904968       -24.6254
 105   2.0000      -0.901398       -24.5283
 106   2.0000      -0.878850       -23.9147
 107   2.0000      -0.877102       -23.8671
 108   2.0000      -0.875245       -23.8166
 109   2.0000      -0.862167       -23.4608
 110   2.0000      -0.861721       -23.4486
 111   2.0000      -0.860999       -23.4290
 112   2.0000      -0.849668       -23.1206
 113   2.0000      -0.848513       -23.0892
 114   2.0000      -0.828674       -22.5494
 115   2.0000      -0.822094       -22.3703
 116   2.0000      -0.814426       -22.1617
 117   2.0000      -0.808371       -21.9969
 118   2.0000      -0.796867       -21.6838
 119   2.0000      -0.780938       -21.2504
 120   2.0000      -0.779793       -21.2192
 121   2.0000      -0.760357       -20.6904
 122   2.0000      -0.753380       -20.5005
 123   2.0000      -0.751107       -20.4387
 124   2.0000      -0.737779       -20.0760
 125   2.0000      -0.736233       -20.0339
 126   2.0000      -0.732427       -19.9304
 127   2.0000      -0.729988       -19.8640
 128   2.0000      -0.719993       -19.5920
 129   2.0000      -0.718277       -19.5453
 130   2.0000      -0.713533       -19.4162
 131   2.0000      -0.709162       -19.2973
 132   2.0000      -0.706917       -19.2362
 133   2.0000      -0.705615       -19.2008
 134   2.0000      -0.697251       -18.9732
 135   2.0000      -0.695443       -18.9240
 136   2.0000      -0.677337       -18.4313
 137   2.0000      -0.670534       -18.2462
 138   2.0000      -0.669179       -18.2093
 139   2.0000      -0.663011       -18.0414
 140   2.0000      -0.660884       -17.9836
 141   2.0000      -0.658705       -17.9243
 142   2.0000      -0.654921       -17.8213
 143   2.0000      -0.648658       -17.6509
 144   2.0000      -0.645358       -17.5611
 145   2.0000      -0.644622       -17.5410
 146   2.0000      -0.634892       -17.2763
 147   2.0000      -0.627743       -17.0817
 148   2.0000      -0.625809       -17.0291
 149   2.0000      -0.621523       -16.9125
 150   2.0000      -0.619005       -16.8440
 151   2.0000      -0.618015       -16.8170
 152   2.0000      -0.613028       -16.6813
 153   2.0000      -0.607361       -16.5271
 154   2.0000      -0.607101       -16.5201
 155   2.0000      -0.598677       -16.2908
 156   2.0000      -0.591898       -16.1064
 157   2.0000      -0.586495       -15.9593
 158   2.0000      -0.581650       -15.8275
 159   2.0000      -0.577541       -15.7157
 160   2.0000      -0.577064       -15.7027
 161   2.0000      -0.574651       -15.6371
 162   2.0000      -0.574147       -15.6233
 163   2.0000      -0.570839       -15.5333
 164   2.0000      -0.566226       -15.4078
 165   2.0000      -0.565996       -15.4015
 166   2.0000      -0.564981       -15.3739
 167   2.0000      -0.561412       -15.2768
 168   2.0000      -0.551102       -14.9962
 169   2.0000      -0.550591       -14.9823
 170   2.0000      -0.549801       -14.9608
 171   2.0000      -0.548334       -14.9209
 172   2.0000      -0.540424       -14.7057
 173   2.0000      -0.538747       -14.6600
 174   2.0000      -0.538249       -14.6465
 175   2.0000      -0.535062       -14.5598
 176   2.0000      -0.533609       -14.5202
 177   2.0000      -0.531679       -14.4677
 178   2.0000      -0.525092       -14.2885
 179   2.0000      -0.523451       -14.2438
 180   2.0000      -0.522641       -14.2218
 181   2.0000      -0.521638       -14.1945
 182   2.0000      -0.516703       -14.0602
 183   2.0000      -0.515272       -14.0213
 184   2.0000      -0.508142       -13.8272
 185   2.0000      -0.506299       -13.7771
 186   2.0000      -0.504601       -13.7309
 187   2.0000      -0.502681       -13.6786
 188   2.0000      -0.497661       -13.5420
 189   2.0000      -0.492136       -13.3917
 190   2.0000      -0.490098       -13.3362
 191   2.0000      -0.488742       -13.2994
 192   2.0000      -0.484734       -13.1903
 193   2.0000      -0.483286       -13.1509
 194   2.0000      -0.478878       -13.0309
 195   2.0000      -0.475626       -12.9425
 196   2.0000      -0.474692       -12.9170
 197   2.0000      -0.472466       -12.8564
 198   2.0000      -0.469253       -12.7690
 199   2.0000      -0.463430       -12.6106
 200   2.0000      -0.462218       -12.5776
 201   2.0000      -0.456026       -12.4091
 202   2.0000      -0.455126       -12.3846
 203   2.0000      -0.452176       -12.3043
 204   2.0000      -0.451544       -12.2871
 205   2.0000      -0.450105       -12.2480
 206   2.0000      -0.449217       -12.2238
 207   2.0000      -0.446955       -12.1623
 208   2.0000      -0.442811       -12.0495
 209   2.0000      -0.442625       -12.0444
 210   2.0000      -0.440462       -11.9856
 211   2.0000      -0.439241       -11.9523
 212   2.0000      -0.433347       -11.7920
 213   2.0000      -0.426477       -11.6050
 214   2.0000      -0.425942       -11.5905
 215   2.0000      -0.424548       -11.5525
 216   2.0000      -0.419561       -11.4168
 217   2.0000      -0.413928       -11.2636
 218   2.0000      -0.404566       -11.0088
 219   2.0000      -0.399529       -10.8717
 220   2.0000      -0.398046       -10.8314
 221   2.0000      -0.390041       -10.6135
 222   2.0000      -0.387460       -10.5433
 223   2.0000      -0.384301       -10.4574
 224   2.0000      -0.380628       -10.3574
 225   2.0000      -0.379066       -10.3149
 226   2.0000      -0.376345       -10.2409
 227   2.0000      -0.374993       -10.2041
 228   2.0000      -0.374031       -10.1779
 229   2.0000      -0.369831       -10.0636
 230   2.0000      -0.365662        -9.9502
 231   2.0000      -0.361306        -9.8316
 232   2.0000      -0.357948        -9.7403
 233   2.0000      -0.354958        -9.6589
 234   2.0000      -0.354181        -9.6378
 235   2.0000      -0.346125        -9.4186
 236   2.0000      -0.343985        -9.3603
 237   2.0000      -0.330391        -8.9904
 238   2.0000      -0.328054        -8.9268
 239   2.0000      -0.324330        -8.8255
 240   2.0000      -0.321806        -8.7568
 241   2.0000      -0.315022        -8.5722
 242   2.0000      -0.314830        -8.5670
 243   2.0000      -0.306034        -8.3276
 244   2.0000      -0.305290        -8.3074
 245   2.0000      -0.303743        -8.2653
 246   2.0000      -0.302261        -8.2249
 247   2.0000      -0.287805        -7.8316
 248   2.0000      -0.268583        -7.3085
 249   2.0000      -0.264476        -7.1968
 250   2.0000      -0.246566        -6.7094
 251   0.0000      -0.126972        -3.4551
 252   0.0000      -0.118682        -3.2295
 253   0.0000      -0.055193        -1.5019
 254   0.0000      -0.045137        -1.2282
 255   0.0000      -0.026037        -0.7085

MULLIKEN ATOMIC CHARGES
-----------------------
   0 C :    0.117030
   1 N :   -0.062877
   2 C :   -0.043449
   3 N :    0.030729
   4 C :   -0.055438
   5 N :    0.001184
   6 C :   -0.100688
   7 N :   -0.059393
   8 C :   -0.117295
   9 N :    0.068711
  10 C :   -0.133630
  11 N :   -0.069317
  12 C :    0.112528
  13 C :    0.041569
  14 N :    0.299017
  15 O :   -0.306112
  16 O :   -0.236436
  17 C :   -0.009890
  18 C :   -0.005033
  19 C :   -0.024311
  20 C :    0.089976
  21 C :    0.054021
  22 C :    0.024442
  23 C :    0.023689
  24 N :    0.304943
  25 O :   -0.327750
  26 O :   -0.269922
  27 C :    0.078145
  28 C :   -0.166063
  29 C :    0.155345
  30 N :   -0.121758
  31 C :    0.105794
  32 C :   -0.044648
  33 S :    0.135011
  34 C :   -0.071203
  35 C :    0.017143
  36 C :    0.019635
  37 C :    0.048154
  38 C :   -0.044547
  39 C :    0.134366
  40 C :   -0.028686
  41 C :    0.062805
  42 C :    0.054533
  43 C :   -0.034804
  44 C :    0.121102
  45 C :   -0.054626
  46 C :   -0.104693
  47 C :    0.109302
  48 C :   -0.112121
  49 C :   -0.010960
  50 C :   -0.181148
  51 N :    0.143230
  52 C :    0.095500
  53 C :   -0.079277
  54 C :    0.104974
  55 C :    0.002632
  56 C :   -0.100630
  57 C :   -0.173973
  58 N :    0.135582
  59 C :    0.006481
  60 C :    0.015543
  61 C :    0.021985
  62 N :   -0.026339
  63 C :   -0.054236
  64 N :    0.019796
  65 C :   -0.044256
  66 N :   -0.061615
  67 C :    0.115316
  68 N :   -0.064884
  69 C :   -0.133862
  70 N :    0.068590
  71 C :   -0.117319
  72 N :   -0.043843
  73 H :    0.017927
  74 H :    0.138202
  75 H :    0.151752
  76 H :   -0.006268
  77 H :   -0.009793
  78 H :   -0.017901
  79 H :    0.006884
  80 H :    0.059311
  81 H :    0.056547
  82 H :    0.049412
  83 H :   -0.010374
  84 H :   -0.003520
  85 H :    0.002843
  86 H :    0.017215
  87 H :   -0.010842
  88 H :    0.001368
  89 H :    0.004104
  90 H :    0.015261
  91 H :    0.020430
  92 H :    0.019844
  93 H :   -0.012602
  94 H :   -0.006023
  95 H :   -0.004738
  96 H :   -0.007460
  97 H :    0.013048
  98 H :   -0.017021
  99 H :    0.133722
 100 H :    0.137771
 101 H :    0.019126
Sum of atomic charges:   -0.0000000

LOEWDIN ATOMIC CHARGES
----------------------
   0 C :    0.057483
   1 N :    0.054793
   2 C :   -0.007578
   3 N :   -0.090660
   4 C :   -0.004648
   5 N :    0.073589
   6 C :    0.034208
   7 N :   -0.106587
   8 C :   -0.047520
   9 N :   -0.033029
  10 C :   -0.043623
  11 N :   -0.110944
  12 C :   -0.020157
  13 C :   -0.057040
  14 N :    0.297624
  15 O :   -0.236767
  16 O :   -0.199270
  17 C :   -0.017721
  18 C :   -0.041068
  19 C :   -0.002210
  20 C :    0.089597
  21 C :   -0.045798
  22 C :    0.055907
  23 C :   -0.117971
  24 N :    0.293699
  25 O :   -0.272371
  26 O :   -0.233912
  27 C :    0.045197
  28 C :   -0.083495
  29 C :    0.115264
  30 N :    0.073282
  31 C :   -0.008336
  32 C :   -0.156356
  33 S :    0.376817
  34 C :   -0.160375
  35 C :   -0.026015
  36 C :   -0.014330
  37 C :   -0.008593
  38 C :   -0.021682
  39 C :    0.002615
  40 C :   -0.036373
  41 C :    0.005124
  42 C :    0.001281
  43 C :   -0.016152
  44 C :   -0.054342
  45 C :    0.004660
  46 C :   -0.052686
  47 C :    0.047996
  48 C :   -0.084211
  49 C :    0.048965
  50 C :   -0.025381
  51 N :   -0.079294
  52 C :    0.030222
  53 C :   -0.006616
  54 C :   -0.030154
  55 C :    0.054622
  56 C :   -0.090800
  57 C :   -0.024981
  58 N :   -0.066908
  59 C :    0.018021
  60 C :   -0.034921
  61 C :    0.033437
  62 N :    0.061041
  63 C :   -0.006802
  64 N :   -0.095717
  65 C :   -0.009765
  66 N :    0.054084
  67 C :    0.056685
  68 N :   -0.108481
  69 C :   -0.042971
  70 N :   -0.028213
  71 C :   -0.041602
  72 N :   -0.114132
  73 H :    0.021909
  74 H :    0.097052
  75 H :    0.074900
  76 H :    0.033276
  77 H :    0.026188
  78 H :    0.027866
  79 H :    0.039160
  80 H :    0.045553
  81 H :    0.038240
  82 H :    0.042373
  83 H :    0.032044
  84 H :    0.034288
  85 H :    0.036541
  86 H :    0.040427
  87 H :    0.031444
  88 H :    0.036959
  89 H :    0.038958
  90 H :    0.040277
  91 H :    0.038964
  92 H :    0.036553
  93 H :    0.030772
  94 H :    0.035905
  95 H :    0.028119
  96 H :    0.035641
  97 H :    0.042799
  98 H :    0.030750
  99 H :    0.096333
 100 H :    0.096818
 101 H :    0.022239

  Mayer bond orders larger than 0.100000
B(  0-C ,  1-N ) :   1.1594 B(  0-C , 11-N ) :   1.7204 B(  0-C , 73-H ) :   0.9812
B(  1-N ,  2-C ) :   1.2016 B(  1-N , 74-H ) :   0.9302 B(  2-C ,  3-N ) :   1.5415
B(  2-C , 10-C ) :   1.1416 B(  3-N ,  4-C ) :   1.5338 B(  4-C ,  5-N ) :   1.2238
B(  4-C ,  8-C ) :   1.1028 B(  5-N ,  6-C ) :   1.2499 B(  5-N , 75-H ) :   0.8608
B(  6-C ,  7-N ) :   1.6584 B(  6-C , 12-C ) :   1.0099 B(  7-N ,  8-C ) :   1.3891
B(  8-C ,  9-N ) :   1.5195 B(  9-N , 10-C ) :   1.5315 B( 10-C , 11-N ) :   1.3662
B( 12-C , 13-C ) :   1.4393 B( 12-C , 19-C ) :   1.1396 B( 13-C , 14-N ) :   0.9804
B( 13-C , 17-C ) :   1.1795 B( 14-N , 15-O ) :   1.4053 B( 14-N , 16-O ) :   1.5558
B( 15-O , 16-O ) :   0.2398 B( 15-O , 75-H ) :   0.1121 B( 17-C , 18-C ) :   1.5349
B( 17-C , 76-H ) :   1.0100 B( 18-C , 19-C ) :   1.1522 B( 18-C , 77-H ) :   1.0035
B( 19-C , 20-C ) :   1.3882 B( 20-C , 21-C ) :   1.2248 B( 20-C , 27-C ) :   1.0111
B( 21-C , 22-C ) :   1.5070 B( 21-C , 78-H ) :   1.0037 B( 22-C , 23-C ) :   1.1349
B( 22-C , 79-H ) :   1.0046 B( 23-C , 24-N ) :   1.0475 B( 23-C , 27-C ) :   1.3286
B( 24-N , 25-O ) :   1.3532 B( 24-N , 26-O ) :   1.5196 B( 25-O , 26-O ) :   0.1976
B( 27-C , 28-C ) :   1.3492 B( 28-C , 29-C ) :   1.3898 B( 28-C , 80-H ) :   0.9328
B( 29-C , 30-N ) :   1.2776 B( 29-C , 81-H ) :   0.9496 B( 30-N , 31-C ) :   0.9563
B( 30-N , 39-C ) :   0.9620 B( 31-C , 32-C ) :   1.4301 B( 31-C , 43-C ) :   1.3872
B( 32-C , 33-S ) :   0.9890 B( 32-C , 40-C ) :   1.3735 B( 33-S , 34-C ) :   0.9933
B( 34-C , 35-C ) :   1.3963 B( 34-C , 39-C ) :   1.4235 B( 35-C , 36-C ) :   1.3901
B( 35-C , 83-H ) :   0.9849 B( 36-C , 37-C ) :   1.3651 B( 36-C , 84-H ) :   1.0009
B( 37-C , 38-C ) :   1.3635 B( 37-C , 85-H ) :   0.9872 B( 38-C , 39-C ) :   1.4000
B( 38-C , 86-H ) :   0.9876 B( 40-C , 41-C ) :   1.4096 B( 40-C , 87-H ) :   0.9901
B( 41-C , 42-C ) :   1.3487 B( 41-C , 88-H ) :   0.9977 B( 42-C , 43-C ) :   1.3901
B( 42-C , 89-H ) :   0.9885 B( 43-C , 90-H ) :   0.9927 B( 44-C , 45-C ) :   1.0927
B( 44-C , 82-H ) :   0.9118 B( 44-C , 91-H ) :   0.9329 B( 44-C , 92-H ) :   0.9472
B( 45-C , 46-C ) :   1.6242 B( 45-C , 49-C ) :   1.0572 B( 46-C , 47-C ) :   1.0968
B( 46-C , 93-H ) :   1.0086 B( 47-C , 48-C ) :   1.1038 B( 47-C , 52-C ) :   1.4506
B( 48-C , 49-C ) :   1.6531 B( 48-C , 50-C ) :   1.1069 B( 49-C , 94-H ) :   1.0269
B( 50-C , 51-N ) :   2.9614 B( 52-C , 53-C ) :   1.1257 B( 52-C , 56-C ) :   1.1098
B( 53-C , 54-C ) :   1.5493 B( 53-C , 95-H ) :   0.9882 B( 54-C , 55-C ) :   1.0456
B( 54-C , 59-C ) :   1.0556 B( 55-C , 56-C ) :   1.6422 B( 55-C , 96-H ) :   1.0286
B( 56-C , 57-C ) :   1.1078 B( 57-C , 58-N ) :   2.9081 B( 59-C , 60-C ) :   1.6934
B( 59-C , 97-H ) :   0.9873 B( 60-C , 61-C ) :   1.0781 B( 60-C , 98-H ) :   0.9554
B( 61-C , 62-N ) :   1.1597 B( 61-C , 72-N ) :   1.6747 B( 62-N , 63-C ) :   1.2034
B( 62-N , 99-H ) :   0.9172 B( 63-C , 64-N ) :   1.5409 B( 63-C , 71-C ) :   1.1292
B( 64-N , 65-C ) :   1.5316 B( 65-C , 66-N ) :   1.2054 B( 65-C , 69-C ) :   1.1493
B( 66-N , 67-C ) :   1.1575 B( 66-N ,100-H ) :   0.9304 B( 67-C , 68-N ) :   1.7233
B( 67-C ,101-H ) :   0.9809 B( 68-N , 69-C ) :   1.3671 B( 69-C , 70-N ) :   1.5246
B( 70-N , 71-C ) :   1.5196 B( 71-C , 72-N ) :   1.3778

-----------------------------------------------------------------------------
         ABSORPTION SPECTRUM VIA TRANSITION ELECTRIC DIPOLE MOMENTS
-----------------------------------------------------------------------------
State   Energy  Wavelength   fosc         T2         TX        TY        TZ
        (cm-1)    (nm)                  (au**2)     (au)      (au)      (au)
-----------------------------------------------------------------------------
   0    7408.1   1349.9   0.176875628   7.86025  -2.70147   0.69963  -0.26986
   1   12722.4    786.0   0.069375860   1.79520  -0.99287  -0.38505   0.81311
   2   13160.6    759.8   0.006370976   0.15937  -0.10637  -0.37602   0.08162
   3   15340.8    651.9   0.276701218   5.93798  -1.95264  -1.42918  -0.28743
   4   18516.7    540.1   0.071466134   1.27061   0.87310  -0.26027   0.66376
   5   19051.7    524.9   0.047709415   0.82441  -0.86101  -0.28668  -0.02981
   6   19616.5    509.8   0.004307160   0.07228  -0.19367   0.17228  -0.07138
   7   19946.4    501.3   0.024803071   0.40937   0.35950   0.51671   0.11462
   8   20381.4    490.6   0.047669680   0.76999  -0.27588  -0.83051   0.06430
   9   21809.0    458.5   0.041252286   0.62271   0.76676  -0.05361  -0.17866
  10   22751.8    439.5   0.140543557   2.03363   1.19170   0.74157  -0.25210
  11   23018.0    434.4   0.362686186   5.18727  -2.08477  -0.89118   0.21634
  12   23692.2    422.1   0.121560767   1.68913  -0.20101   0.99242   0.81476
  13   24548.7    407.4   0.021795528   0.29229  -0.14974   0.51027   0.09744
  14   24643.0    405.8   0.066103914   0.88310  -0.40883   0.69089  -0.48849
  15   24888.5    401.8   0.125936368   1.66582   1.26357  -0.07229  -0.25297
  16   25609.4    390.5   0.090246588   1.16013   0.61279   0.65102   0.60066
  17   26583.6    376.2   0.052951877   0.65576  -0.14331   0.32976  -0.72559
  18   27116.5    368.8   0.005321792   0.06461  -0.03698   0.18060  -0.17501
  19   27295.2    366.4   0.038403757   0.46319  -0.57820  -0.04674  -0.35594
  20   27740.3    360.5   0.000004256   0.00005   0.00386   0.00151   0.00577
  21   28739.0    348.0   0.313580977   3.59214  -1.00951  -1.57587   0.29943
  22   29346.5    340.8   0.040037132   0.44914  -0.00710  -0.43400  -0.51062
  23   29727.9    336.4   0.312273764   3.45817   0.32042   1.81040  -0.27922
  24   30001.7    333.3   0.026413875   0.28984  -0.53502  -0.05782   0.01599
  25   30007.5    333.2   0.070129636   0.76939  -0.45750  -0.73775  -0.12573
  26   30569.2    327.1   0.724875389   7.80648  -2.36800  -1.47856   0.11357
  27   30945.1    323.2   0.426205037   4.53421   1.90249   0.78717  -0.54323
  28   30981.2    322.8   0.043437389   0.46157   0.65267   0.18792   0.01684
  29   31278.6    319.7   0.010981162   0.11558   0.06336  -0.30898  -0.12687
  30   31353.4    318.9   0.001963105   0.02061  -0.01822   0.13807  -0.03491
  31   31530.2    317.2   0.391132570   4.08387   0.30211  -1.99794  -0.02880
  32   31985.8    312.6   0.009786572   0.10073   0.03701  -0.26452  -0.17143
  33   32204.6    310.5   0.004860008   0.04968  -0.01677  -0.21776  -0.04451
  34   32297.7    309.6   0.149816814   1.52709  -0.19818  -1.03301  -0.64862
  35   32499.9    307.7   0.071148266   0.72071  -0.38435  -0.75541  -0.04834
  36   32816.4    304.7   0.092687824   0.92984   0.71820  -0.59444  -0.24630
  37   32878.0    304.2   0.019176073   0.19201   0.27603   0.33783   0.04117
  38   33619.1    297.4   0.000017835   0.00017   0.00956  -0.00546  -0.00731
  39   33722.3    296.5   0.043537163   0.42503  -0.51129   0.36489  -0.17454
  40   33815.3    295.7   0.005621580   0.05473  -0.15728   0.16329  -0.05769
  41   33888.2    295.1   0.016817460   0.16338   0.37411   0.01915   0.15183
  42   34376.4    290.9   0.011740914   0.11244  -0.28311  -0.17431   0.04365
  43   34519.8    289.7   0.124314109   1.18557  -0.75718  -0.53793   0.56823
  44   34613.1    288.9   0.092642969   0.88115   0.56199   0.53319  -0.53012
  45   34705.8    288.1   0.000870736   0.00826  -0.00159   0.03375  -0.08437
  46   34861.4    286.9   0.013652138   0.12892  -0.30652  -0.15694  -0.10168
  47   35130.5    284.7   0.000447366   0.00419   0.06134  -0.02071  -0.00084
  48   35582.8    281.0   0.010322958   0.09551  -0.04550  -0.26096   0.15918
  49   35618.4    280.8   0.044895764   0.41496  -0.30132  -0.56621   0.05975
  50   35733.1    279.9   0.014754793   0.13594  -0.15778  -0.33313   0.00819
  51   35981.6    277.9   0.002801998   0.02564  -0.05479   0.09642   0.11549
  52   36492.8    274.0   0.004480411   0.04042   0.18230  -0.06515  -0.05423
  53   36624.8    273.0   0.010534072   0.09469  -0.24761   0.17212   0.06127
  54   36776.6    271.9   0.019008008   0.17015  -0.31877   0.25261   0.06873
  55   37147.9    269.2   0.040272901   0.35691   0.36851   0.45305   0.12590
  56   37247.6    268.5   0.000229774   0.00203   0.02204   0.00534   0.03895
  57   37436.0    267.1   0.025406652   0.22343  -0.17999   0.28486   0.33149
  58   37555.8    266.3   0.100714792   0.88286   0.85233  -0.32505  -0.22525
  59   37905.1    263.8   0.004702452   0.04084   0.07451  -0.01797  -0.18699
  60   38002.5    263.1   0.006224451   0.05392   0.15956  -0.05207  -0.16047
  61   38136.1    262.2   0.040465262   0.34932   0.18962  -0.55969  -0.01039
  62   38177.7    261.9   0.010582482   0.09125  -0.19589   0.08365  -0.21420
  63   38589.9    259.1   0.009101420   0.07764   0.26426   0.01747  -0.08664
  64   38908.2    257.0   0.134413834   1.13731   1.05606   0.13862  -0.05314
  65   38970.3    256.6   0.097911271   0.82713  -0.66421  -0.03001   0.62053
  66   39055.9    256.0   0.013540201   0.11413  -0.09578   0.23662   0.22130
  67   39180.9    255.2   0.012165552   0.10222   0.01226  -0.31828  -0.02771
  68   39712.8    251.8   0.052578605   0.43587   0.32665   0.24022   0.52102
  69   39859.6    250.9   0.018669676   0.15420  -0.39087  -0.00387   0.03744
  70   40302.0    248.1   0.012694420   0.10370  -0.29159  -0.05713   0.12413

FINAL SINGLE POINT ENERGY     -3586.372997487827

DIPOLE MOMENT
-------------
                                X             Y             Z
Electronic contribution:     -6.60285      16.51921      -3.51779
Nuclear contribution   :      8.56285     -17.10533       2.58390
                        -----------------------------------------
Total Dipole Moment    :      1.96000      -0.58612      -0.93389
                        -----------------------------------------
Magnitude (a.u.)       :      2.24884
Magnitude (Debye)      :      5.71609

Rotational constants in cm-1:     0.001943     0.000373     0.000344
Rotational constants in MHz :    58.240118    11.177323    10.320870

                             ****ORCA TERMINATED NORMALLY****
TOTAL RUN TIME: 0 days 0 hours 25 minutes 52 seconds 754 msec
