                         Program Version 4.2.0 -  RELEASE  -
|  1> # ORCA input file
|  2> # SCF done       -179.995063824662          0.000396938329
|  3> ! CAM-B3LYP def2-SVP def2/J RIJCOSX Grid4 TightSCF
|  4> %maxcore 5000
|  5> %tddft
|  6>     Mode sTDDFT
|  7>     Ethresh 5.0
|  8>     maxcore 5000
|  9> end
| 10>
| 11> %pal
| 12>   nprocs 6
| 13>   end
| 14> * xyz 0 1
| 15>    C       -5.51147         1.86940        -6.76246
| 16>    O       -6.36112         1.57996        -5.77053
| 17>    C       -6.07686         2.53704        -4.85070
| 18>    N       -5.12254         3.32309        -5.27995
| 19>    N       -4.76900         2.89285        -6.49584
| 20>    C       -6.76534         2.59741        -3.60136
| 21>    C       -6.46726         3.57321        -2.71385
| 22>    C       -7.03407         3.81376        -1.43014
| 23>    C       -8.28504         3.53584        -0.88719
| 24>    N       -9.35974         2.77437        -1.38333
| 25>    O      -10.45958         3.00789        -0.91203
| 26>    O       -9.15432         1.92095        -2.23021
| 27>    C       -8.43158         4.24560         0.35672
| 28>    C       -7.30738         4.96914         0.58865
| 29>    C       -6.37814         4.72405        -0.47478
| 30>    C       -5.06343         5.14754        -0.52048
| 31>    C       -3.96573         4.47940        -1.14124
| 32>    C       -2.81210         5.09515        -0.76119
| 33>    C       -3.12436         6.22086         0.07190
| 34>    N       -2.12117         7.13827         0.43736
| 35>    O       -2.43917         8.19773         0.95303
| 36>    O       -0.97026         6.82705         0.18269
| 37>    C       -4.50862         6.29095         0.23916
| 38>    C       -5.33896         7.27286         0.81864
| 39>    C       -5.02688         8.07546         1.88161
| 40>    C       -5.78769         9.11922         2.43891
| 41>    N       -6.85581         9.81504         1.92545
| 42>    C       -7.51130         9.65359         0.64895
| 43>    C       -8.68856         8.68369         0.73100
| 44>    C       -7.26954        10.85877         2.78484
| 45>    O       -8.17494        11.61867         2.52862
| 46>    C       -6.37637        10.75849         3.92205
| 47>    C       -5.49250         9.70033         3.68560
| 48>    C       -4.59941         9.60412         4.82277
| 49>    O       -3.70999         8.83390         5.09628
| 50>    N       -4.99288        10.67574         5.66877
| 51>    C       -4.34275        10.83366         6.94913
| 52>    C       -5.22953        10.36589         8.09964
| 53>    C       -6.05256        11.36848         5.14647
| 54>    C       -6.73049        12.51260         5.62668
| 55>    C       -6.43255        13.28395         6.70580
| 56>    C       -7.15279        14.44855         7.06342
| 57>    S       -8.58800        14.95653         6.21477
| 58>    C       -6.83267        15.33008         8.09654
| 59>    C       -5.66264        15.15672         8.98435
| 60>    O       -4.88092        14.22089         8.91219
| 61>    C       -5.53739        16.22474         9.95584
| 62>    C       -4.58171        16.41418        10.93224
| 63>    N       -4.87065        17.55221        11.60368
| 64>    C       -4.06452        18.12374        12.65342
| 65>    C       -2.98505        19.03870        12.07897
| 66>    C       -5.98609        18.11527        11.08208
| 67>    C       -6.44138        17.31977        10.05291
| 68>    C       -7.60468        17.50174         9.19977
| 69>    O       -8.36248        18.44718         9.30203
| 70>    C       -7.74576        16.41577         8.19908
| 71>    C       -8.75119        16.33078         7.24472
| 72>    C       -9.88216        17.15323         6.96290
| 73>    O      -10.25016        18.24713         7.64489
| 74>    C      -11.36434        18.64942         7.00002
| 75>    N      -11.64616        17.85159         6.00231
| 76>    N      -10.71387        16.90752         5.97697
| 77>    C      -12.09723        19.81511         7.41238
| 78>    C      -11.71374        20.56074         8.44413
| 79>    H       -5.49685         1.27675        -7.65312
| 80>    H       -7.50340         1.83321        -3.41696
| 81>    H       -5.69021         4.26624        -3.01052
| 82>    H       -9.30530         4.16980         0.97592
| 83>    H       -7.08200         5.51668         1.48331
| 84>    H       -4.03718         3.57954        -1.71938
| 85>    H       -1.80839         4.82203        -1.02736
| 86>    H       -6.32755         7.32579         0.38757
| 87>    H       -4.10699         7.89715         2.42096
| 88>    H       -6.77649         9.34060        -0.09569
| 89>    H       -7.89130        10.64256         0.37433
| 90>    H       -8.38191         7.70770         1.10049
| 91>    H       -9.13324         8.55998        -0.25244
| 92>    H       -9.44314         9.08271         1.40403
| 93>    H       -4.02856        11.87017         7.08737
| 94>    H       -3.44779        10.20584         6.90112
| 95>    H       -6.17008        10.91089         8.11991
| 96>    H       -4.71490        10.52889         9.04179
| 97>    H       -5.44445         9.30486         7.99695
| 98>    H       -7.56864        12.80168         5.00188
| 99>    H       -5.59747        13.06812         7.35419
|100>    H       -3.73515        15.80447        11.17844
|101>    H       -3.60301        17.31029        13.21890
|102>    H       -4.71718        18.68932        13.32302
|103>    H       -2.32791        18.48084        11.41630
|104>    H       -2.39114        19.46168        12.88393
|105>    H       -3.43695        19.85080        11.51461
|106>    H       -6.39553        19.02939        11.46388
|107>    H      -12.97239        20.02786         6.81820
|108>    H      -10.82979        20.31275         9.00919
|109>    H      -12.26804        21.43176         8.74629
|110> *
|111>
|112>                          ****END OF INPUT****

CARTESIAN COORDINATES (ANGSTROEM)
---------------------------------
  C     -5.511470    1.869400   -6.762460
  O     -6.361120    1.579960   -5.770530
  C     -6.076860    2.537040   -4.850700
  N     -5.122540    3.323090   -5.279950
  N     -4.769000    2.892850   -6.495840
  C     -6.765340    2.597410   -3.601360
  C     -6.467260    3.573210   -2.713850
  C     -7.034070    3.813760   -1.430140
  C     -8.285040    3.535840   -0.887190
  N     -9.359740    2.774370   -1.383330
  O    -10.459580    3.007890   -0.912030
  O     -9.154320    1.920950   -2.230210
  C     -8.431580    4.245600    0.356720
  C     -7.307380    4.969140    0.588650
  C     -6.378140    4.724050   -0.474780
  C     -5.063430    5.147540   -0.520480
  C     -3.965730    4.479400   -1.141240
  C     -2.812100    5.095150   -0.761190
  C     -3.124360    6.220860    0.071900
  N     -2.121170    7.138270    0.437360
  O     -2.439170    8.197730    0.953030
  O     -0.970260    6.827050    0.182690
  C     -4.508620    6.290950    0.239160
  C     -5.338960    7.272860    0.818640
  C     -5.026880    8.075460    1.881610
  C     -5.787690    9.119220    2.438910
  N     -6.855810    9.815040    1.925450
  C     -7.511300    9.653590    0.648950
  C     -8.688560    8.683690    0.731000
  C     -7.269540   10.858770    2.784840
  O     -8.174940   11.618670    2.528620
  C     -6.376370   10.758490    3.922050
  C     -5.492500    9.700330    3.685600
  C     -4.599410    9.604120    4.822770
  O     -3.709990    8.833900    5.096280
  N     -4.992880   10.675740    5.668770
  C     -4.342750   10.833660    6.949130
  C     -5.229530   10.365890    8.099640
  C     -6.052560   11.368480    5.146470
  C     -6.730490   12.512600    5.626680
  C     -6.432550   13.283950    6.705800
  C     -7.152790   14.448550    7.063420
  S     -8.588000   14.956530    6.214770
  C     -6.832670   15.330080    8.096540
  C     -5.662640   15.156720    8.984350
  O     -4.880920   14.220890    8.912190
  C     -5.537390   16.224740    9.955840
  C     -4.581710   16.414180   10.932240
  N     -4.870650   17.552210   11.603680
  C     -4.064520   18.123740   12.653420
  C     -2.985050   19.038700   12.078970
  C     -5.986090   18.115270   11.082080
  C     -6.441380   17.319770   10.052910
  C     -7.604680   17.501740    9.199770
  O     -8.362480   18.447180    9.302030
  C     -7.745760   16.415770    8.199080
  C     -8.751190   16.330780    7.244720
  C     -9.882160   17.153230    6.962900
  O    -10.250160   18.247130    7.644890
  C    -11.364340   18.649420    7.000020
  N    -11.646160   17.851590    6.002310
  N    -10.713870   16.907520    5.976970
  C    -12.097230   19.815110    7.412380
  C    -11.713740   20.560740    8.444130
  H     -5.496850    1.276750   -7.653120
  H     -7.503400    1.833210   -3.416960
  H     -5.690210    4.266240   -3.010520
  H     -9.305300    4.169800    0.975920
  H     -7.082000    5.516680    1.483310
  H     -4.037180    3.579540   -1.719380
  H     -1.808390    4.822030   -1.027360
  H     -6.327550    7.325790    0.387570
  H     -4.106990    7.897150    2.420960
  H     -6.776490    9.340600   -0.095690
  H     -7.891300   10.642560    0.374330
  H     -8.381910    7.707700    1.100490
  H     -9.133240    8.559980   -0.252440
  H     -9.443140    9.082710    1.404030
  H     -4.028560   11.870170    7.087370
  H     -3.447790   10.205840    6.901120
  H     -6.170080   10.910890    8.119910
  H     -4.714900   10.528890    9.041790
  H     -5.444450    9.304860    7.996950
  H     -7.568640   12.801680    5.001880
  H     -5.597470   13.068120    7.354190
  H     -3.735150   15.804470   11.178440
  H     -3.603010   17.310290   13.218900
  H     -4.717180   18.689320   13.323020
  H     -2.327910   18.480840   11.416300
  H     -2.391140   19.461680   12.883930
  H     -3.436950   19.850800   11.514610
  H     -6.395530   19.029390   11.463880
  H    -12.972390   20.027860    6.818200
  H    -10.829790   20.312750    9.009190
  H    -12.268040   21.431760    8.746290

 Total Charge           Charge          ....    0
 Multiplicity           Mult            ....    1
 Number of Electrons    NEL             ....  454
 Basis Dimension        Dim             .... 1055

ORBITAL ENERGIES
----------------

  NO   OCC          E(Eh)            E(eV)
   0   2.0000     -88.981518     -2421.3102
   1   2.0000     -19.319728      -525.7165
   2   2.0000     -19.312435      -525.5181
   3   2.0000     -19.240723      -523.5667
   4   2.0000     -19.237876      -523.4892
   5   2.0000     -19.228709      -523.2398
   6   2.0000     -19.227612      -523.2099
   7   2.0000     -19.211862      -522.7813
   8   2.0000     -19.206076      -522.6239
   9   2.0000     -19.201477      -522.4988
  10   2.0000     -19.190768      -522.2074
  11   2.0000     -14.647751      -398.5856
  12   2.0000     -14.638161      -398.3246
  13   2.0000     -14.495914      -394.4539
  14   2.0000     -14.459570      -393.4649
  15   2.0000     -14.455070      -393.3424
  16   2.0000     -14.435868      -392.8199
  17   2.0000     -14.434245      -392.7758
  18   2.0000     -14.433842      -392.7648
  19   2.0000     -14.430558      -392.6754
  20   2.0000     -10.382418      -282.5200
  21   2.0000     -10.376352      -282.3549
  22   2.0000     -10.375300      -282.3263
  23   2.0000     -10.371822      -282.2316
  24   2.0000     -10.369529      -282.1692
  25   2.0000     -10.368430      -282.1393
  26   2.0000     -10.365490      -282.0593
  27   2.0000     -10.365293      -282.0540
  28   2.0000     -10.350969      -281.6642
  29   2.0000     -10.341583      -281.4088
  30   2.0000     -10.340258      -281.3727
  31   2.0000     -10.339195      -281.3438
  32   2.0000     -10.331632      -281.1380
  33   2.0000     -10.328872      -281.0629
  34   2.0000     -10.326812      -281.0068
  35   2.0000     -10.322792      -280.8974
  36   2.0000     -10.321898      -280.8731
  37   2.0000     -10.321359      -280.8585
  38   2.0000     -10.320594      -280.8376
  39   2.0000     -10.319932      -280.8196
  40   2.0000     -10.319603      -280.8107
  41   2.0000     -10.307447      -280.4799
  42   2.0000     -10.305296      -280.4214
  43   2.0000     -10.305257      -280.4203
  44   2.0000     -10.302180      -280.3366
  45   2.0000     -10.302107      -280.3346
  46   2.0000     -10.301703      -280.3236
  47   2.0000     -10.300540      -280.2920
  48   2.0000     -10.300168      -280.2818
  49   2.0000     -10.300112      -280.2803
  50   2.0000     -10.299037      -280.2510
  51   2.0000     -10.297874      -280.2194
  52   2.0000     -10.296157      -280.1727
  53   2.0000     -10.291443      -280.0444
  54   2.0000     -10.287966      -279.9498
  55   2.0000     -10.285558      -279.8843
  56   2.0000     -10.282920      -279.8125
  57   2.0000     -10.280478      -279.7460
  58   2.0000     -10.277191      -279.6566
  59   2.0000     -10.276452      -279.6365
  60   2.0000     -10.273827      -279.5650
  61   2.0000     -10.267993      -279.4063
  62   2.0000     -10.262317      -279.2519
  63   2.0000     -10.260732      -279.2087
  64   2.0000      -8.076224      -219.7652
  65   2.0000      -6.045454      -164.5052
  66   2.0000      -6.041165      -164.3885
  67   2.0000      -6.038531      -164.3168
  68   2.0000      -1.318613       -35.8813
  69   2.0000      -1.308033       -35.5934
  70   2.0000      -1.264430       -34.4069
  71   2.0000      -1.263326       -34.3769
  72   2.0000      -1.140405       -31.0320
  73   2.0000      -1.135286       -30.8927
  74   2.0000      -1.130620       -30.7657
  75   2.0000      -1.129717       -30.7412
  76   2.0000      -1.124730       -30.6055
  77   2.0000      -1.124357       -30.5953
  78   2.0000      -1.115529       -30.3551
  79   2.0000      -1.084051       -29.4985
  80   2.0000      -1.083954       -29.4959
  81   2.0000      -1.068747       -29.0821
  82   2.0000      -1.057649       -28.7801
  83   2.0000      -1.015620       -27.6364
  84   2.0000      -1.013495       -27.5786
  85   2.0000      -0.994567       -27.0635
  86   2.0000      -0.950214       -25.8566
  87   2.0000      -0.945383       -25.7252
  88   2.0000      -0.943967       -25.6866
  89   2.0000      -0.932855       -25.3843
  90   2.0000      -0.917457       -24.9653
  91   2.0000      -0.912139       -24.8206
  92   2.0000      -0.908529       -24.7223
  93   2.0000      -0.892891       -24.2968
  94   2.0000      -0.887553       -24.1516
  95   2.0000      -0.879478       -23.9318
  96   2.0000      -0.876482       -23.8503
  97   2.0000      -0.869297       -23.6548
  98   2.0000      -0.850668       -23.1479
  99   2.0000      -0.847300       -23.0562
 100   2.0000      -0.843531       -22.9537
 101   2.0000      -0.842539       -22.9266
 102   2.0000      -0.827073       -22.5058
 103   2.0000      -0.822111       -22.3708
 104   2.0000      -0.804602       -21.8943
 105   2.0000      -0.794688       -21.6245
 106   2.0000      -0.775589       -21.1048
 107   2.0000      -0.772256       -21.0142
 108   2.0000      -0.763680       -20.7808
 109   2.0000      -0.761248       -20.7146
 110   2.0000      -0.760348       -20.6901
 111   2.0000      -0.745593       -20.2886
 112   2.0000      -0.739749       -20.1296
 113   2.0000      -0.729031       -19.8379
 114   2.0000      -0.725891       -19.7525
 115   2.0000      -0.714615       -19.4457
 116   2.0000      -0.710915       -19.3450
 117   2.0000      -0.702762       -19.1231
 118   2.0000      -0.696213       -18.9449
 119   2.0000      -0.689963       -18.7748
 120   2.0000      -0.687709       -18.7135
 121   2.0000      -0.683057       -18.5869
 122   2.0000      -0.670727       -18.2514
 123   2.0000      -0.666599       -18.1391
 124   2.0000      -0.658080       -17.9073
 125   2.0000      -0.654505       -17.8100
 126   2.0000      -0.651655       -17.7324
 127   2.0000      -0.640965       -17.4415
 128   2.0000      -0.635289       -17.2871
 129   2.0000      -0.629156       -17.1202
 130   2.0000      -0.628934       -17.1142
 131   2.0000      -0.625843       -17.0301
 132   2.0000      -0.619901       -16.8684
 133   2.0000      -0.617356       -16.7991
 134   2.0000      -0.614214       -16.7136
 135   2.0000      -0.613298       -16.6887
 136   2.0000      -0.601097       -16.3567
 137   2.0000      -0.599088       -16.3020
 138   2.0000      -0.596833       -16.2406
 139   2.0000      -0.596116       -16.2211
 140   2.0000      -0.590514       -16.0687
 141   2.0000      -0.587466       -15.9858
 142   2.0000      -0.581555       -15.8249
 143   2.0000      -0.578820       -15.7505
 144   2.0000      -0.578260       -15.7353
 145   2.0000      -0.574855       -15.6426
 146   2.0000      -0.572460       -15.5774
 147   2.0000      -0.562279       -15.3004
 148   2.0000      -0.556666       -15.1477
 149   2.0000      -0.556167       -15.1341
 150   2.0000      -0.552839       -15.0435
 151   2.0000      -0.550409       -14.9774
 152   2.0000      -0.549546       -14.9539
 153   2.0000      -0.544565       -14.8184
 154   2.0000      -0.543676       -14.7942
 155   2.0000      -0.534755       -14.5514
 156   2.0000      -0.533259       -14.5107
 157   2.0000      -0.530857       -14.4454
 158   2.0000      -0.530445       -14.4341
 159   2.0000      -0.526222       -14.3192
 160   2.0000      -0.524343       -14.2681
 161   2.0000      -0.521601       -14.1935
 162   2.0000      -0.519164       -14.1272
 163   2.0000      -0.517486       -14.0815
 164   2.0000      -0.514692       -14.0055
 165   2.0000      -0.511380       -13.9154
 166   2.0000      -0.506771       -13.7899
 167   2.0000      -0.504863       -13.7380
 168   2.0000      -0.502427       -13.6717
 169   2.0000      -0.501962       -13.6591
 170   2.0000      -0.500987       -13.6326
 171   2.0000      -0.492361       -13.3978
 172   2.0000      -0.487558       -13.2671
 173   2.0000      -0.486912       -13.2496
 174   2.0000      -0.486021       -13.2253
 175   2.0000      -0.485987       -13.2244
 176   2.0000      -0.479921       -13.0593
 177   2.0000      -0.476521       -12.9668
 178   2.0000      -0.473894       -12.8953
 179   2.0000      -0.470124       -12.7927
 180   2.0000      -0.468041       -12.7361
 181   2.0000      -0.466488       -12.6938
 182   2.0000      -0.464598       -12.6424
 183   2.0000      -0.462457       -12.5841
 184   2.0000      -0.458406       -12.4739
 185   2.0000      -0.457545       -12.4504
 186   2.0000      -0.456183       -12.4134
 187   2.0000      -0.455473       -12.3940
 188   2.0000      -0.454493       -12.3674
 189   2.0000      -0.451953       -12.2983
 190   2.0000      -0.448914       -12.2156
 191   2.0000      -0.443220       -12.0606
 192   2.0000      -0.440279       -11.9806
 193   2.0000      -0.434729       -11.8296
 194   2.0000      -0.432105       -11.7582
 195   2.0000      -0.431404       -11.7391
 196   2.0000      -0.423707       -11.5296
 197   2.0000      -0.421473       -11.4689
 198   2.0000      -0.415608       -11.3093
 199   2.0000      -0.414960       -11.2916
 200   2.0000      -0.412399       -11.2219
 201   2.0000      -0.409550       -11.1444
 202   2.0000      -0.387272       -10.5382
 203   2.0000      -0.384919       -10.4742
 204   2.0000      -0.380630       -10.3575
 205   2.0000      -0.378537       -10.3005
 206   2.0000      -0.370949       -10.0940
 207   2.0000      -0.367707       -10.0058
 208   2.0000      -0.363835        -9.9005
 209   2.0000      -0.353520        -9.6198
 210   2.0000      -0.351444        -9.5633
 211   2.0000      -0.349276        -9.5043
 212   2.0000      -0.349081        -9.4990
 213   2.0000      -0.343840        -9.3564
 214   2.0000      -0.343132        -9.3371
 215   2.0000      -0.338605        -9.2139
 216   2.0000      -0.336722        -9.1627
 217   2.0000      -0.335014        -9.1162
 218   2.0000      -0.333404        -9.0724
 219   2.0000      -0.333098        -9.0641
 220   2.0000      -0.330180        -8.9847
 221   2.0000      -0.321783        -8.7562
 222   2.0000      -0.311581        -8.4785
 223   2.0000      -0.299869        -8.1598
 224   2.0000      -0.287171        -7.8143
 225   2.0000      -0.283329        -7.7098
 226   2.0000      -0.235283        -6.4024
 227   0.0000      -0.140053        -3.8110
 228   0.0000      -0.095715        -2.6045
 229   0.0000      -0.062904        -1.7117
 230   0.0000      -0.057325        -1.5599
 231   0.0000      -0.035468        -0.9651

MULLIKEN ATOMIC CHARGES
-----------------------
   0 C :    0.164772
   1 O :   -0.175142
   2 C :    0.087575
   3 N :   -0.101069
   4 N :   -0.081568
   5 C :    0.021129
   6 C :   -0.085432
   7 C :    0.098346
   8 C :    0.067920
   9 N :    0.272271
  10 O :   -0.245307
  11 O :   -0.250873
  12 C :    0.016698
  13 C :   -0.016634
  14 C :    0.010536
  15 C :    0.041817
  16 C :   -0.008328
  17 C :    0.027489
  18 C :    0.066570
  19 N :    0.263406
  20 O :   -0.252709
  21 O :   -0.249333
  22 C :    0.081932
  23 C :   -0.105256
  24 C :    0.034883
  25 C :    0.107179
  26 N :   -0.274846
  27 C :    0.104188
  28 C :    0.014643
  29 C :    0.149948
  30 O :   -0.188804
  31 C :   -0.047977
  32 C :   -0.023999
  33 C :    0.156149
  34 O :   -0.168306
  35 N :   -0.271123
  36 C :    0.093666
  37 C :    0.004701
  38 C :    0.137966
  39 C :   -0.036904
  40 C :   -0.000350
  41 C :   -0.117350
  42 S :    0.238782
  43 C :   -0.004167
  44 C :    0.139978
  45 O :   -0.176122
  46 C :   -0.011106
  47 C :    0.010452
  48 N :   -0.132234
  49 C :    0.090097
  50 C :    0.001092
  51 C :    0.012848
  52 C :   -0.027626
  53 C :    0.124938
  54 O :   -0.142482
  55 C :    0.037763
  56 C :   -0.189059
  57 C :    0.112954
  58 O :   -0.144981
  59 C :    0.106579
  60 N :   -0.068716
  61 N :   -0.093745
  62 C :   -0.031817
  63 C :    0.012738
  64 H :    0.037310
  65 H :    0.038065
  66 H :    0.041764
  67 H :    0.005429
  68 H :    0.014540
  69 H :    0.005042
  70 H :    0.011298
  71 H :    0.009823
  72 H :    0.026521
  73 H :    0.028225
  74 H :    0.040031
  75 H :    0.004042
  76 H :    0.024806
  77 H :    0.031598
  78 H :    0.042348
  79 H :    0.044898
  80 H :    0.021360
  81 H :    0.027011
  82 H :    0.022337
  83 H :    0.017843
  84 H :    0.026495
  85 H :    0.007638
  86 H :    0.035287
  87 H :    0.035081
  88 H :    0.031934
  89 H :    0.032555
  90 H :    0.031865
  91 H :    0.006859
  92 H :    0.020014
  93 H :    0.056233
  94 H :    0.033111
Sum of atomic charges:   -0.0000000

LOEWDIN ATOMIC CHARGES
----------------------
   0 C :    0.048130
   1 O :    0.019043
   2 C :    0.018501
   3 N :   -0.089358
   4 N :   -0.075894
   5 C :   -0.014624
   6 C :   -0.000445
   7 C :    0.005844
   8 C :   -0.039953
   9 N :    0.286260
  10 O :   -0.209069
  11 O :   -0.208095
  12 C :    0.011695
  13 C :   -0.045814
  14 C :    0.025349
  15 C :    0.049468
  16 C :   -0.053658
  17 C :    0.038231
  18 C :   -0.059678
  19 N :    0.283744
  20 O :   -0.211770
  21 O :   -0.214381
  22 C :    0.014495
  23 C :   -0.030158
  24 C :    0.020854
  25 C :    0.060964
  26 N :   -0.004323
  27 C :    0.036730
  28 C :   -0.062568
  29 C :    0.078070
  30 O :   -0.190951
  31 C :   -0.114990
  32 C :   -0.089197
  33 C :    0.088042
  34 O :   -0.165625
  35 N :   -0.002616
  36 C :    0.035768
  37 C :   -0.060380
  38 C :    0.089461
  39 C :   -0.033444
  40 C :   -0.005213
  41 C :   -0.136166
  42 S :    0.531550
  43 C :   -0.077507
  44 C :    0.084067
  45 O :   -0.171301
  46 C :   -0.104036
  47 C :    0.033471
  48 N :    0.091612
  49 C :    0.044459
  50 C :   -0.056785
  51 C :    0.031904
  52 C :   -0.102489
  53 C :    0.072911
  54 O :   -0.154332
  55 C :   -0.077008
  56 C :   -0.154395
  57 C :   -0.002733
  58 O :    0.046048
  59 C :    0.029294
  60 N :   -0.081751
  61 N :   -0.089395
  62 C :   -0.044329
  63 C :    0.001205
  64 H :    0.030319
  65 H :    0.040020
  66 H :    0.044770
  67 H :    0.037926
  68 H :    0.031134
  69 H :    0.033760
  70 H :    0.040704
  71 H :    0.034960
  72 H :    0.047132
  73 H :    0.025407
  74 H :    0.037420
  75 H :    0.017379
  76 H :    0.032273
  77 H :    0.034494
  78 H :    0.028039
  79 H :    0.038216
  80 H :    0.022580
  81 H :    0.034145
  82 H :    0.029513
  83 H :    0.039230
  84 H :    0.037797
  85 H :    0.030160
  86 H :    0.034410
  87 H :    0.034340
  88 H :    0.031013
  89 H :    0.034152
  90 H :    0.031084
  91 H :    0.029764
  92 H :    0.047039
  93 H :    0.036916
  94 H :    0.031168

  Mayer bond orders larger than 0.100000
B(  0-C ,  1-O ) :   1.1487 B(  0-C ,  4-N ) :   1.7383 B(  0-C , 64-H ) :   0.9918
B(  1-O ,  2-C ) :   1.1579 B(  2-C ,  3-N ) :   1.6974 B(  2-C ,  5-C ) :   1.0888
B(  3-N ,  4-N ) :   1.1927 B(  5-C ,  6-C ) :   1.6961 B(  5-C , 65-H ) :   0.9468
B(  6-C ,  7-C ) :   1.1097 B(  6-C , 66-H ) :   0.9546 B(  7-C ,  8-C ) :   1.5093
B(  7-C , 14-C ) :   1.0408 B(  8-C ,  9-N ) :   0.9456 B(  8-C , 12-C ) :   1.1386
B(  9-N , 10-O ) :   1.5379 B(  9-N , 11-O ) :   1.4861 B( 10-O , 11-O ) :   0.2590
B( 12-C , 13-C ) :   1.5706 B( 12-C , 67-H ) :   1.0095 B( 13-C , 14-C ) :   1.1285
B( 13-C , 68-H ) :   0.9952 B( 14-C , 15-C ) :   1.4875 B( 15-C , 16-C ) :   1.1357
B( 15-C , 22-C ) :   1.0203 B( 16-C , 17-C ) :   1.5556 B( 16-C , 69-H ) :   1.0086
B( 17-C , 18-C ) :   1.1362 B( 17-C , 70-H ) :   1.0074 B( 18-C , 19-N ) :   0.9566
B( 18-C , 22-C ) :   1.4719 B( 19-N , 20-O ) :   1.4993 B( 19-N , 21-O ) :   1.5286
B( 20-O , 21-O ) :   0.2530 B( 22-C , 23-C ) :   1.1753 B( 23-C , 24-C ) :   1.5124
B( 23-C , 71-H ) :   0.9528 B( 24-C , 25-C ) :   1.2360 B( 24-C , 72-H ) :   0.9358
B( 25-C , 26-N ) :   1.1666 B( 25-C , 32-C ) :   1.2925 B( 26-N , 27-C ) :   0.9382
B( 26-N , 29-C ) :   1.0384 B( 27-C , 28-C ) :   1.1191 B( 27-C , 73-H ) :   0.9493
B( 27-C , 74-H ) :   0.9262 B( 28-C , 75-H ) :   0.9633 B( 28-C , 76-H ) :   0.9677
B( 28-C , 77-H ) :   0.9579 B( 29-C , 30-O ) :   2.1279 B( 29-C , 31-C ) :   0.9796
B( 31-C , 32-C ) :   1.2867 B( 31-C , 38-C ) :   1.2880 B( 32-C , 33-C ) :   0.9681
B( 33-C , 34-O ) :   2.1442 B( 33-C , 35-N ) :   1.0181 B( 35-N , 36-C ) :   0.9338
B( 35-N , 38-C ) :   1.1967 B( 36-C , 37-C ) :   1.1183 B( 36-C , 78-H ) :   0.9503
B( 36-C , 79-H ) :   0.9225 B( 37-C , 80-H ) :   0.9675 B( 37-C , 81-H ) :   0.9679
B( 37-C , 82-H ) :   0.9623 B( 38-C , 39-C ) :   1.2123 B( 39-C , 40-C ) :   1.5078
B( 39-C , 83-H ) :   0.9487 B( 40-C , 41-C ) :   1.1877 B( 40-C , 84-H ) :   0.9525
B( 41-C , 42-S ) :   1.1083 B( 41-C , 43-C ) :   1.4733 B( 41-C , 56-C ) :   0.1054
B( 42-S , 56-C ) :   1.1852 B( 43-C , 44-C ) :   0.9404 B( 43-C , 55-C ) :   1.2008
B( 44-C , 45-O ) :   2.1632 B( 44-C , 46-C ) :   1.0111 B( 45-O , 84-H ) :   0.1031
B( 46-C , 47-C ) :   1.4157 B( 46-C , 52-C ) :   1.2908 B( 47-C , 48-N ) :   1.2410
B( 47-C , 85-H ) :   0.9946 B( 48-N , 49-C ) :   0.9485 B( 48-N , 51-C ) :   1.2335
B( 49-C , 50-C ) :   1.1100 B( 49-C , 86-H ) :   0.9510 B( 49-C , 87-H ) :   0.9512
B( 50-C , 88-H ) :   0.9677 B( 50-C , 89-H ) :   0.9684 B( 50-C , 90-H ) :   0.9676
B( 51-C , 52-C ) :   1.4337 B( 51-C , 91-H ) :   0.9927 B( 52-C , 53-C ) :   0.9827
B( 53-C , 54-O ) :   2.2709 B( 53-C , 55-C ) :   0.9122 B( 55-C , 56-C ) :   1.5139
B( 56-C , 57-C ) :   1.0802 B( 57-C , 58-O ) :   1.1961 B( 57-C , 61-N ) :   1.7401
B( 58-O , 59-C ) :   1.1622 B( 59-C , 60-N ) :   1.6683 B( 59-C , 62-C ) :   1.1120
B( 60-N , 61-N ) :   1.2163 B( 62-C , 63-C ) :   1.9151 B( 62-C , 92-H ) :   0.9566
B( 63-C , 93-H ) :   0.9552 B( 63-C , 94-H ) :   0.9476

-----------------------------------------------------------------------------
         ABSORPTION SPECTRUM VIA TRANSITION ELECTRIC DIPOLE MOMENTS
-----------------------------------------------------------------------------
State   Energy  Wavelength   fosc         T2         TX        TY        TZ
        (cm-1)    (nm)                  (au**2)     (au)      (au)      (au)
-----------------------------------------------------------------------------
   0    6154.8   1624.8   0.376833751  20.15642  -0.24047   3.33363   2.99758
   1   13531.6    739.0   0.065809640   1.60110  -0.04012  -0.54174  -1.14281
   2   15483.3    645.9   0.361123780   7.67836  -0.69836   1.81378   1.97505
   3   16529.8    605.0   0.071879882   1.43158   0.01525   0.82332   0.86804
   4   21261.6    470.3   0.260391090   4.03186  -0.86138   1.65629   0.73931
   5   22447.6    445.5   0.020603691   0.30217   0.13691  -0.51960  -0.11593
   6   23527.2    425.0   0.020035148   0.28035  -0.07004   0.47382   0.22570
   7   24293.1    411.6   0.024790115   0.33595   0.19736  -0.54479   0.01410
   8   24778.6    403.6   0.107708588   1.43103   0.95469  -0.20245   0.69182
   9   24885.5    401.8   0.035711595   0.47243  -0.52235  -0.35991  -0.26466
  10   25675.2    389.5   0.238490691   3.05797  -1.34376  -0.98961  -0.52244
  11   27010.6    370.2   0.016019828   0.19525   0.39653   0.17388   0.08824
  12   27390.5    365.1   0.022203274   0.26687  -0.21561  -0.02257   0.46890
  13   27616.6    362.1   0.122894162   1.46500   0.21061  -0.29344  -1.15522
  14   27802.8    359.7   0.002697292   0.03194   0.05037  -0.15200  -0.07936
  15   27927.5    358.1   0.105366307   1.24207  -0.41666   1.00399   0.24588
  16   28002.9    357.1   0.046183647   0.54295  -0.02341   0.62716   0.38609
  17   28131.1    355.5   0.084130234   0.98456   0.30972  -0.90624  -0.25954
  18   28534.9    350.4   0.002218890   0.02560  -0.13194   0.03822   0.08204
  19   28896.6    346.1   0.095006132   1.08238  -0.81789   0.64259   0.02275
  20   29159.5    342.9   0.049883279   0.56318  -0.38212   0.20476  -0.61257
  21   29486.1    339.1   0.000150365   0.00168  -0.00048   0.03508  -0.02116
  22   29770.1    335.9   0.201707223   2.23058  -1.45116   0.08527   0.34268
  23   30085.2    332.4   0.050168678   0.54898   0.25380  -0.67467  -0.17143
  24   30578.1    327.0   0.056150541   0.60453  -0.52466  -0.44220  -0.36569
  25   30817.8    324.5   0.027818290   0.29717   0.26070   0.31380   0.36157
  26   31286.5    319.6   0.145094009   1.52675   0.76600  -0.93142   0.26916
  27   31379.9    318.7   0.320083941   3.35805  -1.81012   0.21243  -0.19078
  28   31486.5    317.6   0.003557233   0.03719  -0.19274   0.00535   0.00376
  29   31955.5    312.9   0.067541826   0.69583   0.46363   0.26206   0.64202
  30   31984.6    312.7   0.070603568   0.72671  -0.47306  -0.29528  -0.64477
  31   32439.9    308.3   0.021815014   0.22139  -0.42309  -0.15138  -0.13953
  32   32801.7    304.9   0.000223996   0.00225   0.01067   0.03003  -0.03510
  33   33005.7    303.0   0.220484200   2.19920   1.32719   0.09057  -0.65541
  34   33331.9    300.0   0.316799904   3.12897  -1.64346  -0.35134   0.55188
  35   34200.9    292.4   0.007068925   0.06804  -0.17575   0.11003   0.15827
  36   34297.3    291.6   0.001639728   0.01574  -0.04748  -0.05857  -0.10027
  37   34903.3    286.5   0.001803172   0.01701  -0.07745  -0.05943  -0.08647
  38   35036.7    285.4   0.056750298   0.53324  -0.48507  -0.12698  -0.53087
  39   35551.4    281.3   0.045776039   0.42389  -0.15463  -0.42559  -0.46782
  40   36037.4    277.5   0.079042277   0.72207  -0.21954   0.55749   0.60256
  41   36240.7    275.9   0.049034610   0.44543  -0.40927  -0.52657   0.02544
  42   36513.2    273.9   0.003100369   0.02795   0.05796   0.05135   0.14818
  43   36737.5    272.2   0.000136697   0.00122  -0.02471   0.00775   0.02355
  44   36908.3    270.9   0.025794058   0.23008  -0.47905   0.01967   0.01428
  45   36942.6    270.7   0.024686388   0.21999   0.18248  -0.39099  -0.18391
  46   37276.9    268.3   0.052114326   0.46025  -0.23097   0.54801   0.32648
  47   37459.9    267.0   0.015092791   0.13264   0.22066   0.07621  -0.27954
  48   37765.7    264.8   0.005907907   0.05150   0.07878   0.15748  -0.14316
  49   37914.6    263.8   0.000287964   0.00250   0.02307  -0.02519  -0.03652
  50   38342.5    260.8   0.051727491   0.44414   0.36793   0.17652   0.52688
  51   38474.6    259.9   0.000278151   0.00238   0.01735   0.01590   0.04273
  52   38889.4    257.1   0.041408355   0.35054   0.53901   0.08835  -0.22846
  53   39009.8    256.3   0.078633743   0.66361  -0.34661  -0.32336  -0.66250
  54   39321.5    254.3   0.089983086   0.75337   0.68728  -0.08913   0.52256
  55   39888.0    250.7   0.124748102   1.02960  -0.96089  -0.11553   0.30487

FINAL SINGLE POINT ENERGY     -3334.495612802047

DIPOLE MOMENT
-------------
                                X             Y             Z
Electronic contribution:    -10.08142     -21.98176     -33.59267
Nuclear contribution   :     10.69481      24.41579      37.74619
                        -----------------------------------------
Total Dipole Moment    :      0.61339       2.43403       4.15352
                        -----------------------------------------
Magnitude (a.u.)       :      4.85309
Magnitude (Debye)      :     12.33557

Rotational constants in cm-1:     0.002391     0.000334     0.000307
Rotational constants in MHz :    71.685503     9.998244     9.188991

                             ****ORCA TERMINATED NORMALLY****
TOTAL RUN TIME: 0 days 0 hours 8 minutes 36 seconds 441 msec
