                         Program Version 4.2.0 -  RELEASE  -
|  1> # ORCA input file
|  2> # SCF done       -152.553376831816          0.000452440066
|  3> ! CAM-B3LYP def2-SVP def2/J RIJCOSX Grid4 TightSCF
|  4> %maxcore 5000
|  5> %tddft
|  6>     Mode sTDDFT
|  7>     Ethresh 5.0
|  8>     maxcore 5000
|  9> end
| 10>
| 11> %pal
| 12>   nprocs 6
| 13>   end
| 14> * xyz 0 1
| 15>    C       -5.58581         0.61716         7.77141
| 16>    S       -6.11339         1.61629         9.08645
| 17>    C       -7.15213         2.53623         8.05663
| 18>    C       -7.08503         2.09353         6.77815
| 19>    C       -6.18388         0.98751         6.60906
| 20>    C       -6.17695         0.61422         5.21983
| 21>    C       -7.00898         1.43847         4.51764
| 22>    C       -7.65776         2.42063         5.45863
| 23>    O       -8.46824         3.26963         5.17182
| 24>    C       -7.30841         1.46546         3.12232
| 25>    C       -6.73842         0.66843         2.19321
| 26>    C       -7.05624         0.68744         0.80479
| 27>    O       -8.06364         1.46212         0.32067
| 28>    C       -8.14054         1.30036        -1.01283
| 29>    C       -7.14270         0.39472        -1.40387
| 30>    C       -6.46242         0.00371        -0.23102
| 31>    N       -6.82842        -0.07053        -2.69021
| 32>    O       -7.45710         0.38059        -3.63682
| 33>    O       -5.94191        -0.89302        -2.78940
| 34>    C       -9.15175         2.00984        -1.70686
| 35>    S       -9.33175         2.04310        -3.45338
| 36>    C      -10.69629         3.09718        -3.34836
| 37>    C      -11.00961         3.40072        -2.06523
| 38>    C      -10.13566         2.78752        -1.11626
| 39>    C      -10.55717         3.14543         0.19503
| 40>    C      -11.65909         3.96525         0.11866
| 41>    C      -12.02075         4.18923        -1.32321
| 42>    O      -12.92430         4.85526        -1.76634
| 43>    C      -12.32557         4.48534         1.25186
| 44>    C      -13.42384         5.28946         1.24370
| 45>    C      -14.03937         5.75033         2.43009
| 46>    S      -15.26908         7.00488         2.36947
| 47>    C      -15.42726         7.05124         4.09488
| 48>    C      -14.60635         6.15584         4.68761
| 49>    C      -13.82328         5.39278         3.75560
| 50>    C      -13.04922         4.45630         4.47979
| 51>    C      -13.25728         4.61804         5.83699
| 52>    C      -14.25359         5.71506         6.05878
| 53>    O      -14.66467         6.12981         7.11514
| 54>    C      -12.61855         3.91363         6.87825
| 55>    C      -11.79047         2.84699         6.64754
| 56>    C      -11.04924         2.19929         7.63583
| 57>    C      -10.18288         1.13765         7.50646
| 58>    C       -9.54664         0.65424         8.76398
| 59>    O       -9.65819         1.15415         9.86141
| 60>    C       -8.76319        -0.52222         8.37505
| 61>    C       -7.94381        -1.42533         8.97731
| 62>    S       -7.32211        -2.56256         7.80217
| 63>    C       -8.17829        -1.79074         6.51614
| 64>    C       -8.89699        -0.72644         6.96509
| 65>    C       -9.74359         0.31943         6.39934
| 66>    C       -9.93760         0.40260         5.03761
| 67>    C      -10.55981         1.37569         4.23883
| 68>    N      -10.99075         2.07393         3.43065
| 69>    C       -9.40395        -0.56862         4.16282
| 70>    N       -9.00327        -1.32110         3.39275
| 71>   Cl       -7.50610        -1.51656        10.61209
| 72>    H       -4.87230        -0.16172         7.95294
| 73>    H       -7.73426         3.33543         8.47113
| 74>    H       -5.59055        -0.19165         4.81748
| 75>    H       -8.04910         2.19574         2.82285
| 76>    H       -5.98072        -0.04829         2.47077
| 77>    H       -5.64528        -0.68518        -0.18305
| 78>    H      -11.18578         3.41888        -4.24701
| 79>    H      -10.10304         2.80783         1.10891
| 80>    H      -11.88041         4.20068         2.19272
| 81>    H      -13.84116         5.62081         0.30333
| 82>    H      -16.11842         7.73820         4.54282
| 83>    H      -12.39221         3.72387         4.04808
| 84>    H      -12.79630         4.26163         7.88788
| 85>    H      -11.68683         2.49500         5.63806
| 86>    H      -11.14560         2.56382         8.65456
| 87>    H       -8.08784        -2.19188         5.52734
| 88> *
| 89>
| 90>                          ****END OF INPUT****

CARTESIAN COORDINATES (ANGSTROEM)
---------------------------------
  C     -5.585810    0.617160    7.771410
  S     -6.113390    1.616290    9.086450
  C     -7.152130    2.536230    8.056630
  C     -7.085030    2.093530    6.778150
  C     -6.183880    0.987510    6.609060
  C     -6.176950    0.614220    5.219830
  C     -7.008980    1.438470    4.517640
  C     -7.657760    2.420630    5.458630
  O     -8.468240    3.269630    5.171820
  C     -7.308410    1.465460    3.122320
  C     -6.738420    0.668430    2.193210
  C     -7.056240    0.687440    0.804790
  O     -8.063640    1.462120    0.320670
  C     -8.140540    1.300360   -1.012830
  C     -7.142700    0.394720   -1.403870
  C     -6.462420    0.003710   -0.231020
  N     -6.828420   -0.070530   -2.690210
  O     -7.457100    0.380590   -3.636820
  O     -5.941910   -0.893020   -2.789400
  C     -9.151750    2.009840   -1.706860
  S     -9.331750    2.043100   -3.453380
  C    -10.696290    3.097180   -3.348360
  C    -11.009610    3.400720   -2.065230
  C    -10.135660    2.787520   -1.116260
  C    -10.557170    3.145430    0.195030
  C    -11.659090    3.965250    0.118660
  C    -12.020750    4.189230   -1.323210
  O    -12.924300    4.855260   -1.766340
  C    -12.325570    4.485340    1.251860
  C    -13.423840    5.289460    1.243700
  C    -14.039370    5.750330    2.430090
  S    -15.269080    7.004880    2.369470
  C    -15.427260    7.051240    4.094880
  C    -14.606350    6.155840    4.687610
  C    -13.823280    5.392780    3.755600
  C    -13.049220    4.456300    4.479790
  C    -13.257280    4.618040    5.836990
  C    -14.253590    5.715060    6.058780
  O    -14.664670    6.129810    7.115140
  C    -12.618550    3.913630    6.878250
  C    -11.790470    2.846990    6.647540
  C    -11.049240    2.199290    7.635830
  C    -10.182880    1.137650    7.506460
  C     -9.546640    0.654240    8.763980
  O     -9.658190    1.154150    9.861410
  C     -8.763190   -0.522220    8.375050
  C     -7.943810   -1.425330    8.977310
  S     -7.322110   -2.562560    7.802170
  C     -8.178290   -1.790740    6.516140
  C     -8.896990   -0.726440    6.965090
  C     -9.743590    0.319430    6.399340
  C     -9.937600    0.402600    5.037610
  C    -10.559810    1.375690    4.238830
  N    -10.990750    2.073930    3.430650
  C     -9.403950   -0.568620    4.162820
  N     -9.003270   -1.321100    3.392750
  Cl    -7.506100   -1.516560   10.612090
  H     -4.872300   -0.161720    7.952940
  H     -7.734260    3.335430    8.471130
  H     -5.590550   -0.191650    4.817480
  H     -8.049100    2.195740    2.822850
  H     -5.980720   -0.048290    2.470770
  H     -5.645280   -0.685180   -0.183050
  H    -11.185780    3.418880   -4.247010
  H    -10.103040    2.807830    1.108910
  H    -11.880410    4.200680    2.192720
  H    -13.841160    5.620810    0.303330
  H    -16.118420    7.738200    4.542820
  H    -12.392210    3.723870    4.048080
  H    -12.796300    4.261630    7.887880
  H    -11.686830    2.495000    5.638060
  H    -11.145600    2.563820    8.654560
  H     -8.087840   -2.191880    5.527340

 Total Charge           Charge          ....    0
 Multiplicity           Mult            ....    1
 Number of Electrons    NEL             ....  426
 Basis Dimension        Dim             ....  898

ORBITAL ENERGIES
----------------

  NO   OCC          E(Eh)            E(eV)
   0   2.0000    -101.616867     -2765.1355
   1   2.0000     -88.991554     -2421.5833
   2   2.0000     -88.971127     -2421.0275
   3   2.0000     -88.970346     -2421.0062
   4   2.0000     -88.969701     -2420.9887
   5   2.0000     -19.320152      -525.7281
   6   2.0000     -19.245960      -523.7092
   7   2.0000     -19.245333      -523.6921
   8   2.0000     -19.223434      -523.0962
   9   2.0000     -19.221427      -523.0416
  10   2.0000     -19.217197      -522.9265
  11   2.0000     -19.212433      -522.7969
  12   2.0000     -14.655802      -398.8047
  13   2.0000     -14.430296      -392.6683
  14   2.0000     -14.419882      -392.3849
  15   2.0000     -10.381885      -282.5054
  16   2.0000     -10.373289      -282.2715
  17   2.0000     -10.371873      -282.2330
  18   2.0000     -10.369274      -282.1623
  19   2.0000     -10.367812      -282.1225
  20   2.0000     -10.366472      -282.0860
  21   2.0000     -10.353745      -281.7397
  22   2.0000     -10.351075      -281.6671
  23   2.0000     -10.346336      -281.5381
  24   2.0000     -10.338156      -281.3155
  25   2.0000     -10.335286      -281.2374
  26   2.0000     -10.327847      -281.0350
  27   2.0000     -10.327329      -281.0209
  28   2.0000     -10.326591      -281.0008
  29   2.0000     -10.324169      -280.9349
  30   2.0000     -10.320248      -280.8282
  31   2.0000     -10.318533      -280.7815
  32   2.0000     -10.313465      -280.6436
  33   2.0000     -10.312726      -280.6235
  34   2.0000     -10.312428      -280.6154
  35   2.0000     -10.311849      -280.5997
  36   2.0000     -10.311034      -280.5775
  37   2.0000     -10.309719      -280.5417
  38   2.0000     -10.307628      -280.4848
  39   2.0000     -10.300010      -280.2775
  40   2.0000     -10.297293      -280.2036
  41   2.0000     -10.297117      -280.1988
  42   2.0000     -10.296920      -280.1934
  43   2.0000     -10.295600      -280.1575
  44   2.0000     -10.294994      -280.1410
  45   2.0000     -10.294601      -280.1303
  46   2.0000     -10.294037      -280.1150
  47   2.0000     -10.289775      -279.9990
  48   2.0000     -10.289363      -279.9878
  49   2.0000     -10.289112      -279.9810
  50   2.0000     -10.289030      -279.9788
  51   2.0000     -10.288410      -279.9619
  52   2.0000     -10.287707      -279.9427
  53   2.0000     -10.284250      -279.8487
  54   2.0000     -10.283648      -279.8323
  55   2.0000     -10.282875      -279.8112
  56   2.0000     -10.279947      -279.7316
  57   2.0000      -9.571554      -260.4552
  58   2.0000      -8.087040      -220.0596
  59   2.0000      -8.066457      -219.4995
  60   2.0000      -8.066022      -219.4876
  61   2.0000      -8.063360      -219.4152
  62   2.0000      -7.342156      -199.7902
  63   2.0000      -7.331632      -199.5039
  64   2.0000      -7.331066      -199.4884
  65   2.0000      -6.056467      -164.8048
  66   2.0000      -6.051932      -164.6814
  67   2.0000      -6.049195      -164.6070
  68   2.0000      -6.036025      -164.2486
  69   2.0000      -6.035486      -164.2339
  70   2.0000      -6.033219      -164.1722
  71   2.0000      -6.031275      -164.1193
  72   2.0000      -6.030989      -164.1115
  73   2.0000      -6.028630      -164.0474
  74   2.0000      -6.028146      -164.0342
  75   2.0000      -6.028090      -164.0327
  76   2.0000      -6.025229      -163.9548
  77   2.0000      -1.326424       -36.0938
  78   2.0000      -1.240177       -33.7469
  79   2.0000      -1.144240       -31.1363
  80   2.0000      -1.136816       -30.9343
  81   2.0000      -1.134200       -30.8631
  82   2.0000      -1.130287       -30.7567
  83   2.0000      -1.128985       -30.7212
  84   2.0000      -1.036493       -28.2044
  85   2.0000      -1.024341       -27.8737
  86   2.0000      -1.008315       -27.4376
  87   2.0000      -1.007310       -27.4103
  88   2.0000      -1.007040       -27.4029
  89   2.0000      -1.003370       -27.3031
  90   2.0000      -0.985778       -26.8244
  91   2.0000      -0.957225       -26.0474
  92   2.0000      -0.954067       -25.9615
  93   2.0000      -0.949358       -25.8334
  94   2.0000      -0.948224       -25.8025
  95   2.0000      -0.943348       -25.6698
  96   2.0000      -0.922152       -25.0930
  97   2.0000      -0.916445       -24.9377
  98   2.0000      -0.903107       -24.5748
  99   2.0000      -0.898487       -24.4491
 100   2.0000      -0.878363       -23.9015
 101   2.0000      -0.861213       -23.4348
 102   2.0000      -0.847132       -23.0516
 103   2.0000      -0.841954       -22.9107
 104   2.0000      -0.839870       -22.8540
 105   2.0000      -0.832051       -22.6413
 106   2.0000      -0.822139       -22.3715
 107   2.0000      -0.812993       -22.1227
 108   2.0000      -0.799752       -21.7624
 109   2.0000      -0.791217       -21.5301
 110   2.0000      -0.775479       -21.1019
 111   2.0000      -0.761186       -20.7129
 112   2.0000      -0.757170       -20.6037
 113   2.0000      -0.752216       -20.4688
 114   2.0000      -0.747743       -20.3471
 115   2.0000      -0.733532       -19.9604
 116   2.0000      -0.720125       -19.5956
 117   2.0000      -0.713171       -19.4064
 118   2.0000      -0.706295       -19.2193
 119   2.0000      -0.690024       -18.7765
 120   2.0000      -0.680710       -18.5231
 121   2.0000      -0.676407       -18.4060
 122   2.0000      -0.663486       -18.0544
 123   2.0000      -0.659086       -17.9346
 124   2.0000      -0.651412       -17.7258
 125   2.0000      -0.645265       -17.5586
 126   2.0000      -0.642449       -17.4819
 127   2.0000      -0.638187       -17.3659
 128   2.0000      -0.635952       -17.3051
 129   2.0000      -0.633502       -17.2385
 130   2.0000      -0.630734       -17.1631
 131   2.0000      -0.623991       -16.9797
 132   2.0000      -0.613718       -16.7001
 133   2.0000      -0.611536       -16.6407
 134   2.0000      -0.603337       -16.4176
 135   2.0000      -0.598490       -16.2857
 136   2.0000      -0.589339       -16.0367
 137   2.0000      -0.585354       -15.9283
 138   2.0000      -0.581134       -15.8135
 139   2.0000      -0.576649       -15.6914
 140   2.0000      -0.575636       -15.6639
 141   2.0000      -0.574227       -15.6255
 142   2.0000      -0.565401       -15.3853
 143   2.0000      -0.563686       -15.3387
 144   2.0000      -0.554321       -15.0838
 145   2.0000      -0.549064       -14.9408
 146   2.0000      -0.540469       -14.7069
 147   2.0000      -0.537420       -14.6239
 148   2.0000      -0.535222       -14.5641
 149   2.0000      -0.527112       -14.3435
 150   2.0000      -0.526860       -14.3366
 151   2.0000      -0.525910       -14.3107
 152   2.0000      -0.524593       -14.2749
 153   2.0000      -0.523994       -14.2586
 154   2.0000      -0.521822       -14.1995
 155   2.0000      -0.518333       -14.1046
 156   2.0000      -0.513745       -13.9797
 157   2.0000      -0.508534       -13.8379
 158   2.0000      -0.503752       -13.7078
 159   2.0000      -0.502683       -13.6787
 160   2.0000      -0.502279       -13.6677
 161   2.0000      -0.498236       -13.5577
 162   2.0000      -0.495596       -13.4858
 163   2.0000      -0.492035       -13.3889
 164   2.0000      -0.491549       -13.3757
 165   2.0000      -0.486757       -13.2453
 166   2.0000      -0.483753       -13.1636
 167   2.0000      -0.481176       -13.0935
 168   2.0000      -0.476013       -12.9530
 169   2.0000      -0.474133       -12.9018
 170   2.0000      -0.469965       -12.7884
 171   2.0000      -0.468926       -12.7601
 172   2.0000      -0.467836       -12.7305
 173   2.0000      -0.462851       -12.5948
 174   2.0000      -0.460637       -12.5346
 175   2.0000      -0.460022       -12.5178
 176   2.0000      -0.458144       -12.4667
 177   2.0000      -0.456783       -12.4297
 178   2.0000      -0.450028       -12.2459
 179   2.0000      -0.449280       -12.2255
 180   2.0000      -0.446768       -12.1572
 181   2.0000      -0.443978       -12.0813
 182   2.0000      -0.435370       -11.8470
 183   2.0000      -0.434291       -11.8177
 184   2.0000      -0.432347       -11.7647
 185   2.0000      -0.431960       -11.7542
 186   2.0000      -0.427871       -11.6430
 187   2.0000      -0.420529       -11.4432
 188   2.0000      -0.418540       -11.3890
 189   2.0000      -0.412120       -11.2144
 190   2.0000      -0.406936       -11.0733
 191   2.0000      -0.402324       -10.9478
 192   2.0000      -0.394065       -10.7231
 193   2.0000      -0.392944       -10.6926
 194   2.0000      -0.390246       -10.6191
 195   2.0000      -0.387413       -10.5420
 196   2.0000      -0.384220       -10.4552
 197   2.0000      -0.376457       -10.2439
 198   2.0000      -0.365998        -9.9593
 199   2.0000      -0.350074        -9.5260
 200   2.0000      -0.342279        -9.3139
 201   2.0000      -0.339231        -9.2309
 202   2.0000      -0.338564        -9.2128
 203   2.0000      -0.335265        -9.1230
 204   2.0000      -0.331517        -9.0210
 205   2.0000      -0.330429        -8.9914
 206   2.0000      -0.329445        -8.9647
 207   2.0000      -0.325883        -8.8677
 208   2.0000      -0.313636        -8.5345
 209   2.0000      -0.306768        -8.3476
 210   2.0000      -0.284460        -7.7406
 211   2.0000      -0.261059        -7.1038
 212   2.0000      -0.247311        -6.7297
 213   0.0000      -0.110879        -3.0172
 214   0.0000      -0.085683        -2.3316
 215   0.0000      -0.069035        -1.8785
 216   0.0000      -0.064228        -1.7477
 217   0.0000      -0.045778        -1.2457

MULLIKEN ATOMIC CHARGES
-----------------------
   0 C :   -0.165278
   1 S :    0.134360
   2 C :   -0.133769
   3 C :   -0.006334
   4 C :    0.136521
   5 C :    0.006922
   6 C :   -0.064567
   7 C :    0.170307
   8 O :   -0.135234
   9 C :    0.019550
  10 C :    0.017696
  11 C :    0.212544
  12 O :   -0.202205
  13 C :    0.124674
  14 C :    0.096769
  15 C :   -0.081272
  16 N :    0.284563
  17 O :   -0.264670
  18 O :   -0.236414
  19 C :   -0.187499
  20 S :    0.201487
  21 C :   -0.100632
  22 C :    0.006659
  23 C :    0.121998
  24 C :   -0.002285
  25 C :   -0.016250
  26 C :    0.170142
  27 O :   -0.128535
  28 C :   -0.012641
  29 C :    0.037974
  30 C :   -0.095998
  31 S :    0.142853
  32 C :   -0.126991
  33 C :    0.022796
  34 C :    0.080420
  35 C :    0.024559
  36 C :   -0.075007
  37 C :    0.161102
  38 O :   -0.123723
  39 C :    0.042713
  40 C :    0.037737
  41 C :    0.039237
  42 C :   -0.140700
  43 C :    0.126097
  44 O :   -0.143954
  45 C :    0.108583
  46 C :   -0.184755
  47 S :    0.165211
  48 C :   -0.133899
  49 C :    0.005462
  50 C :    0.361119
  51 C :   -0.363555
  52 C :   -0.132490
  53 N :    0.124218
  54 C :   -0.209501
  55 N :    0.147826
  56 Cl:   -0.006253
  57 H :    0.020001
  58 H :    0.040315
  59 H :   -0.013072
  60 H :    0.010134
  61 H :   -0.005795
  62 H :    0.001058
  63 H :    0.034960
  64 H :   -0.004132
  65 H :   -0.013405
  66 H :    0.006191
  67 H :    0.038701
  68 H :    0.002765
  69 H :    0.011226
  70 H :   -0.044473
  71 H :    0.010015
  72 H :    0.047825
Sum of atomic charges:   -0.0000000

LOEWDIN ATOMIC CHARGES
----------------------
   0 C :   -0.178554
   1 S :    0.458122
   2 C :   -0.124225
   3 C :   -0.109823
   4 C :   -0.063607
   5 C :    0.031832
   6 C :   -0.066513
   7 C :    0.085680
   8 O :   -0.130594
   9 C :   -0.014017
  10 C :   -0.015767
  11 C :    0.045768
  12 O :    0.031618
  13 C :    0.062527
  14 C :   -0.082813
  15 C :   -0.036745
  16 N :    0.288902
  17 O :   -0.228385
  18 O :   -0.199758
  19 C :   -0.192251
  20 S :    0.494958
  21 C :   -0.127436
  22 C :   -0.101282
  23 C :   -0.038173
  24 C :    0.046991
  25 C :   -0.057850
  26 C :    0.093456
  27 O :   -0.119866
  28 C :    0.012557
  29 C :   -0.040518
  30 C :   -0.129557
  31 S :    0.447010
  32 C :   -0.127465
  33 C :   -0.091908
  34 C :   -0.071120
  35 C :    0.083244
  36 C :   -0.091725
  37 C :    0.084778
  38 O :   -0.125659
  39 C :    0.065021
  40 C :   -0.041809
  41 C :    0.077829
  42 C :   -0.110486
  43 C :    0.074522
  44 O :   -0.149174
  45 C :   -0.115897
  46 C :   -0.274733
  47 S :    0.460204
  48 C :   -0.154932
  49 C :   -0.052221
  50 C :    0.077222
  51 C :   -0.153959
  52 C :    0.008925
  53 N :   -0.073881
  54 C :   -0.009383
  55 N :   -0.069029
  56 Cl:    0.186983
  57 H :    0.023541
  58 H :    0.035500
  59 H :    0.028707
  60 H :    0.035144
  61 H :    0.037338
  62 H :    0.043985
  63 H :    0.034842
  64 H :    0.031855
  65 H :    0.035722
  66 H :    0.034601
  67 H :    0.034986
  68 H :    0.030769
  69 H :    0.042015
  70 H :    0.027308
  71 H :    0.043658
  72 H :    0.032996

  Mayer bond orders larger than 0.100000
B(  0-C ,  1-S ) :   1.1329 B(  0-C ,  4-C ) :   1.5271 B(  0-C , 57-H ) :   0.9688
B(  1-S ,  2-C ) :   1.1753 B(  2-C ,  3-C ) :   1.5664 B(  2-C , 58-H ) :   0.9725
B(  3-C ,  4-C ) :   1.2180 B(  3-C ,  7-C ) :   0.9160 B(  4-C ,  5-C ) :   1.0064
B(  5-C ,  6-C ) :   1.6243 B(  5-C , 59-H ) :   1.0136 B(  6-C ,  7-C ) :   0.9344
B(  6-C ,  9-C ) :   1.1000 B(  7-C ,  8-O ) :   2.2321 B(  9-C , 10-C ) :   1.6363
B(  9-C , 60-H ) :   0.9817 B( 10-C , 11-C ) :   1.1483 B( 10-C , 61-H ) :   0.9595
B( 11-C , 12-O ) :   1.1017 B( 11-C , 15-C ) :   1.4090 B( 12-O , 13-C ) :   1.2043
B( 13-C , 14-C ) :   1.3689 B( 13-C , 19-C ) :   1.1970 B( 14-C , 15-C ) :   1.2135
B( 14-C , 16-N ) :   0.9649 B( 15-C , 62-H ) :   1.0269 B( 16-N , 17-O ) :   1.4620
B( 16-N , 18-O ) :   1.5540 B( 17-O , 18-O ) :   0.2566 B( 19-C , 20-S ) :   1.1125
B( 19-C , 23-C ) :   1.4139 B( 20-S , 21-C ) :   1.1434 B( 21-C , 22-C ) :   1.5781
B( 21-C , 63-H ) :   0.9667 B( 22-C , 23-C ) :   1.2220 B( 22-C , 26-C ) :   0.9144
B( 23-C , 24-C ) :   1.0408 B( 24-C , 25-C ) :   1.5498 B( 24-C , 64-H ) :   1.0219
B( 25-C , 26-C ) :   0.9284 B( 25-C , 28-C ) :   1.1726 B( 26-C , 27-O ) :   2.2293
B( 28-C , 29-C ) :   1.6068 B( 28-C , 65-H ) :   0.9749 B( 29-C , 30-C ) :   1.1258
B( 29-C , 66-H ) :   0.9631 B( 30-C , 31-S ) :   1.1229 B( 30-C , 34-C ) :   1.4011
B( 31-S , 32-C ) :   1.1328 B( 32-C , 33-C ) :   1.6094 B( 32-C , 67-H ) :   0.9684
B( 33-C , 34-C ) :   1.1959 B( 33-C , 37-C ) :   0.9030 B( 34-C , 35-C ) :   1.1125
B( 35-C , 36-C ) :   1.5243 B( 35-C , 68-H ) :   0.9775 B( 36-C , 37-C ) :   0.9339
B( 36-C , 39-C ) :   1.1495 B( 37-C , 38-O ) :   2.2823 B( 39-C , 40-C ) :   1.5223
B( 39-C , 69-H ) :   0.9944 B( 40-C , 41-C ) :   1.2072 B( 40-C , 70-H ) :   0.9575
B( 41-C , 42-C ) :   1.5088 B( 41-C , 71-H ) :   0.9519 B( 42-C , 43-C ) :   0.9543
B( 42-C , 50-C ) :   1.0799 B( 43-C , 44-O ) :   2.2468 B( 43-C , 45-C ) :   0.9283
B( 45-C , 46-C ) :   1.4889 B( 45-C , 49-C ) :   1.2189 B( 46-C , 47-S ) :   1.1312
B( 46-C , 56-Cl) :   1.1190 B( 47-S , 48-C ) :   1.1519 B( 48-C , 49-C ) :   1.5493
B( 48-C , 72-H ) :   0.9437 B( 49-C , 50-C ) :   1.0082 B( 50-C , 51-C ) :   1.5508
B( 51-C , 52-C ) :   1.1682 B( 51-C , 54-C ) :   1.1570 B( 52-C , 53-N ) :   2.8604
B( 54-C , 55-N ) :   2.9391

-----------------------------------------------------------------------------
         ABSORPTION SPECTRUM VIA TRANSITION ELECTRIC DIPOLE MOMENTS
-----------------------------------------------------------------------------
State   Energy  Wavelength   fosc         T2         TX        TY        TZ
        (cm-1)    (nm)                  (au**2)     (au)      (au)      (au)
-----------------------------------------------------------------------------
   0   13178.5    758.8   0.212501833   5.30850   0.36821   0.68023  -2.17030
   1   17018.7    587.6   0.169999486   3.28849  -1.30782   1.04810  -0.69252
   2   19594.3    510.4   0.714258374  12.00055   2.58928  -2.19735   0.68400
   3   21477.0    465.6   0.179342215   2.74906   0.90931  -0.88658   1.06592
   4   22476.9    444.9   0.426004814   6.23955  -1.15746   1.42961   1.68998
   5   23135.8    432.2   0.083329858   1.18575  -0.29180   0.31946   0.99927
   6   23679.6    422.3   0.300659354   4.17999  -0.22979   0.44055   1.98321
   7   24578.0    406.9   0.005671827   0.07597  -0.10147  -0.24567  -0.07294
   8   26261.0    380.8   0.142523819   1.78670  -0.76623   0.57992  -0.92913
   9   26625.6    375.6   0.000093130   0.00115  -0.03210   0.00135   0.01091
  10   26897.8    371.8   0.009583272   0.11729  -0.07227  -0.33147  -0.04689
  11   27257.5    366.9   0.003546929   0.04284   0.15103  -0.03819  -0.13627
  12   27458.9    364.2   0.114142812   1.36849  -0.62375   0.61262   0.77725
  13   27747.9    360.4   0.002061380   0.02446  -0.05771   0.11396   0.09022
  14   28369.2    352.5   0.112294801   1.30313  -0.76841   0.66815  -0.51600
  15   28870.8    346.4   0.161687786   1.84372   0.50773  -0.63686   1.08643
  16   28960.9    345.3   0.028459149   0.32351   0.20381  -0.32396   0.42074
  17   29215.2    342.3   0.006850647   0.07720   0.19007  -0.02260   0.20140
  18   29500.9    339.0   0.018124876   0.20226   0.39951   0.10555   0.17753
  19   29769.7    335.9   0.003061444   0.03386  -0.08278  -0.00068   0.16432
  20   30282.9    330.2   0.014823073   0.16114  -0.05442   0.02079  -0.39718
  21   30626.3    326.5   0.038574793   0.41465   0.35185  -0.24931  -0.47823
  22   30754.1    325.2   0.043450137   0.46512   0.26746   0.16222   0.60603
  23   31014.4    322.4   0.020001948   0.21232  -0.25861   0.37242   0.08213
  24   31517.2    317.3   0.025289986   0.26417   0.21503  -0.39034   0.25605
  25   31808.8    314.4   0.192213940   1.98936   0.48336  -0.01005  -1.32500
  26   32681.1    306.0   0.013313001   0.13411  -0.19846   0.30682   0.02418
  27   32992.9    303.1   0.088952100   0.88759   0.89950  -0.13472   0.24562
  28   33531.5    298.2   0.285195128   2.80004   0.07286   0.26245   1.65101
  29   33648.3    297.2   0.383059795   3.74783  -0.67170   0.72881   1.66297
  30   33696.9    296.8   0.027071187   0.26448  -0.07884   0.05751   0.50493
  31   33879.8    295.2   0.002904124   0.02822  -0.07239   0.00650  -0.15145
  32   33982.9    294.3   0.154224952   1.49407   0.79948  -0.67703  -0.62971
  33   34222.3    292.2   0.018114943   0.17426   0.21080  -0.20216   0.29826
  34   34504.7    289.8   0.155523141   1.48386   0.73043  -0.85527   0.46781
  35   34934.2    286.3   0.067703822   0.63802  -0.61224   0.44016  -0.26352
  36   35377.5    282.7   0.118633883   1.10397  -0.17357   0.03180   1.03578
  37   35777.9    279.5   0.168089121   1.54668  -0.38760   0.80587   0.86430
  38   36377.0    274.9   0.352307173   3.18838  -0.90831   0.76499  -1.33347
  39   36478.2    274.1   0.311825701   2.81420   0.91281  -0.83760   1.13111
  40   36942.2    270.7   0.001758169   0.01567   0.03682   0.04438   0.11110
  41   37047.6    269.9   0.092714316   0.82388  -0.06566  -0.18915   0.88532
  42   37413.2    267.3   0.088339493   0.77733  -0.61436   0.55926  -0.29516
  43   37885.8    264.0   0.009905816   0.08608   0.07101  -0.22083  -0.17963
  44   38053.7    262.8   0.102659550   0.88813   0.13459   0.17994   0.91523
  45   38316.3    261.0   0.025438354   0.21857  -0.20722   0.14185  -0.39434
  46   38567.7    259.3   0.005321986   0.04543   0.06631  -0.10404  -0.17380
  47   38677.9    258.5   0.014513817   0.12354  -0.12636   0.19512  -0.26362
  48   38920.0    256.9   0.047756015   0.40395   0.39627  -0.48039   0.12707
  49   39171.4    255.3   0.144102840   1.21110   0.51214  -0.41080  -0.88321
  50   39557.2    252.8   0.041218109   0.34304  -0.38960   0.34243  -0.27201
  51   39613.6    252.4   0.079927098   0.66424   0.49376  -0.52818   0.37612
  52   39749.6    251.6   0.020430491   0.16921   0.11137  -0.18137  -0.35201
  53   39881.1    250.7   0.018562473   0.15323   0.13988  -0.14828  -0.33418
  54   39897.0    250.6   0.026852644   0.22158  -0.20090   0.23058   0.35784
  55   40050.6    249.7   0.009122642   0.07499  -0.05279  -0.13941  -0.22971

FINAL SINGLE POINT ENERGY     -4350.149065848378

DIPOLE MOMENT
-------------
                                X             Y             Z
Electronic contribution:      6.10735     -12.16410       8.99268
Nuclear contribution   :     -5.05289      11.76361      -7.84037
                        -----------------------------------------
Total Dipole Moment    :      1.05446      -0.40049       1.15230
                        -----------------------------------------
Magnitude (a.u.)       :      1.61248
Magnitude (Debye)      :      4.09859

Rotational constants in cm-1:     0.001555     0.001014     0.000658
Rotational constants in MHz :    46.627943    30.402496    19.738528

                             ****ORCA TERMINATED NORMALLY****
TOTAL RUN TIME: 0 days 0 hours 8 minutes 8 seconds 736 msec
