                         Program Version 4.2.0 -  RELEASE  -
|  1> # ORCA input file
|  2> # SCF done       -149.428582983501          0.000429048422
|  3> ! CAM-B3LYP def2-SVP def2/J RIJCOSX Grid4 TightSCF
|  4> %maxcore 5000
|  5> %tddft
|  6>     Mode sTDDFT
|  7>     Ethresh 5.0
|  8>     maxcore 5000
|  9> end
| 10>
| 11> %pal
| 12>   nprocs 6
| 13>   end
| 14> * xyz 0 1
| 15>    C       -0.48927        -0.37338         3.21231
| 16>    C        0.25413        -1.25817         2.45601
| 17>    C        1.26817        -2.00070         3.07492
| 18>    C        1.45478        -1.78702         4.44931
| 19>    N        0.74715        -0.94370         5.16999
| 20>    C       -0.20418        -0.24944         4.56658
| 21>    C        2.11518        -2.94116         2.38754
| 22>    C        2.05733        -3.25914         1.07545
| 23>    C        2.95335        -4.17779         0.46814
| 24>    O        3.92214        -4.76851         1.18265
| 25>    C        4.64414        -5.56981         0.35284
| 26>    C        4.13129        -5.50280        -0.92461
| 27>    C        3.03500        -4.60709        -0.86895
| 28>    C        2.15783        -4.18594        -1.92813
| 29>    O        1.23030        -3.41520        -1.83892
| 30>    C        2.48323        -4.82440        -3.30938
| 31>    F        3.73497        -4.54037        -3.70820
| 32>    F        2.38597        -6.16459        -3.26951
| 33>    F        1.65926        -4.39617        -4.26154
| 34>    C        5.75886        -6.29022         0.85635
| 35>    S        6.76171        -7.18617        -0.22351
| 36>    C        7.84844        -7.66109         1.04767
| 37>    C        7.41754        -7.14670         2.28454
| 38>    C        6.22949        -6.36659         2.17745
| 39>    C        5.67289        -5.79468         3.33222
| 40>    C        6.26535        -5.97746         4.55977
| 41>    C        5.66133        -5.38172         5.75133
| 42>    C        5.04320        -4.20848         5.76875
| 43>    C        7.45416        -6.75912         4.66864
| 44>    C        8.10405        -6.94927         6.00353
| 45>    C        8.00765        -7.32192         3.54842
| 46>    C        9.00414        -8.41870         0.79268
| 47>    C        9.35688        -8.91863        -0.42495
| 48>    C       10.56246        -9.61552        -0.64933
| 49>    O       11.46921        -9.77111         0.32787
| 50>    C       12.53952       -10.44164        -0.18050
| 51>    C       12.32513       -10.73569        -1.50020
| 52>    C       11.04686       -10.21053        -1.83108
| 53>    C       10.35334       -10.25204        -3.08424
| 54>    O        9.25922        -9.79313        -3.32992
| 55>    C       11.13603       -10.97994        -4.21508
| 56>    F       11.39602       -12.26258        -3.89826
| 57>    F       10.46702       -10.98849        -5.36416
| 58>    F       12.32826       -10.40239        -4.45572
| 59>    C       13.66594       -10.70460         0.68724
| 60>    C       14.83247       -11.30623         0.21697
| 61>    C       15.90123       -11.52383         1.08339
| 62>    C       15.72654       -11.12702         2.41484
| 63>    N       14.62760       -10.55896         2.87200
| 64>    C       13.62787       -10.34750         2.04028
| 65>    C       17.12189       -12.14001         0.57959
| 66>    C       18.26612       -12.26827         1.23944
| 67>    H       -1.27560         0.21285         2.76301
| 68>    H        0.05565        -1.37305         1.40144
| 69>    H        2.21987        -2.33306         4.98789
| 70>    H       -0.75722         0.43303         5.19771
| 71>    H        2.86559        -3.42264         3.00217
| 72>    H        1.32952        -2.82572         0.40804
| 73>    H        4.50456        -6.03257        -1.77636
| 74>    H        4.75895        -5.23102         3.25580
| 75>    H        5.74228        -5.95452         6.66497
| 76>    H        4.97861        -3.58496         4.89197
| 77>    H        4.60319        -3.81390         6.66842
| 78>    H        7.46576        -7.54313         6.65792
| 79>    H        8.27784        -5.98877         6.48603
| 80>    H        9.05499        -7.46470         5.89753
| 81>    H        8.90762        -7.91154         3.63578
| 82>    H        9.65926        -8.59893         1.63425
| 83>    H        8.71803        -8.79033        -1.28586
| 84>    H       12.99010       -11.26051        -2.15312
| 85>    H       14.91436       -11.59520        -0.82040
| 86>    H       16.50350       -11.27808         3.15060
| 87>    H       12.75145        -9.87435         2.46072
| 88>    H       17.05325       -12.50426        -0.43806
| 89>    H       18.40084       -11.91327         2.24628
| 90>    H       19.12266       -12.73436         0.78396
| 91> *
| 92>
| 93>                          ****END OF INPUT****

CARTESIAN COORDINATES (ANGSTROEM)
---------------------------------
  C     -0.489270   -0.373380    3.212310
  C      0.254130   -1.258170    2.456010
  C      1.268170   -2.000700    3.074920
  C      1.454780   -1.787020    4.449310
  N      0.747150   -0.943700    5.169990
  C     -0.204180   -0.249440    4.566580
  C      2.115180   -2.941160    2.387540
  C      2.057330   -3.259140    1.075450
  C      2.953350   -4.177790    0.468140
  O      3.922140   -4.768510    1.182650
  C      4.644140   -5.569810    0.352840
  C      4.131290   -5.502800   -0.924610
  C      3.035000   -4.607090   -0.868950
  C      2.157830   -4.185940   -1.928130
  O      1.230300   -3.415200   -1.838920
  C      2.483230   -4.824400   -3.309380
  F      3.734970   -4.540370   -3.708200
  F      2.385970   -6.164590   -3.269510
  F      1.659260   -4.396170   -4.261540
  C      5.758860   -6.290220    0.856350
  S      6.761710   -7.186170   -0.223510
  C      7.848440   -7.661090    1.047670
  C      7.417540   -7.146700    2.284540
  C      6.229490   -6.366590    2.177450
  C      5.672890   -5.794680    3.332220
  C      6.265350   -5.977460    4.559770
  C      5.661330   -5.381720    5.751330
  C      5.043200   -4.208480    5.768750
  C      7.454160   -6.759120    4.668640
  C      8.104050   -6.949270    6.003530
  C      8.007650   -7.321920    3.548420
  C      9.004140   -8.418700    0.792680
  C      9.356880   -8.918630   -0.424950
  C     10.562460   -9.615520   -0.649330
  O     11.469210   -9.771110    0.327870
  C     12.539520  -10.441640   -0.180500
  C     12.325130  -10.735690   -1.500200
  C     11.046860  -10.210530   -1.831080
  C     10.353340  -10.252040   -3.084240
  O      9.259220   -9.793130   -3.329920
  C     11.136030  -10.979940   -4.215080
  F     11.396020  -12.262580   -3.898260
  F     10.467020  -10.988490   -5.364160
  F     12.328260  -10.402390   -4.455720
  C     13.665940  -10.704600    0.687240
  C     14.832470  -11.306230    0.216970
  C     15.901230  -11.523830    1.083390
  C     15.726540  -11.127020    2.414840
  N     14.627600  -10.558960    2.872000
  C     13.627870  -10.347500    2.040280
  C     17.121890  -12.140010    0.579590
  C     18.266120  -12.268270    1.239440
  H     -1.275600    0.212850    2.763010
  H      0.055650   -1.373050    1.401440
  H      2.219870   -2.333060    4.987890
  H     -0.757220    0.433030    5.197710
  H      2.865590   -3.422640    3.002170
  H      1.329520   -2.825720    0.408040
  H      4.504560   -6.032570   -1.776360
  H      4.758950   -5.231020    3.255800
  H      5.742280   -5.954520    6.664970
  H      4.978610   -3.584960    4.891970
  H      4.603190   -3.813900    6.668420
  H      7.465760   -7.543130    6.657920
  H      8.277840   -5.988770    6.486030
  H      9.054990   -7.464700    5.897530
  H      8.907620   -7.911540    3.635780
  H      9.659260   -8.598930    1.634250
  H      8.718030   -8.790330   -1.285860
  H     12.990100  -11.260510   -2.153120
  H     14.914360  -11.595200   -0.820400
  H     16.503500  -11.278080    3.150600
  H     12.751450   -9.874350    2.460720
  H     17.053250  -12.504260   -0.438060
  H     18.400840  -11.913270    2.246280
  H     19.122660  -12.734360    0.783960

 Total Charge           Charge          ....    0
 Multiplicity           Mult            ....    1
 Number of Electrons    NEL             ....  374
 Basis Dimension        Dim             ....  852

ORBITAL ENERGIES
----------------

  NO   OCC          E(Eh)            E(eV)
   0   2.0000     -88.976780     -2421.1813
   1   2.0000     -24.806823      -675.0280
   2   2.0000     -24.806652      -675.0233
   3   2.0000     -24.802132      -674.9003
   4   2.0000     -24.801730      -674.8894
   5   2.0000     -24.801203      -674.8750
   6   2.0000     -24.797135      -674.7644
   7   2.0000     -19.316899      -525.6395
   8   2.0000     -19.306465      -525.3556
   9   2.0000     -19.236816      -523.4604
  10   2.0000     -19.225055      -523.1403
  11   2.0000     -14.405477      -391.9930
  12   2.0000     -14.403121      -391.9289
  13   2.0000     -10.516716      -286.1744
  14   2.0000     -10.510667      -286.0098
  15   2.0000     -10.389745      -282.7193
  16   2.0000     -10.379175      -282.4317
  17   2.0000     -10.365426      -282.0576
  18   2.0000     -10.357102      -281.8311
  19   2.0000     -10.356700      -281.8201
  20   2.0000     -10.342367      -281.4301
  21   2.0000     -10.324206      -280.9359
  22   2.0000     -10.311184      -280.5816
  23   2.0000     -10.309977      -280.5487
  24   2.0000     -10.308381      -280.5053
  25   2.0000     -10.304489      -280.3994
  26   2.0000     -10.303030      -280.3597
  27   2.0000     -10.300440      -280.2892
  28   2.0000     -10.300038      -280.2783
  29   2.0000     -10.298923      -280.2480
  30   2.0000     -10.296877      -280.1923
  31   2.0000     -10.295975      -280.1677
  32   2.0000     -10.295034      -280.1421
  33   2.0000     -10.293698      -280.1058
  34   2.0000     -10.293257      -280.0938
  35   2.0000     -10.292507      -280.0734
  36   2.0000     -10.291867      -280.0559
  37   2.0000     -10.291557      -280.0475
  38   2.0000     -10.288579      -279.9665
  39   2.0000     -10.288337      -279.9599
  40   2.0000     -10.287657      -279.9414
  41   2.0000     -10.286512      -279.9102
  42   2.0000     -10.284614      -279.8586
  43   2.0000     -10.284135      -279.8455
  44   2.0000     -10.283559      -279.8299
  45   2.0000     -10.280380      -279.7434
  46   2.0000     -10.279414      -279.7171
  47   2.0000     -10.278438      -279.6905
  48   2.0000     -10.277657      -279.6693
  49   2.0000     -10.271402      -279.4991
  50   2.0000     -10.271071      -279.4900
  51   2.0000     -10.270603      -279.4773
  52   2.0000      -8.071532      -219.6375
  53   2.0000      -6.040635      -164.3740
  54   2.0000      -6.036510      -164.2618
  55   2.0000      -6.034145      -164.1974
  56   2.0000      -1.394790       -37.9542
  57   2.0000      -1.389229       -37.8028
  58   2.0000      -1.297539       -35.3078
  59   2.0000      -1.297225       -35.2993
  60   2.0000      -1.291981       -35.1566
  61   2.0000      -1.291425       -35.1415
  62   2.0000      -1.236771       -33.6542
  63   2.0000      -1.226084       -33.3634
  64   2.0000      -1.152312       -31.3560
  65   2.0000      -1.140166       -31.0255
  66   2.0000      -1.041023       -28.3277
  67   2.0000      -1.038267       -28.2527
  68   2.0000      -1.007705       -27.4211
  69   2.0000      -0.952560       -25.9205
  70   2.0000      -0.938925       -25.5495
  71   2.0000      -0.932802       -25.3828
  72   2.0000      -0.928440       -25.2641
  73   2.0000      -0.924157       -25.1476
  74   2.0000      -0.915175       -24.9032
  75   2.0000      -0.907369       -24.6908
  76   2.0000      -0.892896       -24.2969
  77   2.0000      -0.884493       -24.0683
  78   2.0000      -0.871974       -23.7276
  79   2.0000      -0.867561       -23.6075
  80   2.0000      -0.854846       -23.2615
  81   2.0000      -0.836072       -22.7507
  82   2.0000      -0.831625       -22.6297
  83   2.0000      -0.826101       -22.4793
  84   2.0000      -0.819765       -22.3070
  85   2.0000      -0.816851       -22.2276
  86   2.0000      -0.791438       -21.5361
  87   2.0000      -0.774908       -21.0863
  88   2.0000      -0.758524       -20.6405
  89   2.0000      -0.755096       -20.5472
  90   2.0000      -0.750904       -20.4331
  91   2.0000      -0.736663       -20.0456
  92   2.0000      -0.726238       -19.7619
  93   2.0000      -0.724191       -19.7062
  94   2.0000      -0.721904       -19.6440
  95   2.0000      -0.719087       -19.5673
  96   2.0000      -0.706943       -19.2369
  97   2.0000      -0.699554       -19.0358
  98   2.0000      -0.687213       -18.7000
  99   2.0000      -0.683284       -18.5931
 100   2.0000      -0.678032       -18.4502
 101   2.0000      -0.676776       -18.4160
 102   2.0000      -0.672521       -18.3002
 103   2.0000      -0.669777       -18.2256
 104   2.0000      -0.662884       -18.0380
 105   2.0000      -0.653226       -17.7752
 106   2.0000      -0.649594       -17.6763
 107   2.0000      -0.647651       -17.6235
 108   2.0000      -0.635534       -17.2938
 109   2.0000      -0.622744       -16.9457
 110   2.0000      -0.618211       -16.8224
 111   2.0000      -0.615153       -16.7392
 112   2.0000      -0.600799       -16.3486
 113   2.0000      -0.597764       -16.2660
 114   2.0000      -0.591772       -16.1029
 115   2.0000      -0.587546       -15.9879
 116   2.0000      -0.584620       -15.9083
 117   2.0000      -0.574578       -15.6351
 118   2.0000      -0.568079       -15.4582
 119   2.0000      -0.563877       -15.3439
 120   2.0000      -0.561556       -15.2807
 121   2.0000      -0.559807       -15.2331
 122   2.0000      -0.558477       -15.1969
 123   2.0000      -0.553328       -15.0568
 124   2.0000      -0.552971       -15.0471
 125   2.0000      -0.552283       -15.0284
 126   2.0000      -0.547977       -14.9112
 127   2.0000      -0.547856       -14.9079
 128   2.0000      -0.538559       -14.6549
 129   2.0000      -0.537961       -14.6387
 130   2.0000      -0.534423       -14.5424
 131   2.0000      -0.528747       -14.3879
 132   2.0000      -0.524470       -14.2715
 133   2.0000      -0.523174       -14.2363
 134   2.0000      -0.521577       -14.1928
 135   2.0000      -0.515584       -14.0298
 136   2.0000      -0.515471       -14.0267
 137   2.0000      -0.515102       -14.0166
 138   2.0000      -0.511271       -13.9124
 139   2.0000      -0.508677       -13.8418
 140   2.0000      -0.506189       -13.7741
 141   2.0000      -0.504454       -13.7269
 142   2.0000      -0.502558       -13.6753
 143   2.0000      -0.499220       -13.5845
 144   2.0000      -0.498135       -13.5549
 145   2.0000      -0.496856       -13.5202
 146   2.0000      -0.495842       -13.4926
 147   2.0000      -0.495128       -13.4731
 148   2.0000      -0.494290       -13.4503
 149   2.0000      -0.491583       -13.3767
 150   2.0000      -0.490496       -13.3471
 151   2.0000      -0.489155       -13.3106
 152   2.0000      -0.485836       -13.2203
 153   2.0000      -0.481378       -13.0990
 154   2.0000      -0.480800       -13.0832
 155   2.0000      -0.474999       -12.9254
 156   2.0000      -0.472015       -12.8442
 157   2.0000      -0.469830       -12.7847
 158   2.0000      -0.467082       -12.7099
 159   2.0000      -0.465595       -12.6695
 160   2.0000      -0.458553       -12.4779
 161   2.0000      -0.450163       -12.2496
 162   2.0000      -0.444205       -12.0874
 163   2.0000      -0.441557       -12.0154
 164   2.0000      -0.431998       -11.7553
 165   2.0000      -0.428381       -11.6568
 166   2.0000      -0.426465       -11.6047
 167   2.0000      -0.422595       -11.4994
 168   2.0000      -0.417255       -11.3541
 169   2.0000      -0.410686       -11.1753
 170   2.0000      -0.399463       -10.8699
 171   2.0000      -0.391819       -10.6619
 172   2.0000      -0.380386       -10.3508
 173   2.0000      -0.375862       -10.2277
 174   2.0000      -0.366051        -9.9607
 175   2.0000      -0.360700        -9.8152
 176   2.0000      -0.359230        -9.7751
 177   2.0000      -0.349751        -9.5172
 178   2.0000      -0.347505        -9.4561
 179   2.0000      -0.337664        -9.1883
 180   2.0000      -0.330343        -8.9891
 181   2.0000      -0.326209        -8.8766
 182   2.0000      -0.311769        -8.4837
 183   2.0000      -0.305063        -8.3012
 184   2.0000      -0.296170        -8.0592
 185   2.0000      -0.277316        -7.5461
 186   2.0000      -0.229517        -6.2455
 187   0.0000      -0.087053        -2.3688
 188   0.0000      -0.064029        -1.7423
 189   0.0000      -0.031400        -0.8544
 190   0.0000      -0.021555        -0.5866
 191   0.0000      -0.006132        -0.1669

MULLIKEN ATOMIC CHARGES
-----------------------
   0 C :    0.014857
   1 C :    0.027524
   2 C :    0.043548
   3 C :   -0.014422
   4 N :   -0.059497
   5 C :    0.026128
   6 C :    0.034713
   7 C :   -0.023497
   8 C :    0.134936
   9 O :   -0.202896
  10 C :    0.180838
  11 C :   -0.048905
  12 C :   -0.029677
  13 C :    0.015232
  14 O :   -0.146873
  15 C :    0.475919
  16 F :   -0.167457
  17 F :   -0.167334
  18 F :   -0.135112
  19 C :   -0.119153
  20 S :    0.173533
  21 C :   -0.086025
  22 C :    0.133420
  23 C :    0.124318
  24 C :   -0.104920
  25 C :    0.092726
  26 C :   -0.036153
  27 C :   -0.023509
  28 C :   -0.078155
  29 C :    0.100860
  30 C :   -0.096862
  31 C :    0.013811
  32 C :   -0.066475
  33 C :    0.134853
  34 O :   -0.199598
  35 C :    0.202210
  36 C :   -0.056916
  37 C :   -0.023680
  38 C :    0.011557
  39 O :   -0.154985
  40 C :    0.472920
  41 F :   -0.172270
  42 F :   -0.135552
  43 F :   -0.172456
  44 C :    0.051062
  45 C :   -0.035781
  46 C :    0.075441
  47 C :   -0.022767
  48 N :   -0.050888
  49 C :   -0.015646
  50 C :   -0.003300
  51 C :   -0.005908
  52 H :   -0.000793
  53 H :    0.003097
  54 H :   -0.006527
  55 H :    0.009267
  56 H :   -0.011577
  57 H :    0.016738
  58 H :    0.012199
  59 H :   -0.036380
  60 H :    0.001411
  61 H :    0.025001
  62 H :    0.029924
  63 H :    0.033987
  64 H :    0.034092
  65 H :    0.012463
  66 H :   -0.039957
  67 H :    0.003971
  68 H :    0.020212
  69 H :    0.000042
  70 H :   -0.018546
  71 H :   -0.005574
  72 H :   -0.003728
  73 H :   -0.011470
  74 H :    0.020743
  75 H :    0.027667
Sum of atomic charges:   -0.0000000

LOEWDIN ATOMIC CHARGES
----------------------
   0 C :   -0.039088
   1 C :    0.021851
   2 C :   -0.054297
   3 C :    0.024756
   4 N :   -0.068078
   5 C :    0.026336
   6 C :    0.016713
   7 C :   -0.045273
   8 C :    0.087766
   9 O :    0.030710
  10 C :    0.020464
  11 C :   -0.043299
  12 C :   -0.119500
  13 C :    0.037023
  14 O :   -0.116504
  15 C :    0.142537
  16 F :   -0.060101
  17 F :   -0.060321
  18 F :   -0.035828
  19 C :   -0.180813
  20 S :    0.496406
  21 C :   -0.182882
  22 C :   -0.028321
  23 C :   -0.043935
  24 C :   -0.005672
  25 C :   -0.025740
  26 C :   -0.017876
  27 C :   -0.039758
  28 C :   -0.007303
  29 C :   -0.043863
  30 C :   -0.028814
  31 C :   -0.002045
  32 C :   -0.066412
  33 C :    0.088900
  34 O :    0.022569
  35 C :    0.036471
  36 C :   -0.042736
  37 C :   -0.126453
  38 C :    0.031095
  39 O :   -0.125543
  40 C :    0.144270
  41 F :   -0.065267
  42 F :   -0.036363
  43 F :   -0.065163
  44 C :   -0.056103
  45 C :    0.016193
  46 C :   -0.042322
  47 C :    0.026623
  48 N :   -0.061264
  49 C :    0.019005
  50 C :   -0.022279
  51 C :   -0.030841
  52 H :    0.034764
  53 H :    0.035327
  54 H :    0.020488
  55 H :    0.023345
  56 H :    0.031700
  57 H :    0.038342
  58 H :    0.032382
  59 H :    0.024501
  60 H :    0.029811
  61 H :    0.020207
  62 H :    0.026981
  63 H :    0.036988
  64 H :    0.037459
  65 H :    0.031564
  66 H :    0.025542
  67 H :    0.037306
  68 H :    0.033536
  69 H :    0.030138
  70 H :    0.029986
  71 H :    0.019783
  72 H :    0.019132
  73 H :    0.029315
  74 H :    0.023107
  75 H :    0.028666

  Mayer bond orders larger than 0.100000
B(  0-C ,  1-C ) :   1.4449 B(  0-C ,  5-C ) :   1.3630 B(  0-C , 52-H ) :   0.9736
B(  1-C ,  2-C ) :   1.3670 B(  1-C , 53-H ) :   0.9823 B(  2-C ,  3-C ) :   1.3126
B(  2-C ,  6-C ) :   1.0647 B(  3-C ,  4-N ) :   1.5779 B(  3-C , 54-H ) :   0.9879
B(  4-N ,  5-C ) :   1.5422 B(  5-C , 55-H ) :   0.9818 B(  6-C ,  7-C ) :   1.6363
B(  6-C , 56-H ) :   0.9936 B(  7-C ,  8-C ) :   1.1907 B(  7-C , 57-H ) :   0.9382
B(  8-C ,  9-O ) :   1.1836 B(  8-C , 12-C ) :   1.3598 B(  9-O , 10-C ) :   1.1136
B( 10-C , 11-C ) :   1.4741 B( 10-C , 19-C ) :   1.1263 B( 11-C , 12-C ) :   1.2137
B( 11-C , 58-H ) :   0.9859 B( 12-C , 13-C ) :   0.9689 B( 13-C , 14-O ) :   2.1638
B( 13-C , 15-C ) :   0.8892 B( 15-C , 16-F ) :   1.1291 B( 15-C , 17-F ) :   1.1316
B( 15-C , 18-F ) :   1.1904 B( 19-C , 20-S ) :   1.1789 B( 19-C , 21-C ) :   0.1154
B( 19-C , 23-C ) :   1.3212 B( 20-S , 21-C ) :   1.1114 B( 21-C , 22-C ) :   1.3033
B( 21-C , 31-C ) :   1.2021 B( 22-C , 23-C ) :   1.1970 B( 22-C , 30-C ) :   1.1973
B( 23-C , 24-C ) :   1.1993 B( 24-C , 25-C ) :   1.5076 B( 24-C , 59-H ) :   1.0000
B( 25-C , 26-C ) :   1.0238 B( 25-C , 28-C ) :   1.2002 B( 26-C , 27-C ) :   1.9765
B( 26-C , 60-H ) :   0.9503 B( 27-C , 61-H ) :   0.9550 B( 27-C , 62-H ) :   0.9502
B( 28-C , 29-C ) :   1.0898 B( 28-C , 30-C ) :   1.5523 B( 29-C , 63-H ) :   0.9396
B( 29-C , 64-H ) :   0.9420 B( 29-C , 65-H ) :   0.9533 B( 30-C , 66-H ) :   0.9897
B( 31-C , 32-C ) :   1.5471 B( 31-C , 67-H ) :   0.9775 B( 32-C , 33-C ) :   1.2387
B( 32-C , 68-H ) :   0.9422 B( 33-C , 34-O ) :   1.1866 B( 33-C , 37-C ) :   1.3441
B( 34-O , 35-C ) :   1.1148 B( 35-C , 36-C ) :   1.5311 B( 35-C , 44-C ) :   1.0138
B( 36-C , 37-C ) :   1.1817 B( 36-C , 69-H ) :   0.9846 B( 37-C , 38-C ) :   0.9894
B( 38-C , 39-O ) :   2.1519 B( 38-C , 40-C ) :   0.8891 B( 40-C , 41-F ) :   1.1240
B( 40-C , 42-F ) :   1.1908 B( 40-C , 43-F ) :   1.1231 B( 44-C , 45-C ) :   1.3739
B( 44-C , 49-C ) :   1.3290 B( 45-C , 46-C ) :   1.3881 B( 45-C , 70-H ) :   0.9883
B( 46-C , 47-C ) :   1.3208 B( 46-C , 50-C ) :   1.0497 B( 47-C , 48-N ) :   1.5757
B( 47-C , 71-H ) :   0.9860 B( 48-N , 49-C ) :   1.5504 B( 49-C , 72-H ) :   0.9903
B( 50-C , 51-C ) :   1.9630 B( 50-C , 73-H ) :   0.9692 B( 51-C , 74-H ) :   0.9501
B( 51-C , 75-H ) :   0.9482

-----------------------------------------------------------------------------
         ABSORPTION SPECTRUM VIA TRANSITION ELECTRIC DIPOLE MOMENTS
-----------------------------------------------------------------------------
State   Energy  Wavelength   fosc         T2         TX        TY        TZ
        (cm-1)    (nm)                  (au**2)     (au)      (au)      (au)
-----------------------------------------------------------------------------
   0   15921.1    628.1   1.223383674  25.29683  -3.94631   2.90476   1.13396
   1   21317.6    469.1   0.013684582   0.21133   0.38675   0.03317   0.24629
   2   25929.6    385.7   0.037120651   0.47130   0.09381   0.22556   0.64158
   3   26600.0    375.9   0.142256921   1.76063   0.00648  -0.00696   1.32685
   4   29541.2    338.5   0.363897130   4.05533   0.73346  -0.97712  -1.60081
   5   31135.4    321.2   0.263110286   2.78201  -1.31911   0.34224  -0.96168
   6   31288.1    319.6   0.124496069   1.30994  -0.79960   0.51798   0.63425
   7   32389.8    308.7   0.335075410   3.40573   0.06488  -0.56963  -1.75415
   8   33992.0    294.2   0.000463022   0.00448  -0.03004   0.05899   0.01012
   9   34244.1    292.0   0.094282562   0.90640  -0.79034   0.53066   0.01299
  10   34465.8    290.1   0.012000710   0.11463   0.27030  -0.16808   0.11540
  11   34558.2    289.4   0.066684020   0.63525   0.53631  -0.51544   0.28626
  12   34731.2    287.9   0.000859235   0.00814   0.00157  -0.08891   0.01540
  13   35507.4    281.6   0.131553997   1.21972   0.59945  -0.62007  -0.68985
  14   35866.9    278.8   0.006389096   0.05864  -0.23632   0.03311  -0.04125
  15   37091.1    269.6   0.001880191   0.01669  -0.01864  -0.04292  -0.12041
  16   37266.3    268.3   0.095103999   0.84015   0.01310  -0.22924  -0.88737
  17   37912.9    263.8   0.038413855   0.33356  -0.08048  -0.12515  -0.55805
  18   38143.9    262.2   0.013009963   0.11229   0.02600   0.06729   0.32723
  19   38531.7    259.5   0.051718390   0.44188   0.21928  -0.03446   0.62658
  20   39413.9    253.7   0.070576133   0.58950   0.19042   0.10707   0.73606

FINAL SINGLE POINT ENERGY     -2905.094876205845

DIPOLE MOMENT
-------------
                                X             Y             Z
Electronic contribution:    -16.60116     -13.34676     -76.77077
Nuclear contribution   :     17.17840      13.59610      78.59497
                        -----------------------------------------
Total Dipole Moment    :      0.57724       0.24934       1.82420
                        -----------------------------------------
Magnitude (a.u.)       :      1.92953
Magnitude (Debye)      :      4.90448

Rotational constants in cm-1:     0.002414     0.000638     0.000511
Rotational constants in MHz :    72.368721    19.119331    15.327404

                             ****ORCA TERMINATED NORMALLY****
TOTAL RUN TIME: 0 days 0 hours 4 minutes 56 seconds 92 msec
