                         Program Version 4.2.0 -  RELEASE  -
|  1> # ORCA input file
|  2> # SCF done       -114.848885105841          0.000242236066
|  3> ! CAM-B3LYP def2-SVP def2/J RIJCOSX Grid4 TightSCF
|  4> %maxcore 5000
|  5> %tddft
|  6>     Mode sTDDFT
|  7>     Ethresh 5.0
|  8>     maxcore 5000
|  9> end
| 10>
| 11> %pal
| 12>   nprocs 6
| 13>   end
| 14> * xyz 0 1
| 15>    C       14.11488         2.09984        -8.82547
| 16>    N       13.59900         1.51034        -7.83269
| 17>    N       14.15350         1.60651        -6.63145
| 18>    C       13.62157         0.97889        -5.52677
| 19>    C       14.24796         1.11693        -4.28515
| 20>    C       13.73134         0.49272        -3.17417
| 21>    C       12.57435        -0.28887        -3.26569
| 22>    C       12.02573        -0.95606        -2.11372
| 23>    N       12.56137        -0.86786        -0.95668
| 24>    N       12.01487        -1.51455         0.06655
| 25>    C       12.53488        -1.46556         1.33531
| 26>    C       13.66721        -0.70055         1.62776
| 27>    C       14.16751        -0.66760         2.90812
| 28>    C       13.57635        -1.40986         3.93541
| 29>    C       14.11254        -1.36766         5.28923
| 30>    C       14.52720        -0.16745         5.86858
| 31>    C       14.97972        -0.09398         7.24903
| 32>    C       15.05627        -1.21234         8.06510
| 33>    C       15.51443        -1.02849         9.47349
| 34>    O       15.96874        -2.18583        10.18207
| 35>    C       17.18553        -1.54743        10.55569
| 36>    C       16.89601        -0.34052         9.64713
| 37>    C       16.92130         1.01582        10.22098
| 38>    C       17.55099         2.12652         9.73324
| 39>    C       17.35162         3.27063        10.51948
| 40>    C       16.56588         3.03844        11.61823
| 41>    C       16.18988         4.03477        12.62751
| 42>    O       16.55450         5.17882        12.56565
| 43>    O       15.41197         3.60893        13.64042
| 44>    S       16.05924         1.37333        11.67410
| 45>    C       14.68865        -2.44170         7.48607
| 46>    C       14.71582        -3.68815         8.08554
| 47>    S       14.24073        -4.91989         7.01716
| 48>    C       13.96776        -3.82747         5.74395
| 49>    C       14.22521        -2.51719         6.10870
| 50>    N       15.28781         1.16941         7.60514
| 51>    S       15.02829         2.13074         6.35124
| 52>    N       14.52384         1.04724         5.29380
| 53>    C       12.43617        -2.16109         3.63637
| 54>    C       11.91846        -2.18622         2.36141
| 55>    C       11.95385        -0.41764        -4.51251
| 56>    C       12.46495         0.20400        -5.62858
| 57>    H       13.62957         1.99157        -9.77724
| 58>    H       15.02002         2.70808        -8.76941
| 59>    H       15.00252         2.16161        -6.50515
| 60>    H       15.14326         1.71786        -4.20475
| 61>    H       14.20929         0.59393        -2.21320
| 62>    H       11.11816        -1.55517        -2.27194
| 63>    H       11.17508        -2.07899        -0.08537
| 64>    H       14.13200        -0.14249         0.83152
| 65>    H       15.04013        -0.07325         3.12710
| 66>    H       14.73358        -0.51286        10.05479
| 67>    H       18.06146        -2.14641        10.29774
| 68>    H       17.19843        -1.30684        11.62446
| 69>    H       17.47686        -0.35835         8.72424
| 70>    H       18.13459         2.11433         8.83096
| 71>    H       17.76134         4.24114        10.30707
| 72>    H       15.18812         2.67086        13.57383
| 73>    H       15.00605        -3.91473         9.08967
| 74>    H       13.66928        -4.19591         4.78431
| 75>    H       11.92752        -2.69353         4.42598
| 76>    H       11.02620        -2.75949         2.15048
| 77>    H       11.05829        -1.01629        -4.60026
| 78>    H       11.99027         0.10649        -6.59148
| 79> *
| 80>
| 81>                          ****END OF INPUT****

CARTESIAN COORDINATES (ANGSTROEM)
---------------------------------
  C     14.114880    2.099840   -8.825470
  N     13.599000    1.510340   -7.832690
  N     14.153500    1.606510   -6.631450
  C     13.621570    0.978890   -5.526770
  C     14.247960    1.116930   -4.285150
  C     13.731340    0.492720   -3.174170
  C     12.574350   -0.288870   -3.265690
  C     12.025730   -0.956060   -2.113720
  N     12.561370   -0.867860   -0.956680
  N     12.014870   -1.514550    0.066550
  C     12.534880   -1.465560    1.335310
  C     13.667210   -0.700550    1.627760
  C     14.167510   -0.667600    2.908120
  C     13.576350   -1.409860    3.935410
  C     14.112540   -1.367660    5.289230
  C     14.527200   -0.167450    5.868580
  C     14.979720   -0.093980    7.249030
  C     15.056270   -1.212340    8.065100
  C     15.514430   -1.028490    9.473490
  O     15.968740   -2.185830   10.182070
  C     17.185530   -1.547430   10.555690
  C     16.896010   -0.340520    9.647130
  C     16.921300    1.015820   10.220980
  C     17.550990    2.126520    9.733240
  C     17.351620    3.270630   10.519480
  C     16.565880    3.038440   11.618230
  C     16.189880    4.034770   12.627510
  O     16.554500    5.178820   12.565650
  O     15.411970    3.608930   13.640420
  S     16.059240    1.373330   11.674100
  C     14.688650   -2.441700    7.486070
  C     14.715820   -3.688150    8.085540
  S     14.240730   -4.919890    7.017160
  C     13.967760   -3.827470    5.743950
  C     14.225210   -2.517190    6.108700
  N     15.287810    1.169410    7.605140
  S     15.028290    2.130740    6.351240
  N     14.523840    1.047240    5.293800
  C     12.436170   -2.161090    3.636370
  C     11.918460   -2.186220    2.361410
  C     11.953850   -0.417640   -4.512510
  C     12.464950    0.204000   -5.628580
  H     13.629570    1.991570   -9.777240
  H     15.020020    2.708080   -8.769410
  H     15.002520    2.161610   -6.505150
  H     15.143260    1.717860   -4.204750
  H     14.209290    0.593930   -2.213200
  H     11.118160   -1.555170   -2.271940
  H     11.175080   -2.078990   -0.085370
  H     14.132000   -0.142490    0.831520
  H     15.040130   -0.073250    3.127100
  H     14.733580   -0.512860   10.054790
  H     18.061460   -2.146410   10.297740
  H     17.198430   -1.306840   11.624460
  H     17.476860   -0.358350    8.724240
  H     18.134590    2.114330    8.830960
  H     17.761340    4.241140   10.307070
  H     15.188120    2.670860   13.573830
  H     15.006050   -3.914730    9.089670
  H     13.669280   -4.195910    4.784310
  H     11.927520   -2.693530    4.425980
  H     11.026200   -2.759490    2.150480
  H     11.058290   -1.016290   -4.600260
  H     11.990270    0.106490   -6.591480

 Total Charge           Charge          ....    0
 Multiplicity           Mult            ....    1
 Number of Electrons    NEL             ....  316
 Basis Dimension        Dim             ....  710

ORBITAL ENERGIES
----------------

  NO   OCC          E(Eh)            E(eV)
   0   2.0000     -89.021086     -2422.3869
   1   2.0000     -88.968682     -2420.9609
   2   2.0000     -88.963459     -2420.8188
   3   2.0000     -19.249471      -523.8047
   4   2.0000     -19.215065      -522.8685
   5   2.0000     -19.182781      -521.9900
   6   2.0000     -14.463478      -393.5712
   7   2.0000     -14.460693      -393.4955
   8   2.0000     -14.448383      -393.1605
   9   2.0000     -14.436845      -392.8465
  10   2.0000     -14.424821      -392.5193
  11   2.0000     -14.421929      -392.4406
  12   2.0000     -10.393775      -282.8290
  13   2.0000     -10.329621      -281.0833
  14   2.0000     -10.321393      -280.8594
  15   2.0000     -10.309958      -280.5482
  16   2.0000     -10.307739      -280.4878
  17   2.0000     -10.307365      -280.4777
  18   2.0000     -10.307054      -280.4692
  19   2.0000     -10.306787      -280.4619
  20   2.0000     -10.296950      -280.1943
  21   2.0000     -10.296487      -280.1817
  22   2.0000     -10.295040      -280.1423
  23   2.0000     -10.290073      -280.0071
  24   2.0000     -10.284378      -279.8521
  25   2.0000     -10.282353      -279.7970
  26   2.0000     -10.281607      -279.7768
  27   2.0000     -10.280879      -279.7569
  28   2.0000     -10.279229      -279.7121
  29   2.0000     -10.278955      -279.7046
  30   2.0000     -10.275271      -279.6043
  31   2.0000     -10.272106      -279.5182
  32   2.0000     -10.266079      -279.3542
  33   2.0000     -10.265105      -279.3277
  34   2.0000     -10.264187      -279.3027
  35   2.0000     -10.263031      -279.2713
  36   2.0000     -10.262499      -279.2568
  37   2.0000     -10.261883      -279.2400
  38   2.0000     -10.261387      -279.2265
  39   2.0000     -10.259339      -279.1708
  40   2.0000     -10.255647      -279.0703
  41   2.0000     -10.251712      -278.9633
  42   2.0000      -8.112164      -220.7432
  43   2.0000      -8.063919      -219.4304
  44   2.0000      -8.059292      -219.3045
  45   2.0000      -6.082976      -165.5262
  46   2.0000      -6.075480      -165.3222
  47   2.0000      -6.075328      -165.3181
  48   2.0000      -6.032359      -164.1488
  49   2.0000      -6.028448      -164.0424
  50   2.0000      -6.028129      -164.0337
  51   2.0000      -6.028044      -164.0314
  52   2.0000      -6.024398      -163.9322
  53   2.0000      -6.021661      -163.8577
  54   2.0000      -1.170660       -31.8553
  55   2.0000      -1.141361       -31.0580
  56   2.0000      -1.114546       -30.3283
  57   2.0000      -1.111299       -30.2400
  58   2.0000      -1.109342       -30.1867
  59   2.0000      -1.083275       -29.4774
  60   2.0000      -0.988903       -26.9094
  61   2.0000      -0.985404       -26.8142
  62   2.0000      -0.968767       -26.3615
  63   2.0000      -0.965333       -26.2680
  64   2.0000      -0.956679       -26.0326
  65   2.0000      -0.932579       -25.3768
  66   2.0000      -0.919289       -25.0151
  67   2.0000      -0.902359       -24.5544
  68   2.0000      -0.877993       -23.8914
  69   2.0000      -0.866934       -23.5905
  70   2.0000      -0.837784       -22.7973
  71   2.0000      -0.833230       -22.6733
  72   2.0000      -0.831759       -22.6333
  73   2.0000      -0.829182       -22.5632
  74   2.0000      -0.823922       -22.4201
  75   2.0000      -0.805232       -21.9115
  76   2.0000      -0.800440       -21.7811
  77   2.0000      -0.792786       -21.5728
  78   2.0000      -0.761576       -20.7235
  79   2.0000      -0.742542       -20.2056
  80   2.0000      -0.738173       -20.0867
  81   2.0000      -0.723501       -19.6875
  82   2.0000      -0.714999       -19.4561
  83   2.0000      -0.704589       -19.1728
  84   2.0000      -0.687798       -18.7159
  85   2.0000      -0.680010       -18.5040
  86   2.0000      -0.677205       -18.4277
  87   2.0000      -0.670240       -18.2382
  88   2.0000      -0.658858       -17.9284
  89   2.0000      -0.653391       -17.7797
  90   2.0000      -0.641241       -17.4490
  91   2.0000      -0.635513       -17.2932
  92   2.0000      -0.629579       -17.1317
  93   2.0000      -0.625102       -17.0099
  94   2.0000      -0.620100       -16.8738
  95   2.0000      -0.612643       -16.6709
  96   2.0000      -0.603865       -16.4320
  97   2.0000      -0.597330       -16.2542
  98   2.0000      -0.591558       -16.0971
  99   2.0000      -0.587927       -15.9983
 100   2.0000      -0.572554       -15.5800
 101   2.0000      -0.564387       -15.3577
 102   2.0000      -0.556902       -15.1541
 103   2.0000      -0.549225       -14.9452
 104   2.0000      -0.539091       -14.6694
 105   2.0000      -0.537240       -14.6190
 106   2.0000      -0.525345       -14.2954
 107   2.0000      -0.522865       -14.2279
 108   2.0000      -0.520895       -14.1743
 109   2.0000      -0.518094       -14.0981
 110   2.0000      -0.515029       -14.0146
 111   2.0000      -0.514260       -13.9937
 112   2.0000      -0.510851       -13.9010
 113   2.0000      -0.508663       -13.8414
 114   2.0000      -0.507008       -13.7964
 115   2.0000      -0.503040       -13.6884
 116   2.0000      -0.495945       -13.4954
 117   2.0000      -0.493451       -13.4275
 118   2.0000      -0.492131       -13.3916
 119   2.0000      -0.486944       -13.2504
 120   2.0000      -0.480671       -13.0797
 121   2.0000      -0.477027       -12.9806
 122   2.0000      -0.470310       -12.7978
 123   2.0000      -0.467563       -12.7230
 124   2.0000      -0.465542       -12.6680
 125   2.0000      -0.462245       -12.5783
 126   2.0000      -0.455455       -12.3936
 127   2.0000      -0.453751       -12.3472
 128   2.0000      -0.445957       -12.1351
 129   2.0000      -0.445671       -12.1273
 130   2.0000      -0.439027       -11.9465
 131   2.0000      -0.434832       -11.8324
 132   2.0000      -0.427684       -11.6379
 133   2.0000      -0.422406       -11.4943
 134   2.0000      -0.421726       -11.4757
 135   2.0000      -0.414634       -11.2828
 136   2.0000      -0.410054       -11.1581
 137   2.0000      -0.399058       -10.8589
 138   2.0000      -0.392044       -10.6681
 139   2.0000      -0.389373       -10.5954
 140   2.0000      -0.382483       -10.4079
 141   2.0000      -0.379950       -10.3390
 142   2.0000      -0.376358       -10.2412
 143   2.0000      -0.358722        -9.7613
 144   2.0000      -0.354139        -9.6366
 145   2.0000      -0.351622        -9.5681
 146   2.0000      -0.341580        -9.2949
 147   2.0000      -0.339633        -9.2419
 148   2.0000      -0.332810        -9.0562
 149   2.0000      -0.328721        -8.9449
 150   2.0000      -0.325479        -8.8567
 151   2.0000      -0.318181        -8.6581
 152   2.0000      -0.314383        -8.5548
 153   2.0000      -0.313328        -8.5261
 154   2.0000      -0.297153        -8.0859
 155   2.0000      -0.278712        -7.5841
 156   2.0000      -0.240892        -6.5550
 157   2.0000      -0.217720        -5.9245
 158   0.0000      -0.076824        -2.0905
 159   0.0000      -0.014729        -0.4008
 160   0.0000      -0.004739        -0.1289
 161   0.0000       0.018503         0.5035
 162   0.0000       0.035703         0.9715

MULLIKEN ATOMIC CHARGES
-----------------------
   0 C :   -0.042673
   1 N :   -0.022261
   2 N :   -0.061174
   3 C :    0.146528
   4 C :   -0.034845
   5 C :   -0.010956
   6 C :    0.084084
   7 C :   -0.040890
   8 N :    0.004437
   9 N :   -0.046835
  10 C :    0.168795
  11 C :   -0.051507
  12 C :    0.044671
  13 C :   -0.018380
  14 C :    0.084535
  15 C :    0.005577
  16 C :    0.004239
  17 C :   -0.024543
  18 C :    0.184898
  19 O :   -0.372133
  20 C :    0.309729
  21 C :   -0.113299
  22 C :   -0.028450
  23 C :    0.044790
  24 C :    0.026666
  25 C :   -0.178089
  26 C :    0.180722
  27 O :   -0.176808
  28 O :   -0.164581
  29 S :    0.077194
  30 C :    0.052862
  31 C :   -0.165255
  32 S :    0.184258
  33 C :   -0.188194
  34 C :    0.065607
  35 N :   -0.313762
  36 S :    0.523885
  37 N :   -0.285904
  38 C :   -0.020657
  39 C :   -0.064497
  40 C :   -0.008619
  41 C :   -0.029790
  42 H :    0.043056
  43 H :    0.008330
  44 H :    0.100688
  45 H :   -0.041500
  46 H :   -0.012850
  47 H :   -0.042652
  48 H :    0.101905
  49 H :   -0.021363
  50 H :   -0.023774
  51 H :    0.015260
  52 H :    0.017042
  53 H :    0.005528
  54 H :    0.011940
  55 H :   -0.022834
  56 H :    0.005496
  57 H :    0.177050
  58 H :    0.031528
  59 H :    0.024900
  60 H :   -0.016446
  61 H :   -0.044265
  62 H :   -0.028981
  63 H :   -0.017433
Sum of atomic charges:   -0.0000000

LOEWDIN ATOMIC CHARGES
----------------------
   0 C :   -0.051295
   1 N :   -0.004563
   2 N :    0.043118
   3 C :    0.025998
   4 C :   -0.060668
   5 C :    0.009224
   6 C :   -0.069426
   7 C :   -0.021993
   8 N :   -0.026844
   9 N :    0.050540
  10 C :    0.027735
  11 C :   -0.052508
  12 C :    0.013813
  13 C :   -0.049312
  14 C :   -0.011365
  15 C :   -0.055416
  16 C :   -0.057804
  17 C :   -0.062401
  18 C :    0.101776
  19 O :   -0.184127
  20 C :    0.105694
  21 C :   -0.044685
  22 C :   -0.141669
  23 C :   -0.058237
  24 C :   -0.008697
  25 C :   -0.246080
  26 C :    0.062620
  27 O :   -0.165686
  28 O :   -0.038829
  29 S :    0.418626
  30 C :   -0.040794
  31 C :   -0.218924
  32 S :    0.529606
  33 C :   -0.223014
  34 C :   -0.043880
  35 N :   -0.317855
  36 S :    0.666206
  37 N :   -0.294304
  38 C :   -0.006315
  39 C :   -0.069695
  40 C :   -0.007164
  41 C :   -0.051035
  42 H :    0.020344
  43 H :   -0.003695
  44 H :    0.065111
  45 H :    0.022343
  46 H :    0.030644
  47 H :   -0.000734
  48 H :    0.064945
  49 H :    0.028111
  50 H :    0.028356
  51 H :    0.015869
  52 H :    0.016348
  53 H :    0.006533
  54 H :    0.039974
  55 H :    0.029037
  56 H :    0.040394
  57 H :    0.076454
  58 H :    0.022121
  59 H :    0.022613
  60 H :    0.029319
  61 H :    0.020991
  62 H :    0.025409
  63 H :    0.029144

  Mayer bond orders larger than 0.100000
B(  0-C ,  1-N ) :   1.9224 B(  0-C , 42-H ) :   0.9675 B(  0-C , 43-H ) :   0.9479
B(  1-N ,  2-N ) :   1.0665 B(  2-N ,  3-C ) :   1.1147 B(  2-N , 44-H ) :   0.9187
B(  3-C ,  4-C ) :   1.3062 B(  3-C , 41-C ) :   1.3676 B(  4-C ,  5-C ) :   1.4037
B(  4-C , 45-H ) :   0.9965 B(  5-C ,  6-C ) :   1.3521 B(  5-C , 46-H ) :   0.9923
B(  6-C ,  7-C ) :   1.0650 B(  6-C , 40-C ) :   1.3310 B(  7-C ,  8-N ) :   1.8572
B(  7-C , 47-H ) :   0.9479 B(  8-N ,  9-N ) :   1.0494 B(  9-N , 10-C ) :   1.1325
B(  9-N , 48-H ) :   0.9170 B( 10-C , 11-C ) :   1.3391 B( 10-C , 39-C ) :   1.3093
B( 11-C , 12-C ) :   1.3823 B( 11-C , 49-H ) :   0.9942 B( 12-C , 13-C ) :   1.3585
B( 12-C , 50-H ) :   0.9884 B( 13-C , 14-C ) :   0.9981 B( 13-C , 38-C ) :   1.3559
B( 14-C , 15-C ) :   1.3373 B( 14-C , 17-C ) :   0.1431 B( 14-C , 34-C ) :   1.2640
B( 15-C , 16-C ) :   1.1016 B( 15-C , 37-N ) :   1.4430 B( 16-C , 17-C ) :   1.3683
B( 16-C , 35-N ) :   1.4316 B( 17-C , 18-C ) :   0.9946 B( 17-C , 30-C ) :   1.2955
B( 18-C , 19-O ) :   1.0736 B( 18-C , 21-C ) :   1.0382 B( 18-C , 51-H ) :   0.8926
B( 19-O , 20-C ) :   1.0018 B( 20-C , 21-C ) :   1.0526 B( 20-C , 52-H ) :   0.9465
B( 20-C , 53-H ) :   0.9391 B( 21-C , 22-C ) :   1.0066 B( 21-C , 54-H ) :   0.9096
B( 22-C , 23-C ) :   1.5674 B( 22-C , 25-C ) :   0.1085 B( 22-C , 29-S ) :   1.1610
B( 23-C , 24-C ) :   1.2302 B( 23-C , 55-H ) :   1.0041 B( 24-C , 25-C ) :   1.5621
B( 24-C , 56-H ) :   1.0034 B( 25-C , 26-C ) :   0.9449 B( 25-C , 29-S ) :   1.0826
B( 26-C , 27-O ) :   2.2028 B( 26-C , 28-O ) :   1.2302 B( 28-O , 57-H ) :   0.9517
B( 30-C , 31-C ) :   1.3907 B( 30-C , 34-C ) :   1.1216 B( 31-C , 32-S ) :   1.2392
B( 31-C , 33-C ) :   0.1332 B( 31-C , 58-H ) :   0.9446 B( 32-S , 33-C ) :   1.2511
B( 33-C , 34-C ) :   1.3698 B( 33-C , 59-H ) :   0.9531 B( 35-N , 36-S ) :   1.2881
B( 35-N , 37-N ) :   0.1809 B( 36-S , 37-N ) :   1.3160 B( 38-C , 39-C ) :   1.4011
B( 38-C , 60-H ) :   0.9908 B( 39-C , 61-H ) :   0.9957 B( 40-C , 41-C ) :   1.3760
B( 40-C , 62-H ) :   0.9926 B( 41-C , 63-H ) :   0.9884

-----------------------------------------------------------------------------
         ABSORPTION SPECTRUM VIA TRANSITION ELECTRIC DIPOLE MOMENTS
-----------------------------------------------------------------------------
State   Energy  Wavelength   fosc         T2         TX        TY        TZ
        (cm-1)    (nm)                  (au**2)     (au)      (au)      (au)
-----------------------------------------------------------------------------
   0   14197.4    704.4   0.299210263   6.93815  -0.74410  -0.11609  -2.52408
   1   21348.4    468.4   0.067510487   1.04107  -0.12798   0.23301  -0.98509
   2   29495.8    339.0   0.092870969   1.03656   0.03175   0.00398   1.01761
   3   29748.8    336.1   0.129071287   1.42835   0.30700   0.35511   1.09909
   4   30701.2    325.7   0.897941566   9.62871   0.09933   0.84397  -2.98439
   5   30900.2    323.6   0.181769987   1.93658   0.17757  -0.33986   1.33774
   6   32153.7    311.0   0.033917551   0.34727   0.24959   0.52555   0.09369
   7   33123.9    301.9   0.031862995   0.31668  -0.25223  -0.38015   0.32946
   8   33713.1    296.6   0.408626263   3.99028   0.12841   1.96823  -0.31602
   9   34498.6    289.9   0.014702066   0.14030   0.07706   0.25609  -0.26225
  10   34894.8    286.6   0.114553662   1.08075  -0.12746  -1.03107  -0.03742
  11   35785.5    279.4   0.251859647   2.31700   0.70472   0.66147  -1.17594
  12   36949.0    270.6   0.064302929   0.57293  -0.36924  -0.39818   0.52731
  13   37519.8    266.5   0.012657542   0.11106  -0.16397  -0.25307   0.14189
  14   38097.1    262.5   0.002674711   0.02311   0.06028  -0.07302   0.11894
  15   38543.6    259.4   0.160360824   1.36969   0.37139  -0.03065   1.10942
  16   39921.8    250.5   0.003196356   0.02636   0.05954  -0.03877  -0.14598

FINAL SINGLE POINT ENERGY     -2902.581739796237

DIPOLE MOMENT
-------------
                                X             Y             Z
Electronic contribution:      2.77867       1.54382      42.89652
Nuclear contribution   :     -2.65018      -3.19723     -45.45986
                        -----------------------------------------
Total Dipole Moment    :      0.12850      -1.65341      -2.56333
                        -----------------------------------------
Magnitude (a.u.)       :      3.05302
Magnitude (Debye)      :      7.76016

Rotational constants in cm-1:     0.004312     0.000673     0.000601
Rotational constants in MHz :   129.263277    20.179897    18.017813

                             ****ORCA TERMINATED NORMALLY****
TOTAL RUN TIME: 0 days 0 hours 3 minutes 52 seconds 640 msec
