                         Program Version 4.2.0 -  RELEASE  -
|  1> # ORCA input file
|  2> # SCF done       -180.079351033477          0.000820242262
|  3> ! CAM-B3LYP def2-SVP def2/J RIJCOSX Grid4 TightSCF
|  4> %maxcore 5000
|  5> %tddft
|  6>     Mode sTDDFT
|  7>     Ethresh 5.0
|  8>     maxcore 5000
|  9> end
| 10>
| 11> %pal
| 12>   nprocs 6
| 13>   end
| 14> * xyz 0 1
| 15>    C       -3.63759        -1.68893         0.98465
| 16>    N       -2.69880        -1.20560         0.12845
| 17>    C       -1.74994        -1.99369        -0.61591
| 18>    C       -0.61287        -2.49121         0.27312
| 19>    C       -2.70217         0.21215         0.10108
| 20>    O       -1.95099         0.86821        -0.59240
| 21>    C       -3.75146         0.56657         1.02115
| 22>    C       -4.30818        -0.64029         1.54961
| 23>    C       -5.36358        -0.26649         2.46511
| 24>    O       -6.13707        -0.91639         3.13367
| 25>    N       -5.36357         1.14658         2.44351
| 26>    C       -6.33737         1.86104         3.23088
| 27>    C       -5.80283         2.21942         4.61669
| 28>    C       -4.40254         1.65105         1.58967
| 29>    C       -4.08154         2.99919         1.27996
| 30>    C       -4.44776         4.14234         1.90978
| 31>    C       -4.01513         5.43359         1.51049
| 32>    S       -2.93268         5.64687         0.16637
| 33>    C       -2.85181         7.36377         0.44171
| 34>    C       -3.59329         7.72996         1.55835
| 35>    C       -4.29893         6.65096         2.12027
| 36>    C       -5.30844         6.80188         3.22534
| 37>    C       -6.71091         6.43333         2.72358
| 38>    C       -5.33667         8.23932         3.76004
| 39>    C       -3.95999         8.88147         3.70870
| 40>    C       -3.52164         9.06628         2.24630
| 41>    C       -2.12476         9.62216         2.24984
| 42>    C       -1.83132        10.90293         2.12948
| 43>    C       -2.11050         8.13354        -0.49933
| 44>    C       -2.28135         9.45307        -0.73518
| 45>    C       -1.54038        10.21612        -1.68062
| 46>    S       -1.82701        11.93128        -1.77970
| 47>    C       -0.65331        12.13216        -3.04431
| 48>    C       -0.07590        10.90136        -3.35719
| 49>    C       -0.57576         9.83566        -2.58566
| 50>    C        0.91292        10.69845        -4.33403
| 51>    N        1.72052        10.48569        -5.12133
| 52>    C       -0.43503        13.43344        -3.56779
| 53>    C        0.38030        13.75240        -4.59917
| 54>    C        0.56889        15.08312        -5.07400
| 55>    S        1.55189        15.35680        -6.48573
| 56>    C        1.29226        17.05979        -6.40791
| 57>    C        2.01788        17.99196        -7.30015
| 58>    O        2.38137        19.07690        -6.93245
| 59>    O        2.30111        17.53708        -8.52445
| 60>    C        0.48820        17.40242        -5.33183
| 61>    C        0.09822        16.27569        -4.57846
| 62>    C        0.07193        18.73882        -4.98656
| 63>    C       -0.29407        19.71068        -5.85100
| 64>    C       -0.64894        21.08300        -5.50915
| 65>    C       -0.52188        21.67752        -4.28356
| 66>    C       -0.85576        23.02356        -4.01804
| 67>    N       -1.11669        24.10379        -3.73111
| 68>    C       -0.05762        21.05029        -3.10741
| 69>    N        0.29151        20.61593        -2.10355
| 70>    C       -1.12570        21.73233        -6.72214
| 71>    C       -1.06687        20.79844        -7.79621
| 72>    C       -0.53671        19.51911        -7.31056
| 73>    O       -0.38798        18.50396        -7.95927
| 74>    C       -1.45324        21.12932        -9.06409
| 75>    C       -1.92436        22.43523        -9.32161
| 76>    C       -1.98986        23.37535        -8.25230
| 77>    C       -1.58351        23.00399        -6.95081
| 78>    C       -2.46535        24.67552        -8.51972
| 79>    C       -2.85684        25.03187        -9.78138
| 80>    C       -2.79106        24.10585       -10.83354
| 81>    C       -2.33410        22.83568       -10.60887
| 82>    H       -3.76579        -2.74644         1.12508
| 83>    H       -1.35256        -1.34099        -1.39798
| 84>    H       -2.26853        -2.83797        -1.08005
| 85>    H       -0.08840        -1.64701         0.71388
| 86>    H        0.09202        -3.07027        -0.31679
| 87>    H       -0.99786        -3.11879         1.07408
| 88>    H       -7.18911         1.18326         3.34827
| 89>    H       -6.66909         2.74542         2.68197
| 90>    H       -5.59234         1.30785         5.16971
| 91>    H       -6.54545         2.79438         5.16364
| 92>    H       -4.88340         2.79728         4.55014
| 93>    H       -3.40951         3.07806         0.43283
| 94>    H       -5.05265         4.11491         2.80094
| 95>    H       -5.03469         6.12329         4.04242
| 96>    H       -6.99286         7.08593         1.89989
| 97>    H       -7.43391         6.55922         3.52646
| 98>    H       -6.76181         5.40835         2.36934
| 99>    H       -5.71494         8.23650         4.78347
|100>    H       -6.02315         8.83649         3.15528
|101>    H       -3.23438         8.25011         4.22645
|102>    H       -3.97479         9.85454         4.20173
|103>    H       -4.20534         9.78109         1.77256
|104>    H       -1.34325         8.89554         2.42701
|105>    H       -2.59065        11.64961         1.95993
|106>    H       -0.81926        11.26328         2.19292
|107>    H       -1.40549         7.57331        -1.09856
|108>    H       -3.03277        10.00140        -0.19049
|109>    H       -0.23457         8.82336        -2.70609
|110>    H       -0.99692        14.21642        -3.07680
|111>    H        0.92799        12.97877        -5.11690
|112>    H        1.84990        16.70695        -8.72946
|113>    H       -0.52697        16.35274        -3.70766
|114>    H        0.02671        18.93022        -3.92206
|115>    H       -1.39475        20.40278        -9.86088
|116>    H       -1.64711        23.73854        -6.16388
|117>    H       -2.51272        25.38528        -7.70696
|118>    H       -3.21913        26.03013        -9.97611
|119>    H       -3.10412        24.40446       -11.82279
|120>    H       -2.28030        22.11872       -11.41494
|121> *
|122>
|123>                          ****END OF INPUT****

CARTESIAN COORDINATES (ANGSTROEM)
---------------------------------
  C     -3.637590   -1.688930    0.984650
  N     -2.698800   -1.205600    0.128450
  C     -1.749940   -1.993690   -0.615910
  C     -0.612870   -2.491210    0.273120
  C     -2.702170    0.212150    0.101080
  O     -1.950990    0.868210   -0.592400
  C     -3.751460    0.566570    1.021150
  C     -4.308180   -0.640290    1.549610
  C     -5.363580   -0.266490    2.465110
  O     -6.137070   -0.916390    3.133670
  N     -5.363570    1.146580    2.443510
  C     -6.337370    1.861040    3.230880
  C     -5.802830    2.219420    4.616690
  C     -4.402540    1.651050    1.589670
  C     -4.081540    2.999190    1.279960
  C     -4.447760    4.142340    1.909780
  C     -4.015130    5.433590    1.510490
  S     -2.932680    5.646870    0.166370
  C     -2.851810    7.363770    0.441710
  C     -3.593290    7.729960    1.558350
  C     -4.298930    6.650960    2.120270
  C     -5.308440    6.801880    3.225340
  C     -6.710910    6.433330    2.723580
  C     -5.336670    8.239320    3.760040
  C     -3.959990    8.881470    3.708700
  C     -3.521640    9.066280    2.246300
  C     -2.124760    9.622160    2.249840
  C     -1.831320   10.902930    2.129480
  C     -2.110500    8.133540   -0.499330
  C     -2.281350    9.453070   -0.735180
  C     -1.540380   10.216120   -1.680620
  S     -1.827010   11.931280   -1.779700
  C     -0.653310   12.132160   -3.044310
  C     -0.075900   10.901360   -3.357190
  C     -0.575760    9.835660   -2.585660
  C      0.912920   10.698450   -4.334030
  N      1.720520   10.485690   -5.121330
  C     -0.435030   13.433440   -3.567790
  C      0.380300   13.752400   -4.599170
  C      0.568890   15.083120   -5.074000
  S      1.551890   15.356800   -6.485730
  C      1.292260   17.059790   -6.407910
  C      2.017880   17.991960   -7.300150
  O      2.381370   19.076900   -6.932450
  O      2.301110   17.537080   -8.524450
  C      0.488200   17.402420   -5.331830
  C      0.098220   16.275690   -4.578460
  C      0.071930   18.738820   -4.986560
  C     -0.294070   19.710680   -5.851000
  C     -0.648940   21.083000   -5.509150
  C     -0.521880   21.677520   -4.283560
  C     -0.855760   23.023560   -4.018040
  N     -1.116690   24.103790   -3.731110
  C     -0.057620   21.050290   -3.107410
  N      0.291510   20.615930   -2.103550
  C     -1.125700   21.732330   -6.722140
  C     -1.066870   20.798440   -7.796210
  C     -0.536710   19.519110   -7.310560
  O     -0.387980   18.503960   -7.959270
  C     -1.453240   21.129320   -9.064090
  C     -1.924360   22.435230   -9.321610
  C     -1.989860   23.375350   -8.252300
  C     -1.583510   23.003990   -6.950810
  C     -2.465350   24.675520   -8.519720
  C     -2.856840   25.031870   -9.781380
  C     -2.791060   24.105850  -10.833540
  C     -2.334100   22.835680  -10.608870
  H     -3.765790   -2.746440    1.125080
  H     -1.352560   -1.340990   -1.397980
  H     -2.268530   -2.837970   -1.080050
  H     -0.088400   -1.647010    0.713880
  H      0.092020   -3.070270   -0.316790
  H     -0.997860   -3.118790    1.074080
  H     -7.189110    1.183260    3.348270
  H     -6.669090    2.745420    2.681970
  H     -5.592340    1.307850    5.169710
  H     -6.545450    2.794380    5.163640
  H     -4.883400    2.797280    4.550140
  H     -3.409510    3.078060    0.432830
  H     -5.052650    4.114910    2.800940
  H     -5.034690    6.123290    4.042420
  H     -6.992860    7.085930    1.899890
  H     -7.433910    6.559220    3.526460
  H     -6.761810    5.408350    2.369340
  H     -5.714940    8.236500    4.783470
  H     -6.023150    8.836490    3.155280
  H     -3.234380    8.250110    4.226450
  H     -3.974790    9.854540    4.201730
  H     -4.205340    9.781090    1.772560
  H     -1.343250    8.895540    2.427010
  H     -2.590650   11.649610    1.959930
  H     -0.819260   11.263280    2.192920
  H     -1.405490    7.573310   -1.098560
  H     -3.032770   10.001400   -0.190490
  H     -0.234570    8.823360   -2.706090
  H     -0.996920   14.216420   -3.076800
  H      0.927990   12.978770   -5.116900
  H      1.849900   16.706950   -8.729460
  H     -0.526970   16.352740   -3.707660
  H      0.026710   18.930220   -3.922060
  H     -1.394750   20.402780   -9.860880
  H     -1.647110   23.738540   -6.163880
  H     -2.512720   25.385280   -7.706960
  H     -3.219130   26.030130   -9.976110
  H     -3.104120   24.404460  -11.822790
  H     -2.280300   22.118720  -11.414940

 Total Charge           Charge          ....    0
 Multiplicity           Mult            ....    1
 Number of Electrons    NEL             ....  486
 Basis Dimension        Dim             .... 1145

ORBITAL ENERGIES
----------------

  NO   OCC          E(Eh)            E(eV)
   0   2.0000     -88.982786     -2421.3447
   1   2.0000     -88.977017     -2421.1877
   2   2.0000     -88.955677     -2420.6070
   3   2.0000     -19.261405      -524.1295
   4   2.0000     -19.220374      -523.0130
   5   2.0000     -19.197490      -522.3903
   6   2.0000     -19.180626      -521.9314
   7   2.0000     -19.180267      -521.9216
   8   2.0000     -14.446122      -393.0990
   9   2.0000     -14.445873      -393.0922
  10   2.0000     -14.417454      -392.3189
  11   2.0000     -14.415767      -392.2730
  12   2.0000     -14.411962      -392.1694
  13   2.0000     -10.409794      -283.2649
  14   2.0000     -10.371606      -282.2258
  15   2.0000     -10.366430      -282.0849
  16   2.0000     -10.363703      -282.0107
  17   2.0000     -10.344158      -281.4788
  18   2.0000     -10.341541      -281.4076
  19   2.0000     -10.334452      -281.2147
  20   2.0000     -10.331712      -281.1402
  21   2.0000     -10.325008      -280.9577
  22   2.0000     -10.323811      -280.9252
  23   2.0000     -10.322090      -280.8783
  24   2.0000     -10.320197      -280.8268
  25   2.0000     -10.319950      -280.8201
  26   2.0000     -10.319612      -280.8109
  27   2.0000     -10.319068      -280.7961
  28   2.0000     -10.318367      -280.7770
  29   2.0000     -10.312981      -280.6305
  30   2.0000     -10.307773      -280.4888
  31   2.0000     -10.305168      -280.4179
  32   2.0000     -10.304816      -280.4083
  33   2.0000     -10.304078      -280.3882
  34   2.0000     -10.303796      -280.3806
  35   2.0000     -10.303744      -280.3791
  36   2.0000     -10.302453      -280.3440
  37   2.0000     -10.302440      -280.3436
  38   2.0000     -10.302015      -280.3321
  39   2.0000     -10.299143      -280.2539
  40   2.0000     -10.298927      -280.2481
  41   2.0000     -10.298536      -280.2374
  42   2.0000     -10.298022      -280.2234
  43   2.0000     -10.297736      -280.2156
  44   2.0000     -10.297006      -280.1958
  45   2.0000     -10.295612      -280.1578
  46   2.0000     -10.294081      -280.1162
  47   2.0000     -10.292955      -280.0855
  48   2.0000     -10.289897      -280.0023
  49   2.0000     -10.287878      -279.9474
  50   2.0000     -10.287354      -279.9331
  51   2.0000     -10.287336      -279.9327
  52   2.0000     -10.287047      -279.9248
  53   2.0000     -10.286456      -279.9087
  54   2.0000     -10.285561      -279.8843
  55   2.0000     -10.285300      -279.8772
  56   2.0000     -10.284776      -279.8630
  57   2.0000     -10.283257      -279.8217
  58   2.0000     -10.274190      -279.5749
  59   2.0000     -10.271312      -279.4966
  60   2.0000     -10.269808      -279.4557
  61   2.0000     -10.266143      -279.3559
  62   2.0000     -10.262253      -279.2501
  63   2.0000     -10.262015      -279.2436
  64   2.0000     -10.260869      -279.2124
  65   2.0000     -10.252195      -278.9764
  66   2.0000     -10.250939      -278.9422
  67   2.0000      -8.078471      -219.8264
  68   2.0000      -8.072806      -219.6722
  69   2.0000      -8.051312      -219.0873
  70   2.0000      -6.047530      -164.5617
  71   2.0000      -6.043386      -164.4489
  72   2.0000      -6.041862      -164.4074
  73   2.0000      -6.041024      -164.3846
  74   2.0000      -6.037930      -164.3004
  75   2.0000      -6.035140      -164.2245
  76   2.0000      -6.020395      -163.8233
  77   2.0000      -6.016558      -163.7189
  78   2.0000      -6.013493      -163.6355
  79   2.0000      -1.186059       -32.2743
  80   2.0000      -1.135763       -30.9057
  81   2.0000      -1.123820       -30.5807
  82   2.0000      -1.116698       -30.3869
  83   2.0000      -1.098119       -29.8814
  84   2.0000      -1.054074       -28.6828
  85   2.0000      -1.045435       -28.4477
  86   2.0000      -1.019557       -27.7436
  87   2.0000      -1.015000       -27.6196
  88   2.0000      -1.007246       -27.4086
  89   2.0000      -0.999723       -27.2038
  90   2.0000      -0.997287       -27.1376
  91   2.0000      -0.994830       -27.0707
  92   2.0000      -0.990285       -26.9470
  93   2.0000      -0.972438       -26.4614
  94   2.0000      -0.933864       -25.4117
  95   2.0000      -0.931324       -25.3426
  96   2.0000      -0.926333       -25.2068
  97   2.0000      -0.921251       -25.0685
  98   2.0000      -0.917796       -24.9745
  99   2.0000      -0.906653       -24.6713
 100   2.0000      -0.894205       -24.3325
 101   2.0000      -0.890700       -24.2372
 102   2.0000      -0.883498       -24.0412
 103   2.0000      -0.880311       -23.9545
 104   2.0000      -0.870567       -23.6893
 105   2.0000      -0.867962       -23.6184
 106   2.0000      -0.856647       -23.3105
 107   2.0000      -0.843424       -22.9507
 108   2.0000      -0.839070       -22.8323
 109   2.0000      -0.829725       -22.5780
 110   2.0000      -0.829547       -22.5731
 111   2.0000      -0.824459       -22.4347
 112   2.0000      -0.815729       -22.1971
 113   2.0000      -0.809087       -22.0164
 114   2.0000      -0.791656       -21.5420
 115   2.0000      -0.786284       -21.3959
 116   2.0000      -0.772056       -21.0087
 117   2.0000      -0.763805       -20.7842
 118   2.0000      -0.757386       -20.6095
 119   2.0000      -0.756396       -20.5826
 120   2.0000      -0.746349       -20.3092
 121   2.0000      -0.732457       -19.9312
 122   2.0000      -0.727043       -19.7839
 123   2.0000      -0.707862       -19.2619
 124   2.0000      -0.706625       -19.2282
 125   2.0000      -0.705627       -19.2011
 126   2.0000      -0.703670       -19.1478
 127   2.0000      -0.698848       -19.0166
 128   2.0000      -0.692823       -18.8527
 129   2.0000      -0.688118       -18.7247
 130   2.0000      -0.682897       -18.5826
 131   2.0000      -0.676856       -18.4182
 132   2.0000      -0.673463       -18.3259
 133   2.0000      -0.666699       -18.1418
 134   2.0000      -0.655445       -17.8356
 135   2.0000      -0.654102       -17.7990
 136   2.0000      -0.646942       -17.6042
 137   2.0000      -0.642039       -17.4708
 138   2.0000      -0.634453       -17.2643
 139   2.0000      -0.633871       -17.2485
 140   2.0000      -0.626314       -17.0429
 141   2.0000      -0.612379       -16.6637
 142   2.0000      -0.609674       -16.5901
 143   2.0000      -0.608060       -16.5462
 144   2.0000      -0.605043       -16.4640
 145   2.0000      -0.594180       -16.1685
 146   2.0000      -0.588753       -16.0208
 147   2.0000      -0.577684       -15.7196
 148   2.0000      -0.576363       -15.6836
 149   2.0000      -0.572944       -15.5906
 150   2.0000      -0.571493       -15.5511
 151   2.0000      -0.562914       -15.3177
 152   2.0000      -0.558749       -15.2043
 153   2.0000      -0.556033       -15.1304
 154   2.0000      -0.548992       -14.9388
 155   2.0000      -0.547260       -14.8917
 156   2.0000      -0.543631       -14.7929
 157   2.0000      -0.542319       -14.7573
 158   2.0000      -0.539849       -14.6901
 159   2.0000      -0.537922       -14.6376
 160   2.0000      -0.536189       -14.5905
 161   2.0000      -0.534846       -14.5539
 162   2.0000      -0.534739       -14.5510
 163   2.0000      -0.531245       -14.4559
 164   2.0000      -0.528828       -14.3901
 165   2.0000      -0.525546       -14.3008
 166   2.0000      -0.523498       -14.2451
 167   2.0000      -0.520812       -14.1720
 168   2.0000      -0.516588       -14.0571
 169   2.0000      -0.515110       -14.0169
 170   2.0000      -0.514450       -13.9989
 171   2.0000      -0.512246       -13.9389
 172   2.0000      -0.509067       -13.8524
 173   2.0000      -0.506786       -13.7903
 174   2.0000      -0.503913       -13.7122
 175   2.0000      -0.501689       -13.6517
 176   2.0000      -0.499961       -13.6046
 177   2.0000      -0.496963       -13.5231
 178   2.0000      -0.495111       -13.4727
 179   2.0000      -0.493474       -13.4281
 180   2.0000      -0.491389       -13.3714
 181   2.0000      -0.490691       -13.3524
 182   2.0000      -0.486641       -13.2422
 183   2.0000      -0.482977       -13.1425
 184   2.0000      -0.479861       -13.0577
 185   2.0000      -0.475833       -12.9481
 186   2.0000      -0.473775       -12.8921
 187   2.0000      -0.472290       -12.8517
 188   2.0000      -0.468868       -12.7585
 189   2.0000      -0.465534       -12.6678
 190   2.0000      -0.465076       -12.6554
 191   2.0000      -0.458859       -12.4862
 192   2.0000      -0.457937       -12.4611
 193   2.0000      -0.457348       -12.4451
 194   2.0000      -0.455209       -12.3869
 195   2.0000      -0.452628       -12.3166
 196   2.0000      -0.449968       -12.2442
 197   2.0000      -0.448859       -12.2141
 198   2.0000      -0.448021       -12.1913
 199   2.0000      -0.446955       -12.1623
 200   2.0000      -0.445553       -12.1241
 201   2.0000      -0.444348       -12.0913
 202   2.0000      -0.442511       -12.0413
 203   2.0000      -0.440611       -11.9896
 204   2.0000      -0.437578       -11.9071
 205   2.0000      -0.435128       -11.8404
 206   2.0000      -0.434587       -11.8257
 207   2.0000      -0.433175       -11.7873
 208   2.0000      -0.433045       -11.7838
 209   2.0000      -0.430806       -11.7228
 210   2.0000      -0.428006       -11.6466
 211   2.0000      -0.426827       -11.6145
 212   2.0000      -0.425311       -11.5733
 213   2.0000      -0.420541       -11.4435
 214   2.0000      -0.419007       -11.4017
 215   2.0000      -0.415527       -11.3071
 216   2.0000      -0.409560       -11.1447
 217   2.0000      -0.408540       -11.1169
 218   2.0000      -0.407956       -11.1011
 219   2.0000      -0.406669       -11.0660
 220   2.0000      -0.397588       -10.8189
 221   2.0000      -0.397290       -10.8108
 222   2.0000      -0.395898       -10.7729
 223   2.0000      -0.392670       -10.6851
 224   2.0000      -0.388323       -10.5668
 225   2.0000      -0.380123       -10.3437
 226   2.0000      -0.368702       -10.0329
 227   2.0000      -0.359487        -9.7821
 228   2.0000      -0.352388        -9.5890
 229   2.0000      -0.344225        -9.3668
 230   2.0000      -0.340266        -9.2591
 231   2.0000      -0.338360        -9.2072
 232   2.0000      -0.333356        -9.0711
 233   2.0000      -0.327400        -8.9090
 234   2.0000      -0.322004        -8.7622
 235   2.0000      -0.319805        -8.7023
 236   2.0000      -0.313280        -8.5248
 237   2.0000      -0.310684        -8.4541
 238   2.0000      -0.306884        -8.3507
 239   2.0000      -0.294133        -8.0038
 240   2.0000      -0.285547        -7.7701
 241   2.0000      -0.257178        -6.9982
 242   2.0000      -0.231934        -6.3113
 243   0.0000      -0.092457        -2.5159
 244   0.0000      -0.081125        -2.2075
 245   0.0000      -0.063793        -1.7359
 246   0.0000      -0.058590        -1.5943
 247   0.0000      -0.025868        -0.7039

MULLIKEN ATOMIC CHARGES
-----------------------
   0 C :    0.041005
   1 N :   -0.266382
   2 C :    0.115389
   3 C :   -0.004189
   4 C :    0.153467
   5 O :   -0.199311
   6 C :   -0.077152
   7 C :    0.008354
   8 C :    0.162023
   9 O :   -0.194037
  10 N :   -0.279791
  11 C :    0.104995
  12 C :    0.004123
  13 C :    0.137519
  14 C :   -0.054655
  15 C :    0.005022
  16 C :   -0.112862
  17 S :    0.131544
  18 C :   -0.138481
  19 C :   -0.015416
  20 C :   -0.007781
  21 C :   -0.071618
  22 C :    0.075443
  23 C :    0.092782
  24 C :    0.082527
  25 C :   -0.001562
  26 C :   -0.011101
  27 C :   -0.027117
  28 C :    0.025119
  29 C :    0.111687
  30 C :   -0.088023
  31 S :    0.145413
  32 C :   -0.062409
  33 C :   -0.080855
  34 C :    0.016659
  35 C :   -0.175260
  36 N :    0.113474
  37 C :    0.048027
  38 C :    0.061062
  39 C :   -0.080811
  40 S :    0.158685
  41 C :   -0.191624
  42 C :    0.187452
  43 O :   -0.180664
  44 O :   -0.147322
  45 C :    0.120274
  46 C :   -0.017947
  47 C :   -0.056080
  48 C :   -0.024983
  49 C :    0.310070
  50 C :   -0.346720
  51 C :   -0.184167
  52 N :    0.152271
  53 C :   -0.190716
  54 N :    0.158759
  55 C :    0.054939
  56 C :   -0.005943
  57 C :    0.166022
  58 O :   -0.165119
  59 C :   -0.076007
  60 C :    0.100332
  61 C :    0.101130
  62 C :   -0.088015
  63 C :   -0.021689
  64 C :    0.038750
  65 C :    0.036530
  66 C :   -0.017139
  67 H :    0.013914
  68 H :    0.040934
  69 H :    0.015746
  70 H :    0.030527
  71 H :    0.022314
  72 H :    0.014058
  73 H :    0.038475
  74 H :    0.018710
  75 H :    0.032459
  76 H :    0.017756
  77 H :    0.018749
  78 H :    0.016357
  79 H :   -0.014720
  80 H :    0.007589
  81 H :    0.012516
  82 H :    0.014154
  83 H :    0.004022
  84 H :    0.002815
  85 H :   -0.010050
  86 H :    0.000835
  87 H :    0.000314
  88 H :    0.003289
  89 H :    0.006012
  90 H :    0.006417
  91 H :    0.023613
  92 H :   -0.009345
  93 H :   -0.022055
  94 H :   -0.002552
  95 H :   -0.017316
  96 H :    0.002084
  97 H :    0.184977
  98 H :   -0.006696
  99 H :    0.027115
 100 H :   -0.011810
 101 H :   -0.007515
 102 H :   -0.006962
 103 H :   -0.004137
 104 H :   -0.004664
 105 H :   -0.015828
Sum of atomic charges:    0.0000000

LOEWDIN ATOMIC CHARGES
----------------------
   0 C :    0.092026
   1 N :   -0.003929
   2 C :    0.037819
   3 C :   -0.061124
   4 C :    0.074675
   5 O :   -0.203772
   6 C :   -0.127038
   7 C :   -0.132916
   8 C :    0.083245
   9 O :   -0.195711
  10 N :   -0.012960
  11 C :    0.033855
  12 C :   -0.064480
  13 C :    0.079098
  14 C :   -0.046121
  15 C :   -0.017044
  16 C :   -0.180572
  17 S :    0.450192
  18 C :   -0.162532
  19 C :   -0.056544
  20 C :   -0.035364
  21 C :   -0.030501
  22 C :   -0.041022
  23 C :   -0.023304
  24 C :   -0.013998
  25 C :   -0.029089
  26 C :   -0.003495
  27 C :   -0.063780
  28 C :   -0.035707
  29 C :   -0.030259
  30 C :   -0.160714
  31 S :    0.461923
  32 C :   -0.144042
  33 C :   -0.105204
  34 C :   -0.025708
  35 C :   -0.026696
  36 N :   -0.059991
  37 C :   -0.039502
  38 C :   -0.024775
  39 C :   -0.161603
  40 S :    0.473206
  41 C :   -0.204516
  42 C :    0.059455
  43 O :   -0.160167
  44 O :   -0.018307
  45 C :   -0.047079
  46 C :   -0.033308
  47 C :    0.080457
  48 C :   -0.067945
  49 C :    0.079617
  50 C :   -0.131294
  51 C :   -0.015869
  52 N :   -0.050693
  53 C :   -0.019632
  54 N :   -0.048462
  55 C :   -0.023397
  56 C :   -0.053204
  57 C :    0.097295
  58 O :   -0.143016
  59 C :    0.037088
  60 C :   -0.007649
  61 C :   -0.004381
  62 C :    0.020821
  63 C :   -0.004992
  64 C :   -0.011726
  65 C :   -0.011392
  66 C :   -0.008445
  67 H :    0.031881
  68 H :    0.035952
  69 H :    0.023610
  70 H :    0.031641
  71 H :    0.029517
  72 H :    0.021837
  73 H :    0.036500
  74 H :    0.020269
  75 H :    0.034645
  76 H :    0.028228
  77 H :    0.019450
  78 H :    0.038007
  79 H :    0.031129
  80 H :    0.028325
  81 H :    0.026477
  82 H :    0.025150
  83 H :    0.018849
  84 H :    0.026812
  85 H :    0.020966
  86 H :    0.024614
  87 H :    0.026147
  88 H :    0.028481
  89 H :    0.028216
  90 H :    0.016607
  91 H :    0.025488
  92 H :    0.029027
  93 H :    0.028239
  94 H :    0.038664
  95 H :    0.029275
  96 H :    0.037485
  97 H :    0.088971
  98 H :    0.033381
  99 H :    0.047268
 100 H :    0.039477
 101 H :    0.039293
 102 H :    0.035308
 103 H :    0.033602
 104 H :    0.033074
 105 H :    0.032332

  Mayer bond orders larger than 0.100000
B(  0-C ,  1-N ) :   1.1960 B(  0-C ,  7-C ) :   1.4516 B(  0-C , 67-H ) :   0.9904
B(  1-N ,  2-C ) :   0.9455 B(  1-N ,  4-C ) :   1.0276 B(  2-C ,  3-C ) :   1.1164
B(  2-C , 68-H ) :   0.9343 B(  2-C , 69-H ) :   0.9540 B(  3-C , 70-H ) :   0.9680
B(  3-C , 71-H ) :   0.9693 B(  3-C , 72-H ) :   0.9693 B(  4-C ,  5-O ) :   2.1208
B(  4-C ,  6-C ) :   0.9999 B(  6-C ,  7-C ) :   1.1897 B(  6-C , 13-C ) :   1.3794
B(  7-C ,  8-C ) :   0.9556 B(  8-C ,  9-O ) :   2.1596 B(  8-C , 10-N ) :   1.0199
B( 10-N , 11-C ) :   0.9475 B( 10-N , 13-C ) :   1.1566 B( 11-C , 12-C ) :   1.1146
B( 11-C , 73-H ) :   0.9254 B( 11-C , 74-H ) :   0.9522 B( 12-C , 75-H ) :   0.9593
B( 12-C , 76-H ) :   0.9689 B( 12-C , 77-H ) :   0.9646 B( 13-C , 14-C ) :   1.1859
B( 14-C , 15-C ) :   1.5847 B( 14-C , 78-H ) :   0.9469 B( 15-C , 16-C ) :   1.1689
B( 15-C , 79-H ) :   0.9669 B( 16-C , 17-S ) :   1.1093 B( 16-C , 20-C ) :   1.4583
B( 17-S , 18-C ) :   1.1271 B( 18-C , 19-C ) :   1.4860 B( 18-C , 28-C ) :   1.1218
B( 19-C , 20-C ) :   1.3553 B( 19-C , 25-C ) :   0.9634 B( 20-C , 21-C ) :   1.0147
B( 21-C , 22-C ) :   1.0817 B( 21-C , 23-C ) :   1.0611 B( 21-C , 80-H ) :   0.8817
B( 22-C , 81-H ) :   0.9544 B( 22-C , 82-H ) :   0.9632 B( 22-C , 83-H ) :   0.9649
B( 23-C , 24-C ) :   1.0920 B( 23-C , 84-H ) :   0.9271 B( 23-C , 85-H ) :   0.9229
B( 24-C , 25-C ) :   1.0684 B( 24-C , 86-H ) :   0.9293 B( 24-C , 87-H ) :   0.9331
B( 25-C , 26-C ) :   1.0259 B( 25-C , 88-H ) :   0.8773 B( 26-C , 27-C ) :   1.9978
B( 26-C , 89-H ) :   0.9616 B( 27-C , 90-H ) :   0.9550 B( 27-C , 91-H ) :   0.9510
B( 28-C , 29-C ) :   1.7155 B( 28-C , 92-H ) :   0.9491 B( 29-C , 30-C ) :   1.1213
B( 29-C , 93-H ) :   0.9431 B( 30-C , 31-S ) :   1.1205 B( 30-C , 34-C ) :   1.4918
B( 31-S , 32-C ) :   1.1354 B( 32-C , 33-C ) :   1.4540 B( 32-C , 37-C ) :   1.1499
B( 33-C , 34-C ) :   1.2912 B( 33-C , 35-C ) :   1.1167 B( 34-C , 94-H ) :   0.9994
B( 35-C , 36-N ) :   2.9690 B( 37-C , 38-C ) :   1.7115 B( 37-C , 95-H ) :   0.9443
B( 38-C , 39-C ) :   1.1123 B( 38-C , 96-H ) :   0.9490 B( 39-C , 40-S ) :   1.1320
B( 39-C , 46-C ) :   1.5006 B( 40-S , 41-C ) :   1.1470 B( 41-C , 42-C ) :   0.8957
B( 41-C , 45-C ) :   1.5313 B( 42-C , 43-O ) :   2.1685 B( 42-C , 44-O ) :   1.2572
B( 44-O , 97-H ) :   0.9468 B( 45-C , 46-C ) :   1.2486 B( 45-C , 47-C ) :   1.0524
B( 46-C , 98-H ) :   0.9974 B( 47-C , 48-C ) :   1.6975 B( 47-C , 99-H ) :   0.9368
B( 48-C , 49-C ) :   1.0490 B( 48-C , 57-C ) :   0.9248 B( 49-C , 50-C ) :   1.6522
B( 49-C , 55-C ) :   0.9978 B( 50-C , 51-C ) :   1.1459 B( 50-C , 53-C ) :   1.1415
B( 51-C , 52-N ) :   2.9650 B( 53-C , 54-N ) :   2.9715 B( 55-C , 56-C ) :   1.2107
B( 55-C , 62-C ) :   1.4409 B( 56-C , 57-C ) :   0.9566 B( 56-C , 59-C ) :   1.4638
B( 57-C , 58-O ) :   2.1817 B( 59-C , 60-C ) :   1.1827 B( 59-C ,100-H ) :   1.0159
B( 60-C , 61-C ) :   1.2543 B( 60-C , 66-C ) :   1.2409 B( 61-C , 62-C ) :   1.2097
B( 61-C , 63-C ) :   1.2375 B( 62-C ,101-H ) :   0.9898 B( 63-C , 64-C ) :   1.4904
B( 63-C ,102-H ) :   0.9979 B( 64-C , 65-C ) :   1.2583 B( 64-C ,103-H ) :   0.9882
B( 65-C , 66-C ) :   1.4912 B( 65-C ,104-H ) :   0.9885 B( 66-C ,105-H ) :   0.9981

-----------------------------------------------------------------------------
         ABSORPTION SPECTRUM VIA TRANSITION ELECTRIC DIPOLE MOMENTS
-----------------------------------------------------------------------------
State   Energy  Wavelength   fosc         T2         TX        TY        TZ
        (cm-1)    (nm)                  (au**2)     (au)      (au)      (au)
-----------------------------------------------------------------------------
   0   18790.0    532.2   1.608275962  28.17787   0.56595   5.14241  -1.18877
   1   20740.5    482.1   0.053928891   0.85601   0.46510  -0.76369  -0.23764
   2   23493.9    425.6   0.935620830  13.11052  -1.51045  -2.28886   2.36436
   3   24824.6    402.8   0.074197930   0.98398  -0.49324  -0.73720   0.44410
   4   25140.5    397.8   0.076967120   1.00788   0.36764  -0.80803  -0.46883
   5   26697.8    374.6   0.030036845   0.37039  -0.20571   0.11409  -0.56130
   6   27391.0    365.1   0.041051730   0.49340   0.14036  -0.04784  -0.68659
   7   28048.1    356.5   0.109014265   1.27954   0.42428  -1.00336  -0.30462
   8   28975.5    345.1   0.089840888   1.02075  -0.03646  -0.68987   0.73723
   9   29102.0    343.6   0.003411194   0.03859   0.01831   0.10982   0.16184
  10   29366.4    340.5   0.065459048   0.73383  -0.36578   0.73784  -0.23585
  11   30512.3    327.7   0.146211435   1.57755  -0.98595  -0.02195   0.77779
  12   31244.0    320.1   0.018584066   0.19582   0.06716  -0.35125  -0.26064
  13   31407.2    318.4   0.107923126   1.13126   0.22341  -0.76906  -0.69992
  14   31696.3    315.5   0.004518467   0.04693   0.11990   0.14525   0.10705
  15   32519.4    307.5   0.083416254   0.84447   0.66473  -0.10863  -0.62514
  16   33001.2    303.0   0.196903835   1.96427  -0.32532   1.28462  -0.45629
  17   33633.9    297.3   0.975520420   9.54850  -1.17424   1.21248  -2.58835
  18   33827.0    295.6   0.055201506   0.53723   0.44974  -0.43274   0.38432
  19   34046.7    293.7   0.096436757   0.93249  -0.32549  -0.35495   0.83699
  20   34488.5    290.0   0.252140415   2.40682   0.38303  -1.46862   0.32136
  21   35334.7    283.0   0.082682580   0.77035  -0.11904   0.86235  -0.11192
  22   36048.8    277.4   0.044743605   0.40862   0.41835   0.47200  -0.10399
  23   36425.8    274.5   0.051584425   0.46621   0.12152   0.65865   0.13277
  24   36868.6    271.2   0.021039217   0.18787  -0.16227  -0.12025  -0.38350
  25   37518.5    266.5   0.003664759   0.03216  -0.05270   0.16372   0.05073
  26   38042.6    262.9   0.014618217   0.12650  -0.14994  -0.28791   0.14534
  27   38535.5    259.5   0.093493389   0.79872  -0.13145   0.56447   0.68031
  28   38837.0    257.5   0.156935050   1.33030  -0.14445   0.81008   0.80821
  29   39397.5    253.8   0.074350891   0.62129  -0.06354  -0.78443  -0.04389
  30   39709.6    251.8   0.017366850   0.14398  -0.19000   0.11126   0.30903
  31   40067.4    249.6   0.007890784   0.06483   0.04806  -0.24787  -0.03297

FINAL SINGLE POINT ENERGY     -3921.805956439495

DIPOLE MOMENT
-------------
                                X             Y             Z
Electronic contribution:     40.30422      94.23428     -68.01215
Nuclear contribution   :    -42.79332     -94.81100      67.66674
                        -----------------------------------------
Total Dipole Moment    :     -2.48910      -0.57672      -0.34541
                        -----------------------------------------
Magnitude (a.u.)       :      2.57828
Magnitude (Debye)      :      6.55346

Rotational constants in cm-1:     0.002337     0.000212     0.000203
Rotational constants in MHz :    70.061184     6.359374     6.095786

                             ****ORCA TERMINATED NORMALLY****
TOTAL RUN TIME: 0 days 0 hours 8 minutes 53 seconds 774 msec
