                         Program Version 4.2.0 -  RELEASE  -
|  1> # ORCA input file
|  2> # SCF done       -168.579620091250          0.000945359531
|  3> ! CAM-B3LYP def2-SVP def2/J RIJCOSX Grid4 TightSCF
|  4> %maxcore 5000
|  5> %tddft
|  6>     Mode sTDDFT
|  7>     Ethresh 5.0
|  8>     maxcore 5000
|  9> end
| 10>
| 11> %pal
| 12>   nprocs 6
| 13>   end
| 14> * xyz 0 1
| 15>    C       -6.12835        -1.68666         1.72897
| 16>    N       -6.53826        -0.97930         2.81436
| 17>    C       -7.11484        -1.53296         4.01374
| 18>    C       -6.05644        -2.19631         4.89137
| 19>    C       -6.26845         0.40347         2.66307
| 20>    O       -6.54649         1.23776         3.50021
| 21>    C       -5.65333         0.48943         1.36199
| 22>    C       -5.58353        -0.82827         0.81422
| 23>    C       -4.97593        -0.72045        -0.49441
| 24>    O       -4.70973        -1.54194        -1.34238
| 25>    N       -4.71784         0.66262        -0.65079
| 26>    C       -4.06111         1.12187        -1.84968
| 27>    C       -2.56745         1.35249        -1.62934
| 28>    C       -5.11563         1.38790         0.45276
| 29>    C       -5.06667         2.78652         0.70801
| 30>    C       -4.56933         3.79538        -0.04564
| 31>    C       -4.62284         5.16605         0.33719
| 32>    S       -3.96333         6.37471        -0.73340
| 33>    C       -4.40764         7.66994         0.33137
| 34>    C       -5.03020         7.15852         1.47061
| 35>    C       -5.14694         5.75700         1.46538
| 36>    C       -5.49681         7.92318         2.55430
| 37>    N       -5.88742         8.50015         3.46582
| 38>    C       -4.12335         9.00856        -0.06104
| 39>    C       -4.51809        10.11710         0.59967
| 40>    C       -4.26414        11.47674         0.19206
| 41>    C       -4.92959        12.50995         0.85286
| 42>    C       -4.74481        13.83393         0.49225
| 43>    N       -5.45460        14.81795         1.26820
| 44>    O       -6.45778        14.45260         1.84360
| 45>    O       -5.01096        15.94756         1.31574
| 46>    C       -3.87707        14.20037        -0.55605
| 47>    C       -3.20180        13.15047        -1.19707
| 48>    C       -3.38236        11.83635        -0.83961
| 49>    C       -3.73110        15.56184        -1.01022
| 50>    C       -2.61708        16.05728        -1.58523
| 51>    C       -2.48272        17.39901        -2.05135
| 52>    S       -0.95179        17.94831        -2.67485
| 53>    C       -1.57136        19.53538        -3.00018
| 54>    C       -2.92058        19.60799        -2.63298
| 55>    C       -3.41906        18.40829        -2.09956
| 56>    C       -3.74109        20.73883        -2.77622
| 57>    N       -4.45330        21.63278        -2.88806
| 58>    C       -0.70693        20.51144        -3.55169
| 59>    C       -1.06272        21.78993        -3.84530
| 60>    C       -0.15140        22.73282        -4.38085
| 61>    N       -0.50446        24.02309        -4.70668
| 62>    C       -1.82829        24.59452        -4.64184
| 63>    C       -2.71196        24.12041        -5.79278
| 64>    C        0.58675        24.76322        -5.19222
| 65>    O        0.50696        25.92573        -5.53655
| 66>    C        1.69605        23.83586        -5.14830
| 67>    C        1.20701        22.59621        -4.64962
| 68>    C        2.31185        21.67116        -4.60478
| 69>    O        2.39114        20.50348        -4.26811
| 70>    N        3.40676        22.41351        -5.08330
| 71>    C        4.72656        21.83462        -5.13788
| 72>    C        5.58161        22.25714        -3.94542
| 73>    C        3.05283        23.70322        -5.40393
| 74>    C        3.97803        24.67129        -5.91858
| 75>    C        3.62882        25.92752        -6.20480
| 76>    H       -6.26197        -2.75172         1.68077
| 77>    H       -7.89006        -2.25490         3.73973
| 78>    H       -7.57422        -0.69807         4.54986
| 79>    H       -5.57157        -3.01198         4.35916
| 80>    H       -6.51831        -2.59221         5.79130
| 81>    H       -5.30026        -1.46963         5.17833
| 82>    H       -4.55905         2.01982        -2.22353
| 83>    H       -4.19491         0.32126        -2.58405
| 84>    H       -2.39140         2.07178        -0.83249
| 85>    H       -2.11066         1.71989        -2.54431
| 86>    H       -2.09029         0.41479        -1.35576
| 87>    H       -5.51136         3.03005         1.66415
| 88>    H       -4.09866         3.61187        -0.99852
| 89>    H       -5.60443         5.21061         2.27036
| 90>    H       -3.57077         9.09436        -0.98720
| 91>    H       -5.10602        10.00985         1.49995
| 92>    H       -5.60495        12.28876         1.66686
| 93>    H       -2.54272        13.38810        -2.01761
| 94>    H       -2.83172        11.07233        -1.36563
| 95>    H       -4.56785        16.22399        -0.84645
| 96>    H       -1.73264        15.44203        -1.68186
| 97>    H       -4.43413        18.30259        -1.76189
| 98>    H        0.31008        20.19113        -3.73949
| 99>    H       -2.07250        22.12277        -3.66250
|100>    H       -1.69009        25.67754        -4.70652
|101>    H       -2.28840        24.35356        -3.67949
|102>    H       -2.26474        24.39628        -6.74492
|103>    H       -3.69013        24.58628        -5.71724
|104>    H       -2.84020        23.04058        -5.76727
|105>    H        5.20982        22.10648        -6.08045
|106>    H        4.58064        20.75073        -5.11715
|107>    H        5.70915        23.33710        -3.91996
|108>    H        6.56017        21.78923        -4.00887
|109>    H        5.10536        21.94368        -3.01964
|110>    H        4.99582        24.34001        -6.07289
|111>    H        2.62213        26.28088        -6.05640
|112>    H        4.34697        26.63074        -6.58993
|113> *
|114>
|115>                          ****END OF INPUT****

CARTESIAN COORDINATES (ANGSTROEM)
---------------------------------
  C     -6.128350   -1.686660    1.728970
  N     -6.538260   -0.979300    2.814360
  C     -7.114840   -1.532960    4.013740
  C     -6.056440   -2.196310    4.891370
  C     -6.268450    0.403470    2.663070
  O     -6.546490    1.237760    3.500210
  C     -5.653330    0.489430    1.361990
  C     -5.583530   -0.828270    0.814220
  C     -4.975930   -0.720450   -0.494410
  O     -4.709730   -1.541940   -1.342380
  N     -4.717840    0.662620   -0.650790
  C     -4.061110    1.121870   -1.849680
  C     -2.567450    1.352490   -1.629340
  C     -5.115630    1.387900    0.452760
  C     -5.066670    2.786520    0.708010
  C     -4.569330    3.795380   -0.045640
  C     -4.622840    5.166050    0.337190
  S     -3.963330    6.374710   -0.733400
  C     -4.407640    7.669940    0.331370
  C     -5.030200    7.158520    1.470610
  C     -5.146940    5.757000    1.465380
  C     -5.496810    7.923180    2.554300
  N     -5.887420    8.500150    3.465820
  C     -4.123350    9.008560   -0.061040
  C     -4.518090   10.117100    0.599670
  C     -4.264140   11.476740    0.192060
  C     -4.929590   12.509950    0.852860
  C     -4.744810   13.833930    0.492250
  N     -5.454600   14.817950    1.268200
  O     -6.457780   14.452600    1.843600
  O     -5.010960   15.947560    1.315740
  C     -3.877070   14.200370   -0.556050
  C     -3.201800   13.150470   -1.197070
  C     -3.382360   11.836350   -0.839610
  C     -3.731100   15.561840   -1.010220
  C     -2.617080   16.057280   -1.585230
  C     -2.482720   17.399010   -2.051350
  S     -0.951790   17.948310   -2.674850
  C     -1.571360   19.535380   -3.000180
  C     -2.920580   19.607990   -2.632980
  C     -3.419060   18.408290   -2.099560
  C     -3.741090   20.738830   -2.776220
  N     -4.453300   21.632780   -2.888060
  C     -0.706930   20.511440   -3.551690
  C     -1.062720   21.789930   -3.845300
  C     -0.151400   22.732820   -4.380850
  N     -0.504460   24.023090   -4.706680
  C     -1.828290   24.594520   -4.641840
  C     -2.711960   24.120410   -5.792780
  C      0.586750   24.763220   -5.192220
  O      0.506960   25.925730   -5.536550
  C      1.696050   23.835860   -5.148300
  C      1.207010   22.596210   -4.649620
  C      2.311850   21.671160   -4.604780
  O      2.391140   20.503480   -4.268110
  N      3.406760   22.413510   -5.083300
  C      4.726560   21.834620   -5.137880
  C      5.581610   22.257140   -3.945420
  C      3.052830   23.703220   -5.403930
  C      3.978030   24.671290   -5.918580
  C      3.628820   25.927520   -6.204800
  H     -6.261970   -2.751720    1.680770
  H     -7.890060   -2.254900    3.739730
  H     -7.574220   -0.698070    4.549860
  H     -5.571570   -3.011980    4.359160
  H     -6.518310   -2.592210    5.791300
  H     -5.300260   -1.469630    5.178330
  H     -4.559050    2.019820   -2.223530
  H     -4.194910    0.321260   -2.584050
  H     -2.391400    2.071780   -0.832490
  H     -2.110660    1.719890   -2.544310
  H     -2.090290    0.414790   -1.355760
  H     -5.511360    3.030050    1.664150
  H     -4.098660    3.611870   -0.998520
  H     -5.604430    5.210610    2.270360
  H     -3.570770    9.094360   -0.987200
  H     -5.106020   10.009850    1.499950
  H     -5.604950   12.288760    1.666860
  H     -2.542720   13.388100   -2.017610
  H     -2.831720   11.072330   -1.365630
  H     -4.567850   16.223990   -0.846450
  H     -1.732640   15.442030   -1.681860
  H     -4.434130   18.302590   -1.761890
  H      0.310080   20.191130   -3.739490
  H     -2.072500   22.122770   -3.662500
  H     -1.690090   25.677540   -4.706520
  H     -2.288400   24.353560   -3.679490
  H     -2.264740   24.396280   -6.744920
  H     -3.690130   24.586280   -5.717240
  H     -2.840200   23.040580   -5.767270
  H      5.209820   22.106480   -6.080450
  H      4.580640   20.750730   -5.117150
  H      5.709150   23.337100   -3.919960
  H      6.560170   21.789230   -4.008870
  H      5.105360   21.943680   -3.019640
  H      4.995820   24.340010   -6.072890
  H      2.622130   26.280880   -6.056400
  H      4.346970   26.630740   -6.589930

 Total Charge           Charge          ....    0
 Multiplicity           Mult            ....    1
 Number of Electrons    NEL             ....  442
 Basis Dimension        Dim             .... 1047

ORBITAL ENERGIES
----------------

  NO   OCC          E(Eh)            E(eV)
   0   2.0000     -88.983166     -2421.3550
   1   2.0000     -88.976766     -2421.1809
   2   2.0000     -19.247149      -523.7415
   3   2.0000     -19.245683      -523.7017
   4   2.0000     -19.191662      -522.2317
   5   2.0000     -19.189463      -522.1718
   6   2.0000     -19.187766      -522.1256
   7   2.0000     -19.183542      -522.0107
   8   2.0000     -14.652284      -398.7089
   9   2.0000     -14.455500      -393.3542
  10   2.0000     -14.453564      -393.3015
  11   2.0000     -14.450736      -393.2245
  12   2.0000     -14.446640      -393.1131
  13   2.0000     -14.413875      -392.2215
  14   2.0000     -14.412543      -392.1852
  15   2.0000     -10.374473      -282.3038
  16   2.0000     -10.374190      -282.2960
  17   2.0000     -10.370749      -282.2024
  18   2.0000     -10.367237      -282.1069
  19   2.0000     -10.343428      -281.4590
  20   2.0000     -10.338504      -281.3250
  21   2.0000     -10.337427      -281.2957
  22   2.0000     -10.335017      -281.2301
  23   2.0000     -10.333803      -281.1971
  24   2.0000     -10.333741      -281.1954
  25   2.0000     -10.329566      -281.0818
  26   2.0000     -10.325970      -280.9839
  27   2.0000     -10.323675      -280.9215
  28   2.0000     -10.320751      -280.8419
  29   2.0000     -10.319449      -280.8065
  30   2.0000     -10.319016      -280.7947
  31   2.0000     -10.314697      -280.6772
  32   2.0000     -10.313688      -280.6497
  33   2.0000     -10.310821      -280.5717
  34   2.0000     -10.310688      -280.5681
  35   2.0000     -10.310129      -280.5529
  36   2.0000     -10.307201      -280.4732
  37   2.0000     -10.307104      -280.4706
  38   2.0000     -10.305936      -280.4388
  39   2.0000     -10.303674      -280.3772
  40   2.0000     -10.303672      -280.3772
  41   2.0000     -10.303378      -280.3692
  42   2.0000     -10.301588      -280.3205
  43   2.0000     -10.300492      -280.2906
  44   2.0000     -10.300307      -280.2856
  45   2.0000     -10.299971      -280.2765
  46   2.0000     -10.298800      -280.2446
  47   2.0000     -10.297898      -280.2200
  48   2.0000     -10.295952      -280.1671
  49   2.0000     -10.295032      -280.1421
  50   2.0000     -10.290245      -280.0118
  51   2.0000     -10.284599      -279.8582
  52   2.0000     -10.275591      -279.6131
  53   2.0000     -10.267345      -279.3887
  54   2.0000     -10.266599      -279.3684
  55   2.0000     -10.263049      -279.2718
  56   2.0000     -10.262157      -279.2475
  57   2.0000     -10.261031      -279.2169
  58   2.0000     -10.256492      -279.0933
  59   2.0000     -10.254206      -279.0311
  60   2.0000     -10.253874      -279.0221
  61   2.0000      -8.079072      -219.8427
  62   2.0000      -8.072327      -219.6592
  63   2.0000      -6.048171      -164.5791
  64   2.0000      -6.044200      -164.4711
  65   2.0000      -6.041415      -164.3953
  66   2.0000      -6.041333      -164.3930
  67   2.0000      -6.037348      -164.2846
  68   2.0000      -6.034753      -164.2140
  69   2.0000      -1.327581       -36.1253
  70   2.0000      -1.145689       -31.1758
  71   2.0000      -1.132778       -30.8244
  72   2.0000      -1.129307       -30.7300
  73   2.0000      -1.126063       -30.6417
  74   2.0000      -1.121515       -30.5180
  75   2.0000      -1.063533       -28.9402
  76   2.0000      -1.059175       -28.8216
  77   2.0000      -1.054232       -28.6871
  78   2.0000      -1.050340       -28.5812
  79   2.0000      -1.019757       -27.7490
  80   2.0000      -1.014242       -27.5989
  81   2.0000      -0.997586       -27.1457
  82   2.0000      -0.993366       -27.0309
  83   2.0000      -0.990364       -26.9492
  84   2.0000      -0.939510       -25.5654
  85   2.0000      -0.929953       -25.3053
  86   2.0000      -0.926387       -25.2083
  87   2.0000      -0.922639       -25.1063
  88   2.0000      -0.917415       -24.9641
  89   2.0000      -0.904778       -24.6203
  90   2.0000      -0.893814       -24.3219
  91   2.0000      -0.887910       -24.1613
  92   2.0000      -0.879618       -23.9356
  93   2.0000      -0.875758       -23.8306
  94   2.0000      -0.871616       -23.7179
  95   2.0000      -0.866848       -23.5881
  96   2.0000      -0.862198       -23.4616
  97   2.0000      -0.841782       -22.9061
  98   2.0000      -0.827470       -22.5166
  99   2.0000      -0.822558       -22.3829
 100   2.0000      -0.815130       -22.1808
 101   2.0000      -0.805655       -21.9230
 102   2.0000      -0.799602       -21.7583
 103   2.0000      -0.785016       -21.3614
 104   2.0000      -0.779507       -21.2115
 105   2.0000      -0.767430       -20.8828
 106   2.0000      -0.763095       -20.7649
 107   2.0000      -0.755810       -20.5666
 108   2.0000      -0.754732       -20.5373
 109   2.0000      -0.733115       -19.9491
 110   2.0000      -0.722612       -19.6633
 111   2.0000      -0.716717       -19.5029
 112   2.0000      -0.710513       -19.3340
 113   2.0000      -0.707002       -19.2385
 114   2.0000      -0.704604       -19.1733
 115   2.0000      -0.692811       -18.8523
 116   2.0000      -0.688205       -18.7270
 117   2.0000      -0.683744       -18.6056
 118   2.0000      -0.672596       -18.3023
 119   2.0000      -0.668083       -18.1795
 120   2.0000      -0.654645       -17.8138
 121   2.0000      -0.654159       -17.8006
 122   2.0000      -0.647829       -17.6283
 123   2.0000      -0.643578       -17.5126
 124   2.0000      -0.643111       -17.4999
 125   2.0000      -0.631997       -17.1975
 126   2.0000      -0.627391       -17.0722
 127   2.0000      -0.621086       -16.9006
 128   2.0000      -0.612686       -16.6720
 129   2.0000      -0.606867       -16.5137
 130   2.0000      -0.602370       -16.3913
 131   2.0000      -0.595647       -16.2084
 132   2.0000      -0.592216       -16.1150
 133   2.0000      -0.587036       -15.9741
 134   2.0000      -0.583628       -15.8813
 135   2.0000      -0.582509       -15.8509
 136   2.0000      -0.580249       -15.7894
 137   2.0000      -0.578563       -15.7435
 138   2.0000      -0.569028       -15.4840
 139   2.0000      -0.566836       -15.4244
 140   2.0000      -0.560755       -15.2589
 141   2.0000      -0.559639       -15.2285
 142   2.0000      -0.552499       -15.0343
 143   2.0000      -0.549263       -14.9462
 144   2.0000      -0.545091       -14.8327
 145   2.0000      -0.540397       -14.7050
 146   2.0000      -0.538490       -14.6531
 147   2.0000      -0.533157       -14.5079
 148   2.0000      -0.529902       -14.4194
 149   2.0000      -0.527349       -14.3499
 150   2.0000      -0.524800       -14.2805
 151   2.0000      -0.521152       -14.1813
 152   2.0000      -0.518753       -14.1160
 153   2.0000      -0.518197       -14.1009
 154   2.0000      -0.516844       -14.0640
 155   2.0000      -0.515529       -14.0283
 156   2.0000      -0.514522       -14.0009
 157   2.0000      -0.513318       -13.9681
 158   2.0000      -0.509926       -13.8758
 159   2.0000      -0.508070       -13.8253
 160   2.0000      -0.504517       -13.7286
 161   2.0000      -0.501711       -13.6523
 162   2.0000      -0.499372       -13.5886
 163   2.0000      -0.495312       -13.4781
 164   2.0000      -0.493353       -13.4248
 165   2.0000      -0.488125       -13.2826
 166   2.0000      -0.480386       -13.0720
 167   2.0000      -0.478658       -13.0249
 168   2.0000      -0.477462       -12.9924
 169   2.0000      -0.472173       -12.8485
 170   2.0000      -0.469976       -12.7887
 171   2.0000      -0.465897       -12.6777
 172   2.0000      -0.465514       -12.6673
 173   2.0000      -0.461584       -12.5603
 174   2.0000      -0.460816       -12.5395
 175   2.0000      -0.458539       -12.4775
 176   2.0000      -0.458290       -12.4707
 177   2.0000      -0.456833       -12.4311
 178   2.0000      -0.456463       -12.4210
 179   2.0000      -0.453677       -12.3452
 180   2.0000      -0.452846       -12.3226
 181   2.0000      -0.452073       -12.3015
 182   2.0000      -0.447919       -12.1885
 183   2.0000      -0.445513       -12.1230
 184   2.0000      -0.444463       -12.0945
 185   2.0000      -0.441932       -12.0256
 186   2.0000      -0.440298       -11.9811
 187   2.0000      -0.437794       -11.9130
 188   2.0000      -0.437480       -11.9044
 189   2.0000      -0.436338       -11.8734
 190   2.0000      -0.435780       -11.8582
 191   2.0000      -0.433401       -11.7935
 192   2.0000      -0.431697       -11.7471
 193   2.0000      -0.428911       -11.6713
 194   2.0000      -0.422924       -11.5083
 195   2.0000      -0.419724       -11.4213
 196   2.0000      -0.417019       -11.3477
 197   2.0000      -0.409532       -11.1439
 198   2.0000      -0.406517       -11.0619
 199   2.0000      -0.406029       -11.0486
 200   2.0000      -0.404773       -11.0144
 201   2.0000      -0.390300       -10.6206
 202   2.0000      -0.385998       -10.5035
 203   2.0000      -0.383881       -10.4459
 204   2.0000      -0.373906       -10.1745
 205   2.0000      -0.358664        -9.7597
 206   2.0000      -0.351360        -9.5610
 207   2.0000      -0.347462        -9.4549
 208   2.0000      -0.346221        -9.4212
 209   2.0000      -0.344011        -9.3610
 210   2.0000      -0.343205        -9.3391
 211   2.0000      -0.337153        -9.1744
 212   2.0000      -0.332089        -9.0366
 213   2.0000      -0.330782        -9.0010
 214   2.0000      -0.326839        -8.8937
 215   2.0000      -0.315735        -8.5916
 216   2.0000      -0.309991        -8.4353
 217   2.0000      -0.294234        -8.0065
 218   2.0000      -0.274165        -7.4604
 219   2.0000      -0.246161        -6.6984
 220   2.0000      -0.234394        -6.3782
 221   0.0000      -0.092911        -2.5282
 222   0.0000      -0.081506        -2.2179
 223   0.0000      -0.061381        -1.6703
 224   0.0000      -0.045287        -1.2323
 225   0.0000      -0.027373        -0.7448

MULLIKEN ATOMIC CHARGES
-----------------------
   0 C :    0.047323
   1 N :   -0.265013
   2 C :    0.108993
   3 C :   -0.001462
   4 C :    0.161614
   5 O :   -0.195679
   6 C :   -0.079619
   7 C :    0.009478
   8 C :    0.161484
   9 O :   -0.187824
  10 N :   -0.279286
  11 C :    0.099720
  12 C :    0.001213
  13 C :    0.133057
  14 C :   -0.038555
  15 C :    0.087982
  16 C :   -0.085959
  17 S :    0.146657
  18 C :   -0.059802
  19 C :   -0.080173
  20 C :    0.020524
  21 C :   -0.175796
  22 N :    0.121769
  23 C :    0.066214
  24 C :   -0.010383
  25 C :    0.108365
  26 C :   -0.070810
  27 C :    0.141039
  28 N :    0.244812
  29 O :   -0.226796
  30 O :   -0.233835
  31 C :    0.065814
  32 C :   -0.033130
  33 C :    0.018606
  34 C :   -0.000508
  35 C :    0.062608
  36 C :   -0.079326
  37 S :    0.175675
  38 C :   -0.062848
  39 C :   -0.079352
  40 C :    0.021014
  41 C :   -0.164685
  42 N :    0.111257
  43 C :    0.056110
  44 C :   -0.038690
  45 C :    0.136228
  46 N :   -0.260324
  47 C :    0.095339
  48 C :    0.009386
  49 C :    0.161410
  50 O :   -0.206503
  51 C :   -0.060917
  52 C :   -0.066635
  53 C :    0.162432
  54 O :   -0.216756
  55 N :   -0.260378
  56 C :    0.099042
  57 C :    0.006224
  58 C :    0.107934
  59 C :   -0.039400
  60 C :    0.013529
  61 H :    0.018591
  62 H :    0.020213
  63 H :    0.044065
  64 H :    0.014183
  65 H :    0.024451
  66 H :    0.030895
  67 H :    0.021462
  68 H :    0.044824
  69 H :    0.017921
  70 H :    0.020016
  71 H :    0.030528
  72 H :    0.007948
  73 H :   -0.022380
  74 H :    0.014760
  75 H :   -0.020177
  76 H :    0.007671
  77 H :    0.016575
  78 H :   -0.012175
  79 H :   -0.013233
  80 H :    0.012842
  81 H :   -0.010827
  82 H :    0.001871
  83 H :    0.002062
  84 H :   -0.015452
  85 H :    0.041933
  86 H :    0.035187
  87 H :    0.022524
  88 H :    0.026766
  89 H :    0.016819
  90 H :    0.022811
  91 H :    0.042072
  92 H :    0.017052
  93 H :    0.020980
  94 H :    0.028309
  95 H :   -0.020251
  96 H :    0.057244
  97 H :    0.029509
Sum of atomic charges:   -0.0000000

LOEWDIN ATOMIC CHARGES
----------------------
   0 C :    0.099150
   1 N :   -0.002650
   2 C :    0.038007
   3 C :   -0.060291
   4 C :    0.076920
   5 O :   -0.197812
   6 C :   -0.118909
   7 C :   -0.133136
   8 C :    0.083984
   9 O :   -0.190251
  10 N :   -0.012987
  11 C :    0.033490
  12 C :   -0.063777
  13 C :    0.075254
  14 C :   -0.022191
  15 C :   -0.026132
  16 C :   -0.169747
  17 S :    0.460443
  18 C :   -0.136739
  19 C :   -0.104594
  20 C :   -0.012720
  21 C :   -0.028366
  22 N :   -0.053161
  23 C :   -0.046770
  24 C :    0.006352
  25 C :   -0.026747
  26 C :    0.016168
  27 C :   -0.027451
  28 N :    0.284734
  29 O :   -0.195178
  30 O :   -0.194737
  31 C :   -0.001388
  32 C :   -0.007234
  33 C :    0.011484
  34 C :   -0.006910
  35 C :   -0.032389
  36 C :   -0.166501
  37 S :    0.481106
  38 C :   -0.143603
  39 C :   -0.102093
  40 C :   -0.017925
  41 C :   -0.024394
  42 N :   -0.061358
  43 C :   -0.004943
  44 C :   -0.032051
  45 C :    0.074144
  46 N :    0.000739
  47 C :    0.036229
  48 C :   -0.059283
  49 C :    0.080808
  50 O :   -0.200064
  51 C :   -0.124416
  52 C :   -0.121130
  53 C :    0.079669
  54 O :   -0.207356
  55 N :    0.000438
  56 C :    0.035988
  57 C :   -0.060931
  58 C :    0.079504
  59 C :   -0.055492
  60 C :    0.024285
  61 H :    0.033912
  62 H :    0.025127
  63 H :    0.037085
  64 H :    0.022118
  65 H :    0.030757
  66 H :    0.031905
  67 H :    0.019418
  68 H :    0.038084
  69 H :    0.020401
  70 H :    0.029564
  71 H :    0.033854
  72 H :    0.046342
  73 H :    0.027939
  74 H :    0.045070
  75 H :    0.026826
  76 H :    0.040545
  77 H :    0.045314
  78 H :    0.033913
  79 H :    0.031903
  80 H :    0.030209
  81 H :    0.028014
  82 H :    0.040886
  83 H :    0.036246
  84 H :    0.035236
  85 H :    0.037233
  86 H :    0.027112
  87 H :    0.029128
  88 H :    0.033029
  89 H :    0.022829
  90 H :    0.022689
  91 H :    0.036733
  92 H :    0.022790
  93 H :    0.029741
  94 H :    0.031852
  95 H :    0.028888
  96 H :    0.032994
  97 H :    0.029227

  Mayer bond orders larger than 0.100000
B(  0-C ,  1-N ) :   1.1988 B(  0-C ,  7-C ) :   1.4487 B(  0-C , 61-H ) :   0.9893
B(  1-N ,  2-C ) :   0.9399 B(  1-N ,  4-C ) :   1.0317 B(  2-C ,  3-C ) :   1.1206
B(  2-C , 62-H ) :   0.9538 B(  2-C , 63-H ) :   0.9345 B(  3-C , 64-H ) :   0.9689
B(  3-C , 65-H ) :   0.9687 B(  3-C , 66-H ) :   0.9673 B(  4-C ,  5-O ) :   2.1182
B(  4-C ,  6-C ) :   0.9917 B(  6-C ,  7-C ) :   1.1938 B(  6-C , 13-C ) :   1.3869
B(  7-C ,  8-C ) :   0.9530 B(  8-C ,  9-O ) :   2.1654 B(  8-C , 10-N ) :   1.0186
B( 10-N , 11-C ) :   0.9473 B( 10-N , 13-C ) :   1.1550 B( 11-C , 12-C ) :   1.1151
B( 11-C , 67-H ) :   0.9510 B( 11-C , 68-H ) :   0.9234 B( 12-C , 69-H ) :   0.9682
B( 12-C , 70-H ) :   0.9686 B( 12-C , 71-H ) :   0.9617 B( 13-C , 14-C ) :   1.1817
B( 14-C , 15-C ) :   1.6240 B( 14-C , 72-H ) :   0.9462 B( 15-C , 16-C ) :   1.1049
B( 15-C , 73-H ) :   0.9604 B( 16-C , 17-S ) :   1.1132 B( 16-C , 20-C ) :   1.4890
B( 17-S , 18-C ) :   1.1444 B( 18-C , 19-C ) :   1.4523 B( 18-C , 23-C ) :   1.1385
B( 19-C , 20-C ) :   1.2963 B( 19-C , 21-C ) :   1.1179 B( 20-C , 74-H ) :   0.9984
B( 21-C , 22-N ) :   2.9717 B( 23-C , 24-C ) :   1.6915 B( 23-C , 75-H ) :   0.9403
B( 24-C , 25-C ) :   1.0838 B( 24-C , 76-H ) :   0.9709 B( 25-C , 26-C ) :   1.2921
B( 25-C , 33-C ) :   1.3077 B( 26-C , 27-C ) :   1.3632 B( 26-C , 77-H ) :   1.0018
B( 27-C , 28-N ) :   0.8815 B( 27-C , 31-C ) :   1.3446 B( 28-N , 29-O ) :   1.5585
B( 28-N , 30-O ) :   1.5166 B( 29-O , 30-O ) :   0.2658 B( 31-C , 32-C ) :   1.3264
B( 31-C , 34-C ) :   1.0772 B( 32-C , 33-C ) :   1.4289 B( 32-C , 78-H ) :   0.9866
B( 33-C , 79-H ) :   0.9895 B( 34-C , 35-C ) :   1.7485 B( 34-C , 80-H ) :   0.9436
B( 35-C , 36-C ) :   1.1000 B( 35-C , 81-H ) :   0.9598 B( 36-C , 37-S ) :   1.1218
B( 36-C , 40-C ) :   1.4843 B( 37-S , 38-C ) :   1.1501 B( 38-C , 39-C ) :   1.4220
B( 38-C , 43-C ) :   1.1565 B( 39-C , 40-C ) :   1.3095 B( 39-C , 41-C ) :   1.1204
B( 40-C , 82-H ) :   0.9982 B( 41-C , 42-N ) :   2.9657 B( 43-C , 44-C ) :   1.6170
B( 43-C , 83-H ) :   0.9233 B( 44-C , 45-C ) :   1.1691 B( 44-C , 84-H ) :   0.9461
B( 45-C , 46-N ) :   1.1616 B( 45-C , 52-C ) :   1.3426 B( 46-N , 47-C ) :   0.9406
B( 46-N , 49-C ) :   1.0567 B( 47-C , 48-C ) :   1.1239 B( 47-C , 85-H ) :   0.9266
B( 47-C , 86-H ) :   0.9478 B( 48-C , 87-H ) :   0.9636 B( 48-C , 88-H ) :   0.9674
B( 48-C , 89-H ) :   0.9674 B( 49-C , 50-O ) :   2.0505 B( 49-C , 51-C ) :   0.9799
B( 51-C , 52-C ) :   1.2386 B( 51-C , 58-C ) :   1.3742 B( 52-C , 53-C ) :   0.9933
B( 53-C , 54-O ) :   2.0156 B( 53-C , 55-N ) :   1.0599 B( 54-O , 83-H ) :   0.1146
B( 55-N , 56-C ) :   0.9472 B( 55-N , 58-C ) :   1.1646 B( 56-C , 57-C ) :   1.1206
B( 56-C , 90-H ) :   0.9504 B( 56-C , 91-H ) :   0.9281 B( 57-C , 92-H ) :   0.9687
B( 57-C , 93-H ) :   0.9678 B( 57-C , 94-H ) :   0.9640 B( 58-C , 59-C ) :   1.1261
B( 59-C , 60-C ) :   1.8887 B( 59-C , 95-H ) :   0.9533 B( 60-C , 96-H ) :   0.9267
B( 60-C , 97-H ) :   0.9443

-----------------------------------------------------------------------------
         ABSORPTION SPECTRUM VIA TRANSITION ELECTRIC DIPOLE MOMENTS
-----------------------------------------------------------------------------
State   Energy  Wavelength   fosc         T2         TX        TY        TZ
        (cm-1)    (nm)                  (au**2)     (au)      (au)      (au)
-----------------------------------------------------------------------------
   0   16770.5    596.3   1.157443060  22.72111  -2.94840  -3.34847   1.67802
   1   19913.4    502.2   1.096489388  18.12737  -0.54782  -4.02072   1.28884
   2   23191.5    431.2   0.278316395   3.95081  -0.40505   1.93733  -0.18296
   3   24641.5    405.8   0.318840519   4.25973  -0.73605  -1.87217   0.46146
   4   26200.5    381.7   0.262314937   3.29602  -0.56643  -1.70998   0.22616
   5   27122.9    368.7   0.122602313   1.48812   0.59727  -0.66250  -0.83216
   6   27300.3    366.3   0.069393881   0.83682   0.15733   0.81368  -0.38728
   7   27773.8    360.1   0.090583406   1.07371  -0.35636   0.85015   0.47326
   8   28951.5    345.4   0.019146008   0.21771   0.20275  -0.28905  -0.30505
   9   29168.4    342.8   0.186791916   2.10825   0.20461  -1.37978   0.40321
  10   29736.7    336.3   0.099468543   1.10121  -0.04786  -1.03889  -0.14005
  11   29764.7    336.0   0.042084869   0.46548  -0.07632   0.67497  -0.06381
  12   30777.5    324.9   0.016281011   0.17415   0.07053  -0.14258  -0.38581
  13   31199.1    320.5   0.000974584   0.01028   0.08915  -0.01632  -0.04550
  14   32171.5    310.8   0.030729425   0.31446   0.18521  -0.22715  -0.47808
  15   32345.3    309.2   0.017259656   0.17567   0.11651   0.40053  -0.04087
  16   33369.8    299.7   0.001932561   0.01907  -0.12088  -0.01009  -0.06598
  17   35058.0    285.2   0.015477666   0.14534  -0.18066   0.31490   0.11638
  18   35201.7    284.1   0.006255111   0.05850  -0.10616   0.20592   0.06949
  19   35458.8    282.0   0.051975840   0.48256   0.42855   0.38690  -0.38629
  20   35637.5    280.6   0.003101721   0.02865   0.10167   0.03591   0.13049
  21   36427.5    274.5   0.108677322   0.98217  -0.50353  -0.23277   0.82124
  22   37164.3    269.1   0.087480590   0.77493   0.18623   0.86017   0.01870
  23   37770.9    264.8   0.073440461   0.64011   0.13880   0.78794  -0.00053
  24   38587.6    259.2   0.117592479   1.00324  -0.64621   0.74861  -0.15887
  25   39018.7    256.3   0.005711789   0.04819  -0.06075  -0.05768  -0.20291
  26   39466.1    253.4   0.032060393   0.26744  -0.34000   0.23091   0.31388
  27   39818.5    251.1   0.026974704   0.22302  -0.27426   0.37507   0.08441
  28   40077.3    249.5   0.024519905   0.20142   0.14688  -0.21557  -0.36520
  29   40130.5    249.2   0.118663489   0.97346  -0.19444   0.96330   0.08774

FINAL SINGLE POINT ENERGY     -3402.539518226201

DIPOLE MOMENT
-------------
                                X             Y             Z
Electronic contribution:    -22.84582       4.74713      10.83352
Nuclear contribution   :     25.03143      -7.32542     -12.38991
                        -----------------------------------------
Total Dipole Moment    :      2.18561      -2.57830      -1.55639
                        -----------------------------------------
Magnitude (a.u.)       :      3.72114
Magnitude (Debye)      :      9.45838

Rotational constants in cm-1:     0.003099     0.000204     0.000196
Rotational constants in MHz :    92.897720     6.109288     5.861890

                             ****ORCA TERMINATED NORMALLY****
TOTAL RUN TIME: 0 days 0 hours 6 minutes 56 seconds 792 msec
