                         Program Version 4.2.0 -  RELEASE  -
|  1> # ORCA input file
|  2> # SCF done       -171.415908550716          0.000438149138
|  3> ! CAM-B3LYP def2-SVP def2/J RIJCOSX Grid4 TightSCF
|  4> %maxcore 5000
|  5> %tddft
|  6>     Mode sTDDFT
|  7>     Ethresh 5.0
|  8>     maxcore 5000
|  9> end
| 10>
| 11> %pal
| 12>   nprocs 6
| 13>   end
| 14> * xyz 0 1
| 15>    C       -0.55946         2.17392         8.27932
| 16>    N       -0.89728         3.48466         8.40442
| 17>    C       -0.98517         4.22084         9.64063
| 18>    C        0.39670         4.58633        10.17599
| 19>    C       -1.09909         4.08690         7.14398
| 20>    O       -1.41009         5.25632         7.00469
| 21>    C       -0.86475         3.01999         6.20373
| 22>    C       -0.53167         1.84626         6.95257
| 23>    C       -0.29691         0.76862         6.01297
| 24>    O        0.01295        -0.39173         6.15910
| 25>    N       -0.50188         1.36602         4.75185
| 26>    C       -0.40216         0.58968         3.54033
| 27>    C       -1.77437         0.17178         3.01672
| 28>    C       -0.84333         2.69679         4.85273
| 29>    C       -1.09758         3.52932         3.73179
| 30>    C       -1.41881         4.84164         3.86759
| 31>    C       -1.67746         5.72930         2.79307
| 32>    S       -2.01215         7.40390         3.13400
| 33>    C       -2.19121         7.78761         1.44921
| 34>    C       -1.99990         6.63737         0.67091
| 35>    C       -1.71237         5.49588         1.43117
| 36>    C       -2.07593         6.57233        -0.73090
| 37>    N       -2.12425         6.44755        -1.87062
| 38>    C       -2.47869         9.12124         1.07912
| 39>    C       -2.64289         9.58259        -0.19054
| 40>    C       -2.91355        10.93283        -0.51851
| 41>    C       -3.08369        11.43293        -1.79609
| 42>    C       -3.32498        12.82999        -1.72880
| 43>    C       -3.29631        13.17833        -0.29540
| 44>    C       -3.05315        12.04401         0.41170
| 45>    C       -3.48478        14.44322         0.27080
| 46>    N       -3.63417        15.46627         0.77282
| 47>    C       -3.54161        13.70772        -2.77102
| 48>    C       -3.76619        15.10767        -2.68926
| 49>    C       -3.93614        15.61282        -3.96152
| 50>    C       -3.82094        14.51110        -4.90138
| 51>    C       -3.58402        13.36827        -4.20555
| 52>    C       -3.41792        12.10337        -4.77956
| 53>    N       -3.28718        11.08274        -5.29008
| 54>    C       -4.18081        16.95835        -4.33242
| 55>    S       -4.39030        17.41872        -5.99942
| 56>    C       -4.62401        19.08587        -5.58025
| 57>    C       -4.53464        19.25241        -4.18845
| 58>    C       -4.28807        18.05860        -3.50127
| 59>    C       -4.66688        20.47706        -3.51285
| 60>    N       -4.76578        21.45931        -2.92678
| 61>    C       -4.86235        20.01977        -6.61131
| 62>    C       -5.07485        21.35304        -6.43032
| 63>    C       -5.31184        22.23717        -7.50747
| 64>    N       -5.51804        23.58842        -7.34794
| 65>    C       -5.46947        24.32559        -6.10746
| 66>    C       -4.03556        24.57596        -5.64827
| 67>    C       -5.73937        24.23865        -8.57329
| 68>    O       -5.94846        25.43092        -8.67113
| 69>    C       -5.66635        23.18033        -9.55840
| 70>    C       -5.40271        21.96531        -8.87216
| 71>    C       -5.33056        20.90995        -9.85328
| 72>    O       -5.12274        19.71468        -9.75760
| 73>    N       -5.55186        21.56080       -11.08150
| 74>    C       -5.60709        20.81518       -12.31533
| 75>    C       -7.04532        20.55504       -12.75713
| 76>    C       -5.75692        22.90892       -10.91803
| 77>    C       -5.99619        23.81021       -12.00739
| 78>    C       -6.21360        25.11619       -11.83339
| 79>    H       -0.37101         1.56555         9.14441
| 80>    H       -1.53347         3.62356        10.37499
| 81>    H       -1.55177         5.12967         9.42066
| 82>    H        0.98189         3.69074        10.37307
| 83>    H        0.29757         5.14946        11.09962
| 84>    H        0.92845         5.19717         9.45059
| 85>    H        0.17524        -0.30180         3.80148
| 86>    H        0.14947         1.15608         2.78445
| 87>    H       -2.28551        -0.43210         3.76229
| 88>    H       -1.65955        -0.41789         2.11141
| 89>    H       -2.39069         1.04042         2.79461
| 90>    H       -1.02016         3.08816         2.74925
| 91>    H       -1.48410         5.26520         4.86139
| 92>    H       -1.54021         4.53279         0.98461
| 93>    H       -2.56446         9.81032         1.90854
| 94>    H       -2.56350         8.89946        -1.02464
| 95>    H       -3.03792        10.85879        -2.70076
| 96>    H       -2.97599        11.98013         1.48094
| 97>    H       -3.79512        15.66785        -1.77666
| 98>    H       -3.91101        14.60736        -5.96797
| 99>    H       -4.19038        18.00298        -2.43180
|100>    H       -4.87274        19.61894        -7.61719
|101>    H       -5.06999        21.76830        -5.43472
|102>    H       -6.03229        23.78985        -5.33835
|103>    H       -5.96329        25.28079        -6.30666
|104>    H       -3.51345        23.63896        -5.46859
|105>    H       -4.04314        25.14948        -4.72605
|106>    H       -3.49419        25.13780        -6.40571
|107>    H       -5.10830        19.86276       -12.11412
|108>    H       -5.05008        21.34659       -13.09189
|109>    H       -7.57047        19.98725       -11.99298
|110>    H       -7.04889        19.98154       -13.67991
|111>    H       -7.57848        21.48890       -12.92154
|112>    H       -5.99041        23.38627       -13.00210
|113>    H       -6.22353        25.56117       -10.85236
|114>    H       -6.38535        25.76795       -12.67255
|115> *
|116>
|117>                          ****END OF INPUT****

CARTESIAN COORDINATES (ANGSTROEM)
---------------------------------
  C     -0.559460    2.173920    8.279320
  N     -0.897280    3.484660    8.404420
  C     -0.985170    4.220840    9.640630
  C      0.396700    4.586330   10.175990
  C     -1.099090    4.086900    7.143980
  O     -1.410090    5.256320    7.004690
  C     -0.864750    3.019990    6.203730
  C     -0.531670    1.846260    6.952570
  C     -0.296910    0.768620    6.012970
  O      0.012950   -0.391730    6.159100
  N     -0.501880    1.366020    4.751850
  C     -0.402160    0.589680    3.540330
  C     -1.774370    0.171780    3.016720
  C     -0.843330    2.696790    4.852730
  C     -1.097580    3.529320    3.731790
  C     -1.418810    4.841640    3.867590
  C     -1.677460    5.729300    2.793070
  S     -2.012150    7.403900    3.134000
  C     -2.191210    7.787610    1.449210
  C     -1.999900    6.637370    0.670910
  C     -1.712370    5.495880    1.431170
  C     -2.075930    6.572330   -0.730900
  N     -2.124250    6.447550   -1.870620
  C     -2.478690    9.121240    1.079120
  C     -2.642890    9.582590   -0.190540
  C     -2.913550   10.932830   -0.518510
  C     -3.083690   11.432930   -1.796090
  C     -3.324980   12.829990   -1.728800
  C     -3.296310   13.178330   -0.295400
  C     -3.053150   12.044010    0.411700
  C     -3.484780   14.443220    0.270800
  N     -3.634170   15.466270    0.772820
  C     -3.541610   13.707720   -2.771020
  C     -3.766190   15.107670   -2.689260
  C     -3.936140   15.612820   -3.961520
  C     -3.820940   14.511100   -4.901380
  C     -3.584020   13.368270   -4.205550
  C     -3.417920   12.103370   -4.779560
  N     -3.287180   11.082740   -5.290080
  C     -4.180810   16.958350   -4.332420
  S     -4.390300   17.418720   -5.999420
  C     -4.624010   19.085870   -5.580250
  C     -4.534640   19.252410   -4.188450
  C     -4.288070   18.058600   -3.501270
  C     -4.666880   20.477060   -3.512850
  N     -4.765780   21.459310   -2.926780
  C     -4.862350   20.019770   -6.611310
  C     -5.074850   21.353040   -6.430320
  C     -5.311840   22.237170   -7.507470
  N     -5.518040   23.588420   -7.347940
  C     -5.469470   24.325590   -6.107460
  C     -4.035560   24.575960   -5.648270
  C     -5.739370   24.238650   -8.573290
  O     -5.948460   25.430920   -8.671130
  C     -5.666350   23.180330   -9.558400
  C     -5.402710   21.965310   -8.872160
  C     -5.330560   20.909950   -9.853280
  O     -5.122740   19.714680   -9.757600
  N     -5.551860   21.560800  -11.081500
  C     -5.607090   20.815180  -12.315330
  C     -7.045320   20.555040  -12.757130
  C     -5.756920   22.908920  -10.918030
  C     -5.996190   23.810210  -12.007390
  C     -6.213600   25.116190  -11.833390
  H     -0.371010    1.565550    9.144410
  H     -1.533470    3.623560   10.374990
  H     -1.551770    5.129670    9.420660
  H      0.981890    3.690740   10.373070
  H      0.297570    5.149460   11.099620
  H      0.928450    5.197170    9.450590
  H      0.175240   -0.301800    3.801480
  H      0.149470    1.156080    2.784450
  H     -2.285510   -0.432100    3.762290
  H     -1.659550   -0.417890    2.111410
  H     -2.390690    1.040420    2.794610
  H     -1.020160    3.088160    2.749250
  H     -1.484100    5.265200    4.861390
  H     -1.540210    4.532790    0.984610
  H     -2.564460    9.810320    1.908540
  H     -2.563500    8.899460   -1.024640
  H     -3.037920   10.858790   -2.700760
  H     -2.975990   11.980130    1.480940
  H     -3.795120   15.667850   -1.776660
  H     -3.911010   14.607360   -5.967970
  H     -4.190380   18.002980   -2.431800
  H     -4.872740   19.618940   -7.617190
  H     -5.069990   21.768300   -5.434720
  H     -6.032290   23.789850   -5.338350
  H     -5.963290   25.280790   -6.306660
  H     -3.513450   23.638960   -5.468590
  H     -4.043140   25.149480   -4.726050
  H     -3.494190   25.137800   -6.405710
  H     -5.108300   19.862760  -12.114120
  H     -5.050080   21.346590  -13.091890
  H     -7.570470   19.987250  -11.992980
  H     -7.048890   19.981540  -13.679910
  H     -7.578480   21.488900  -12.921540
  H     -5.990410   23.386270  -13.002100
  H     -6.223530   25.561170  -10.852360
  H     -6.385350   25.767950  -12.672550

 Total Charge           Charge          ....    0
 Multiplicity           Mult            ....    1
 Number of Electrons    NEL             ....  456
 Basis Dimension        Dim             .... 1084

ORBITAL ENERGIES
----------------

  NO   OCC          E(Eh)            E(eV)
   0   2.0000     -88.985222     -2421.4110
   1   2.0000     -88.984214     -2421.3836
   2   2.0000     -19.195698      -522.3415
   3   2.0000     -19.192193      -522.2461
   4   2.0000     -19.187296      -522.1129
   5   2.0000     -19.187067      -522.1066
   6   2.0000     -14.455740      -393.3607
   7   2.0000     -14.455026      -393.3413
   8   2.0000     -14.452855      -393.2822
   9   2.0000     -14.450897      -393.2289
  10   2.0000     -14.417896      -392.3309
  11   2.0000     -14.416332      -392.2883
  12   2.0000     -14.413132      -392.2012
  13   2.0000     -14.410444      -392.1281
  14   2.0000     -10.376470      -282.3581
  15   2.0000     -10.373767      -282.2845
  16   2.0000     -10.373561      -282.2789
  17   2.0000     -10.371131      -282.2128
  18   2.0000     -10.344692      -281.4934
  19   2.0000     -10.340179      -281.3706
  20   2.0000     -10.339471      -281.3513
  21   2.0000     -10.338746      -281.3316
  22   2.0000     -10.338272      -281.3187
  23   2.0000     -10.329941      -281.0920
  24   2.0000     -10.329283      -281.0741
  25   2.0000     -10.327456      -281.0244
  26   2.0000     -10.327381      -281.0223
  27   2.0000     -10.326380      -280.9951
  28   2.0000     -10.326109      -280.9877
  29   2.0000     -10.325348      -280.9670
  30   2.0000     -10.320771      -280.8425
  31   2.0000     -10.320158      -280.8258
  32   2.0000     -10.318875      -280.7909
  33   2.0000     -10.316782      -280.7339
  34   2.0000     -10.315197      -280.6908
  35   2.0000     -10.313975      -280.6575
  36   2.0000     -10.313769      -280.6519
  37   2.0000     -10.313096      -280.6336
  38   2.0000     -10.311944      -280.6023
  39   2.0000     -10.310965      -280.5756
  40   2.0000     -10.310737      -280.5694
  41   2.0000     -10.310570      -280.5649
  42   2.0000     -10.310044      -280.5506
  43   2.0000     -10.308431      -280.5067
  44   2.0000     -10.307607      -280.4843
  45   2.0000     -10.305922      -280.4384
  46   2.0000     -10.305264      -280.4205
  47   2.0000     -10.302910      -280.3564
  48   2.0000     -10.302484      -280.3449
  49   2.0000     -10.300979      -280.3039
  50   2.0000     -10.299151      -280.2541
  51   2.0000     -10.297493      -280.2090
  52   2.0000     -10.288658      -279.9686
  53   2.0000     -10.287139      -279.9273
  54   2.0000     -10.286789      -279.9178
  55   2.0000     -10.280172      -279.7377
  56   2.0000     -10.266512      -279.3660
  57   2.0000     -10.266105      -279.3549
  58   2.0000     -10.265913      -279.3497
  59   2.0000     -10.262824      -279.2656
  60   2.0000     -10.260420      -279.2002
  61   2.0000     -10.260070      -279.1907
  62   2.0000     -10.259010      -279.1619
  63   2.0000     -10.256792      -279.1015
  64   2.0000      -8.080553      -219.8830
  65   2.0000      -8.079844      -219.8637
  66   2.0000      -6.049663      -164.6197
  67   2.0000      -6.048913      -164.5993
  68   2.0000      -6.045550      -164.5078
  69   2.0000      -6.044862      -164.4890
  70   2.0000      -6.042963      -164.4374
  71   2.0000      -6.042229      -164.4174
  72   2.0000      -1.134855       -30.8810
  73   2.0000      -1.132833       -30.8260
  74   2.0000      -1.126105       -30.6429
  75   2.0000      -1.125991       -30.6398
  76   2.0000      -1.064427       -28.9645
  77   2.0000      -1.063611       -28.9423
  78   2.0000      -1.055203       -28.7135
  79   2.0000      -1.054990       -28.7077
  80   2.0000      -1.025350       -27.9012
  81   2.0000      -1.021541       -27.7975
  82   2.0000      -1.016899       -27.6712
  83   2.0000      -1.004159       -27.3246
  84   2.0000      -0.996114       -27.1056
  85   2.0000      -0.995259       -27.0824
  86   2.0000      -0.988685       -26.9035
  87   2.0000      -0.982917       -26.7465
  88   2.0000      -0.934467       -25.4281
  89   2.0000      -0.928988       -25.2790
  90   2.0000      -0.926888       -25.2219
  91   2.0000      -0.920468       -25.0472
  92   2.0000      -0.909776       -24.7563
  93   2.0000      -0.893929       -24.3251
  94   2.0000      -0.887857       -24.1598
  95   2.0000      -0.879333       -23.9279
  96   2.0000      -0.875202       -23.8154
  97   2.0000      -0.873304       -23.7638
  98   2.0000      -0.868693       -23.6383
  99   2.0000      -0.866288       -23.5729
 100   2.0000      -0.856448       -23.3051
 101   2.0000      -0.841534       -22.8993
 102   2.0000      -0.830570       -22.6010
 103   2.0000      -0.821861       -22.3640
 104   2.0000      -0.818999       -22.2861
 105   2.0000      -0.806279       -21.9400
 106   2.0000      -0.796087       -21.6626
 107   2.0000      -0.787035       -21.4163
 108   2.0000      -0.776725       -21.1357
 109   2.0000      -0.773052       -21.0358
 110   2.0000      -0.762527       -20.7494
 111   2.0000      -0.759377       -20.6637
 112   2.0000      -0.749962       -20.4075
 113   2.0000      -0.730844       -19.8873
 114   2.0000      -0.724287       -19.7088
 115   2.0000      -0.722924       -19.6718
 116   2.0000      -0.715458       -19.4686
 117   2.0000      -0.711252       -19.3542
 118   2.0000      -0.708305       -19.2740
 119   2.0000      -0.699722       -19.0404
 120   2.0000      -0.691435       -18.8149
 121   2.0000      -0.684032       -18.6135
 122   2.0000      -0.679735       -18.4965
 123   2.0000      -0.677020       -18.4227
 124   2.0000      -0.660243       -17.9661
 125   2.0000      -0.658817       -17.9273
 126   2.0000      -0.652820       -17.7641
 127   2.0000      -0.648484       -17.6461
 128   2.0000      -0.644769       -17.5451
 129   2.0000      -0.631426       -17.1820
 130   2.0000      -0.623298       -16.9608
 131   2.0000      -0.618962       -16.8428
 132   2.0000      -0.617550       -16.8044
 133   2.0000      -0.606175       -16.4949
 134   2.0000      -0.596436       -16.2298
 135   2.0000      -0.591620       -16.0988
 136   2.0000      -0.588323       -16.0091
 137   2.0000      -0.586803       -15.9677
 138   2.0000      -0.582767       -15.8579
 139   2.0000      -0.575541       -15.6613
 140   2.0000      -0.572140       -15.5687
 141   2.0000      -0.570390       -15.5211
 142   2.0000      -0.564910       -15.3720
 143   2.0000      -0.564634       -15.3645
 144   2.0000      -0.558557       -15.1991
 145   2.0000      -0.548795       -14.9335
 146   2.0000      -0.540300       -14.7023
 147   2.0000      -0.536297       -14.5934
 148   2.0000      -0.534551       -14.5459
 149   2.0000      -0.532205       -14.4820
 150   2.0000      -0.531359       -14.4590
 151   2.0000      -0.530036       -14.4230
 152   2.0000      -0.529475       -14.4077
 153   2.0000      -0.529229       -14.4010
 154   2.0000      -0.528090       -14.3701
 155   2.0000      -0.523437       -14.2434
 156   2.0000      -0.521612       -14.1938
 157   2.0000      -0.520911       -14.1747
 158   2.0000      -0.520671       -14.1682
 159   2.0000      -0.518052       -14.0969
 160   2.0000      -0.516170       -14.0457
 161   2.0000      -0.513554       -13.9745
 162   2.0000      -0.513131       -13.9630
 163   2.0000      -0.508361       -13.8332
 164   2.0000      -0.506915       -13.7938
 165   2.0000      -0.504911       -13.7393
 166   2.0000      -0.501216       -13.6388
 167   2.0000      -0.499757       -13.5991
 168   2.0000      -0.492348       -13.3975
 169   2.0000      -0.491420       -13.3722
 170   2.0000      -0.490214       -13.3394
 171   2.0000      -0.483892       -13.1674
 172   2.0000      -0.478777       -13.0282
 173   2.0000      -0.477505       -12.9936
 174   2.0000      -0.473376       -12.8812
 175   2.0000      -0.470379       -12.7997
 176   2.0000      -0.470096       -12.7920
 177   2.0000      -0.467674       -12.7261
 178   2.0000      -0.464631       -12.6432
 179   2.0000      -0.464131       -12.6297
 180   2.0000      -0.462410       -12.5828
 181   2.0000      -0.459630       -12.5072
 182   2.0000      -0.457176       -12.4404
 183   2.0000      -0.456727       -12.4282
 184   2.0000      -0.453551       -12.3417
 185   2.0000      -0.451927       -12.2975
 186   2.0000      -0.451331       -12.2813
 187   2.0000      -0.449683       -12.2365
 188   2.0000      -0.447055       -12.1650
 189   2.0000      -0.446669       -12.1545
 190   2.0000      -0.446087       -12.1386
 191   2.0000      -0.443112       -12.0577
 192   2.0000      -0.442021       -12.0280
 193   2.0000      -0.441920       -12.0253
 194   2.0000      -0.441565       -12.0156
 195   2.0000      -0.440939       -11.9986
 196   2.0000      -0.438598       -11.9349
 197   2.0000      -0.436244       -11.8708
 198   2.0000      -0.435550       -11.8519
 199   2.0000      -0.433148       -11.7865
 200   2.0000      -0.429967       -11.7000
 201   2.0000      -0.426752       -11.6125
 202   2.0000      -0.423681       -11.5289
 203   2.0000      -0.419743       -11.4218
 204   2.0000      -0.419363       -11.4115
 205   2.0000      -0.411784       -11.2052
 206   2.0000      -0.411460       -11.1964
 207   2.0000      -0.411270       -11.1912
 208   2.0000      -0.405959       -11.0467
 209   2.0000      -0.400191       -10.8898
 210   2.0000      -0.391077       -10.6417
 211   2.0000      -0.369720       -10.0606
 212   2.0000      -0.351772        -9.5722
 213   2.0000      -0.349022        -9.4974
 214   2.0000      -0.347559        -9.4576
 215   2.0000      -0.345849        -9.4110
 216   2.0000      -0.344814        -9.3829
 217   2.0000      -0.339831        -9.2473
 218   2.0000      -0.331223        -9.0130
 219   2.0000      -0.330839        -9.0026
 220   2.0000      -0.325629        -8.8608
 221   2.0000      -0.320215        -8.7135
 222   2.0000      -0.314814        -8.5665
 223   2.0000      -0.314481        -8.5575
 224   2.0000      -0.291101        -7.9213
 225   2.0000      -0.272405        -7.4125
 226   2.0000      -0.246116        -6.6972
 227   2.0000      -0.237077        -6.4512
 228   0.0000      -0.132003        -3.5920
 229   0.0000      -0.086548        -2.3551
 230   0.0000      -0.079597        -2.1659
 231   0.0000      -0.042734        -1.1629
 232   0.0000      -0.029297        -0.7972

MULLIKEN ATOMIC CHARGES
-----------------------
   0 C :    0.039017
   1 N :   -0.255394
   2 C :    0.109193
   3 C :   -0.000654
   4 C :    0.176041
   5 O :   -0.218600
   6 C :   -0.109066
   7 C :    0.003435
   8 C :    0.162288
   9 O :   -0.182784
  10 N :   -0.270474
  11 C :    0.096825
  12 C :    0.003570
  13 C :    0.157215
  14 C :   -0.031233
  15 C :    0.088587
  16 C :   -0.078894
  17 S :    0.184484
  18 C :   -0.055026
  19 C :   -0.069227
  20 C :    0.016004
  21 C :   -0.175855
  22 N :    0.125697
  23 C :    0.043861
  24 C :   -0.004011
  25 C :    0.109030
  26 C :   -0.107650
  27 C :    0.117135
  28 C :   -0.097924
  29 C :   -0.010988
  30 C :   -0.169309
  31 N :    0.131183
  32 C :    0.115824
  33 C :   -0.141411
  34 C :    0.148707
  35 C :   -0.027424
  36 C :   -0.086069
  37 C :   -0.181737
  38 N :    0.144462
  39 C :   -0.072037
  40 S :    0.177227
  41 C :   -0.055869
  42 C :   -0.060513
  43 C :    0.009514
  44 C :   -0.165569
  45 N :    0.119786
  46 C :    0.051993
  47 C :   -0.035735
  48 C :    0.135231
  49 N :   -0.258865
  50 C :    0.094106
  51 C :    0.008976
  52 C :    0.164974
  53 O :   -0.205915
  54 C :   -0.064867
  55 C :   -0.068046
  56 C :    0.168208
  57 O :   -0.212345
  58 N :   -0.258548
  59 C :    0.097053
  60 C :    0.004233
  61 C :    0.108128
  62 C :   -0.035758
  63 C :    0.014061
  64 H :    0.015034
  65 H :    0.019882
  66 H :    0.041751
  67 H :    0.015687
  68 H :    0.024211
  69 H :    0.030574
  70 H :    0.044782
  71 H :    0.021920
  72 H :    0.032015
  73 H :    0.025178
  74 H :    0.012259
  75 H :   -0.027713
  76 H :    0.007854
  77 H :   -0.001420
  78 H :   -0.016102
  79 H :    0.011725
  80 H :    0.012066
  81 H :    0.002122
  82 H :   -0.000698
  83 H :    0.011002
  84 H :    0.011737
  85 H :    0.003101
  86 H :   -0.012530
  87 H :    0.035277
  88 H :    0.041186
  89 H :    0.016564
  90 H :    0.028724
  91 H :    0.024828
  92 H :    0.042845
  93 H :    0.025308
  94 H :    0.029672
  95 H :    0.023794
  96 H :    0.017453
  97 H :   -0.018324
  98 H :    0.058406
  99 H :    0.031576
Sum of atomic charges:   -0.0000000

LOEWDIN ATOMIC CHARGES
----------------------
   0 C :    0.088250
   1 N :    0.002204
   2 C :    0.038369
   3 C :   -0.060489
   4 C :    0.076168
   5 O :   -0.209691
   6 C :   -0.132879
   7 C :   -0.127421
   8 C :    0.082198
   9 O :   -0.188514
  10 N :   -0.009259
  11 C :    0.035147
  12 C :   -0.061552
  13 C :    0.084612
  14 C :   -0.043967
  15 C :    0.011968
  16 C :   -0.169794
  17 S :    0.487237
  18 C :   -0.139115
  19 C :   -0.100522
  20 C :   -0.012492
  21 C :   -0.030541
  22 N :   -0.048765
  23 C :   -0.037914
  24 C :    0.006535
  25 C :   -0.016187
  26 C :   -0.018426
  27 C :    0.034163
  28 C :   -0.076998
  29 C :    0.050823
  30 C :   -0.029705
  31 N :   -0.063631
  32 C :    0.037011
  33 C :   -0.032237
  34 C :   -0.027320
  35 C :    0.040809
  36 C :   -0.072695
  37 C :   -0.032789
  38 N :   -0.054386
  39 C :   -0.166169
  40 S :    0.486956
  41 C :   -0.135008
  42 C :   -0.101273
  43 C :   -0.003037
  44 C :   -0.024595
  45 N :   -0.056225
  46 C :   -0.009800
  47 C :   -0.024827
  48 C :    0.070691
  49 N :    0.001663
  50 C :    0.036397
  51 C :   -0.059204
  52 C :    0.080294
  53 O :   -0.199077
  54 C :   -0.124773
  55 C :   -0.116465
  56 C :    0.081000
  57 O :   -0.201703
  58 N :    0.001815
  59 C :    0.036249
  60 C :   -0.060941
  61 C :    0.082739
  62 C :   -0.055574
  63 C :    0.028311
  64 H :    0.032819
  65 H :    0.025105
  66 H :    0.036067
  67 H :    0.022763
  68 H :    0.030514
  69 H :    0.031656
  70 H :    0.038521
  71 H :    0.021823
  72 H :    0.033267
  73 H :    0.031119
  74 H :    0.020503
  75 H :    0.027880
  76 H :    0.037421
  77 H :    0.039284
  78 H :    0.029504
  79 H :    0.044845
  80 H :    0.038577
  81 H :    0.035354
  82 H :    0.032906
  83 H :    0.034366
  84 H :    0.046449
  85 H :    0.036552
  86 H :    0.036177
  87 H :    0.027216
  88 H :    0.037335
  89 H :    0.022727
  90 H :    0.033675
  91 H :    0.029930
  92 H :    0.037259
  93 H :    0.023605
  94 H :    0.032192
  95 H :    0.030841
  96 H :    0.022878
  97 H :    0.029704
  98 H :    0.033407
  99 H :    0.030114

  Mayer bond orders larger than 0.100000
B(  0-C ,  1-N ) :   1.1882 B(  0-C ,  7-C ) :   1.4578 B(  0-C , 64-H ) :   0.9906
B(  1-N ,  2-C ) :   0.9422 B(  1-N ,  4-C ) :   1.0630 B(  2-C ,  3-C ) :   1.1200
B(  2-C , 65-H ) :   0.9539 B(  2-C , 66-H ) :   0.9345 B(  3-C , 67-H ) :   0.9688
B(  3-C , 68-H ) :   0.9686 B(  3-C , 69-H ) :   0.9671 B(  4-C ,  5-O ) :   2.0035
B(  4-C ,  6-C ) :   1.0085 B(  5-O , 76-H ) :   0.1231 B(  6-C ,  7-C ) :   1.2051
B(  6-C , 13-C ) :   1.3731 B(  7-C ,  8-C ) :   0.9494 B(  8-C ,  9-O ) :   2.1792
B(  8-C , 10-N ) :   1.0155 B( 10-N , 11-C ) :   0.9475 B( 10-N , 13-C ) :   1.1560
B( 11-C , 12-C ) :   1.1207 B( 11-C , 70-H ) :   0.9270 B( 11-C , 71-H ) :   0.9502
B( 12-C , 72-H ) :   0.9639 B( 12-C , 73-H ) :   0.9678 B( 12-C , 74-H ) :   0.9682
B( 13-C , 14-C ) :   1.1610 B( 14-C , 15-C ) :   1.6306 B( 14-C , 75-H ) :   0.9640
B( 15-C , 16-C ) :   1.1181 B( 15-C , 76-H ) :   0.9326 B( 16-C , 17-S ) :   1.1296
B( 16-C , 20-C ) :   1.4522 B( 17-S , 18-C ) :   1.1485 B( 18-C , 19-C ) :   1.4186
B( 18-C , 23-C ) :   1.1581 B( 19-C , 20-C ) :   1.3249 B( 19-C , 21-C ) :   1.1156
B( 20-C , 77-H ) :   0.9997 B( 21-C , 22-N ) :   2.9721 B( 23-C , 24-C ) :   1.6213
B( 23-C , 78-H ) :   0.9461 B( 24-C , 25-C ) :   1.1404 B( 24-C , 79-H ) :   0.9663
B( 25-C , 26-C ) :   1.4992 B( 25-C , 29-C ) :   1.0420 B( 26-C , 27-C ) :   1.1243
B( 26-C , 80-H ) :   1.0103 B( 27-C , 28-C ) :   1.1058 B( 27-C , 32-C ) :   1.3839
B( 28-C , 29-C ) :   1.6840 B( 28-C , 30-C ) :   1.0886 B( 29-C , 81-H ) :   1.0139
B( 30-C , 31-N ) :   2.9643 B( 32-C , 33-C ) :   1.1374 B( 32-C , 36-C ) :   1.1081
B( 33-C , 34-C ) :   1.5547 B( 33-C , 82-H ) :   0.9996 B( 34-C , 35-C ) :   1.0424
B( 34-C , 39-C ) :   1.0878 B( 35-C , 36-C ) :   1.6841 B( 35-C , 83-H ) :   1.0126
B( 36-C , 37-C ) :   1.0828 B( 37-C , 38-N ) :   2.9697 B( 39-C , 40-S ) :   1.1171
B( 39-C , 43-C ) :   1.4598 B( 40-S , 41-C ) :   1.1535 B( 41-C , 42-C ) :   1.4021
B( 41-C , 46-C ) :   1.1670 B( 42-C , 43-C ) :   1.3114 B( 42-C , 44-C ) :   1.1120
B( 43-C , 84-H ) :   1.0065 B( 44-C , 45-N ) :   2.9661 B( 46-C , 47-C ) :   1.6009
B( 46-C , 85-H ) :   0.9216 B( 47-C , 48-C ) :   1.1745 B( 47-C , 86-H ) :   0.9479
B( 48-C , 49-N ) :   1.1612 B( 48-C , 55-C ) :   1.3403 B( 49-N , 50-C ) :   0.9415
B( 49-N , 52-C ) :   1.0568 B( 50-C , 51-C ) :   1.1233 B( 50-C , 87-H ) :   0.9481
B( 50-C , 88-H ) :   0.9267 B( 51-C , 89-H ) :   0.9674 B( 51-C , 90-H ) :   0.9674
B( 51-C , 91-H ) :   0.9635 B( 52-C , 53-O ) :   2.0507 B( 52-C , 54-C ) :   0.9799
B( 54-C , 55-C ) :   1.2467 B( 54-C , 61-C ) :   1.3675 B( 55-C , 56-C ) :   0.9904
B( 56-C , 57-O ) :   2.0162 B( 56-C , 58-N ) :   1.0580 B( 57-O , 85-H ) :   0.1176
B( 58-N , 59-C ) :   0.9469 B( 58-N , 61-C ) :   1.1696 B( 59-C , 60-C ) :   1.1194
B( 59-C , 92-H ) :   0.9285 B( 59-C , 93-H ) :   0.9507 B( 60-C , 94-H ) :   0.9639
B( 60-C , 95-H ) :   0.9680 B( 60-C , 96-H ) :   0.9687 B( 61-C , 62-C ) :   1.1285
B( 62-C , 63-C ) :   1.8820 B( 62-C , 97-H ) :   0.9540 B( 63-C , 98-H ) :   0.9271
B( 63-C , 99-H ) :   0.9451

-----------------------------------------------------------------------------
         ABSORPTION SPECTRUM VIA TRANSITION ELECTRIC DIPOLE MOMENTS
-----------------------------------------------------------------------------
State   Energy  Wavelength   fosc         T2         TX        TY        TZ
        (cm-1)    (nm)                  (au**2)     (au)      (au)      (au)
-----------------------------------------------------------------------------
   0   10719.6    932.9   1.244815766  38.22989  -1.09604   4.52803  -4.06516
   1   13854.1    721.8   0.123011478   2.92309  -0.31679   1.29907  -1.06543
   2   16999.8    588.2   0.109977945   2.12980   0.20510  -0.42353   1.38143
   3   17778.2    562.5   0.024452476   0.45280  -0.11830   0.25361  -0.61196
   4   18708.0    534.5   0.216008087   3.80118  -0.26571   0.67476  -1.80977
   5   20957.1    477.2   0.429222393   6.74258   0.33545  -1.08358   2.33579
   6   23636.6    423.1   0.959953975  13.37029   0.70587  -3.25181   1.51584
   7   25776.5    387.9   0.101547917   1.29695   0.18813  -0.99488   0.52131
   8   26178.7    382.0   0.181920824   2.28776   0.35140  -1.43374   0.32966
   9   26349.2    379.5   0.025076635   0.31331   0.07738  -0.54303   0.11157
  10   26436.7    378.3   0.001649198   0.02054   0.00285  -0.12207  -0.07502
  11   27790.3    359.8   0.005944093   0.07042   0.03354  -0.21834  -0.14704
  12   28466.6    351.3   0.010647615   0.12314   0.12534  -0.32711  -0.02060
  13   28643.4    349.1   0.075742722   0.87055  -0.13118   0.92279   0.04245
  14   28976.8    345.1   0.039464498   0.44837   0.00947   0.43687   0.50737
  15   29165.8    342.9   0.383462211   4.32836   0.44370  -2.03069   0.08826
  16   29463.0    339.4   0.011691688   0.13064  -0.00008  -0.35715   0.05554
  17   29758.4    336.0   0.027845486   0.30805  -0.04906   0.37714  -0.40424
  18   30704.4    325.7   0.032169736   0.34492   0.06833  -0.16041   0.56082
  19   31902.3    313.5   0.003371224   0.03479  -0.02534   0.18062   0.03901
  20   32118.2    311.4   0.079607701   0.81598   0.00940  -0.27619  -0.86001
  21   32151.8    311.0   0.012370722   0.12667  -0.00190  -0.12206  -0.33431
  22   32796.4    304.9   0.005904571   0.05927   0.02282  -0.04759   0.23767
  23   32848.1    304.4   0.007105923   0.07122   0.02749  -0.05365   0.25997
  24   33649.4    297.2   0.000229097   0.00224   0.00166   0.04555   0.01278
  25   33876.5    295.2   0.020782470   0.20196  -0.05658   0.40101  -0.19482
  26   34040.2    293.8   0.008054708   0.07790   0.08879  -0.13637   0.22676
  27   35223.6    283.9   0.000517810   0.00484  -0.04094  -0.01853  -0.05310
  28   35512.0    281.6   0.019581131   0.18153   0.00424   0.01705  -0.42570
  29   35963.0    278.1   0.008283462   0.07583   0.02873   0.11770   0.24729
  30   36037.1    277.5   0.009997257   0.09133   0.05054  -0.20211  -0.21892
  31   36746.9    272.1   0.045986921   0.41199  -0.16741   0.61003  -0.10874
  32   36752.7    272.1   0.041225122   0.36927   0.15479  -0.57372   0.12712
  33   36924.8    270.8   0.044170777   0.39382  -0.00333  -0.12878  -0.61418
  34   37385.6    267.5   0.032761775   0.28850   0.07636  -0.52963  -0.04638
  35   37586.9    266.1   0.000501558   0.00439  -0.04560   0.00757  -0.04751
  36   38165.1    262.0   0.019373983   0.16712   0.04339  -0.33141   0.23538
  37   38621.7    258.9   0.003586583   0.03057   0.04926  -0.16445   0.03319
  38   38739.8    258.1   0.293771774   2.49648  -0.36711   1.47389  -0.43515
  39   39204.6    255.1   0.043630460   0.36638   0.07508  -0.33048   0.50152
  40   39529.6    253.0   0.001574877   0.01312  -0.02492   0.09502  -0.05887
  41   39786.7    251.3   0.102805801   0.85066   0.12897  -0.88895  -0.20926
  42   40282.6    248.2   0.031003112   0.25337  -0.09249   0.47914  -0.12346

FINAL SINGLE POINT ENERGY     -3458.586994492611

DIPOLE MOMENT
-------------
                                X             Y             Z
Electronic contribution:      0.21957      -3.40378       2.12399
Nuclear contribution   :     -0.16099       2.94300      -1.94062
                        -----------------------------------------
Total Dipole Moment    :      0.05858      -0.46077       0.18336
                        -----------------------------------------
Magnitude (a.u.)       :      0.49937
Magnitude (Debye)      :      1.26929

Rotational constants in cm-1:     0.003882     0.000191     0.000183
Rotational constants in MHz :   116.388119     5.733064     5.477454

                             ****ORCA TERMINATED NORMALLY****
TOTAL RUN TIME: 0 days 0 hours 9 minutes 17 seconds 934 msec
