                         Program Version 4.2.0 -  RELEASE  -
|  1> # ORCA input file
|  2> # SCF done       -162.015003150081          0.000674501539
|  3> ! CAM-B3LYP def2-SVP def2/J RIJCOSX Grid4 TightSCF
|  4> %maxcore 5000
|  5> %tddft
|  6>     Mode sTDDFT
|  7>     Ethresh 5.0
|  8>     maxcore 5000
|  9> end
| 10>
| 11> %pal
| 12>   nprocs 6
| 13>   end
| 14> * xyz 0 1
| 15>    C        2.02934         0.40937        -0.43852
| 16>    N        2.39033         1.61228        -0.96242
| 17>    C        3.48916         1.84082        -1.86667
| 18>    C        3.18978         1.30175        -3.26292
| 19>    C        1.50257         2.63385        -0.56271
| 20>    O        1.62488         3.79810        -0.90265
| 21>    C        0.54495         1.95795         0.27471
| 22>    C        0.90936         0.57534         0.32644
| 23>    C       -0.06110        -0.11072         1.16007
| 24>    O       -0.17072        -1.26844         1.49525
| 25>    N       -0.95741         0.90409         1.54519
| 26>    C       -2.05213         0.63646         2.44764
| 27>    C       -1.72482         1.06660         3.87498
| 28>    C       -0.60708         2.13274         1.03328
| 29>    C       -1.36311         3.31015         1.25734
| 30>    C       -0.97207         4.53083         0.80171
| 31>    C       -1.75972         5.68951         1.00798
| 32>    N       -1.39116         6.95011         0.60303
| 33>    C       -0.18859         7.30528        -0.11260
| 34>    C       -0.27911         6.95625        -1.59563
| 35>    C       -2.36647         7.91636         0.92130
| 36>    O       -2.25151         9.09765         0.67395
| 37>    C       -3.41053         7.15750         1.57804
| 38>    C       -3.00761         5.80020         1.62345
| 39>    C       -4.05739         5.05990         2.27978
| 40>    O       -4.16273         3.88307         2.57928
| 41>    N       -5.04375         6.01913         2.57125
| 42>    C       -6.24639         5.61671         3.25947
| 43>    C       -7.34325         5.19606         2.28333
| 44>    C       -4.67318         7.27652         2.14778
| 45>    C       -5.38973         8.50483         2.23751
| 46>    C       -6.69605         8.71763         2.48818
| 47>    C       -7.27267        10.04701         2.50546
| 48>    N       -8.60436        10.10041         2.61625
| 49>    C       -9.15773        11.29979         2.60939
| 50>    C       -8.41156        12.46065         2.50728
| 51>    C       -7.01812        12.31131         2.42475
| 52>    N       -6.46731        11.09868         2.41824
| 53>    C       -6.14922        13.46552         2.36557
| 54>    C       -4.80731        13.36675         2.35540
| 55>    C       -3.91365        14.47980         2.34370
| 56>    S       -2.20020        14.21783         2.53972
| 57>    C       -1.86779        15.91774         2.48952
| 58>    C       -3.04110        16.64419         2.28290
| 59>    C       -4.18284        15.82015         2.22251
| 60>    C       -3.11845        18.07156         2.00365
| 61>    O       -4.12726        18.73167         2.05617
| 62>    C       -0.54041        16.37648         2.72901
| 63>    C       -0.23396        17.58523         3.25043
| 64>    C        1.09134        18.05484         3.49133
| 65>    S        1.31244        19.59372         4.28823
| 66>    C        3.03423        19.45144         4.23201
| 67>    C        3.41149        18.27285         3.59961
| 68>    C        2.30634        17.49049         3.19838
| 69>    C        4.77864        17.90407         3.25057
| 70>    O        5.12660        16.80376         2.90159
| 71>    C        3.84026        20.47213         4.84898
| 72>    C        5.02956        20.27312         5.41271
| 73>    H        2.60080        -0.47693        -0.64295
| 74>    H        4.39170         1.37131        -1.46335
| 75>    H        3.63546         2.92358        -1.90660
| 76>    H        3.01935         0.22787        -3.23202
| 77>    H        4.02810         1.50294        -3.92392
| 78>    H        2.30278         1.78278        -3.66789
| 79>    H       -2.21227        -0.44474         2.41476
| 80>    H       -2.95400         1.14377         2.09681
| 81>    H       -0.83406         0.55139         4.22712
| 82>    H       -2.55499         0.81847         4.52978
| 83>    H       -1.55405         2.13937         3.92388
| 84>    H       -2.29063         3.22015         1.80440
| 85>    H       -0.03935         4.62882         0.26532
| 86>    H        0.67049         6.80630         0.34265
| 87>    H       -0.07939         8.38713         0.00583
| 88>    H       -0.34161         5.88082        -1.73882
| 89>    H        0.60753         7.31864        -2.10749
| 90>    H       -1.15501         7.42503        -2.03797
| 91>    H       -6.57563         6.42795         3.91120
| 92>    H       -5.97276         4.75487         3.87664
| 93>    H       -7.57549         5.99509         1.58296
| 94>    H       -8.24430         4.93373         2.83086
| 95>    H       -7.01437         4.32800         1.71740
| 96>    H       -4.77944         9.37264         2.01892
| 97>    H       -7.41623         7.93248         2.64675
| 98>    H      -10.23754        11.32189         2.69148
| 99>    H       -8.87286        13.43471         2.50168
|100>    H       -6.63900        14.42839         2.35407
|101>    H       -4.36519        12.38035         2.37936
|102>    H       -5.16393        16.22890         2.06335
|103>    H       -2.15995        18.52127         1.67836
|104>    H        0.24865        15.66444         2.53123
|105>    H       -1.02785        18.25532         3.55006
|106>    H        2.43386        16.55234         2.69014
|107>    H        5.49672        18.74517         3.29229
|108>    H        3.38776        21.45541         4.88019
|109>    H        5.48158        19.29814         5.47313
|110>    H        5.57635        21.08697         5.85598
|111> *
|112>
|113>                          ****END OF INPUT****

CARTESIAN COORDINATES (ANGSTROEM)
---------------------------------
  C      2.029340    0.409370   -0.438520
  N      2.390330    1.612280   -0.962420
  C      3.489160    1.840820   -1.866670
  C      3.189780    1.301750   -3.262920
  C      1.502570    2.633850   -0.562710
  O      1.624880    3.798100   -0.902650
  C      0.544950    1.957950    0.274710
  C      0.909360    0.575340    0.326440
  C     -0.061100   -0.110720    1.160070
  O     -0.170720   -1.268440    1.495250
  N     -0.957410    0.904090    1.545190
  C     -2.052130    0.636460    2.447640
  C     -1.724820    1.066600    3.874980
  C     -0.607080    2.132740    1.033280
  C     -1.363110    3.310150    1.257340
  C     -0.972070    4.530830    0.801710
  C     -1.759720    5.689510    1.007980
  N     -1.391160    6.950110    0.603030
  C     -0.188590    7.305280   -0.112600
  C     -0.279110    6.956250   -1.595630
  C     -2.366470    7.916360    0.921300
  O     -2.251510    9.097650    0.673950
  C     -3.410530    7.157500    1.578040
  C     -3.007610    5.800200    1.623450
  C     -4.057390    5.059900    2.279780
  O     -4.162730    3.883070    2.579280
  N     -5.043750    6.019130    2.571250
  C     -6.246390    5.616710    3.259470
  C     -7.343250    5.196060    2.283330
  C     -4.673180    7.276520    2.147780
  C     -5.389730    8.504830    2.237510
  C     -6.696050    8.717630    2.488180
  C     -7.272670   10.047010    2.505460
  N     -8.604360   10.100410    2.616250
  C     -9.157730   11.299790    2.609390
  C     -8.411560   12.460650    2.507280
  C     -7.018120   12.311310    2.424750
  N     -6.467310   11.098680    2.418240
  C     -6.149220   13.465520    2.365570
  C     -4.807310   13.366750    2.355400
  C     -3.913650   14.479800    2.343700
  S     -2.200200   14.217830    2.539720
  C     -1.867790   15.917740    2.489520
  C     -3.041100   16.644190    2.282900
  C     -4.182840   15.820150    2.222510
  C     -3.118450   18.071560    2.003650
  O     -4.127260   18.731670    2.056170
  C     -0.540410   16.376480    2.729010
  C     -0.233960   17.585230    3.250430
  C      1.091340   18.054840    3.491330
  S      1.312440   19.593720    4.288230
  C      3.034230   19.451440    4.232010
  C      3.411490   18.272850    3.599610
  C      2.306340   17.490490    3.198380
  C      4.778640   17.904070    3.250570
  O      5.126600   16.803760    2.901590
  C      3.840260   20.472130    4.848980
  C      5.029560   20.273120    5.412710
  H      2.600800   -0.476930   -0.642950
  H      4.391700    1.371310   -1.463350
  H      3.635460    2.923580   -1.906600
  H      3.019350    0.227870   -3.232020
  H      4.028100    1.502940   -3.923920
  H      2.302780    1.782780   -3.667890
  H     -2.212270   -0.444740    2.414760
  H     -2.954000    1.143770    2.096810
  H     -0.834060    0.551390    4.227120
  H     -2.554990    0.818470    4.529780
  H     -1.554050    2.139370    3.923880
  H     -2.290630    3.220150    1.804400
  H     -0.039350    4.628820    0.265320
  H      0.670490    6.806300    0.342650
  H     -0.079390    8.387130    0.005830
  H     -0.341610    5.880820   -1.738820
  H      0.607530    7.318640   -2.107490
  H     -1.155010    7.425030   -2.037970
  H     -6.575630    6.427950    3.911200
  H     -5.972760    4.754870    3.876640
  H     -7.575490    5.995090    1.582960
  H     -8.244300    4.933730    2.830860
  H     -7.014370    4.328000    1.717400
  H     -4.779440    9.372640    2.018920
  H     -7.416230    7.932480    2.646750
  H    -10.237540   11.321890    2.691480
  H     -8.872860   13.434710    2.501680
  H     -6.639000   14.428390    2.354070
  H     -4.365190   12.380350    2.379360
  H     -5.163930   16.228900    2.063350
  H     -2.159950   18.521270    1.678360
  H      0.248650   15.664440    2.531230
  H     -1.027850   18.255320    3.550060
  H      2.433860   16.552340    2.690140
  H      5.496720   18.745170    3.292290
  H      3.387760   21.455410    4.880190
  H      5.481580   19.298140    5.473130
  H      5.576350   21.086970    5.855980

 Total Charge           Charge          ....    0
 Multiplicity           Mult            ....    1
 Number of Electrons    NEL             ....  424
 Basis Dimension        Dim             .... 1010

ORBITAL ENERGIES
----------------

  NO   OCC          E(Eh)            E(eV)
   0   2.0000     -88.970123     -2421.0001
   1   2.0000     -88.965584     -2420.8766
   2   2.0000     -19.208835      -522.6990
   3   2.0000     -19.206869      -522.6455
   4   2.0000     -19.191649      -522.2313
   5   2.0000     -19.191378      -522.2239
   6   2.0000     -19.185002      -522.0505
   7   2.0000     -19.181517      -521.9556
   8   2.0000     -14.452664      -393.2770
   9   2.0000     -14.451561      -393.2470
  10   2.0000     -14.447989      -393.1498
  11   2.0000     -14.445623      -393.0854
  12   2.0000     -14.406479      -392.0202
  13   2.0000     -14.404528      -391.9671
  14   2.0000     -10.372417      -282.2478
  15   2.0000     -10.372107      -282.2394
  16   2.0000     -10.369366      -282.1648
  17   2.0000     -10.368029      -282.1284
  18   2.0000     -10.354588      -281.7627
  19   2.0000     -10.353252      -281.7263
  20   2.0000     -10.340407      -281.3768
  21   2.0000     -10.337569      -281.2996
  22   2.0000     -10.337061      -281.2857
  23   2.0000     -10.334125      -281.2058
  24   2.0000     -10.327831      -281.0346
  25   2.0000     -10.327669      -281.0302
  26   2.0000     -10.323442      -280.9151
  27   2.0000     -10.321432      -280.8604
  28   2.0000     -10.318273      -280.7745
  29   2.0000     -10.313876      -280.6548
  30   2.0000     -10.308539      -280.5096
  31   2.0000     -10.308036      -280.4959
  32   2.0000     -10.303739      -280.3790
  33   2.0000     -10.301730      -280.3243
  34   2.0000     -10.298073      -280.2248
  35   2.0000     -10.297775      -280.2167
  36   2.0000     -10.297560      -280.2108
  37   2.0000     -10.295464      -280.1538
  38   2.0000     -10.290849      -280.0282
  39   2.0000     -10.290619      -280.0220
  40   2.0000     -10.289359      -279.9877
  41   2.0000     -10.286343      -279.9056
  42   2.0000     -10.286238      -279.9028
  43   2.0000     -10.285758      -279.8897
  44   2.0000     -10.285657      -279.8870
  45   2.0000     -10.282829      -279.8100
  46   2.0000     -10.282683      -279.8060
  47   2.0000     -10.282244      -279.7941
  48   2.0000     -10.280421      -279.7445
  49   2.0000     -10.277529      -279.6658
  50   2.0000     -10.265066      -279.3266
  51   2.0000     -10.259211      -279.1673
  52   2.0000     -10.258647      -279.1520
  53   2.0000     -10.258234      -279.1407
  54   2.0000     -10.258037      -279.1354
  55   2.0000     -10.257339      -279.1164
  56   2.0000     -10.251282      -278.9516
  57   2.0000     -10.250259      -278.9237
  58   2.0000      -8.066255      -219.4940
  59   2.0000      -8.061574      -219.3666
  60   2.0000      -6.035360      -164.2305
  61   2.0000      -6.031273      -164.1193
  62   2.0000      -6.030663      -164.1027
  63   2.0000      -6.028590      -164.0463
  64   2.0000      -6.026595      -163.9920
  65   2.0000      -6.023908      -163.9189
  66   2.0000      -1.130582       -30.7647
  67   2.0000      -1.129414       -30.7329
  68   2.0000      -1.122593       -30.5473
  69   2.0000      -1.122100       -30.5339
  70   2.0000      -1.120917       -30.5017
  71   2.0000      -1.119905       -30.4742
  72   2.0000      -1.079917       -29.3860
  73   2.0000      -1.059896       -28.8412
  74   2.0000      -1.059565       -28.8322
  75   2.0000      -1.051168       -28.6037
  76   2.0000      -1.049718       -28.5643
  77   2.0000      -1.000290       -27.2193
  78   2.0000      -0.994765       -27.0689
  79   2.0000      -0.978716       -26.6322
  80   2.0000      -0.925567       -25.1860
  81   2.0000      -0.924352       -25.1529
  82   2.0000      -0.922927       -25.1141
  83   2.0000      -0.916846       -24.9486
  84   2.0000      -0.908398       -24.7188
  85   2.0000      -0.897398       -24.4195
  86   2.0000      -0.881065       -23.9750
  87   2.0000      -0.871462       -23.7137
  88   2.0000      -0.867123       -23.5956
  89   2.0000      -0.861745       -23.4493
  90   2.0000      -0.855751       -23.2862
  91   2.0000      -0.850059       -23.1313
  92   2.0000      -0.831112       -22.6157
  93   2.0000      -0.829416       -22.5696
  94   2.0000      -0.815159       -22.1816
  95   2.0000      -0.813765       -22.1437
  96   2.0000      -0.801708       -21.8156
  97   2.0000      -0.795089       -21.6355
  98   2.0000      -0.791816       -21.5464
  99   2.0000      -0.758421       -20.6377
 100   2.0000      -0.755820       -20.5669
 101   2.0000      -0.753860       -20.5136
 102   2.0000      -0.748420       -20.3655
 103   2.0000      -0.744328       -20.2542
 104   2.0000      -0.732455       -19.9311
 105   2.0000      -0.725514       -19.7422
 106   2.0000      -0.705390       -19.1946
 107   2.0000      -0.703969       -19.1560
 108   2.0000      -0.701686       -19.0938
 109   2.0000      -0.696292       -18.9471
 110   2.0000      -0.679960       -18.5026
 111   2.0000      -0.676109       -18.3979
 112   2.0000      -0.670334       -18.2407
 113   2.0000      -0.668415       -18.1885
 114   2.0000      -0.653453       -17.7814
 115   2.0000      -0.652523       -17.7560
 116   2.0000      -0.645634       -17.5686
 117   2.0000      -0.642762       -17.4905
 118   2.0000      -0.640959       -17.4414
 119   2.0000      -0.627414       -17.0728
 120   2.0000      -0.616121       -16.7655
 121   2.0000      -0.608430       -16.5562
 122   2.0000      -0.601459       -16.3665
 123   2.0000      -0.593895       -16.1607
 124   2.0000      -0.591534       -16.0965
 125   2.0000      -0.589421       -16.0390
 126   2.0000      -0.584779       -15.9126
 127   2.0000      -0.582225       -15.8432
 128   2.0000      -0.576982       -15.7005
 129   2.0000      -0.571842       -15.5606
 130   2.0000      -0.568143       -15.4600
 131   2.0000      -0.562444       -15.3049
 132   2.0000      -0.559408       -15.2223
 133   2.0000      -0.556673       -15.1479
 134   2.0000      -0.550024       -14.9669
 135   2.0000      -0.547596       -14.9008
 136   2.0000      -0.542774       -14.7696
 137   2.0000      -0.536708       -14.6046
 138   2.0000      -0.536468       -14.5980
 139   2.0000      -0.531449       -14.4615
 140   2.0000      -0.528617       -14.3844
 141   2.0000      -0.526720       -14.3328
 142   2.0000      -0.525437       -14.2979
 143   2.0000      -0.523099       -14.2342
 144   2.0000      -0.522001       -14.2044
 145   2.0000      -0.521339       -14.1864
 146   2.0000      -0.519587       -14.1387
 147   2.0000      -0.514133       -13.9903
 148   2.0000      -0.511093       -13.9075
 149   2.0000      -0.510468       -13.8905
 150   2.0000      -0.509067       -13.8524
 151   2.0000      -0.506275       -13.7764
 152   2.0000      -0.502426       -13.6717
 153   2.0000      -0.500686       -13.6244
 154   2.0000      -0.500078       -13.6078
 155   2.0000      -0.496664       -13.5149
 156   2.0000      -0.496549       -13.5118
 157   2.0000      -0.492577       -13.4037
 158   2.0000      -0.491046       -13.3621
 159   2.0000      -0.488647       -13.2968
 160   2.0000      -0.475619       -12.9422
 161   2.0000      -0.472113       -12.8468
 162   2.0000      -0.469446       -12.7743
 163   2.0000      -0.469224       -12.7682
 164   2.0000      -0.468493       -12.7483
 165   2.0000      -0.464371       -12.6362
 166   2.0000      -0.464073       -12.6281
 167   2.0000      -0.459481       -12.5031
 168   2.0000      -0.458904       -12.4874
 169   2.0000      -0.456827       -12.4309
 170   2.0000      -0.455610       -12.3978
 171   2.0000      -0.451826       -12.2948
 172   2.0000      -0.449600       -12.2342
 173   2.0000      -0.447249       -12.1703
 174   2.0000      -0.446741       -12.1565
 175   2.0000      -0.445197       -12.1144
 176   2.0000      -0.443326       -12.0635
 177   2.0000      -0.441887       -12.0244
 178   2.0000      -0.438489       -11.9319
 179   2.0000      -0.435432       -11.8487
 180   2.0000      -0.433668       -11.8007
 181   2.0000      -0.431332       -11.7372
 182   2.0000      -0.430641       -11.7183
 183   2.0000      -0.427924       -11.6444
 184   2.0000      -0.423878       -11.5343
 185   2.0000      -0.420351       -11.4383
 186   2.0000      -0.418199       -11.3798
 187   2.0000      -0.415378       -11.3030
 188   2.0000      -0.409969       -11.1558
 189   2.0000      -0.404554       -11.0085
 190   2.0000      -0.402528       -10.9533
 191   2.0000      -0.385669       -10.4946
 192   2.0000      -0.382225       -10.4009
 193   2.0000      -0.376589       -10.2475
 194   2.0000      -0.351454        -9.5636
 195   2.0000      -0.347170        -9.4470
 196   2.0000      -0.343510        -9.3474
 197   2.0000      -0.340670        -9.2701
 198   2.0000      -0.333932        -9.0868
 199   2.0000      -0.330490        -8.9931
 200   2.0000      -0.329061        -8.9542
 201   2.0000      -0.327902        -8.9227
 202   2.0000      -0.325767        -8.8646
 203   2.0000      -0.325497        -8.8572
 204   2.0000      -0.323346        -8.7987
 205   2.0000      -0.322250        -8.7689
 206   2.0000      -0.311272        -8.4701
 207   2.0000      -0.310054        -8.4370
 208   2.0000      -0.297945        -8.1075
 209   2.0000      -0.260268        -7.0822
 210   2.0000      -0.256304        -6.9744
 211   2.0000      -0.232843        -6.3360
 212   0.0000      -0.094355        -2.5675
 213   0.0000      -0.066887        -1.8201
 214   0.0000      -0.042407        -1.1540
 215   0.0000      -0.038219        -1.0400
 216   0.0000      -0.026194        -0.7128

MULLIKEN ATOMIC CHARGES
-----------------------
   0 C :    0.037688
   1 N :   -0.258568
   2 C :    0.112233
   3 C :   -0.006056
   4 C :    0.172614
   5 O :   -0.217979
   6 C :   -0.099252
   7 C :    0.005974
   8 C :    0.164398
   9 O :   -0.183330
  10 N :   -0.265801
  11 C :    0.094781
  12 C :    0.009180
  13 C :    0.153271
  14 C :   -0.015460
  15 C :   -0.011535
  16 C :    0.134186
  17 N :   -0.262414
  18 C :    0.100280
  19 C :    0.010319
  20 C :    0.146071
  21 O :   -0.189117
  22 C :   -0.028784
  23 C :   -0.056304
  24 C :    0.163386
  25 O :   -0.225108
  26 N :   -0.261730
  27 C :    0.109894
  28 C :    0.003949
  29 C :    0.110551
  30 C :   -0.001419
  31 C :    0.034711
  32 C :   -0.081466
  33 N :   -0.070371
  34 C :    0.080095
  35 C :   -0.046303
  36 C :    0.053375
  37 N :   -0.056322
  38 C :   -0.017240
  39 C :    0.104345
  40 C :   -0.067626
  41 S :    0.167308
  42 C :   -0.099355
  43 C :    0.012965
  44 C :   -0.014448
  45 C :    0.116447
  46 O :   -0.189124
  47 C :    0.036141
  48 C :    0.062837
  49 C :   -0.090105
  50 S :    0.148700
  51 C :   -0.109775
  52 C :    0.018566
  53 C :   -0.010796
  54 C :    0.121574
  55 O :   -0.185749
  56 C :    0.009424
  57 C :   -0.015305
  58 H :    0.016155
  59 H :    0.018947
  60 H :    0.042834
  61 H :    0.017110
  62 H :    0.024782
  63 H :    0.030207
  64 H :    0.038633
  65 H :    0.041497
  66 H :    0.021738
  67 H :    0.023926
  68 H :    0.018111
  69 H :   -0.000984
  70 H :   -0.001937
  71 H :    0.033167
  72 H :    0.038066
  73 H :    0.023994
  74 H :    0.021513
  75 H :    0.019253
  76 H :    0.026708
  77 H :    0.034638
  78 H :    0.023227
  79 H :    0.021282
  80 H :    0.027873
  81 H :    0.027668
  82 H :   -0.015477
  83 H :    0.006987
  84 H :   -0.006173
  85 H :   -0.018888
  86 H :    0.016095
  87 H :   -0.004958
  88 H :   -0.005872
  89 H :    0.003121
  90 H :   -0.000318
  91 H :   -0.001911
  92 H :   -0.007074
  93 H :    0.011545
  94 H :    0.038822
  95 H :    0.037278
Sum of atomic charges:   -0.0000000

LOEWDIN ATOMIC CHARGES
----------------------
   0 C :    0.090428
   1 N :    0.000381
   2 C :    0.038078
   3 C :   -0.060822
   4 C :    0.077651
   5 O :   -0.209698
   6 C :   -0.124937
   7 C :   -0.125348
   8 C :    0.081338
   9 O :   -0.188435
  10 N :   -0.003328
  11 C :    0.036518
  12 C :   -0.059060
  13 C :    0.080408
  14 C :   -0.000694
  15 C :   -0.000558
  16 C :    0.078135
  17 N :   -0.000425
  18 C :    0.037068
  19 C :   -0.059035
  20 C :    0.080147
  21 O :   -0.193276
  22 C :   -0.110377
  23 C :   -0.121275
  24 C :    0.081540
  25 O :   -0.210282
  26 N :    0.002071
  27 C :    0.036809
  28 C :   -0.062040
  29 C :    0.069820
  30 C :   -0.002983
  31 C :   -0.020145
  32 C :    0.026046
  33 N :   -0.097684
  34 C :    0.049062
  35 C :   -0.065477
  36 C :    0.038629
  37 N :   -0.083858
  38 C :   -0.041150
  39 C :    0.006427
  40 C :   -0.173139
  41 S :    0.466172
  42 C :   -0.145169
  43 C :   -0.116984
  44 C :   -0.015654
  45 C :    0.096461
  46 O :   -0.142770
  47 C :   -0.038723
  48 C :   -0.026853
  49 C :   -0.172501
  50 S :    0.455864
  51 C :   -0.147416
  52 C :   -0.113399
  53 C :   -0.019562
  54 C :    0.100320
  55 O :   -0.138778
  56 C :   -0.046092
  57 C :   -0.019156
  58 H :    0.032852
  59 H :    0.024587
  60 H :    0.036077
  61 H :    0.022832
  62 H :    0.030708
  63 H :    0.031446
  64 H :    0.035840
  65 H :    0.030126
  66 H :    0.027991
  67 H :    0.031851
  68 H :    0.023592
  69 H :    0.036448
  70 H :    0.036686
  71 H :    0.028168
  72 H :    0.035377
  73 H :    0.024971
  74 H :    0.031584
  75 H :    0.027450
  76 H :    0.025566
  77 H :    0.034746
  78 H :    0.022954
  79 H :    0.030419
  80 H :    0.031901
  81 H :    0.048176
  82 H :    0.031883
  83 H :    0.026608
  84 H :    0.033140
  85 H :    0.027673
  86 H :    0.038805
  87 H :    0.035266
  88 H :   -0.002296
  89 H :    0.034006
  90 H :    0.031540
  91 H :    0.035966
  92 H :   -0.001326
  93 H :    0.034614
  94 H :    0.027806
  95 H :    0.031674

  Mayer bond orders larger than 0.100000
B(  0-C ,  1-N ) :   1.1859 B(  0-C ,  7-C ) :   1.4577 B(  0-C , 58-H ) :   0.9899
B(  1-N ,  2-C ) :   0.9420 B(  1-N ,  4-C ) :   1.0611 B(  2-C ,  3-C ) :   1.1182
B(  2-C , 59-H ) :   0.9539 B(  2-C , 60-H ) :   0.9347 B(  3-C , 61-H ) :   0.9695
B(  3-C , 62-H ) :   0.9689 B(  3-C , 63-H ) :   0.9672 B(  4-C ,  5-O ) :   2.0115
B(  4-C ,  6-C ) :   1.0070 B(  6-C ,  7-C ) :   1.2091 B(  6-C , 13-C ) :   1.3597
B(  7-C ,  8-C ) :   0.9428 B(  8-C ,  9-O ) :   2.1807 B(  8-C , 10-N ) :   1.0226
B( 10-N , 11-C ) :   0.9390 B( 10-N , 13-C ) :   1.1670 B( 11-C , 12-C ) :   1.1248
B( 11-C , 64-H ) :   0.9280 B( 11-C , 65-H ) :   0.9469 B( 12-C , 66-H ) :   0.9646
B( 12-C , 67-H ) :   0.9677 B( 12-C , 68-H ) :   0.9666 B( 13-C , 14-C ) :   1.1450
B( 14-C , 15-C ) :   1.5527 B( 14-C , 69-H ) :   0.9445 B( 15-C , 16-C ) :   1.1461
B( 15-C , 70-H ) :   0.9536 B( 16-C , 17-N ) :   1.1749 B( 16-C , 23-C ) :   1.3185
B( 17-N , 18-C ) :   0.9374 B( 17-N , 20-C ) :   1.0325 B( 18-C , 19-C ) :   1.1259
B( 18-C , 71-H ) :   0.9481 B( 18-C , 72-H ) :   0.9281 B( 19-C , 73-H ) :   0.9657
B( 19-C , 74-H ) :   0.9670 B( 19-C , 75-H ) :   0.9632 B( 20-C , 21-O ) :   2.1459
B( 20-C , 22-C ) :   0.9685 B( 22-C , 23-C ) :   1.2412 B( 22-C , 29-C ) :   1.3612
B( 23-C , 24-C ) :   0.9965 B( 24-C , 25-O ) :   1.9950 B( 24-C , 26-N ) :   1.0714
B( 25-O , 69-H ) :   0.1080 B( 26-N , 27-C ) :   0.9424 B( 26-N , 29-C ) :   1.1672
B( 27-C , 28-C ) :   1.1191 B( 27-C , 76-H ) :   0.9495 B( 27-C , 77-H ) :   0.9286
B( 28-C , 78-H ) :   0.9666 B( 28-C , 79-H ) :   0.9687 B( 28-C , 80-H ) :   0.9608
B( 29-C , 30-C ) :   1.1275 B( 30-C , 31-C ) :   1.6343 B( 30-C , 81-H ) :   0.9515
B( 31-C , 32-C ) :   1.0177 B( 31-C , 82-H ) :   0.9707 B( 32-C , 33-N ) :   1.5400
B( 32-C , 37-N ) :   1.5509 B( 33-N , 34-C ) :   1.5385 B( 34-C , 35-C ) :   1.3805
B( 34-C , 83-H ) :   0.9795 B( 35-C , 36-C ) :   1.3162 B( 35-C , 84-H ) :   0.9772
B( 36-C , 37-N ) :   1.5216 B( 36-C , 38-C ) :   1.0782 B( 38-C , 39-C ) :   1.7336
B( 38-C , 85-H ) :   0.9752 B( 39-C , 40-C ) :   1.0746 B( 39-C , 86-H ) :   0.9655
B( 40-C , 41-S ) :   1.1047 B( 40-C , 44-C ) :   1.5059 B( 41-S , 42-C ) :   1.1645
B( 42-C , 43-C ) :   1.4159 B( 42-C , 47-C ) :   1.1156 B( 43-C , 44-C ) :   1.2525
B( 43-C , 45-C ) :   0.9768 B( 44-C , 87-H ) :   1.0024 B( 45-C , 46-O ) :   2.1701
B( 45-C , 88-H ) :   0.9585 B( 47-C , 48-C ) :   1.7173 B( 47-C , 89-H ) :   0.9552
B( 48-C , 49-C ) :   1.1129 B( 48-C , 90-H ) :   0.9596 B( 49-C , 50-S ) :   1.1052
B( 49-C , 53-C ) :   1.5146 B( 50-S , 51-C ) :   1.1640 B( 51-C , 52-C ) :   1.4543
B( 51-C , 56-C ) :   1.0747 B( 52-C , 53-C ) :   1.2443 B( 52-C , 54-C ) :   0.9762
B( 53-C , 91-H ) :   0.9995 B( 54-C , 55-O ) :   2.1759 B( 54-C , 92-H ) :   0.9577
B( 56-C , 57-C ) :   1.9360 B( 56-C , 93-H ) :   0.9524 B( 57-C , 94-H ) :   0.9636
B( 57-C , 95-H ) :   0.9498

-----------------------------------------------------------------------------
         ABSORPTION SPECTRUM VIA TRANSITION ELECTRIC DIPOLE MOMENTS
-----------------------------------------------------------------------------
State   Energy  Wavelength   fosc         T2         TX        TY        TZ
        (cm-1)    (nm)                  (au**2)     (au)      (au)      (au)
-----------------------------------------------------------------------------
   0   14682.9    681.1   0.716376891  16.06224   3.00169  -2.27836  -1.36425
   1   19433.4    514.6   0.007489095   0.12687   0.23665  -0.01635  -0.26570
   2   24610.8    406.3   0.243994348   3.26385  -1.30737  -1.22262  -0.24464
   3   24744.0    404.1   0.199974180   2.66060   1.20048   1.07479   0.25352
   4   25206.1    396.7   0.608224969   7.94392  -2.49413  -1.24051  -0.42938
   5   25571.6    391.1   0.563500436   7.25457  -2.14852  -1.56091  -0.44942
   6   26285.1    380.4   0.111755689   1.39970   1.10653   0.26048   0.32779
   7   26621.4    375.6   0.008168689   0.10102   0.26624   0.16473  -0.05475
   8   27898.2    358.4   0.003123803   0.03686   0.16743  -0.07445   0.05734
   9   28838.1    346.8   0.001797204   0.02052   0.10107  -0.00465   0.10139
  10   31094.7    321.6   0.084299196   0.89251  -0.15862  -0.91263   0.18560
  11   31160.5    320.9   0.002575792   0.02721   0.12309   0.09626  -0.05287
  12   31657.1    315.9   0.021758065   0.22627   0.05038  -0.45715   0.12143
  13   31710.7    315.4   0.038954045   0.40441   0.09179   0.60758  -0.16382
  14   31933.0    313.2   0.158676831   1.63587  -0.44406  -1.07463   0.53278
  15   32222.7    310.3   0.037674481   0.38491  -0.11643  -0.60737  -0.04963
  16   32567.0    307.1   0.019480066   0.19692   0.31594  -0.31042  -0.02715
  17   33101.0    302.1   0.181898427   1.80910  -0.85216   1.00665   0.26378
  18   33324.4    300.1   0.109744001   1.08416  -1.03223  -0.12501   0.05503
  19   33843.5    295.5   0.011806666   0.11485   0.16459  -0.25693   0.14747
  20   34100.6    293.2   0.135410020   1.30727   0.18587  -1.10538   0.22550
  21   34157.0    292.8   0.246059792   2.37157  -0.56786   1.43125  -0.02535
  22   34535.9    289.6   0.234596560   2.23628   0.75802  -1.28288  -0.12617
  23   34994.6    285.8   0.010464659   0.09845  -0.14651   0.16439   0.22351
  24   35084.5    285.0   0.036919254   0.34643   0.16494  -0.13372  -0.54894
  25   36052.6    277.4   0.006812430   0.06221   0.08737  -0.23058  -0.03752
  26   36947.6    270.7   0.004885625   0.04353  -0.16062   0.13256   0.01270
  27   37113.8    269.4   0.046474425   0.41224   0.56584  -0.26325  -0.15088
  28   39509.5    253.1   0.008799822   0.07332   0.07272  -0.25032   0.07330
  29   39603.9    252.5   0.281916524   2.34347  -0.23344   1.49878  -0.20648
  30   40023.4    249.9   0.010123125   0.08327  -0.28560   0.02511   0.03270

FINAL SINGLE POINT ENERGY     -3272.457138815503

DIPOLE MOMENT
-------------
                                X             Y             Z
Electronic contribution:     -6.20240      47.72604      12.54229
Nuclear contribution   :      6.67414     -46.46195     -12.23815
                        -----------------------------------------
Total Dipole Moment    :      0.47174       1.26409       0.30414
                        -----------------------------------------
Magnitude (a.u.)       :      1.38310
Magnitude (Debye)      :      3.51556

Rotational constants in cm-1:     0.001402     0.000445     0.000355
Rotational constants in MHz :    42.034369    13.347783    10.629701

                             ****ORCA TERMINATED NORMALLY****
TOTAL RUN TIME: 0 days 0 hours 6 minutes 57 seconds 579 msec
