                         Program Version 4.2.0 -  RELEASE  -
|  1> # ORCA input file
|  2> # SCF done       -204.533077207428          0.000534436713
|  3> ! CAM-B3LYP def2-SVP def2/J RIJCOSX Grid4 TightSCF
|  4> %maxcore 5000
|  5> %tddft
|  6>     Mode sTDDFT
|  7>     Ethresh 5.0
|  8>     maxcore 5000
|  9> end
| 10>
| 11> %pal
| 12>   nprocs 6
| 13>   end
| 14> * xyz 0 1
| 15>    C        4.64134         4.26650         2.96689
| 16>    N        4.34983         5.56372         3.24552
| 17>    C        5.23504         6.51019         3.87617
| 18>    C        6.32320         6.98596         2.91716
| 19>    C        3.06331         5.91970         2.76798
| 20>    O        2.58196         7.02652         2.90179
| 21>    C        2.57464         4.70293         2.16884
| 22>    C        3.58152         3.70042         2.31303
| 23>    C        3.07876         2.48927         1.70118
| 24>    O        3.55081         1.38238         1.57374
| 25>    N        1.80038         2.84716         1.20964
| 26>    C        0.97174         1.83319         0.60426
| 27>    C       -0.15154         1.38041         1.53389
| 28>    C        1.49266         4.16216         1.48804
| 29>    C        0.33915         4.92442         1.16125
| 30>    C       -0.73139         4.60673         0.39334
| 31>    C       -1.80290         5.50017         0.13405
| 32>    S       -1.89848         7.09174         0.83937
| 33>    C       -3.40107         7.42879         0.02248
| 34>    C       -3.79102         6.33486        -0.76311
| 35>    C       -2.88896         5.26490        -0.68262
| 36>    C       -4.99855         6.26621        -1.58578
| 37>    O       -5.30978         5.29373        -2.22951
| 38>    C       -4.07784         8.65120         0.18765
| 39>    C       -3.67749         9.64811         1.02861
| 40>    C       -4.40673        10.84652         1.16760
| 41>    N       -4.06749        11.86451         2.03072
| 42>    C       -2.89897        11.92058         2.87583
| 43>    C       -1.64367        12.28653         2.08799
| 44>    C       -4.98320        12.92527         1.97925
| 45>    O       -4.89151        13.92790         2.66316
| 46>    C       -5.96097        12.51043         0.99640
| 47>    C       -5.58335        11.23724         0.51863
| 48>    C       -6.56927        10.81622        -0.45525
| 49>    O       -6.66728         9.79889        -1.11747
| 50>    N       -7.48716        11.87006        -0.50182
| 51>    C       -8.60821        11.85582        -1.41271
| 52>    C       -8.33599        12.69595        -2.65706
| 53>    C       -7.14648        12.89241         0.35557
| 54>    C       -7.91849        14.05681         0.52914
| 55>    C       -7.56442        15.04335         1.40675
| 56>    C       -8.36274        16.18387         1.61530
| 57>    N       -8.05500        17.17682         2.51557
| 58>    C       -6.84764        17.27825         3.30219
| 59>    C       -5.68733        17.82059         2.47299
| 60>    C       -9.02338        18.18468         2.53873
| 61>    O       -8.97492        19.14900         3.27919
| 62>    C      -10.00728        17.76772         1.55663
| 63>    C       -9.58202        16.53456         1.01886
| 64>    C      -10.55251        16.11853         0.03073
| 65>    O      -10.62018        15.13230        -0.68054
| 66>    N      -11.50223        17.14892         0.02022
| 67>    C      -12.66579        17.08918        -0.83039
| 68>    C      -13.91662        16.68290        -0.05506
| 69>    C      -11.19477        18.14506         0.92075
| 70>    C      -11.94409        19.33018         1.08334
| 71>    C      -11.56914        20.29551         1.96979
| 72>    C      -12.25588        21.51283         2.14992
| 73>    C      -11.79495        22.56909         2.88270
| 74>    C      -12.73529        23.62340         3.36177
| 75>    O      -13.86453        23.81428         2.97545
| 76>    C      -11.99318        24.31066         4.42811
| 77>    C      -12.23259        25.28719         5.34700
| 78>    S      -10.81487        25.56535         6.33188
| 79>    C       -9.91045        24.36513         5.47944
| 80>    C      -10.66014        23.78528         4.50650
| 81>    C      -10.48390        22.79279         3.46071
| 82>    C       -9.27089        22.34355         3.01038
| 83>    C       -9.05756        21.64197         1.80597
| 84>    N       -8.81129        21.14684         0.80019
| 85>    C       -8.07477        22.66702         3.68343
| 86>    N       -7.09561        22.91723         4.22695
| 87>   Cl      -13.65880        26.16989         5.58905
| 88>    H        5.58077         3.83490         3.25950
| 89>    H        5.68253         6.04957         4.76195
| 90>    H        4.61396         7.35529         4.18503
| 91>    H        6.93335         6.14987         2.58234
| 92>    H        6.96393         7.70852         3.41456
| 93>    H        5.87379         7.45884         2.04737
| 94>    H        1.64161         0.98986         0.40827
| 95>    H        0.58263         2.19025        -0.35285
| 96>    H        0.27124         0.95059         2.43866
| 97>    H       -0.75522         0.62361         1.04055
| 98>    H       -0.79221         2.21320         1.81507
| 99>    H        0.37532         5.92070         1.58844
|100>    H       -0.82659         3.64611        -0.08853
|101>    H       -3.04118         4.34647        -1.22152
|102>    H       -5.62251         7.17500        -1.58418
|103>    H       -4.97971         8.79209        -0.39267
|104>    H       -2.78215         9.51579         1.62067
|105>    H       -2.77145        10.96227         3.38678
|106>    H       -3.10257        12.69382         3.62190
|107>    H       -1.44139        11.55231         1.31153
|108>    H       -0.78973        12.32948         2.75800
|109>    H       -1.76894        13.26013         1.62048
|110>    H       -9.50272        12.21669        -0.89985
|111>    H       -8.75417        10.80996        -1.69639
|112>    H       -8.19419        13.74113        -2.39355
|113>    H       -9.18068        12.62311        -3.33574
|114>    H       -7.44510        12.33566        -3.16663
|115>    H       -8.82835        14.15963        -0.04489
|116>    H       -6.64992        14.94599         1.97405
|117>    H       -6.59670        16.30022         3.71881
|118>    H       -7.07285        17.97011         4.11829
|119>    H       -5.44869        17.14351         1.65644
|120>    H       -4.80900        17.92825         3.10243
|121>    H       -5.94513        18.79375         2.06111
|122>    H      -12.44467        16.33603        -1.59190
|123>    H      -12.80909        18.05512        -1.32267
|124>    H      -13.77478        15.70157         0.39104
|125>    H      -14.76855        16.63859        -0.72780
|126>    H      -14.13270        17.39501         0.73828
|127>    H      -12.80362        19.49075         0.44726
|128>    H      -10.70431        20.11145         2.59051
|129>    H      -13.25736        21.61293         1.74529
|130>    H       -8.89649        24.16751         5.76512
|131> *
|132>
|133>                          ****END OF INPUT****

CARTESIAN COORDINATES (ANGSTROEM)
---------------------------------
  C      4.641340    4.266500    2.966890
  N      4.349830    5.563720    3.245520
  C      5.235040    6.510190    3.876170
  C      6.323200    6.985960    2.917160
  C      3.063310    5.919700    2.767980
  O      2.581960    7.026520    2.901790
  C      2.574640    4.702930    2.168840
  C      3.581520    3.700420    2.313030
  C      3.078760    2.489270    1.701180
  O      3.550810    1.382380    1.573740
  N      1.800380    2.847160    1.209640
  C      0.971740    1.833190    0.604260
  C     -0.151540    1.380410    1.533890
  C      1.492660    4.162160    1.488040
  C      0.339150    4.924420    1.161250
  C     -0.731390    4.606730    0.393340
  C     -1.802900    5.500170    0.134050
  S     -1.898480    7.091740    0.839370
  C     -3.401070    7.428790    0.022480
  C     -3.791020    6.334860   -0.763110
  C     -2.888960    5.264900   -0.682620
  C     -4.998550    6.266210   -1.585780
  O     -5.309780    5.293730   -2.229510
  C     -4.077840    8.651200    0.187650
  C     -3.677490    9.648110    1.028610
  C     -4.406730   10.846520    1.167600
  N     -4.067490   11.864510    2.030720
  C     -2.898970   11.920580    2.875830
  C     -1.643670   12.286530    2.087990
  C     -4.983200   12.925270    1.979250
  O     -4.891510   13.927900    2.663160
  C     -5.960970   12.510430    0.996400
  C     -5.583350   11.237240    0.518630
  C     -6.569270   10.816220   -0.455250
  O     -6.667280    9.798890   -1.117470
  N     -7.487160   11.870060   -0.501820
  C     -8.608210   11.855820   -1.412710
  C     -8.335990   12.695950   -2.657060
  C     -7.146480   12.892410    0.355570
  C     -7.918490   14.056810    0.529140
  C     -7.564420   15.043350    1.406750
  C     -8.362740   16.183870    1.615300
  N     -8.055000   17.176820    2.515570
  C     -6.847640   17.278250    3.302190
  C     -5.687330   17.820590    2.472990
  C     -9.023380   18.184680    2.538730
  O     -8.974920   19.149000    3.279190
  C    -10.007280   17.767720    1.556630
  C     -9.582020   16.534560    1.018860
  C    -10.552510   16.118530    0.030730
  O    -10.620180   15.132300   -0.680540
  N    -11.502230   17.148920    0.020220
  C    -12.665790   17.089180   -0.830390
  C    -13.916620   16.682900   -0.055060
  C    -11.194770   18.145060    0.920750
  C    -11.944090   19.330180    1.083340
  C    -11.569140   20.295510    1.969790
  C    -12.255880   21.512830    2.149920
  C    -11.794950   22.569090    2.882700
  C    -12.735290   23.623400    3.361770
  O    -13.864530   23.814280    2.975450
  C    -11.993180   24.310660    4.428110
  C    -12.232590   25.287190    5.347000
  S    -10.814870   25.565350    6.331880
  C     -9.910450   24.365130    5.479440
  C    -10.660140   23.785280    4.506500
  C    -10.483900   22.792790    3.460710
  C     -9.270890   22.343550    3.010380
  C     -9.057560   21.641970    1.805970
  N     -8.811290   21.146840    0.800190
  C     -8.074770   22.667020    3.683430
  N     -7.095610   22.917230    4.226950
  Cl   -13.658800   26.169890    5.589050
  H      5.580770    3.834900    3.259500
  H      5.682530    6.049570    4.761950
  H      4.613960    7.355290    4.185030
  H      6.933350    6.149870    2.582340
  H      6.963930    7.708520    3.414560
  H      5.873790    7.458840    2.047370
  H      1.641610    0.989860    0.408270
  H      0.582630    2.190250   -0.352850
  H      0.271240    0.950590    2.438660
  H     -0.755220    0.623610    1.040550
  H     -0.792210    2.213200    1.815070
  H      0.375320    5.920700    1.588440
  H     -0.826590    3.646110   -0.088530
  H     -3.041180    4.346470   -1.221520
  H     -5.622510    7.175000   -1.584180
  H     -4.979710    8.792090   -0.392670
  H     -2.782150    9.515790    1.620670
  H     -2.771450   10.962270    3.386780
  H     -3.102570   12.693820    3.621900
  H     -1.441390   11.552310    1.311530
  H     -0.789730   12.329480    2.758000
  H     -1.768940   13.260130    1.620480
  H     -9.502720   12.216690   -0.899850
  H     -8.754170   10.809960   -1.696390
  H     -8.194190   13.741130   -2.393550
  H     -9.180680   12.623110   -3.335740
  H     -7.445100   12.335660   -3.166630
  H     -8.828350   14.159630   -0.044890
  H     -6.649920   14.945990    1.974050
  H     -6.596700   16.300220    3.718810
  H     -7.072850   17.970110    4.118290
  H     -5.448690   17.143510    1.656440
  H     -4.809000   17.928250    3.102430
  H     -5.945130   18.793750    2.061110
  H    -12.444670   16.336030   -1.591900
  H    -12.809090   18.055120   -1.322670
  H    -13.774780   15.701570    0.391040
  H    -14.768550   16.638590   -0.727800
  H    -14.132700   17.395010    0.738280
  H    -12.803620   19.490750    0.447260
  H    -10.704310   20.111450    2.590510
  H    -13.257360   21.612930    1.745290
  H     -8.896490   24.167510    5.765120

 Total Charge           Charge          ....    0
 Multiplicity           Mult            ....    1
 Number of Electrons    NEL             ....  536
 Basis Dimension        Dim             .... 1249

ORBITAL ENERGIES
----------------

  NO   OCC          E(Eh)            E(eV)
   0   2.0000    -101.611725     -2764.9956
   1   2.0000     -88.986157     -2421.4364
   2   2.0000     -88.973851     -2421.1016
   3   2.0000     -19.213123      -522.8156
   4   2.0000     -19.211045      -522.7591
   5   2.0000     -19.202475      -522.5259
   6   2.0000     -19.200521      -522.4727
   7   2.0000     -19.197213      -522.3827
   8   2.0000     -19.195990      -522.3494
   9   2.0000     -19.191525      -522.2280
  10   2.0000     -19.186946      -522.1033
  11   2.0000     -14.461963      -393.5300
  12   2.0000     -14.459160      -393.4537
  13   2.0000     -14.457746      -393.4153
  14   2.0000     -14.456663      -393.3858
  15   2.0000     -14.455211      -393.3463
  16   2.0000     -14.452440      -393.2709
  17   2.0000     -14.412935      -392.1959
  18   2.0000     -14.408252      -392.0685
  19   2.0000     -10.383720      -282.5554
  20   2.0000     -10.381455      -282.4938
  21   2.0000     -10.379625      -282.4439
  22   2.0000     -10.378562      -282.4150
  23   2.0000     -10.374319      -282.2996
  24   2.0000     -10.373280      -282.2713
  25   2.0000     -10.369673      -282.1731
  26   2.0000     -10.369654      -282.1726
  27   2.0000     -10.355409      -281.7850
  28   2.0000     -10.347984      -281.5830
  29   2.0000     -10.344512      -281.4885
  30   2.0000     -10.342755      -281.4407
  31   2.0000     -10.342491      -281.4335
  32   2.0000     -10.341266      -281.4002
  33   2.0000     -10.340401      -281.3766
  34   2.0000     -10.339540      -281.3532
  35   2.0000     -10.334229      -281.2087
  36   2.0000     -10.328689      -281.0579
  37   2.0000     -10.322369      -280.8859
  38   2.0000     -10.321645      -280.8663
  39   2.0000     -10.314718      -280.6777
  40   2.0000     -10.314434      -280.6700
  41   2.0000     -10.313264      -280.6382
  42   2.0000     -10.311822      -280.5989
  43   2.0000     -10.311628      -280.5937
  44   2.0000     -10.310976      -280.5759
  45   2.0000     -10.307544      -280.4825
  46   2.0000     -10.307276      -280.4752
  47   2.0000     -10.306700      -280.4596
  48   2.0000     -10.306070      -280.4424
  49   2.0000     -10.304908      -280.4108
  50   2.0000     -10.303334      -280.3680
  51   2.0000     -10.302472      -280.3445
  52   2.0000     -10.301887      -280.3286
  53   2.0000     -10.299821      -280.2724
  54   2.0000     -10.298703      -280.2419
  55   2.0000     -10.296901      -280.1929
  56   2.0000     -10.293969      -280.1131
  57   2.0000     -10.293962      -280.1130
  58   2.0000     -10.293858      -280.1101
  59   2.0000     -10.293165      -280.0913
  60   2.0000     -10.292110      -280.0625
  61   2.0000     -10.272137      -279.5191
  62   2.0000     -10.271323      -279.4969
  63   2.0000     -10.268921      -279.4316
  64   2.0000     -10.268762      -279.4272
  65   2.0000     -10.268725      -279.4262
  66   2.0000     -10.268264      -279.4137
  67   2.0000     -10.267076      -279.3813
  68   2.0000     -10.263991      -279.2974
  69   2.0000     -10.261898      -279.2404
  70   2.0000     -10.260485      -279.2020
  71   2.0000     -10.256762      -279.1007
  72   2.0000     -10.253997      -279.0254
  73   2.0000      -9.566512      -260.3180
  74   2.0000      -8.081927      -219.9204
  75   2.0000      -8.069161      -219.5730
  76   2.0000      -7.337143      -199.6538
  77   2.0000      -7.326539      -199.3653
  78   2.0000      -7.326031      -199.3514
  79   2.0000      -6.051345      -164.6655
  80   2.0000      -6.046741      -164.5402
  81   2.0000      -6.044098      -164.4683
  82   2.0000      -6.038283      -164.3100
  83   2.0000      -6.034358      -164.2032
  84   2.0000      -6.031403      -164.1228
  85   2.0000      -1.141534       -31.0627
  86   2.0000      -1.140370       -31.0310
  87   2.0000      -1.133483       -30.8436
  88   2.0000      -1.132950       -30.8291
  89   2.0000      -1.132233       -30.8096
  90   2.0000      -1.129249       -30.7284
  91   2.0000      -1.125448       -30.6250
  92   2.0000      -1.123180       -30.5633
  93   2.0000      -1.071056       -29.1449
  94   2.0000      -1.069838       -29.1118
  95   2.0000      -1.063062       -28.9274
  96   2.0000      -1.061753       -28.8918
  97   2.0000      -1.060517       -28.8581
  98   2.0000      -1.053539       -28.6683
  99   2.0000      -1.031173       -28.0597
 100   2.0000      -1.008517       -27.4431
 101   2.0000      -1.004479       -27.3333
 102   2.0000      -0.988944       -26.9105
 103   2.0000      -0.981265       -26.7016
 104   2.0000      -0.949595       -25.8398
 105   2.0000      -0.936129       -25.4734
 106   2.0000      -0.934262       -25.4226
 107   2.0000      -0.930075       -25.3086
 108   2.0000      -0.927597       -25.2412
 109   2.0000      -0.923157       -25.1204
 110   2.0000      -0.914942       -24.8968
 111   2.0000      -0.906236       -24.6599
 112   2.0000      -0.897918       -24.4336
 113   2.0000      -0.878372       -23.9017
 114   2.0000      -0.876611       -23.8538
 115   2.0000      -0.873366       -23.7655
 116   2.0000      -0.865230       -23.5441
 117   2.0000      -0.858191       -23.3526
 118   2.0000      -0.852822       -23.2065
 119   2.0000      -0.837187       -22.7810
 120   2.0000      -0.825550       -22.4644
 121   2.0000      -0.822474       -22.3807
 122   2.0000      -0.821569       -22.3560
 123   2.0000      -0.821497       -22.3541
 124   2.0000      -0.816777       -22.2256
 125   2.0000      -0.807725       -21.9793
 126   2.0000      -0.794188       -21.6110
 127   2.0000      -0.773559       -21.0496
 128   2.0000      -0.765440       -20.8287
 129   2.0000      -0.762556       -20.7502
 130   2.0000      -0.761989       -20.7348
 131   2.0000      -0.761702       -20.7270
 132   2.0000      -0.754869       -20.5410
 133   2.0000      -0.743303       -20.2263
 134   2.0000      -0.727607       -19.7992
 135   2.0000      -0.716573       -19.4989
 136   2.0000      -0.714691       -19.4477
 137   2.0000      -0.710711       -19.3394
 138   2.0000      -0.710089       -19.3225
 139   2.0000      -0.709432       -19.3046
 140   2.0000      -0.700895       -19.0723
 141   2.0000      -0.687698       -18.7132
 142   2.0000      -0.683949       -18.6112
 143   2.0000      -0.678161       -18.4537
 144   2.0000      -0.668341       -18.1865
 145   2.0000      -0.667402       -18.1609
 146   2.0000      -0.662019       -18.0145
 147   2.0000      -0.654538       -17.8109
 148   2.0000      -0.652499       -17.7554
 149   2.0000      -0.650918       -17.7124
 150   2.0000      -0.649052       -17.6616
 151   2.0000      -0.637962       -17.3598
 152   2.0000      -0.629135       -17.1196
 153   2.0000      -0.618733       -16.8366
 154   2.0000      -0.616151       -16.7663
 155   2.0000      -0.607371       -16.5274
 156   2.0000      -0.601987       -16.3809
 157   2.0000      -0.599015       -16.3000
 158   2.0000      -0.596393       -16.2287
 159   2.0000      -0.593363       -16.1462
 160   2.0000      -0.591516       -16.0960
 161   2.0000      -0.586131       -15.9494
 162   2.0000      -0.582826       -15.8595
 163   2.0000      -0.580371       -15.7927
 164   2.0000      -0.576879       -15.6977
 165   2.0000      -0.574672       -15.6376
 166   2.0000      -0.572862       -15.5884
 167   2.0000      -0.570576       -15.5262
 168   2.0000      -0.565433       -15.3862
 169   2.0000      -0.563339       -15.3292
 170   2.0000      -0.558903       -15.2085
 171   2.0000      -0.554326       -15.0840
 172   2.0000      -0.553731       -15.0678
 173   2.0000      -0.542254       -14.7555
 174   2.0000      -0.537947       -14.6383
 175   2.0000      -0.536012       -14.5856
 176   2.0000      -0.535099       -14.5608
 177   2.0000      -0.534094       -14.5334
 178   2.0000      -0.531924       -14.4744
 179   2.0000      -0.531087       -14.4516
 180   2.0000      -0.530191       -14.4272
 181   2.0000      -0.529000       -14.3948
 182   2.0000      -0.527738       -14.3605
 183   2.0000      -0.525228       -14.2922
 184   2.0000      -0.521128       -14.1806
 185   2.0000      -0.519535       -14.1373
 186   2.0000      -0.518768       -14.1164
 187   2.0000      -0.516839       -14.0639
 188   2.0000      -0.515137       -14.0176
 189   2.0000      -0.514403       -13.9976
 190   2.0000      -0.513205       -13.9650
 191   2.0000      -0.511222       -13.9111
 192   2.0000      -0.509200       -13.8560
 193   2.0000      -0.507530       -13.8106
 194   2.0000      -0.506281       -13.7766
 195   2.0000      -0.502310       -13.6685
 196   2.0000      -0.501365       -13.6428
 197   2.0000      -0.499508       -13.5923
 198   2.0000      -0.496709       -13.5162
 199   2.0000      -0.494134       -13.4461
 200   2.0000      -0.489383       -13.3168
 201   2.0000      -0.483501       -13.1567
 202   2.0000      -0.482797       -13.1376
 203   2.0000      -0.480824       -13.0839
 204   2.0000      -0.478994       -13.0341
 205   2.0000      -0.478048       -13.0084
 206   2.0000      -0.473896       -12.8954
 207   2.0000      -0.473111       -12.8740
 208   2.0000      -0.469076       -12.7642
 209   2.0000      -0.468101       -12.7377
 210   2.0000      -0.467514       -12.7217
 211   2.0000      -0.465632       -12.6705
 212   2.0000      -0.462899       -12.5961
 213   2.0000      -0.462654       -12.5895
 214   2.0000      -0.459194       -12.4953
 215   2.0000      -0.458316       -12.4714
 216   2.0000      -0.457751       -12.4560
 217   2.0000      -0.455843       -12.4041
 218   2.0000      -0.454974       -12.3805
 219   2.0000      -0.453169       -12.3313
 220   2.0000      -0.452512       -12.3135
 221   2.0000      -0.450889       -12.2693
 222   2.0000      -0.449681       -12.2364
 223   2.0000      -0.448107       -12.1936
 224   2.0000      -0.445053       -12.1105
 225   2.0000      -0.444167       -12.0864
 226   2.0000      -0.443262       -12.0618
 227   2.0000      -0.440622       -11.9899
 228   2.0000      -0.438341       -11.9279
 229   2.0000      -0.437038       -11.8924
 230   2.0000      -0.436492       -11.8776
 231   2.0000      -0.433996       -11.8096
 232   2.0000      -0.433219       -11.7885
 233   2.0000      -0.431434       -11.7399
 234   2.0000      -0.428109       -11.6494
 235   2.0000      -0.427539       -11.6339
 236   2.0000      -0.423787       -11.5318
 237   2.0000      -0.421187       -11.4611
 238   2.0000      -0.420425       -11.4404
 239   2.0000      -0.419300       -11.4097
 240   2.0000      -0.413850       -11.2614
 241   2.0000      -0.411313       -11.1924
 242   2.0000      -0.406325       -11.0567
 243   2.0000      -0.402772       -10.9600
 244   2.0000      -0.399518       -10.8714
 245   2.0000      -0.397683       -10.8215
 246   2.0000      -0.377480       -10.2717
 247   2.0000      -0.357340        -9.7237
 248   2.0000      -0.356708        -9.7065
 249   2.0000      -0.354290        -9.6407
 250   2.0000      -0.347263        -9.4495
 251   2.0000      -0.346811        -9.4372
 252   2.0000      -0.340984        -9.2786
 253   2.0000      -0.338382        -9.2078
 254   2.0000      -0.338123        -9.2008
 255   2.0000      -0.337678        -9.1887
 256   2.0000      -0.331081        -9.0092
 257   2.0000      -0.330609        -8.9963
 258   2.0000      -0.329572        -8.9681
 259   2.0000      -0.321722        -8.7545
 260   2.0000      -0.321546        -8.7497
 261   2.0000      -0.319601        -8.6968
 262   2.0000      -0.315404        -8.5826
 263   2.0000      -0.301640        -8.2080
 264   2.0000      -0.301012        -8.1910
 265   2.0000      -0.264147        -7.1878
 266   2.0000      -0.248490        -6.7618
 267   2.0000      -0.228368        -6.2142
 268   0.0000      -0.120586        -3.2813
 269   0.0000      -0.094811        -2.5799
 270   0.0000      -0.071569        -1.9475
 271   0.0000      -0.052623        -1.4320
 272   0.0000      -0.041816        -1.1379

MULLIKEN ATOMIC CHARGES
-----------------------
   0 C :    0.048341
   1 N :   -0.265348
   2 C :    0.113037
   3 C :   -0.002446
   4 C :    0.158986
   5 O :   -0.198385
   6 C :   -0.075685
   7 C :    0.005740
   8 C :    0.162827
   9 O :   -0.186520
  10 N :   -0.277726
  11 C :    0.097966
  12 C :   -0.000296
  13 C :    0.134403
  14 C :   -0.045073
  15 C :    0.043075
  16 C :   -0.026637
  17 S :    0.125966
  18 C :   -0.048360
  19 C :    0.021651
  20 C :   -0.016314
  21 C :    0.139049
  22 O :   -0.182868
  23 C :    0.006578
  24 C :   -0.038817
  25 C :    0.146847
  26 N :   -0.253117
  27 C :    0.097196
  28 C :    0.002462
  29 C :    0.164876
  30 O :   -0.212749
  31 C :   -0.059583
  32 C :   -0.071814
  33 C :    0.165620
  34 O :   -0.219951
  35 N :   -0.249225
  36 C :    0.099742
  37 C :    0.008330
  38 C :    0.136387
  39 C :   -0.012255
  40 C :   -0.024603
  41 C :    0.149203
  42 N :   -0.245724
  43 C :    0.095706
  44 C :    0.008522
  45 C :    0.182999
  46 O :   -0.212027
  47 C :   -0.044004
  48 C :   -0.071672
  49 C :    0.163356
  50 O :   -0.221449
  51 N :   -0.251903
  52 C :    0.099286
  53 C :    0.001780
  54 C :    0.140774
  55 C :   -0.018151
  56 C :    0.016798
  57 C :    0.026450
  58 C :   -0.114991
  59 C :    0.138751
  60 O :   -0.130710
  61 C :    0.079582
  62 C :   -0.171188
  63 S :    0.177536
  64 C :   -0.128798
  65 C :    0.021525
  66 C :    0.265964
  67 C :   -0.292338
  68 C :   -0.203927
  69 N :    0.167890
  70 C :   -0.186119
  71 N :    0.150047
  72 Cl:   -0.005429
  73 H :    0.017029
  74 H :    0.019133
  75 H :    0.040819
  76 H :    0.014864
  77 H :    0.023972
  78 H :    0.030765
  79 H :    0.045582
  80 H :    0.023394
  81 H :    0.027599
  82 H :    0.022789
  83 H :    0.020304
  84 H :    0.013311
  85 H :   -0.009781
  86 H :    0.000386
  87 H :    0.014275
  88 H :    0.021897
  89 H :   -0.013182
  90 H :    0.026732
  91 H :    0.044572
  92 H :    0.018968
  93 H :    0.029560
  94 H :    0.028742
  95 H :    0.039587
  96 H :    0.038661
  97 H :    0.022203
  98 H :    0.026724
  99 H :    0.021199
 100 H :   -0.002382
 101 H :   -0.003823
 102 H :    0.039323
 103 H :    0.041082
 104 H :    0.018782
 105 H :    0.026398
 106 H :    0.031784
 107 H :    0.044935
 108 H :    0.026033
 109 H :    0.028872
 110 H :    0.026635
 111 H :    0.016126
 112 H :   -0.014868
 113 H :    0.047719
 114 H :    0.012429
 115 H :    0.051800
Sum of atomic charges:   -0.0000000

LOEWDIN ATOMIC CHARGES
----------------------
   0 C :    0.098071
   1 N :   -0.003016
   2 C :    0.038117
   3 C :   -0.060288
   4 C :    0.076893
   5 O :   -0.200060
   6 C :   -0.118801
   7 C :   -0.132631
   8 C :    0.084075
   9 O :   -0.188509
  10 N :   -0.012828
  11 C :    0.033781
  12 C :   -0.063104
  13 C :    0.076295
  14 C :   -0.035431
  15 C :   -0.016987
  16 C :   -0.156673
  17 S :    0.452726
  18 C :   -0.143401
  19 C :   -0.098941
  20 C :   -0.015936
  21 C :    0.109512
  22 O :   -0.133025
  23 C :    0.010426
  24 C :   -0.049265
  25 C :    0.078640
  26 N :    0.002131
  27 C :    0.036810
  28 C :   -0.060147
  29 C :    0.082741
  30 O :   -0.200608
  31 C :   -0.107170
  32 C :   -0.118747
  33 C :    0.079253
  34 O :   -0.208325
  35 N :    0.008485
  36 C :    0.038354
  37 C :   -0.058059
  38 C :    0.064584
  39 C :    0.005067
  40 C :   -0.009725
  41 C :    0.080638
  42 N :    0.011177
  43 C :    0.038338
  44 C :   -0.057456
  45 C :    0.090788
  46 O :   -0.190533
  47 C :   -0.095559
  48 C :   -0.115167
  49 C :    0.079514
  50 O :   -0.209969
  51 N :    0.003470
  52 C :    0.037108
  53 C :   -0.060851
  54 C :    0.065344
  55 C :   -0.005113
  56 C :    0.009563
  57 C :    0.056439
  58 C :   -0.073538
  59 C :    0.077692
  60 O :   -0.137130
  61 C :   -0.117911
  62 C :   -0.273560
  63 S :    0.467434
  64 C :   -0.153639
  65 C :   -0.054458
  66 C :    0.064664
  67 C :   -0.118368
  68 C :   -0.018351
  69 N :   -0.052269
  70 C :   -0.009934
  71 N :   -0.053163
  72 Cl:    0.187589
  73 H :    0.033547
  74 H :    0.024713
  75 H :    0.036009
  76 H :    0.022429
  77 H :    0.030516
  78 H :    0.031736
  79 H :    0.038322
  80 H :    0.019019
  81 H :    0.032403
  82 H :    0.030953
  83 H :    0.021451
  84 H :    0.038532
  85 H :    0.037311
  86 H :    0.038837
  87 H :    0.008835
  88 H :    0.040548
  89 H :    0.024687
  90 H :    0.024756
  91 H :    0.038021
  92 H :    0.023169
  93 H :    0.033294
  94 H :    0.032058
  95 H :    0.030438
  96 H :    0.036017
  97 H :    0.025147
  98 H :    0.033132
  99 H :    0.028068
 100 H :    0.036709
 101 H :    0.035959
 102 H :    0.030275
 103 H :    0.036686
 104 H :    0.024137
 105 H :    0.032959
 106 H :    0.032235
 107 H :    0.038138
 108 H :    0.024224
 109 H :    0.032150
 110 H :    0.031834
 111 H :    0.022122
 112 H :    0.033902
 113 H :    0.037197
 114 H :    0.043383
 115 H :    0.037067

  Mayer bond orders larger than 0.100000
B(  0-C ,  1-N ) :   1.1985 B(  0-C ,  7-C ) :   1.4507 B(  0-C , 73-H ) :   0.9893
B(  1-N ,  2-C ) :   0.9415 B(  1-N ,  4-C ) :   1.0294 B(  2-C ,  3-C ) :   1.1181
B(  2-C , 74-H ) :   0.9542 B(  2-C , 75-H ) :   0.9345 B(  3-C , 76-H ) :   0.9693
B(  3-C , 77-H ) :   0.9689 B(  3-C , 78-H ) :   0.9674 B(  4-C ,  5-O ) :   2.1176
B(  4-C ,  6-C ) :   0.9939 B(  6-C ,  7-C ) :   1.1933 B(  6-C , 13-C ) :   1.3885
B(  7-C ,  8-C ) :   0.9546 B(  8-C ,  9-O ) :   2.1676 B(  8-C , 10-N ) :   1.0159
B( 10-N , 11-C ) :   0.9456 B( 10-N , 13-C ) :   1.1596 B( 11-C , 12-C ) :   1.1156
B( 11-C , 79-H ) :   0.9222 B( 11-C , 80-H ) :   0.9509 B( 12-C , 81-H ) :   0.9621
B( 12-C , 82-H ) :   0.9679 B( 12-C , 83-H ) :   0.9685 B( 13-C , 14-C ) :   1.1913
B( 14-C , 15-C ) :   1.5683 B( 14-C , 84-H ) :   0.9427 B( 15-C , 16-C ) :   1.1699
B( 15-C , 85-H ) :   0.9811 B( 16-C , 17-S ) :   1.0962 B( 16-C , 20-C ) :   1.4482
B( 17-S , 18-C ) :   1.1236 B( 18-C , 19-C ) :   1.3736 B( 18-C , 23-C ) :   1.1964
B( 19-C , 20-C ) :   1.2522 B( 19-C , 21-C ) :   0.9808 B( 20-C , 86-H ) :   1.0070
B( 21-C , 22-O ) :   2.1765 B( 21-C , 87-H ) :   0.9662 B( 23-C , 24-C ) :   1.5543
B( 23-C , 88-H ) :   0.9468 B( 24-C , 25-C ) :   1.1863 B( 24-C , 89-H ) :   0.9636
B( 25-C , 26-N ) :   1.1572 B( 25-C , 32-C ) :   1.3127 B( 26-N , 27-C ) :   0.9433
B( 26-N , 29-C ) :   1.0692 B( 27-C , 28-C ) :   1.1194 B( 27-C , 90-H ) :   0.9500
B( 27-C , 91-H ) :   0.9287 B( 28-C , 92-H ) :   0.9688 B( 28-C , 93-H ) :   0.9681
B( 28-C , 94-H ) :   0.9640 B( 29-C , 30-O ) :   2.0183 B( 29-C , 31-C ) :   0.9843
B( 30-O ,101-H ) :   0.1042 B( 31-C , 32-C ) :   1.2780 B( 31-C , 38-C ) :   1.3062
B( 32-C , 33-C ) :   0.9881 B( 33-C , 34-O ) :   2.0050 B( 33-C , 35-N ) :   1.0837
B( 34-O , 88-H ) :   0.1061 B( 35-N , 36-C ) :   0.9376 B( 35-N , 38-C ) :   1.1561
B( 36-C , 37-C ) :   1.1241 B( 36-C , 95-H ) :   0.9467 B( 36-C , 96-H ) :   0.9286
B( 37-C , 97-H ) :   0.9670 B( 37-C , 98-H ) :   0.9679 B( 37-C , 99-H ) :   0.9642
B( 38-C , 39-C ) :   1.1749 B( 39-C , 40-C ) :   1.5111 B( 39-C ,100-H ) :   0.9452
B( 40-C , 41-C ) :   1.1789 B( 40-C ,101-H ) :   0.9473 B( 41-C , 42-N ) :   1.1671
B( 41-C , 48-C ) :   1.2848 B( 42-N , 43-C ) :   0.9344 B( 42-N , 45-C ) :   1.0834
B( 43-C , 44-C ) :   1.1254 B( 43-C ,102-H ) :   0.9464 B( 43-C ,103-H ) :   0.9287
B( 44-C ,104-H ) :   0.9667 B( 44-C ,105-H ) :   0.9677 B( 44-C ,106-H ) :   0.9638
B( 45-C , 46-O ) :   1.9941 B( 45-C , 47-C ) :   0.9708 B( 46-O ,113-H ) :   0.1100
B( 47-C , 48-C ) :   1.2898 B( 47-C , 54-C ) :   1.3333 B( 48-C , 49-C ) :   0.9933
B( 49-C , 50-O ) :   2.0056 B( 49-C , 51-N ) :   1.0767 B( 50-O ,100-H ) :   0.1085
B( 51-N , 52-C ) :   0.9463 B( 51-N , 54-C ) :   1.1476 B( 52-C , 53-C ) :   1.1184
B( 52-C ,107-H ) :   0.9287 B( 52-C ,108-H ) :   0.9500 B( 53-C ,109-H ) :   0.9643
B( 53-C ,110-H ) :   0.9683 B( 53-C ,111-H ) :   0.9690 B( 54-C , 55-C ) :   1.1528
B( 55-C , 56-C ) :   1.5906 B( 55-C ,112-H ) :   0.9770 B( 56-C , 57-C ) :   1.1317
B( 56-C ,113-H ) :   0.9265 B( 57-C , 58-C ) :   1.6137 B( 57-C ,114-H ) :   0.9639
B( 58-C , 59-C ) :   0.9398 B( 58-C , 66-C ) :   1.0418 B( 59-C , 60-O ) :   2.2811
B( 59-C , 61-C ) :   0.9241 B( 61-C , 62-C ) :   1.4892 B( 61-C , 65-C ) :   1.2194
B( 62-C , 63-S ) :   1.1499 B( 62-C , 72-Cl) :   1.1233 B( 63-S , 64-C ) :   1.1512
B( 64-C , 65-C ) :   1.5633 B( 64-C ,115-H ) :   0.9547 B( 65-C , 66-C ) :   1.0070
B( 66-C , 67-C ) :   1.6681 B( 67-C , 68-C ) :   1.1555 B( 67-C , 70-C ) :   1.1467
B( 68-C , 69-N ) :   2.9912 B( 70-C , 71-N ) :   2.9954

-----------------------------------------------------------------------------
         ABSORPTION SPECTRUM VIA TRANSITION ELECTRIC DIPOLE MOMENTS
-----------------------------------------------------------------------------
State   Energy  Wavelength   fosc         T2         TX        TY        TZ
        (cm-1)    (nm)                  (au**2)     (au)      (au)      (au)
-----------------------------------------------------------------------------
   0    9419.6   1061.6   1.134236571  39.64124   3.74564  -5.05667  -0.20376
   1   14815.8    675.0   0.225219283   5.00445   2.01849  -0.70014   0.66328
   2   16557.5    604.0   0.020471903   0.40704   0.55610  -0.07411   0.30381
   3   17924.9    557.9   0.077606215   1.42533   1.09118  -0.18329   0.44839
   4   20559.0    486.4   0.003281631   0.05255   0.17628  -0.02515   0.14436
   5   23365.8    428.0   0.139815845   1.96994  -0.93308  -0.61618  -0.84831
   6   23655.0    422.7   0.042288418   0.58854   0.33250   0.62408   0.29751
   7   23992.5    416.8   0.169604926   2.32723  -1.32989  -0.56087  -0.49400
   8   24248.6    412.4   0.010779568   0.14635  -0.00276   0.38254   0.00278
   9   25047.0    399.2   0.062631291   0.82321  -0.33607   0.82931   0.15002
  10   25597.8    390.7   0.133298183   1.71434   1.19776  -0.36390   0.38379
  11   26141.2    382.5   0.196766739   2.47800  -0.38247   1.45485   0.46381
  12   26194.8    381.8   0.028475099   0.35787   0.08819   0.57206   0.15114
  13   26902.4    371.7   0.166488631   2.03737  -0.24781   1.27499   0.59191
  14   27367.0    365.4   0.003916445   0.04711  -0.09786  -0.14538  -0.12806
  15   27561.7    362.8   0.001296339   0.01548   0.00878  -0.06812   0.10376
  16   27984.3    357.3   0.034477248   0.40560  -0.31808  -0.44866  -0.32113
  17   28118.4    355.6   0.000040111   0.00047   0.01235  -0.01685  -0.00576
  18   28255.7    353.9   0.043385054   0.50549   0.19965   0.58979   0.34318
  19   28600.9    349.6   0.283268683   3.26057   0.14075   1.59604   0.83271
  20   29250.4    341.9   0.087713933   0.98722   0.14394   0.76108   0.62229
  21   29686.6    336.9   0.001765569   0.01958  -0.02292  -0.11095  -0.08213
  22   29813.0    335.4   0.000465870   0.00514  -0.05389  -0.01513   0.04485
  23   30879.3    323.8   0.009268931   0.09882  -0.06971   0.25302   0.17304
  24   31030.4    322.3   0.331791718   3.52009   0.18942  -1.53360  -1.06409
  25   31247.2    320.0   0.022949690   0.24179   0.02304  -0.42212  -0.25115
  26   32531.6    307.4   0.041745578   0.42246  -0.56508   0.27224  -0.17036
  27   32732.0    305.5   0.030140706   0.30315   0.39384  -0.32291   0.20921
  28   33410.3    299.3   0.132959994   1.31013  -0.80049   0.79237   0.20371
  29   33567.8    297.9   0.020804150   0.20403  -0.34536   0.02427   0.29012
  30   33963.2    294.4   0.040392081   0.39153   0.61153  -0.12366   0.04757
  31   34127.9    293.0   0.000198721   0.00192   0.01994  -0.03029   0.02454
  32   34147.2    292.8   0.081020563   0.78112  -0.25062   0.70474   0.47080
  33   34529.1    289.6   0.120933386   1.15302  -0.18574  -0.89337  -0.56606
  34   34999.5    285.7   0.000084607   0.00080   0.01812  -0.00953  -0.01941
  35   35548.6    281.3   0.025928590   0.24012   0.05444   0.34313   0.34557
  36   35616.3    280.8   0.104573902   0.96661  -0.46819   0.75278   0.42512
  37   35885.9    278.7   0.016531556   0.15166  -0.35629   0.07370   0.13886
  38   36020.9    277.6   0.023735747   0.21693  -0.41733   0.18356  -0.09528
  39   36986.2    270.4   0.018788029   0.16723   0.07803   0.26683   0.29991
  40   37076.3    269.7   0.168093280   1.49255   0.42505   0.87997   0.73316
  41   37312.2    268.0   0.222674201   1.96469  -0.23486  -0.93381  -1.01859
  42   37667.0    265.5   0.056945928   0.49771   0.37369  -0.32900   0.49982
  43   37809.0    264.5   0.000733922   0.00639   0.06205   0.01997   0.04627
  44   37887.7    263.9   0.379359754   3.29631   1.21704  -1.12031  -0.74835
  45   38490.1    259.8   0.022490575   0.19237   0.26559   0.10966   0.33136
  46   38586.7    259.2   0.203908505   1.73970   0.74486   0.55612   0.93574
  47   38731.1    258.2   0.002302238   0.01957   0.07344   0.07516   0.09234
  48   39111.8    255.7   0.011913276   0.10028   0.30000   0.08206  -0.05951
  49   39155.2    255.4   0.055930977   0.47026   0.31905  -0.52066  -0.31206
  50   39224.8    254.9   0.000046896   0.00039  -0.01498  -0.01188   0.00530
  51   39571.0    252.7   0.273086337   2.27195  -0.19563   1.25548   0.81084
  52   39854.7    250.9   0.060824738   0.50243  -0.54416   0.40815   0.19934
  53   40059.6    249.6   0.006733623   0.05534  -0.07498  -0.12586  -0.18405

FINAL SINGLE POINT ENERGY     -4375.759767951035

DIPOLE MOMENT
-------------
                                X             Y             Z
Electronic contribution:    -65.83744     106.26913      30.37342
Nuclear contribution   :     66.35389    -106.77173     -29.24974
                        -----------------------------------------
Total Dipole Moment    :      0.51644      -0.50260       1.12369
                        -----------------------------------------
Magnitude (a.u.)       :      1.33491
Magnitude (Debye)      :      3.39308

Rotational constants in cm-1:     0.001909     0.000201     0.000184
Rotational constants in MHz :    57.233940     6.018439     5.520267

                             ****ORCA TERMINATED NORMALLY****
TOTAL RUN TIME: 0 days 0 hours 11 minutes 46 seconds 888 msec
