                         Program Version 4.2.0 -  RELEASE  -
|  1> # ORCA input file
|  2> # SCF done       -197.842593241398          0.000732228143
|  3> ! CAM-B3LYP def2-SVP def2/J RIJCOSX Grid4 TightSCF
|  4> %maxcore 5000
|  5> %tddft
|  6>     Mode sTDDFT
|  7>     Ethresh 5.0
|  8>     maxcore 5000
|  9> end
| 10>
| 11> %pal
| 12>   nprocs 6
| 13>   end
| 14> * xyz 0 1
| 15>    C       -0.63529         3.48571        11.21199
| 16>    N       -0.34866         4.75559        10.84317
| 17>    C        0.70754         5.57737        11.38094
| 18>    C        0.34025         6.12365        12.75798
| 19>    C       -1.27194         5.23417         9.87959
| 20>    O       -1.19336         6.32907         9.36465
| 21>    C       -2.18357         4.12776         9.69439
| 22>    C       -1.74326         3.05651        10.52580
| 23>    C       -2.63683         1.93175        10.31844
| 24>    O       -2.67267         0.81932        10.78690
| 25>    N       -3.56733         2.40942         9.36824
| 26>    C       -4.61955         1.55785         8.86684
| 27>    C       -4.28278         0.98375         7.49240
| 28>    C       -3.31419         3.70793         9.00014
| 29>    C       -4.11158         4.43804         8.08077
| 30>    C       -3.94209         5.76629         7.85688
| 31>    C       -4.78218         6.52407         6.98923
| 32>    C       -5.35958         7.73615         7.32539
| 33>    N       -5.20031         8.44013         8.53420
| 34>    O       -4.62721         7.88729         9.45753
| 35>    O       -5.65423         9.56998         8.57986
| 36>    C       -6.30069         8.13029         6.30872
| 37>    C       -6.26888         7.20871         5.32023
| 38>    C       -5.25325         6.22342         5.62149
| 39>    C       -4.69516         5.32233         4.74398
| 40>    C       -3.77216         4.26267         5.06630
| 41>    C       -3.78047         3.35034         4.06560
| 42>    C       -4.63496         3.82624         3.01089
| 43>    N       -4.79752         3.11435         1.80957
| 44>    O       -5.49561         3.59150         0.92742
| 45>    O       -4.23294         2.03798         1.72296
| 46>    C       -5.11721         5.08848         3.34237
| 47>    C       -5.74386         5.97089         2.43026
| 48>    C       -5.62532         7.32743         2.44567
| 49>    C       -6.20217         8.17816         1.47231
| 50>    S       -6.08420         9.91068         1.66519
| 51>    C       -6.96764        10.19422         0.20102
| 52>    C       -7.31765         8.97646        -0.39910
| 53>    C       -6.89449         7.85436         0.31824
| 54>    C       -8.03745         8.91128        -1.60692
| 55>    N       -8.62607         8.86127        -2.58876
| 56>    C       -7.27693        11.47981        -0.29525
| 57>    C       -6.99905        12.64203         0.34776
| 58>    C       -7.30063        13.92548        -0.16692
| 59>    S       -7.95982        14.20154        -1.74482
| 60>    C       -7.92562        15.90869        -1.50895
| 61>    C       -8.42532        16.78150        -2.59461
| 62>    O       -9.22802        16.40715        -3.40156
| 63>    O       -7.92708        18.02535        -2.61141
| 64>    C       -7.45352        16.25983        -0.27015
| 65>    C       -7.08987        15.13777         0.49621
| 66>    O       -6.67779        15.12993         1.79012
| 67>    C       -6.03337        16.14481         2.36301
| 68>    C       -5.21086        17.13054         1.85799
| 69>    N       -4.74062        17.31098         0.55216
| 70>    O       -4.88964        16.39043        -0.24660
| 71>    O       -4.21276        18.37336         0.27509
| 72>    C       -4.80410        17.99245         2.95317
| 73>    C       -5.31159        17.51505         4.10737
| 74>    C       -6.10956        16.34336         3.82803
| 75>    C       -6.88265        15.61058         4.68954
| 76>    C       -7.95629        14.71522         4.31764
| 77>    C       -8.70596        14.45941         5.41016
| 78>    C       -8.09584        15.10840         6.55512
| 79>    N       -8.63818        14.99217         7.85514
| 80>    O       -8.07808        15.56139         8.77368
| 81>    O       -9.65556        14.33523         7.96933
| 82>    C       -6.95614        15.76909         6.16208
| 83>    C       -5.97560        16.36107         7.03151
| 84>    C       -4.65844        16.29420         6.83204
| 85>    H       -0.03114         2.96491        11.93211
| 86>    H        0.84848         6.40237        10.67773
| 87>    H        1.62723         4.98776        11.43483
| 88>    H       -0.56379         6.72421        12.69355
| 89>    H        1.14657         6.74755        13.13264
| 90>    H        0.17069         5.31157        13.46181
| 91>    H       -5.56048         2.11417         8.83952
| 92>    H       -4.71433         0.74174         9.58854
| 93>    H       -4.15943         1.77173         6.75251
| 94>    H       -5.08116         0.32302         7.16667
| 95>    H       -3.36057         0.41063         7.54660
| 96>    H       -4.91926         3.91409         7.58797
| 97>    H       -3.22228         6.31802         8.45158
| 98>    H       -6.92950         8.99614         6.38928
| 99>    H       -6.90137         7.18606         4.45623
|100>    H       -3.19718         4.20489         5.96725
|101>    H       -3.23637         2.42642         4.01015
|102>    H       -6.23668         5.49740         1.59239
|103>    H       -5.04055         7.81188         3.21615
|104>    H       -7.07273         6.84594        -0.00877
|105>    H       -7.77900        11.50911        -1.25461
|106>    H       -6.51936        12.61940         1.31870
|107>    H       -7.18900        18.15398        -2.00066
|108>    H       -7.42735        17.27009         0.10295
|109>    H       -4.18556        18.85705         2.80708
|110>    H       -5.19381        17.94754         5.07945
|111>    H       -8.16208        14.39050         3.31833
|112>    H       -9.60518        13.87690         5.47662
|113>    H       -6.36364        16.77976         7.95105
|114>    H       -4.23169        15.79719         5.97618
|115>    H       -3.96740        16.70738         7.54564
|116> *
|117>
|118>                          ****END OF INPUT****

CARTESIAN COORDINATES (ANGSTROEM)
---------------------------------
  C     -0.635290    3.485710   11.211990
  N     -0.348660    4.755590   10.843170
  C      0.707540    5.577370   11.380940
  C      0.340250    6.123650   12.757980
  C     -1.271940    5.234170    9.879590
  O     -1.193360    6.329070    9.364650
  C     -2.183570    4.127760    9.694390
  C     -1.743260    3.056510   10.525800
  C     -2.636830    1.931750   10.318440
  O     -2.672670    0.819320   10.786900
  N     -3.567330    2.409420    9.368240
  C     -4.619550    1.557850    8.866840
  C     -4.282780    0.983750    7.492400
  C     -3.314190    3.707930    9.000140
  C     -4.111580    4.438040    8.080770
  C     -3.942090    5.766290    7.856880
  C     -4.782180    6.524070    6.989230
  C     -5.359580    7.736150    7.325390
  N     -5.200310    8.440130    8.534200
  O     -4.627210    7.887290    9.457530
  O     -5.654230    9.569980    8.579860
  C     -6.300690    8.130290    6.308720
  C     -6.268880    7.208710    5.320230
  C     -5.253250    6.223420    5.621490
  C     -4.695160    5.322330    4.743980
  C     -3.772160    4.262670    5.066300
  C     -3.780470    3.350340    4.065600
  C     -4.634960    3.826240    3.010890
  N     -4.797520    3.114350    1.809570
  O     -5.495610    3.591500    0.927420
  O     -4.232940    2.037980    1.722960
  C     -5.117210    5.088480    3.342370
  C     -5.743860    5.970890    2.430260
  C     -5.625320    7.327430    2.445670
  C     -6.202170    8.178160    1.472310
  S     -6.084200    9.910680    1.665190
  C     -6.967640   10.194220    0.201020
  C     -7.317650    8.976460   -0.399100
  C     -6.894490    7.854360    0.318240
  C     -8.037450    8.911280   -1.606920
  N     -8.626070    8.861270   -2.588760
  C     -7.276930   11.479810   -0.295250
  C     -6.999050   12.642030    0.347760
  C     -7.300630   13.925480   -0.166920
  S     -7.959820   14.201540   -1.744820
  C     -7.925620   15.908690   -1.508950
  C     -8.425320   16.781500   -2.594610
  O     -9.228020   16.407150   -3.401560
  O     -7.927080   18.025350   -2.611410
  C     -7.453520   16.259830   -0.270150
  C     -7.089870   15.137770    0.496210
  O     -6.677790   15.129930    1.790120
  C     -6.033370   16.144810    2.363010
  C     -5.210860   17.130540    1.857990
  N     -4.740620   17.310980    0.552160
  O     -4.889640   16.390430   -0.246600
  O     -4.212760   18.373360    0.275090
  C     -4.804100   17.992450    2.953170
  C     -5.311590   17.515050    4.107370
  C     -6.109560   16.343360    3.828030
  C     -6.882650   15.610580    4.689540
  C     -7.956290   14.715220    4.317640
  C     -8.705960   14.459410    5.410160
  C     -8.095840   15.108400    6.555120
  N     -8.638180   14.992170    7.855140
  O     -8.078080   15.561390    8.773680
  O     -9.655560   14.335230    7.969330
  C     -6.956140   15.769090    6.162080
  C     -5.975600   16.361070    7.031510
  C     -4.658440   16.294200    6.832040
  H     -0.031140    2.964910   11.932110
  H      0.848480    6.402370   10.677730
  H      1.627230    4.987760   11.434830
  H     -0.563790    6.724210   12.693550
  H      1.146570    6.747550   13.132640
  H      0.170690    5.311570   13.461810
  H     -5.560480    2.114170    8.839520
  H     -4.714330    0.741740    9.588540
  H     -4.159430    1.771730    6.752510
  H     -5.081160    0.323020    7.166670
  H     -3.360570    0.410630    7.546600
  H     -4.919260    3.914090    7.587970
  H     -3.222280    6.318020    8.451580
  H     -6.929500    8.996140    6.389280
  H     -6.901370    7.186060    4.456230
  H     -3.197180    4.204890    5.967250
  H     -3.236370    2.426420    4.010150
  H     -6.236680    5.497400    1.592390
  H     -5.040550    7.811880    3.216150
  H     -7.072730    6.845940   -0.008770
  H     -7.779000   11.509110   -1.254610
  H     -6.519360   12.619400    1.318700
  H     -7.189000   18.153980   -2.000660
  H     -7.427350   17.270090    0.102950
  H     -4.185560   18.857050    2.807080
  H     -5.193810   17.947540    5.079450
  H     -8.162080   14.390500    3.318330
  H     -9.605180   13.876900    5.476620
  H     -6.363640   16.779760    7.951050
  H     -4.231690   15.797190    5.976180
  H     -3.967400   16.707380    7.545640

 Total Charge           Charge          ....    0
 Multiplicity           Mult            ....    1
 Number of Electrons    NEL             ....  504
 Basis Dimension        Dim             .... 1143

ORBITAL ENERGIES
----------------

  NO   OCC          E(Eh)            E(eV)
   0   2.0000     -88.992806     -2421.6174
   1   2.0000     -88.986514     -2421.4462
   2   2.0000     -19.335596      -526.1483
   3   2.0000     -19.270599      -524.3797
   4   2.0000     -19.260693      -524.1101
   5   2.0000     -19.260610      -524.1078
   6   2.0000     -19.250194      -523.8244
   7   2.0000     -19.249259      -523.7990
   8   2.0000     -19.243255      -523.6356
   9   2.0000     -19.243210      -523.6344
  10   2.0000     -19.243150      -523.6327
  11   2.0000     -19.242616      -523.6182
  12   2.0000     -19.208354      -522.6859
  13   2.0000     -19.199325      -522.4402
  14   2.0000     -19.190373      -522.1966
  15   2.0000     -14.668618      -399.1534
  16   2.0000     -14.658846      -398.8875
  17   2.0000     -14.652363      -398.7111
  18   2.0000     -14.651545      -398.6888
  19   2.0000     -14.460677      -393.4950
  20   2.0000     -14.456892      -393.3920
  21   2.0000     -14.417373      -392.3167
  22   2.0000     -10.418211      -283.4939
  23   2.0000     -10.409769      -283.2642
  24   2.0000     -10.380344      -282.4635
  25   2.0000     -10.378802      -282.4216
  26   2.0000     -10.377231      -282.3788
  27   2.0000     -10.352666      -281.7104
  28   2.0000     -10.350534      -281.6523
  29   2.0000     -10.349958      -281.6367
  30   2.0000     -10.347717      -281.5757
  31   2.0000     -10.347318      -281.5648
  32   2.0000     -10.344812      -281.4967
  33   2.0000     -10.342666      -281.4383
  34   2.0000     -10.340321      -281.3744
  35   2.0000     -10.338019      -281.3118
  36   2.0000     -10.337997      -281.3112
  37   2.0000     -10.336915      -281.2818
  38   2.0000     -10.336777      -281.2780
  39   2.0000     -10.336047      -281.2581
  40   2.0000     -10.334198      -281.2078
  41   2.0000     -10.332400      -281.1589
  42   2.0000     -10.332366      -281.1580
  43   2.0000     -10.331797      -281.1425
  44   2.0000     -10.328581      -281.0550
  45   2.0000     -10.322875      -280.8997
  46   2.0000     -10.319848      -280.8173
  47   2.0000     -10.319441      -280.8063
  48   2.0000     -10.317115      -280.7430
  49   2.0000     -10.316439      -280.7246
  50   2.0000     -10.314840      -280.6811
  51   2.0000     -10.314361      -280.6680
  52   2.0000     -10.313836      -280.6537
  53   2.0000     -10.313280      -280.6386
  54   2.0000     -10.313274      -280.6385
  55   2.0000     -10.307495      -280.4812
  56   2.0000     -10.307333      -280.4768
  57   2.0000     -10.306412      -280.4517
  58   2.0000     -10.306389      -280.4511
  59   2.0000     -10.305263      -280.4205
  60   2.0000     -10.304075      -280.3881
  61   2.0000     -10.301572      -280.3200
  62   2.0000     -10.300992      -280.3042
  63   2.0000     -10.300558      -280.2924
  64   2.0000     -10.295755      -280.1617
  65   2.0000     -10.292439      -280.0715
  66   2.0000     -10.269324      -279.4425
  67   2.0000     -10.268398      -279.4173
  68   2.0000     -10.267929      -279.4046
  69   2.0000     -10.265228      -279.3311
  70   2.0000      -8.088362      -220.0955
  71   2.0000      -8.081641      -219.9126
  72   2.0000      -6.057462      -164.8319
  73   2.0000      -6.053511      -164.7244
  74   2.0000      -6.050899      -164.6533
  75   2.0000      -6.050635      -164.6461
  76   2.0000      -6.046782      -164.5413
  77   2.0000      -6.043729      -164.4582
  78   2.0000      -1.338473       -36.4217
  79   2.0000      -1.330286       -36.1989
  80   2.0000      -1.322424       -35.9850
  81   2.0000      -1.322164       -35.9779
  82   2.0000      -1.244910       -33.8757
  83   2.0000      -1.193862       -32.4866
  84   2.0000      -1.155264       -31.4363
  85   2.0000      -1.148096       -31.2413
  86   2.0000      -1.140336       -31.0301
  87   2.0000      -1.139363       -31.0036
  88   2.0000      -1.139015       -30.9942
  89   2.0000      -1.131262       -30.7832
  90   2.0000      -1.109217       -30.1833
  91   2.0000      -1.069947       -29.1147
  92   2.0000      -1.060901       -28.8686
  93   2.0000      -1.035598       -28.1801
  94   2.0000      -1.029166       -28.0050
  95   2.0000      -1.026266       -27.9261
  96   2.0000      -1.018767       -27.7220
  97   2.0000      -1.010234       -27.4899
  98   2.0000      -1.006476       -27.3876
  99   2.0000      -0.997140       -27.1336
 100   2.0000      -0.943620       -25.6772
 101   2.0000      -0.933946       -25.4140
 102   2.0000      -0.932584       -25.3769
 103   2.0000      -0.923459       -25.1286
 104   2.0000      -0.920696       -25.0534
 105   2.0000      -0.917082       -24.9551
 106   2.0000      -0.910059       -24.7640
 107   2.0000      -0.897728       -24.4284
 108   2.0000      -0.892621       -24.2895
 109   2.0000      -0.888969       -24.1901
 110   2.0000      -0.883616       -24.0444
 111   2.0000      -0.878784       -23.9129
 112   2.0000      -0.875073       -23.8120
 113   2.0000      -0.852372       -23.1942
 114   2.0000      -0.846918       -23.0458
 115   2.0000      -0.841872       -22.9085
 116   2.0000      -0.826007       -22.4768
 117   2.0000      -0.825146       -22.4534
 118   2.0000      -0.818482       -22.2720
 119   2.0000      -0.806440       -21.9443
 120   2.0000      -0.804166       -21.8825
 121   2.0000      -0.800519       -21.7832
 122   2.0000      -0.769084       -20.9279
 123   2.0000      -0.765979       -20.8434
 124   2.0000      -0.765645       -20.8343
 125   2.0000      -0.753859       -20.5135
 126   2.0000      -0.745365       -20.2824
 127   2.0000      -0.744142       -20.2491
 128   2.0000      -0.737408       -20.0659
 129   2.0000      -0.719400       -19.5759
 130   2.0000      -0.715168       -19.4607
 131   2.0000      -0.712813       -19.3966
 132   2.0000      -0.710681       -19.3386
 133   2.0000      -0.705544       -19.1988
 134   2.0000      -0.691391       -18.8137
 135   2.0000      -0.685428       -18.6514
 136   2.0000      -0.682125       -18.5616
 137   2.0000      -0.679200       -18.4820
 138   2.0000      -0.671938       -18.2843
 139   2.0000      -0.671850       -18.2820
 140   2.0000      -0.658417       -17.9164
 141   2.0000      -0.656555       -17.8658
 142   2.0000      -0.653851       -17.7922
 143   2.0000      -0.649843       -17.6831
 144   2.0000      -0.644016       -17.5246
 145   2.0000      -0.642846       -17.4927
 146   2.0000      -0.640335       -17.4244
 147   2.0000      -0.639111       -17.3911
 148   2.0000      -0.634587       -17.2680
 149   2.0000      -0.633654       -17.2426
 150   2.0000      -0.633010       -17.2251
 151   2.0000      -0.629758       -17.1366
 152   2.0000      -0.623701       -16.9718
 153   2.0000      -0.621117       -16.9015
 154   2.0000      -0.618372       -16.8268
 155   2.0000      -0.615186       -16.7401
 156   2.0000      -0.609050       -16.5731
 157   2.0000      -0.608623       -16.5615
 158   2.0000      -0.597252       -16.2521
 159   2.0000      -0.595110       -16.1938
 160   2.0000      -0.589938       -16.0530
 161   2.0000      -0.586635       -15.9631
 162   2.0000      -0.583339       -15.8735
 163   2.0000      -0.581514       -15.8238
 164   2.0000      -0.581260       -15.8169
 165   2.0000      -0.578233       -15.7345
 166   2.0000      -0.574093       -15.6219
 167   2.0000      -0.569892       -15.5075
 168   2.0000      -0.566930       -15.4269
 169   2.0000      -0.565404       -15.3854
 170   2.0000      -0.561060       -15.2672
 171   2.0000      -0.553494       -15.0613
 172   2.0000      -0.550878       -14.9901
 173   2.0000      -0.549270       -14.9464
 174   2.0000      -0.546645       -14.8750
 175   2.0000      -0.545871       -14.8539
 176   2.0000      -0.542680       -14.7671
 177   2.0000      -0.537200       -14.6180
 178   2.0000      -0.535903       -14.5827
 179   2.0000      -0.532482       -14.4896
 180   2.0000      -0.530595       -14.4382
 181   2.0000      -0.529532       -14.4093
 182   2.0000      -0.528637       -14.3850
 183   2.0000      -0.528088       -14.3700
 184   2.0000      -0.519985       -14.1495
 185   2.0000      -0.516833       -14.0637
 186   2.0000      -0.513875       -13.9833
 187   2.0000      -0.513543       -13.9742
 188   2.0000      -0.510837       -13.9006
 189   2.0000      -0.509044       -13.8518
 190   2.0000      -0.507903       -13.8207
 191   2.0000      -0.506964       -13.7952
 192   2.0000      -0.501661       -13.6509
 193   2.0000      -0.498131       -13.5548
 194   2.0000      -0.495880       -13.4936
 195   2.0000      -0.495254       -13.4765
 196   2.0000      -0.488511       -13.2931
 197   2.0000      -0.486918       -13.2497
 198   2.0000      -0.484768       -13.1912
 199   2.0000      -0.481966       -13.1150
 200   2.0000      -0.479727       -13.0540
 201   2.0000      -0.473747       -12.8913
 202   2.0000      -0.472436       -12.8556
 203   2.0000      -0.471019       -12.8171
 204   2.0000      -0.469811       -12.7842
 205   2.0000      -0.464289       -12.6339
 206   2.0000      -0.463305       -12.6072
 207   2.0000      -0.459434       -12.5018
 208   2.0000      -0.457018       -12.4361
 209   2.0000      -0.455029       -12.3820
 210   2.0000      -0.453526       -12.3411
 211   2.0000      -0.450492       -12.2585
 212   2.0000      -0.447969       -12.1898
 213   2.0000      -0.445690       -12.1278
 214   2.0000      -0.440982       -11.9997
 215   2.0000      -0.440416       -11.9843
 216   2.0000      -0.437089       -11.8938
 217   2.0000      -0.435347       -11.8464
 218   2.0000      -0.429305       -11.6820
 219   2.0000      -0.421453       -11.4683
 220   2.0000      -0.411747       -11.2042
 221   2.0000      -0.409481       -11.1425
 222   2.0000      -0.407364       -11.0849
 223   2.0000      -0.405158       -11.0249
 224   2.0000      -0.401589       -10.9278
 225   2.0000      -0.396213       -10.7815
 226   2.0000      -0.392197       -10.6722
 227   2.0000      -0.391579       -10.6554
 228   2.0000      -0.390243       -10.6191
 229   2.0000      -0.388400       -10.5689
 230   2.0000      -0.385060       -10.4780
 231   2.0000      -0.382479       -10.4078
 232   2.0000      -0.381750       -10.3879
 233   2.0000      -0.374715       -10.1965
 234   2.0000      -0.373957       -10.1759
 235   2.0000      -0.369694       -10.0599
 236   2.0000      -0.366328        -9.9683
 237   2.0000      -0.362646        -9.8681
 238   2.0000      -0.361246        -9.8300
 239   2.0000      -0.355963        -9.6862
 240   2.0000      -0.352849        -9.6015
 241   2.0000      -0.352296        -9.5865
 242   2.0000      -0.348616        -9.4863
 243   2.0000      -0.342909        -9.3310
 244   2.0000      -0.335154        -9.1200
 245   2.0000      -0.325710        -8.8630
 246   2.0000      -0.320085        -8.7099
 247   2.0000      -0.316808        -8.6208
 248   2.0000      -0.311729        -8.4826
 249   2.0000      -0.301558        -8.2058
 250   2.0000      -0.266160        -7.2426
 251   2.0000      -0.252868        -6.8809
 252   0.0000      -0.140267        -3.8169
 253   0.0000      -0.136177        -3.7056
 254   0.0000      -0.091715        -2.4957
 255   0.0000      -0.072864        -1.9827
 256   0.0000      -0.058934        -1.6037

MULLIKEN ATOMIC CHARGES
-----------------------
   0 C :    0.049949
   1 N :   -0.256770
   2 C :    0.109093
   3 C :   -0.004450
   4 C :    0.173316
   5 O :   -0.196103
   6 C :   -0.093553
   7 C :   -0.005713
   8 C :    0.163559
   9 O :   -0.180391
  10 N :   -0.270490
  11 C :    0.097233
  12 C :    0.005167
  13 C :    0.149457
  14 C :   -0.056369
  15 C :   -0.008601
  16 C :    0.014171
  17 C :    0.094384
  18 N :    0.267147
  19 O :   -0.234427
  20 O :   -0.248161
  21 C :    0.017416
  22 C :   -0.031727
  23 C :    0.047878
  24 C :    0.044486
  25 C :   -0.022085
  26 C :    0.029019
  27 C :    0.080665
  28 N :    0.274197
  29 O :   -0.256796
  30 O :   -0.244638
  31 C :    0.016909
  32 C :   -0.053655
  33 C :    0.061651
  34 C :   -0.091042
  35 S :    0.147419
  36 C :   -0.035412
  37 C :   -0.057852
  38 C :    0.027107
  39 C :   -0.188828
  40 N :    0.144101
  41 C :   -0.015205
  42 C :    0.011822
  43 C :   -0.134528
  44 S :    0.217531
  45 C :   -0.188070
  46 C :    0.203259
  47 O :   -0.165060
  48 O :   -0.156747
  49 C :   -0.020157
  50 C :    0.243452
  51 O :   -0.223284
  52 C :    0.135525
  53 C :    0.035341
  54 N :    0.265190
  55 O :   -0.243595
  56 O :   -0.242600
  57 C :    0.024054
  58 C :    0.004480
  59 C :    0.019293
  60 C :    0.025604
  61 C :    0.002276
  62 C :    0.041259
  63 C :    0.092652
  64 N :    0.267815
  65 O :   -0.241661
  66 O :   -0.237661
  67 C :    0.000529
  68 C :   -0.044506
  69 C :   -0.000376
  70 H :    0.020161
  71 H :    0.044048
  72 H :    0.020427
  73 H :    0.036521
  74 H :    0.025645
  75 H :    0.016492
  76 H :    0.023528
  77 H :    0.046550
  78 H :   -0.000305
  79 H :    0.027157
  80 H :    0.030875
  81 H :    0.000631
  82 H :    0.056633
  83 H :    0.002949
  84 H :    0.016358
  85 H :    0.021400
  86 H :    0.012127
  87 H :    0.032513
  88 H :    0.019572
  89 H :    0.017349
  90 H :    0.026404
  91 H :    0.004697
  92 H :    0.188802
  93 H :    0.003606
  94 H :    0.008490
  95 H :    0.004846
  96 H :   -0.003255
  97 H :    0.012021
  98 H :    0.042185
  99 H :    0.042054
 100 H :    0.045628
Sum of atomic charges:   -0.0000000

LOEWDIN ATOMIC CHARGES
----------------------
   0 C :    0.098061
   1 N :    0.002640
   2 C :    0.038835
   3 C :   -0.060165
   4 C :    0.080219
   5 O :   -0.187082
   6 C :   -0.120183
   7 C :   -0.130895
   8 C :    0.081184
   9 O :   -0.186149
  10 N :   -0.008042
  11 C :    0.036550
  12 C :   -0.063287
  13 C :    0.074162
  14 C :   -0.029853
  15 C :    0.028192
  16 C :    0.008745
  17 C :   -0.034631
  18 N :    0.283426
  19 O :   -0.197754
  20 O :   -0.212514
  21 C :    0.002306
  22 C :   -0.041067
  23 C :    0.032022
  24 C :    0.044331
  25 C :   -0.044197
  26 C :    0.016834
  27 C :   -0.049995
  28 N :    0.285313
  29 O :   -0.219905
  30 O :   -0.209248
  31 C :    0.017929
  32 C :   -0.020730
  33 C :   -0.007462
  34 C :   -0.170504
  35 S :    0.460784
  36 C :   -0.132027
  37 C :   -0.099703
  38 C :   -0.005422
  39 C :   -0.035108
  40 N :   -0.041984
  41 C :   -0.042384
  42 C :   -0.021107
  43 C :   -0.189623
  44 S :    0.513825
  45 C :   -0.216552
  46 C :    0.058095
  47 O :   -0.147735
  48 O :   -0.023994
  49 C :   -0.071750
  50 C :    0.019907
  51 O :    0.008398
  52 C :    0.086374
  53 C :   -0.096172
  54 N :    0.280028
  55 O :   -0.207051
  56 O :   -0.210381
  57 C :    0.013830
  58 C :   -0.041411
  59 C :    0.016493
  60 C :    0.051487
  61 C :   -0.043646
  62 C :    0.024221
  63 C :   -0.035352
  64 N :    0.283453
  65 O :   -0.202632
  66 O :   -0.202304
  67 C :    0.019562
  68 C :   -0.028754
  69 C :    0.001636
  70 H :    0.034837
  71 H :    0.036884
  72 H :    0.025402
  73 H :    0.033930
  74 H :    0.031174
  75 H :    0.023057
  76 H :    0.023157
  77 H :    0.038992
  78 H :    0.017761
  79 H :    0.032732
  80 H :    0.033045
  81 H :    0.031758
  82 H :    0.045185
  83 H :    0.037870
  84 H :    0.033030
  85 H :    0.033562
  86 H :    0.039642
  87 H :    0.037371
  88 H :    0.034803
  89 H :    0.046770
  90 H :    0.039863
  91 H :    0.030875
  92 H :    0.097958
  93 H :    0.030470
  94 H :    0.041015
  95 H :    0.033941
  96 H :    0.028871
  97 H :    0.040931
  98 H :    0.043326
  99 H :    0.026650
 100 H :    0.035050

  Mayer bond orders larger than 0.100000
B(  0-C ,  1-N ) :   1.2065 B(  0-C ,  7-C ) :   1.4385 B(  0-C , 70-H ) :   0.9900
B(  1-N ,  2-C ) :   0.9381 B(  1-N ,  4-C ) :   1.0432 B(  2-C ,  3-C ) :   1.1202
B(  2-C , 71-H ) :   0.9346 B(  2-C , 72-H ) :   0.9540 B(  3-C , 73-H ) :   0.9672
B(  3-C , 74-H ) :   0.9688 B(  3-C , 75-H ) :   0.9688 B(  4-C ,  5-O ) :   2.0541
B(  4-C ,  6-C ) :   0.9920 B(  6-C ,  7-C ) :   1.2164 B(  6-C , 13-C ) :   1.3838
B(  7-C ,  8-C ) :   0.9520 B(  8-C ,  9-O ) :   2.1800 B(  8-C , 10-N ) :   1.0128
B( 10-N , 11-C ) :   0.9438 B( 10-N , 13-C ) :   1.1627 B( 11-C , 12-C ) :   1.1208
B( 11-C , 76-H ) :   0.9505 B( 11-C , 77-H ) :   0.9276 B( 12-C , 78-H ) :   0.9664
B( 12-C , 79-H ) :   0.9660 B( 12-C , 80-H ) :   0.9623 B( 13-C , 14-C ) :   1.1503
B( 14-C , 15-C ) :   1.6436 B( 14-C , 81-H ) :   0.9624 B( 15-C , 16-C ) :   1.1027
B( 15-C , 82-H ) :   0.9115 B( 16-C , 17-C ) :   1.5758 B( 16-C , 23-C ) :   1.0273
B( 17-C , 18-N ) :   0.9381 B( 17-C , 21-C ) :   1.1153 B( 18-N , 19-O ) :   1.5113
B( 18-N , 20-O ) :   1.5224 B( 19-O , 20-O ) :   0.2673 B( 21-C , 22-C ) :   1.6075
B( 21-C , 83-H ) :   1.0169 B( 22-C , 23-C ) :   1.0871 B( 22-C , 84-H ) :   0.9925
B( 23-C , 24-C ) :   1.5732 B( 24-C , 25-C ) :   1.1080 B( 24-C , 31-C ) :   0.9928
B( 25-C , 26-C ) :   1.5788 B( 25-C , 85-H ) :   0.9964 B( 26-C , 27-C ) :   1.1232
B( 26-C , 86-H ) :   1.0094 B( 27-C , 28-N ) :   0.9554 B( 27-C , 31-C ) :   1.5275
B( 28-N , 29-O ) :   1.4866 B( 28-N , 30-O ) :   1.5363 B( 29-O , 30-O ) :   0.2578
B( 31-C , 32-C ) :   1.1877 B( 32-C , 33-C ) :   1.6163 B( 32-C , 87-H ) :   0.9422
B( 33-C , 34-C ) :   1.1453 B( 33-C , 88-H ) :   0.9534 B( 34-C , 35-S ) :   1.1057
B( 34-C , 38-C ) :   1.4698 B( 35-S , 36-C ) :   1.1322 B( 36-C , 37-C ) :   1.4241
B( 36-C , 41-C ) :   1.2043 B( 37-C , 38-C ) :   1.2996 B( 37-C , 39-C ) :   1.1010
B( 38-C , 89-H ) :   0.9997 B( 39-C , 40-N ) :   3.0222 B( 41-C , 42-C ) :   1.6136
B( 41-C , 90-H ) :   0.9586 B( 42-C , 43-C ) :   1.1750 B( 42-C , 91-H ) :   0.9764
B( 43-C , 44-S ) :   1.1290 B( 43-C , 45-C ) :   0.1023 B( 43-C , 50-C ) :   1.4678
B( 44-S , 45-C ) :   1.1554 B( 45-C , 46-C ) :   0.9240 B( 45-C , 49-C ) :   1.5067
B( 46-C , 47-O ) :   2.2016 B( 46-C , 48-O ) :   1.2451 B( 48-O , 92-H ) :   0.9475
B( 49-C , 50-C ) :   1.2356 B( 49-C , 93-H ) :   0.9860 B( 50-C , 51-O ) :   1.0201
B( 51-O , 52-C ) :   1.1784 B( 52-C , 53-C ) :   1.5287 B( 52-C , 59-C ) :   1.0392
B( 53-C , 54-N ) :   0.9506 B( 53-C , 57-C ) :   1.1015 B( 54-N , 55-O ) :   1.4841
B( 54-N , 56-O ) :   1.5267 B( 55-O , 56-O ) :   0.2540 B( 57-C , 58-C ) :   1.6322
B( 57-C , 94-H ) :   1.0159 B( 58-C , 59-C ) :   1.0977 B( 58-C , 95-H ) :   1.0012
B( 59-C , 60-C ) :   1.5627 B( 60-C , 61-C ) :   1.0970 B( 60-C , 67-C ) :   0.9996
B( 61-C , 62-C ) :   1.6091 B( 61-C , 96-H ) :   1.0121 B( 62-C , 63-C ) :   1.0952
B( 62-C , 97-H ) :   1.0110 B( 63-C , 64-N ) :   0.9310 B( 63-C , 67-C ) :   1.6132
B( 64-N , 65-O ) :   1.5095 B( 64-N , 66-O ) :   1.5417 B( 65-O , 66-O ) :   0.2702
B( 67-C , 68-C ) :   1.1219 B( 68-C , 69-C ) :   1.8844 B( 68-C , 98-H ) :   0.9394
B( 69-C , 99-H ) :   0.9607 B( 69-C ,100-H ) :   0.9520

-----------------------------------------------------------------------------
         ABSORPTION SPECTRUM VIA TRANSITION ELECTRIC DIPOLE MOMENTS
-----------------------------------------------------------------------------
State   Energy  Wavelength   fosc         T2         TX        TY        TZ
        (cm-1)    (nm)                  (au**2)     (au)      (au)      (au)
-----------------------------------------------------------------------------
   0    9360.1   1068.4   0.211179711   7.42756  -1.27603   1.50772  -1.87779
   1   12030.7    831.2   0.143350907   3.92270  -0.07334   1.95028  -0.33723
   2   12797.3    781.4   0.066134722   1.70132   0.33146  -0.07753   1.25914
   3   16485.4    606.6   0.005322740   0.10629   0.06154   0.04624   0.31681
   4   16911.9    591.3   0.017806723   0.34663   0.28230  -0.11612   0.50344
   5   18543.4    539.3   0.057434882   1.01967   0.48620  -0.74766   0.47359
   6   19388.7    515.8   0.005691399   0.09664  -0.06102   0.03930  -0.30227
   7   20874.1    479.1   0.232092041   3.66040   0.48256   1.85130  -0.01492
   8   21449.9    466.2   0.236422242   3.62860   1.12506  -1.33500   0.76199
   9   22974.8    435.3   0.560014860   8.02459   0.82228  -2.58548   0.81470
  10   23833.7    419.6   0.016609680   0.22943  -0.17998  -0.41483  -0.15796
  11   24128.1    414.5   0.010361825   0.14138   0.09820  -0.36186   0.02819
  12   25064.9    399.0   0.032136797   0.42210  -0.45825   0.01635  -0.46026
  13   25907.6    386.0   0.073083288   0.92868  -0.52460  -0.70964  -0.38717
  14   26125.6    382.8   0.017628232   0.22214   0.09520   0.46134   0.01545
  15   26749.8    373.8   0.011105599   0.13668   0.22916   0.02278   0.28921
  16   27056.0    369.6   0.011025022   0.13415  -0.06079   0.17862  -0.31393
  17   27441.7    364.4   0.055442998   0.66514  -0.04239  -0.81348  -0.03988
  18   27476.9    363.9   0.016021652   0.19196   0.18646  -0.37195  -0.13728
  19   27500.0    363.6   0.003376192   0.04042   0.03248   0.02316  -0.19704
  20   27658.3    361.6   0.120638468   1.43594   0.19426   1.15778  -0.24029
  21   28779.6    347.5   0.023798775   0.27224   0.00852  -0.20121   0.48133
  22   29116.5    343.4   0.029820022   0.33717  -0.13709   0.24150   0.50995
  23   29645.6    337.3   0.125038009   1.38854  -0.64290   0.93782   0.30936
  24   29967.0    333.7   0.137453965   1.51005   0.11867   0.24549  -1.19821
  25   30176.2    331.4   0.040555815   0.44245  -0.47154   0.39655  -0.25070
  26   30601.6    326.8   0.094184470   1.01324   0.24624   0.87827   0.42574
  27   30648.6    326.3   0.184229485   1.97890   0.29801   1.20120  -0.66875
  28   30765.4    325.0   0.032734927   0.35029  -0.34879  -0.38140   0.28839
  29   30998.4    322.6   0.009088078   0.09652  -0.14207  -0.27035  -0.05697
  30   31074.4    321.8   0.010416028   0.11035   0.12859  -0.16690   0.25683
  31   31345.5    319.0   0.038802668   0.40753   0.07857  -0.31902   0.54734
  32   31672.4    315.7   0.019098017   0.19851   0.11379   0.41000   0.13213
  33   31956.7    312.9   0.094048516   0.96887  -0.19904  -0.29368   0.91815
  34   31995.1    312.5   0.089784527   0.92383  -0.24704  -0.30978   0.87569
  35   32190.0    310.7   0.085849729   0.87800   0.59424   0.59843   0.40835
  36   32441.5    308.2   0.016314625   0.16556   0.10845  -0.24255   0.30817
  37   32753.6    305.3   0.003277690   0.03294  -0.06278   0.03395  -0.16688
  38   32856.1    304.4   0.016728823   0.16762  -0.02996  -0.39067  -0.11875
  39   33157.2    301.6   0.383130032   3.80403  -0.59315   1.59588   0.95151
  40   33358.7    299.8   0.016785984   0.16566   0.13145   0.11266   0.36836
  41   33434.1    299.1   0.016387477   0.16136  -0.20781   0.34355   0.01235
  42   33702.1    296.7   0.007073165   0.06909  -0.08594  -0.22156   0.11233
  43   34007.4    294.1   0.077271022   0.74803  -0.02268   0.13086   0.85463
  44   34283.2    291.7   0.007488476   0.07191   0.17693  -0.14016  -0.14478
  45   34401.3    290.7   0.027031850   0.25869   0.06448   0.37615  -0.33621
  46   34582.6    289.2   0.163155359   1.55317   0.37228  -0.43134  -1.10839
  47   34922.9    286.3   0.043499210   0.41006  -0.22307   0.42440   0.42448
  48   35042.4    285.4   0.005585972   0.05248  -0.08205   0.09135  -0.19339
  49   35110.7    284.8   0.109949694   1.03093   0.69101  -0.18902  -0.71952
  50   35174.6    284.3   0.019019132   0.17801   0.05891  -0.14782  -0.39075
  51   35229.9    283.8   0.007721812   0.07216  -0.24444  -0.11125   0.00557
  52   35324.2    283.1   0.048790229   0.45471  -0.04608  -0.55318   0.38286
  53   35563.3    281.2   0.015395111   0.14251   0.17030   0.24319   0.23318
  54   35729.3    279.9   0.030433047   0.28041  -0.00922   0.47898  -0.22561
  55   35924.0    278.4   0.022497860   0.20617   0.06303  -0.32690   0.30876
  56   36095.5    277.0   0.013590676   0.12395  -0.28688   0.04837   0.19828
  57   36197.2    276.3   0.156535417   1.42368   0.65849   0.99462   0.02863
  58   36994.6    270.3   0.095927531   0.85365   0.15437  -0.02924  -0.91048
  59   37418.8    267.2   0.017558692   0.15448   0.19379  -0.04933  -0.33837
  60   37519.5    266.5   0.166494158   1.46089   0.86569  -0.15406  -0.82930
  61   37628.8    265.8   0.024108388   0.21092   0.05912   0.08293   0.44783
  62   37781.1    264.7   0.373327409   3.25305  -1.13915  -0.75850   1.17476
  63   37863.1    264.1   0.026231660   0.22808  -0.46202  -0.00376   0.12085
  64   37983.6    263.3   0.134653894   1.16708   0.57875   0.75139  -0.51724
  65   38362.2    260.7   0.018323865   0.15725   0.08417   0.38437   0.04923
  66   38378.7    260.6   0.063055899   0.54089   0.42021  -0.07217  -0.59925
  67   38620.8    258.9   0.019064627   0.16251   0.07894   0.39107   0.05779
  68   38800.9    257.7   0.019797813   0.16798   0.06971   0.31203  -0.25643
  69   38928.9    256.9   0.060454979   0.51125  -0.26196  -0.27245   0.60696
  70   39064.5    256.0   0.009514340   0.08018  -0.20612  -0.11332   0.15765
  71   39199.8    255.1   0.078325038   0.65780   0.18744  -0.77097   0.16814
  72   39232.8    254.9   0.020619173   0.17302   0.13824  -0.24140   0.30925
  73   39324.0    254.3   0.006609527   0.05533  -0.03091   0.08360   0.21769
  74   39492.2    253.2   0.101100492   0.84279   0.06370   0.25205  -0.88046
  75   39801.1    251.2   0.001721008   0.01424  -0.00149   0.11915  -0.00611
  76   40087.8    249.5   0.033044798   0.27137   0.09887  -0.30930  -0.40735

FINAL SINGLE POINT ENERGY     -4000.572711109251

DIPOLE MOMENT
-------------
                                X             Y             Z
Electronic contribution:    -27.90834      39.51257     -50.21972
Nuclear contribution   :     29.98811     -38.50537      52.74543
                        -----------------------------------------
Total Dipole Moment    :      2.07977       1.00720       2.52571
                        -----------------------------------------
Magnitude (a.u.)       :      3.42332
Magnitude (Debye)      :      8.70139

Rotational constants in cm-1:     0.001262     0.000408     0.000335
Rotational constants in MHz :    37.840945    12.222727    10.056261

                             ****ORCA TERMINATED NORMALLY****
TOTAL RUN TIME: 0 days 0 hours 11 minutes 12 seconds 816 msec
