                         Program Version 4.2.0 -  RELEASE  -
|  1> # ORCA input file
|  2> # SCF done       -206.062591747988          0.000274354767
|  3> ! CAM-B3LYP def2-SVP def2/J RIJCOSX Grid4 TightSCF
|  4> %maxcore 5000
|  5> %tddft
|  6>     Mode sTDDFT
|  7>     Ethresh 5.0
|  8>     maxcore 5000
|  9> end
| 10>
| 11> %pal
| 12>   nprocs 6
| 13>   end
| 14> * xyz 0 1
| 15>    C       -6.72592         0.68250         5.99905
| 16>    N       -7.83003         1.26478         5.46022
| 17>    C       -9.19428         0.86102         5.68863
| 18>    C       -9.53692        -0.41788         4.92886
| 19>    C       -7.48126         2.30746         4.56630
| 20>    O       -8.29836         2.97506         3.96370
| 21>    C       -6.04170         2.32411         4.60885
| 22>    C       -5.60980         1.30162         5.50828
| 23>    C       -4.16325         1.33570         5.53796
| 24>    O       -3.34340         0.67520         6.13578
| 25>    N       -3.81581         2.37736         4.64606
| 26>    C       -2.42627         2.72625         4.47903
| 27>    C       -2.04925         3.97032         5.28071
| 28>    C       -4.92964         2.97536         4.09390
| 29>    C       -5.04146         4.04306         3.16371
| 30>    C       -4.07988         4.77588         2.54969
| 31>    C       -4.35599         5.83265         1.64194
| 32>    C       -5.56202         6.32634         1.18693
| 33>    C       -5.41156         7.39826         0.30911
| 34>   Cl       -6.75365         8.19735        -0.39953
| 35>    C       -4.09258         7.76371         0.05844
| 36>    S       -3.02544         6.72098         0.95060
| 37>    C       -3.61041         8.81009        -0.76249
| 38>    C       -2.29304         9.16737        -1.03285
| 39>   Cl       -0.94865         8.32488        -0.38614
| 40>    C       -2.15178        10.26735        -1.87348
| 41>    C       -3.36304        10.79998        -2.27926
| 42>    S       -4.68542         9.89274        -1.59280
| 43>    C       -3.49660        11.93573        -3.11649
| 44>    N       -4.66695        12.52742        -3.53615
| 45>    C       -6.02334        12.08655        -3.32268
| 46>    C       -6.41490        10.96346        -4.27905
| 47>    C       -4.42283        13.66721        -4.32585
| 48>    O       -5.31179        14.35423        -4.79528
| 49>    C       -2.98857        13.76631        -4.38524
| 50>    C       -2.44450        12.69021        -3.63711
| 51>    C       -1.00435        12.79485        -3.69918
| 52>    O       -0.11143        12.11510        -3.22769
| 53>    N       -0.77010        13.92900        -4.49091
| 54>    C        0.56964        14.39862        -4.74603
| 55>    C        0.94241        15.57121        -3.84199
| 56>    C       -1.94074        14.52681        -4.90224
| 57>    C       -1.99219        15.69013        -5.70310
| 58>    C       -3.16096        16.28589        -6.06074
| 59>    C       -3.24396        17.45669        -6.84652
| 60>    C       -4.39415        18.13106        -7.20652
| 61>    C       -4.14979        19.26646        -7.97783
| 62>   Cl       -5.39628        20.29586        -8.55373
| 63>    C       -2.80221        19.49745        -8.24126
| 64>    S       -1.83621        18.25905        -7.49410
| 65>    C       -2.23323        20.55533        -8.99111
| 66>    C       -0.89313        20.77941        -9.28565
| 67>   Cl        0.37769        19.75270        -8.75858
| 68>    C       -0.65387        21.91505       -10.05390
| 69>    C       -1.80984        22.60547       -10.36905
| 70>    S       -3.21098        21.80981        -9.69173
| 71>    C       -2.03586        23.80153       -11.10051
| 72>    N       -1.11040        24.59586       -11.74261
| 73>    C        0.30355        24.37289       -11.91673
| 74>    C        0.58796        23.29557       -12.96065
| 75>    C       -1.71437        25.72441       -12.34119
| 76>    O       -1.08322        26.55932       -12.95812
| 77>    C       -3.11536        25.59993       -12.02510
| 78>    C       -3.27527        24.40610       -11.26888
| 79>    C       -4.66704        24.26800       -10.93957
| 80>    O       -5.27708        23.41228       -10.32220
| 81>    N       -5.27416        25.39456       -11.52012
| 82>    C       -6.68621        25.63985       -11.35783
| 83>    C       -6.96161        26.64728       -10.24382
| 84>    C       -4.35961        26.19679       -12.16381
| 85>    C       -4.71224        27.41064       -12.84230
| 86>    C       -3.81431        28.18400       -13.45634
| 87>    H       -6.81455        -0.12643         6.70062
| 88>    H       -9.82224         1.68378         5.33607
| 89>    H       -9.35383         0.72109         6.76209
| 90>    H       -9.39625        -0.26660         3.86145
| 91>    H      -10.57348        -0.68849         5.10907
| 92>    H       -8.89984        -1.23874         5.25100
| 93>    H       -2.19947         2.84665         3.41686
| 94>    H       -1.86067         1.86926         4.85840
| 95>    H       -2.66499         4.82207         5.00070
| 96>    H       -1.00552         4.21853         5.10820
| 97>    H       -2.18988         3.77869         6.34160
| 98>    H       -6.07615         4.26985         2.94263
| 99>    H       -3.03090         4.59876         2.72668
|100>    H       -6.52113         5.93650         1.47174
|101>    H       -1.20033        10.66808        -2.17807
|102>    H       -6.65128        12.96171        -3.51607
|103>    H       -6.15659        11.77902        -2.28280
|104>    H       -6.33413        11.30887        -5.30687
|105>    H       -7.44149        10.66372        -4.09009
|106>    H       -5.77099        10.09716        -4.14948
|107>    H        0.66627        14.67413        -5.79989
|108>    H        1.23054        13.55199        -4.53976
|109>    H        0.26979        16.41186        -3.99697
|110>    H        1.95852        15.89158        -4.05474
|111>    H        0.88393        15.26801        -2.79954
|112>    H       -1.05966        16.12344        -6.03871
|113>    H       -4.10163        15.86449        -5.73003
|114>    H       -5.37700        17.81028        -6.91570
|115>    H        0.33854        22.19462       -10.34799
|116>    H        0.76145        24.13318       -10.95407
|117>    H        0.70876        25.32852       -12.26400
|118>    H        0.11547        22.35325       -12.69320
|119>    H        1.65990        23.14009       -13.04746
|120>    H        0.20374        23.61091       -13.92758
|121>    H       -7.13112        24.67538       -11.09633
|122>    H       -7.11305        25.97906       -12.30566
|123>    H       -6.57153        26.27098        -9.30129
|124>    H       -8.03242        26.80017       -10.14074
|125>    H       -6.48848        27.60341       -10.45709
|126>    H       -5.75824        27.68458       -12.84180
|127>    H       -2.76746        27.93116       -13.46851
|128>    H       -4.10939        29.08857       -13.95943
|129> *
|130>
|131>                          ****END OF INPUT****

CARTESIAN COORDINATES (ANGSTROEM)
---------------------------------
  C     -6.725920    0.682500    5.999050
  N     -7.830030    1.264780    5.460220
  C     -9.194280    0.861020    5.688630
  C     -9.536920   -0.417880    4.928860
  C     -7.481260    2.307460    4.566300
  O     -8.298360    2.975060    3.963700
  C     -6.041700    2.324110    4.608850
  C     -5.609800    1.301620    5.508280
  C     -4.163250    1.335700    5.537960
  O     -3.343400    0.675200    6.135780
  N     -3.815810    2.377360    4.646060
  C     -2.426270    2.726250    4.479030
  C     -2.049250    3.970320    5.280710
  C     -4.929640    2.975360    4.093900
  C     -5.041460    4.043060    3.163710
  C     -4.079880    4.775880    2.549690
  C     -4.355990    5.832650    1.641940
  C     -5.562020    6.326340    1.186930
  C     -5.411560    7.398260    0.309110
  Cl    -6.753650    8.197350   -0.399530
  C     -4.092580    7.763710    0.058440
  S     -3.025440    6.720980    0.950600
  C     -3.610410    8.810090   -0.762490
  C     -2.293040    9.167370   -1.032850
  Cl    -0.948650    8.324880   -0.386140
  C     -2.151780   10.267350   -1.873480
  C     -3.363040   10.799980   -2.279260
  S     -4.685420    9.892740   -1.592800
  C     -3.496600   11.935730   -3.116490
  N     -4.666950   12.527420   -3.536150
  C     -6.023340   12.086550   -3.322680
  C     -6.414900   10.963460   -4.279050
  C     -4.422830   13.667210   -4.325850
  O     -5.311790   14.354230   -4.795280
  C     -2.988570   13.766310   -4.385240
  C     -2.444500   12.690210   -3.637110
  C     -1.004350   12.794850   -3.699180
  O     -0.111430   12.115100   -3.227690
  N     -0.770100   13.929000   -4.490910
  C      0.569640   14.398620   -4.746030
  C      0.942410   15.571210   -3.841990
  C     -1.940740   14.526810   -4.902240
  C     -1.992190   15.690130   -5.703100
  C     -3.160960   16.285890   -6.060740
  C     -3.243960   17.456690   -6.846520
  C     -4.394150   18.131060   -7.206520
  C     -4.149790   19.266460   -7.977830
  Cl    -5.396280   20.295860   -8.553730
  C     -2.802210   19.497450   -8.241260
  S     -1.836210   18.259050   -7.494100
  C     -2.233230   20.555330   -8.991110
  C     -0.893130   20.779410   -9.285650
  Cl     0.377690   19.752700   -8.758580
  C     -0.653870   21.915050  -10.053900
  C     -1.809840   22.605470  -10.369050
  S     -3.210980   21.809810   -9.691730
  C     -2.035860   23.801530  -11.100510
  N     -1.110400   24.595860  -11.742610
  C      0.303550   24.372890  -11.916730
  C      0.587960   23.295570  -12.960650
  C     -1.714370   25.724410  -12.341190
  O     -1.083220   26.559320  -12.958120
  C     -3.115360   25.599930  -12.025100
  C     -3.275270   24.406100  -11.268880
  C     -4.667040   24.268000  -10.939570
  O     -5.277080   23.412280  -10.322200
  N     -5.274160   25.394560  -11.520120
  C     -6.686210   25.639850  -11.357830
  C     -6.961610   26.647280  -10.243820
  C     -4.359610   26.196790  -12.163810
  C     -4.712240   27.410640  -12.842300
  C     -3.814310   28.184000  -13.456340
  H     -6.814550   -0.126430    6.700620
  H     -9.822240    1.683780    5.336070
  H     -9.353830    0.721090    6.762090
  H     -9.396250   -0.266600    3.861450
  H    -10.573480   -0.688490    5.109070
  H     -8.899840   -1.238740    5.251000
  H     -2.199470    2.846650    3.416860
  H     -1.860670    1.869260    4.858400
  H     -2.664990    4.822070    5.000700
  H     -1.005520    4.218530    5.108200
  H     -2.189880    3.778690    6.341600
  H     -6.076150    4.269850    2.942630
  H     -3.030900    4.598760    2.726680
  H     -6.521130    5.936500    1.471740
  H     -1.200330   10.668080   -2.178070
  H     -6.651280   12.961710   -3.516070
  H     -6.156590   11.779020   -2.282800
  H     -6.334130   11.308870   -5.306870
  H     -7.441490   10.663720   -4.090090
  H     -5.770990   10.097160   -4.149480
  H      0.666270   14.674130   -5.799890
  H      1.230540   13.551990   -4.539760
  H      0.269790   16.411860   -3.996970
  H      1.958520   15.891580   -4.054740
  H      0.883930   15.268010   -2.799540
  H     -1.059660   16.123440   -6.038710
  H     -4.101630   15.864490   -5.730030
  H     -5.377000   17.810280   -6.915700
  H      0.338540   22.194620  -10.347990
  H      0.761450   24.133180  -10.954070
  H      0.708760   25.328520  -12.264000
  H      0.115470   22.353250  -12.693200
  H      1.659900   23.140090  -13.047460
  H      0.203740   23.610910  -13.927580
  H     -7.131120   24.675380  -11.096330
  H     -7.113050   25.979060  -12.305660
  H     -6.571530   26.270980   -9.301290
  H     -8.032420   26.800170  -10.140740
  H     -6.488480   27.603410  -10.457090
  H     -5.758240   27.684580  -12.841800
  H     -2.767460   27.931160  -13.468510
  H     -4.109390   29.088570  -13.959430

 Total Charge           Charge          ....    0
 Multiplicity           Mult            ....    1
 Number of Electrons    NEL             ....  576
 Basis Dimension        Dim             .... 1250

ORBITAL ENERGIES
----------------

  NO   OCC          E(Eh)            E(eV)
   0   2.0000    -101.601134     -2764.7074
   1   2.0000    -101.599043     -2764.6505
   2   2.0000    -101.596695     -2764.5866
   3   2.0000    -101.592747     -2764.4792
   4   2.0000     -88.971139     -2421.0278
   5   2.0000     -88.969265     -2420.9768
   6   2.0000     -88.964040     -2420.8346
   7   2.0000     -88.961506     -2420.7656
   8   2.0000     -19.188309      -522.1404
   9   2.0000     -19.186728      -522.0974
  10   2.0000     -19.186559      -522.0928
  11   2.0000     -19.185964      -522.0766
  12   2.0000     -19.184658      -522.0411
  13   2.0000     -19.182253      -521.9756
  14   2.0000     -14.453485      -393.2993
  15   2.0000     -14.452150      -393.2630
  16   2.0000     -14.451895      -393.2561
  17   2.0000     -14.449392      -393.1880
  18   2.0000     -14.449374      -393.1875
  19   2.0000     -14.447335      -393.1320
  20   2.0000     -10.371605      -282.2257
  21   2.0000     -10.370080      -282.1842
  22   2.0000     -10.369819      -282.1771
  23   2.0000     -10.368466      -282.1403
  24   2.0000     -10.368310      -282.1360
  25   2.0000     -10.367623      -282.1174
  26   2.0000     -10.344218      -281.4805
  27   2.0000     -10.341701      -281.4120
  28   2.0000     -10.337052      -281.2855
  29   2.0000     -10.336940      -281.2824
  30   2.0000     -10.335973      -281.2561
  31   2.0000     -10.334224      -281.2085
  32   2.0000     -10.332867      -281.1716
  33   2.0000     -10.332295      -281.1560
  34   2.0000     -10.331557      -281.1360
  35   2.0000     -10.328254      -281.0461
  36   2.0000     -10.325986      -280.9844
  37   2.0000     -10.325323      -280.9663
  38   2.0000     -10.323112      -280.9062
  39   2.0000     -10.319569      -280.8098
  40   2.0000     -10.315171      -280.6901
  41   2.0000     -10.313855      -280.6543
  42   2.0000     -10.312136      -280.6075
  43   2.0000     -10.307319      -280.4764
  44   2.0000     -10.307039      -280.4688
  45   2.0000     -10.306329      -280.4495
  46   2.0000     -10.306094      -280.4431
  47   2.0000     -10.305295      -280.4213
  48   2.0000     -10.303509      -280.3727
  49   2.0000     -10.303403      -280.3698
  50   2.0000     -10.302389      -280.3423
  51   2.0000     -10.292328      -280.0685
  52   2.0000     -10.292006      -280.0597
  53   2.0000     -10.290742      -280.0253
  54   2.0000     -10.288858      -279.9741
  55   2.0000     -10.286838      -279.9191
  56   2.0000     -10.286336      -279.9054
  57   2.0000     -10.285968      -279.8954
  58   2.0000     -10.280825      -279.7555
  59   2.0000     -10.277746      -279.6717
  60   2.0000     -10.262979      -279.2699
  61   2.0000     -10.262785      -279.2646
  62   2.0000     -10.262531      -279.2577
  63   2.0000     -10.261149      -279.2201
  64   2.0000     -10.260412      -279.2000
  65   2.0000     -10.257739      -279.1273
  66   2.0000     -10.257642      -279.1246
  67   2.0000     -10.257617      -279.1239
  68   2.0000     -10.256295      -279.0880
  69   2.0000     -10.255045      -279.0540
  70   2.0000     -10.254790      -279.0470
  71   2.0000     -10.254430      -279.0372
  72   2.0000      -9.555884      -260.0288
  73   2.0000      -9.553716      -259.9698
  74   2.0000      -9.551428      -259.9076
  75   2.0000      -9.547299      -259.7952
  76   2.0000      -8.065007      -219.4600
  77   2.0000      -8.064070      -219.4345
  78   2.0000      -8.058859      -219.2927
  79   2.0000      -8.055215      -219.1935
  80   2.0000      -7.325993      -199.3504
  81   2.0000      -7.323803      -199.2908
  82   2.0000      -7.321540      -199.2292
  83   2.0000      -7.317464      -199.1183
  84   2.0000      -7.315968      -199.0776
  85   2.0000      -7.315885      -199.0754
  86   2.0000      -7.313798      -199.0186
  87   2.0000      -7.313786      -199.0182
  88   2.0000      -7.311520      -198.9566
  89   2.0000      -7.311420      -198.9539
  90   2.0000      -7.307355      -198.8432
  91   2.0000      -7.307269      -198.8409
  92   2.0000      -6.034609      -164.2101
  93   2.0000      -6.033511      -164.1802
  94   2.0000      -6.030096      -164.0873
  95   2.0000      -6.029228      -164.0636
  96   2.0000      -6.028248      -164.0370
  97   2.0000      -6.026888      -164.0000
  98   2.0000      -6.025975      -163.9751
  99   2.0000      -6.024745      -163.9416
 100   2.0000      -6.024127      -163.9248
 101   2.0000      -6.020693      -163.8314
 102   2.0000      -6.020244      -163.8192
 103   2.0000      -6.016903      -163.7283
 104   2.0000      -1.131087       -30.7784
 105   2.0000      -1.129571       -30.7372
 106   2.0000      -1.126378       -30.6503
 107   2.0000      -1.124008       -30.5858
 108   2.0000      -1.122775       -30.5522
 109   2.0000      -1.119673       -30.4679
 110   2.0000      -1.061135       -28.8750
 111   2.0000      -1.059925       -28.8420
 112   2.0000      -1.057016       -28.7629
 113   2.0000      -1.053486       -28.6668
 114   2.0000      -1.052313       -28.6349
 115   2.0000      -1.047922       -28.5154
 116   2.0000      -1.025378       -27.9020
 117   2.0000      -1.021869       -27.8065
 118   2.0000      -1.001089       -27.2410
 119   2.0000      -0.998469       -27.1697
 120   2.0000      -0.961499       -26.1637
 121   2.0000      -0.957562       -26.0566
 122   2.0000      -0.949995       -25.8507
 123   2.0000      -0.947836       -25.7919
 124   2.0000      -0.926573       -25.2133
 125   2.0000      -0.925186       -25.1756
 126   2.0000      -0.923484       -25.1293
 127   2.0000      -0.909169       -24.7397
 128   2.0000      -0.905651       -24.6440
 129   2.0000      -0.892431       -24.2843
 130   2.0000      -0.882674       -24.0188
 131   2.0000      -0.876886       -23.8613
 132   2.0000      -0.871187       -23.7062
 133   2.0000      -0.868808       -23.6415
 134   2.0000      -0.865609       -23.5544
 135   2.0000      -0.838882       -22.8271
 136   2.0000      -0.835937       -22.7470
 137   2.0000      -0.828688       -22.5498
 138   2.0000      -0.825802       -22.4712
 139   2.0000      -0.823564       -22.4103
 140   2.0000      -0.819180       -22.2910
 141   2.0000      -0.818605       -22.2754
 142   2.0000      -0.816854       -22.2277
 143   2.0000      -0.816798       -22.2262
 144   2.0000      -0.801632       -21.8135
 145   2.0000      -0.791300       -21.5324
 146   2.0000      -0.781213       -21.2579
 147   2.0000      -0.774689       -21.0804
 148   2.0000      -0.759945       -20.6791
 149   2.0000      -0.757649       -20.6167
 150   2.0000      -0.757247       -20.6057
 151   2.0000      -0.755426       -20.5562
 152   2.0000      -0.748307       -20.3625
 153   2.0000      -0.714737       -19.4490
 154   2.0000      -0.710995       -19.3472
 155   2.0000      -0.708881       -19.2896
 156   2.0000      -0.706822       -19.2336
 157   2.0000      -0.702208       -19.1080
 158   2.0000      -0.699686       -19.0394
 159   2.0000      -0.689153       -18.7528
 160   2.0000      -0.685275       -18.6473
 161   2.0000      -0.678383       -18.4597
 162   2.0000      -0.676786       -18.4163
 163   2.0000      -0.658812       -17.9272
 164   2.0000      -0.657391       -17.8885
 165   2.0000      -0.650977       -17.7140
 166   2.0000      -0.648696       -17.6519
 167   2.0000      -0.647044       -17.6070
 168   2.0000      -0.646395       -17.5893
 169   2.0000      -0.631056       -17.1719
 170   2.0000      -0.626648       -17.0520
 171   2.0000      -0.623200       -16.9581
 172   2.0000      -0.615751       -16.7554
 173   2.0000      -0.611327       -16.6351
 174   2.0000      -0.602164       -16.3857
 175   2.0000      -0.594171       -16.1682
 176   2.0000      -0.593325       -16.1452
 177   2.0000      -0.592205       -16.1147
 178   2.0000      -0.584922       -15.9166
 179   2.0000      -0.583617       -15.8810
 180   2.0000      -0.577108       -15.7039
 181   2.0000      -0.576030       -15.6746
 182   2.0000      -0.571808       -15.5597
 183   2.0000      -0.568700       -15.4751
 184   2.0000      -0.568244       -15.4627
 185   2.0000      -0.566617       -15.4184
 186   2.0000      -0.564454       -15.3596
 187   2.0000      -0.560929       -15.2636
 188   2.0000      -0.559335       -15.2203
 189   2.0000      -0.557302       -15.1650
 190   2.0000      -0.541952       -14.7473
 191   2.0000      -0.538038       -14.6408
 192   2.0000      -0.533291       -14.5116
 193   2.0000      -0.532221       -14.4825
 194   2.0000      -0.528178       -14.3725
 195   2.0000      -0.528037       -14.3686
 196   2.0000      -0.526804       -14.3351
 197   2.0000      -0.526208       -14.3189
 198   2.0000      -0.525153       -14.2901
 199   2.0000      -0.522747       -14.2247
 200   2.0000      -0.522187       -14.2094
 201   2.0000      -0.521061       -14.1788
 202   2.0000      -0.519732       -14.1426
 203   2.0000      -0.516732       -14.0610
 204   2.0000      -0.515551       -14.0289
 205   2.0000      -0.514132       -13.9902
 206   2.0000      -0.513033       -13.9603
 207   2.0000      -0.510218       -13.8837
 208   2.0000      -0.510013       -13.8782
 209   2.0000      -0.509083       -13.8529
 210   2.0000      -0.507621       -13.8131
 211   2.0000      -0.503646       -13.7049
 212   2.0000      -0.503198       -13.6927
 213   2.0000      -0.499394       -13.5892
 214   2.0000      -0.496806       -13.5188
 215   2.0000      -0.496380       -13.5072
 216   2.0000      -0.494945       -13.4681
 217   2.0000      -0.490374       -13.3437
 218   2.0000      -0.488414       -13.2904
 219   2.0000      -0.486811       -13.2468
 220   2.0000      -0.485737       -13.2176
 221   2.0000      -0.478460       -13.0196
 222   2.0000      -0.472097       -12.8464
 223   2.0000      -0.470239       -12.7959
 224   2.0000      -0.468660       -12.7529
 225   2.0000      -0.465329       -12.6623
 226   2.0000      -0.463909       -12.6236
 227   2.0000      -0.463334       -12.6080
 228   2.0000      -0.462995       -12.5987
 229   2.0000      -0.462755       -12.5922
 230   2.0000      -0.460801       -12.5390
 231   2.0000      -0.456271       -12.4158
 232   2.0000      -0.454531       -12.3684
 233   2.0000      -0.453800       -12.3485
 234   2.0000      -0.453358       -12.3365
 235   2.0000      -0.452726       -12.3193
 236   2.0000      -0.451707       -12.2916
 237   2.0000      -0.449643       -12.2354
 238   2.0000      -0.448292       -12.1986
 239   2.0000      -0.446323       -12.1451
 240   2.0000      -0.443951       -12.0805
 241   2.0000      -0.443640       -12.0721
 242   2.0000      -0.442326       -12.0363
 243   2.0000      -0.440305       -11.9813
 244   2.0000      -0.439248       -11.9525
 245   2.0000      -0.438309       -11.9270
 246   2.0000      -0.437125       -11.8948
 247   2.0000      -0.434016       -11.8102
 248   2.0000      -0.432655       -11.7731
 249   2.0000      -0.429350       -11.6832
 250   2.0000      -0.428930       -11.6718
 251   2.0000      -0.426303       -11.6003
 252   2.0000      -0.424045       -11.5389
 253   2.0000      -0.423648       -11.5281
 254   2.0000      -0.420423       -11.4403
 255   2.0000      -0.419148       -11.4056
 256   2.0000      -0.415103       -11.2955
 257   2.0000      -0.412307       -11.2195
 258   2.0000      -0.404560       -11.0086
 259   2.0000      -0.402744       -10.9592
 260   2.0000      -0.400392       -10.8952
 261   2.0000      -0.383297       -10.4300
 262   2.0000      -0.380749       -10.3607
 263   2.0000      -0.380089       -10.3428
 264   2.0000      -0.375849       -10.2274
 265   2.0000      -0.368466       -10.0265
 266   2.0000      -0.368030       -10.0146
 267   2.0000      -0.348038        -9.4706
 268   2.0000      -0.343687        -9.3522
 269   2.0000      -0.341406        -9.2901
 270   2.0000      -0.339444        -9.2367
 271   2.0000      -0.337460        -9.1827
 272   2.0000      -0.333724        -9.0811
 273   2.0000      -0.328390        -8.9359
 274   2.0000      -0.325852        -8.8669
 275   2.0000      -0.325162        -8.8481
 276   2.0000      -0.324747        -8.8368
 277   2.0000      -0.321339        -8.7441
 278   2.0000      -0.317448        -8.6382
 279   2.0000      -0.315988        -8.5985
 280   2.0000      -0.311614        -8.4794
 281   2.0000      -0.311336        -8.4719
 282   2.0000      -0.309662        -8.4263
 283   2.0000      -0.283709        -7.7201
 284   2.0000      -0.276520        -7.5245
 285   2.0000      -0.245480        -6.6798
 286   2.0000      -0.237228        -6.4553
 287   2.0000      -0.220585        -6.0024
 288   0.0000      -0.090986        -2.4758
 289   0.0000      -0.075027        -2.0416
 290   0.0000      -0.060595        -1.6489
 291   0.0000      -0.032250        -0.8776
 292   0.0000      -0.009260        -0.2520

MULLIKEN ATOMIC CHARGES
-----------------------
   0 C :    0.041926
   1 N :   -0.264053
   2 C :    0.111313
   3 C :   -0.003750
   4 C :    0.156713
   5 O :   -0.199350
   6 C :   -0.079995
   7 C :    0.009241
   8 C :    0.160484
   9 O :   -0.187807
  10 N :   -0.276881
  11 C :    0.099956
  12 C :   -0.002208
  13 C :    0.135655
  14 C :   -0.043940
  15 C :    0.084743
  16 C :   -0.080369
  17 C :    0.014857
  18 C :    0.058466
  19 Cl:   -0.061489
  20 C :   -0.097219
  21 S :    0.157957
  22 C :   -0.075557
  23 C :    0.072461
  24 Cl:   -0.056984
  25 C :   -0.009820
  26 C :   -0.099804
  27 S :    0.131697
  28 C :    0.171926
  29 N :   -0.260915
  30 C :    0.082605
  31 C :    0.008765
  32 C :    0.157567
  33 O :   -0.219705
  34 C :   -0.062097
  35 C :   -0.085636
  36 C :    0.160281
  37 O :   -0.213865
  38 N :   -0.256830
  39 C :    0.100155
  40 C :    0.003373
  41 C :    0.140854
  42 C :   -0.044208
  43 C :    0.039911
  44 C :   -0.037712
  45 C :    0.007027
  46 C :    0.073443
  47 Cl:   -0.041354
  48 C :   -0.089306
  49 S :    0.130075
  50 C :   -0.068221
  51 C :    0.058000
  52 Cl:   -0.069003
  53 C :   -0.026330
  54 C :   -0.111795
  55 S :    0.196841
  56 C :    0.215427
  57 N :   -0.269165
  58 C :    0.100010
  59 C :   -0.002634
  60 C :    0.157374
  61 O :   -0.207339
  62 C :   -0.050796
  63 C :   -0.106941
  64 C :    0.152226
  65 O :   -0.214745
  66 N :   -0.256606
  67 C :    0.101150
  68 C :    0.003498
  69 C :    0.104198
  70 C :   -0.033880
  71 C :    0.011814
  72 H :    0.015999
  73 H :    0.042217
  74 H :    0.018144
  75 H :    0.031679
  76 H :    0.022951
  77 H :    0.014579
  78 H :    0.022983
  79 H :    0.043659
  80 H :    0.020586
  81 H :    0.021119
  82 H :    0.029664
  83 H :    0.005289
  84 H :   -0.020412
  85 H :   -0.001323
  86 H :   -0.001330
  87 H :    0.043918
  88 H :    0.034796
  89 H :    0.027749
  90 H :    0.021057
  91 H :    0.021376
  92 H :    0.022851
  93 H :    0.043578
  94 H :    0.017997
  95 H :    0.021430
  96 H :    0.029754
  97 H :   -0.019854
  98 H :    0.015670
  99 H :   -0.002520
 100 H :   -0.029781
 101 H :    0.023393
 102 H :    0.044397
 103 H :    0.024238
 104 H :    0.022602
 105 H :    0.027281
 106 H :    0.041912
 107 H :    0.023360
 108 H :    0.029767
 109 H :    0.023431
 110 H :    0.015275
 111 H :   -0.019380
 112 H :    0.056813
 113 H :    0.029405
Sum of atomic charges:   -0.0000000

LOEWDIN ATOMIC CHARGES
----------------------
   0 C :    0.094648
   1 N :   -0.003328
   2 C :    0.037694
   3 C :   -0.060907
   4 C :    0.075291
   5 O :   -0.203151
   6 C :   -0.122038
   7 C :   -0.132358
   8 C :    0.083804
   9 O :   -0.191028
  10 N :   -0.012852
  11 C :    0.033646
  12 C :   -0.064022
  13 C :    0.077378
  14 C :   -0.028727
  15 C :   -0.021105
  16 C :   -0.173475
  17 C :   -0.057274
  18 C :   -0.166373
  19 Cl:    0.159043
  20 C :   -0.208708
  21 S :    0.456351
  22 C :   -0.204999
  23 C :   -0.170978
  24 Cl:    0.162391
  25 C :   -0.033912
  26 C :   -0.188591
  27 S :    0.470223
  28 C :    0.057692
  29 N :   -0.000616
  30 C :    0.024719
  31 C :   -0.064243
  32 C :    0.079632
  33 O :   -0.208770
  34 C :   -0.126907
  35 C :   -0.121125
  36 C :    0.081782
  37 O :   -0.203414
  38 N :    0.000839
  39 C :    0.036406
  40 C :   -0.061071
  41 C :    0.077537
  42 C :   -0.062898
  43 C :    0.018962
  44 C :   -0.172969
  45 C :   -0.048530
  46 C :   -0.168557
  47 Cl:    0.176283
  48 C :   -0.201866
  49 S :    0.442388
  50 C :   -0.207274
  51 C :   -0.173283
  52 Cl:    0.150122
  53 C :   -0.066669
  54 C :   -0.184085
  55 S :    0.524334
  56 C :    0.058214
  57 N :   -0.002870
  58 C :    0.034307
  59 C :   -0.063334
  60 C :    0.083958
  61 O :   -0.198896
  62 C :   -0.126856
  63 C :   -0.132600
  64 C :    0.068881
  65 O :   -0.211674
  66 N :    0.002072
  67 C :    0.036631
  68 C :   -0.061012
  69 C :    0.080748
  70 C :   -0.054464
  71 C :    0.023705
  72 H :    0.032704
  73 H :    0.036259
  74 H :    0.024206
  75 H :    0.031915
  76 H :    0.029966
  77 H :    0.022115
  78 H :    0.019612
  79 H :    0.037602
  80 H :    0.021382
  81 H :    0.029984
  82 H :    0.033048
  83 H :    0.045314
  84 H :    0.028209
  85 H :    0.038809
  86 H :    0.038643
  87 H :    0.038045
  88 H :    0.011441
  89 H :    0.031010
  90 H :    0.030423
  91 H :    0.015026
  92 H :    0.022905
  93 H :    0.037506
  94 H :    0.022663
  95 H :    0.030016
  96 H :    0.032216
  97 H :    0.021292
  98 H :    0.043322
  99 H :    0.040541
 100 H :    0.031110
 101 H :    0.020443
 102 H :    0.037870
 103 H :    0.022632
 104 H :    0.030606
 105 H :    0.032399
 106 H :    0.037225
 107 H :    0.022935
 108 H :    0.032337
 109 H :    0.030364
 110 H :    0.022208
 111 H :    0.029511
 112 H :    0.032912
 113 H :    0.029401

  Mayer bond orders larger than 0.100000
B(  0-C ,  1-N ) :   1.1959 B(  0-C ,  7-C ) :   1.4504 B(  0-C , 72-H ) :   0.9904
B(  1-N ,  2-C ) :   0.9428 B(  1-N ,  4-C ) :   1.0316 B(  2-C ,  3-C ) :   1.1180
B(  2-C , 73-H ) :   0.9346 B(  2-C , 74-H ) :   0.9541 B(  3-C , 75-H ) :   0.9676
B(  3-C , 76-H ) :   0.9690 B(  3-C , 77-H ) :   0.9692 B(  4-C ,  5-O ) :   2.1151
B(  4-C ,  6-C ) :   0.9985 B(  6-C ,  7-C ) :   1.1925 B(  6-C , 13-C ) :   1.3803
B(  7-C ,  8-C ) :   0.9533 B(  8-C ,  9-O ) :   2.1669 B(  8-C , 10-N ) :   1.0188
B( 10-N , 11-C ) :   0.9466 B( 10-N , 13-C ) :   1.1566 B( 11-C , 12-C ) :   1.1147
B( 11-C , 78-H ) :   0.9514 B( 11-C , 79-H ) :   0.9236 B( 12-C , 80-H ) :   0.9685
B( 12-C , 81-H ) :   0.9684 B( 12-C , 82-H ) :   0.9621 B( 13-C , 14-C ) :   1.1879
B( 14-C , 15-C ) :   1.6035 B( 14-C , 83-H ) :   0.9476 B( 15-C , 16-C ) :   1.1230
B( 15-C , 84-H ) :   0.9637 B( 16-C , 17-C ) :   1.4557 B( 16-C , 21-S ) :   1.1017
B( 17-C , 18-C ) :   1.2915 B( 17-C , 85-H ) :   1.0018 B( 18-C , 19-Cl) :   1.0375
B( 18-C , 20-C ) :   1.4494 B( 20-C , 21-S ) :   1.1345 B( 20-C , 22-C ) :   1.1872
B( 22-C , 23-C ) :   1.4327 B( 22-C , 27-S ) :   1.1294 B( 23-C , 24-Cl) :   1.0439
B( 23-C , 25-C ) :   1.2701 B( 25-C , 26-C ) :   1.4477 B( 25-C , 86-H ) :   0.9736
B( 26-C , 27-S ) :   1.0592 B( 26-C , 28-C ) :   1.1661 B( 28-C , 29-N ) :   1.1793
B( 28-C , 35-C ) :   1.3728 B( 29-N , 30-C ) :   0.9432 B( 29-N , 32-C ) :   1.0529
B( 30-C , 31-C ) :   1.1149 B( 30-C , 87-H ) :   0.9215 B( 30-C , 88-H ) :   0.9427
B( 31-C , 89-H ) :   0.9630 B( 31-C , 90-H ) :   0.9678 B( 31-C , 91-H ) :   0.9654
B( 32-C , 33-O ) :   2.0090 B( 32-C , 34-C ) :   1.0022 B( 33-O , 98-H ) :   0.1150
B( 34-C , 35-C ) :   1.2399 B( 34-C , 41-C ) :   1.3268 B( 35-C , 36-C ) :   0.9845
B( 36-C , 37-O ) :   2.0222 B( 36-C , 38-N ) :   1.0632 B( 37-O , 86-H ) :   0.1106
B( 38-N , 39-C ) :   0.9472 B( 38-N , 41-C ) :   1.1564 B( 39-C , 40-C ) :   1.1206
B( 39-C , 92-H ) :   0.9495 B( 39-C , 93-H ) :   0.9282 B( 40-C , 94-H ) :   0.9682
B( 40-C , 95-H ) :   0.9680 B( 40-C , 96-H ) :   0.9636 B( 41-C , 42-C ) :   1.1809
B( 42-C , 43-C ) :   1.5613 B( 42-C , 97-H ) :   0.9584 B( 43-C , 44-C ) :   1.1714
B( 43-C , 98-H ) :   0.9552 B( 44-C , 45-C ) :   1.4308 B( 44-C , 49-S ) :   1.0809
B( 45-C , 46-C ) :   1.2680 B( 45-C , 99-H ) :   1.0158 B( 46-C , 47-Cl) :   1.0478
B( 46-C , 48-C ) :   1.4474 B( 48-C , 49-S ) :   1.1303 B( 48-C , 50-C ) :   1.1909
B( 50-C , 51-C ) :   1.4367 B( 50-C , 54-C ) :   0.1068 B( 50-C , 55-S ) :   1.1179
B( 51-C , 52-Cl) :   1.0329 B( 51-C , 53-C ) :   1.2906 B( 53-C , 54-C ) :   1.3871
B( 53-C ,100-H ) :   1.0148 B( 54-C , 55-S ) :   1.1282 B( 54-C , 56-C ) :   1.1546
B( 56-C , 57-N ) :   1.1860 B( 56-C , 63-C ) :   1.3637 B( 57-N , 58-C ) :   0.9442
B( 57-N , 60-C ) :   1.0422 B( 58-C , 59-C ) :   1.1156 B( 58-C ,101-H ) :   0.9513
B( 58-C ,102-H ) :   0.9229 B( 59-C ,103-H ) :   0.9688 B( 59-C ,104-H ) :   0.9678
B( 59-C ,105-H ) :   0.9620 B( 60-C , 61-O ) :   2.0465 B( 60-C , 62-C ) :   0.9879
B( 62-C , 63-C ) :   1.2303 B( 62-C , 69-C ) :   1.3713 B( 63-C , 64-C ) :   0.9859
B( 64-C , 65-O ) :   2.0690 B( 64-C , 66-N ) :   1.0542 B( 66-N , 67-C ) :   0.9471
B( 66-N , 69-C ) :   1.1694 B( 67-C , 68-C ) :   1.1197 B( 67-C ,106-H ) :   0.9282
B( 67-C ,107-H ) :   0.9507 B( 68-C ,108-H ) :   0.9643 B( 68-C ,109-H ) :   0.9680
B( 68-C ,110-H ) :   0.9688 B( 69-C , 70-C ) :   1.1268 B( 70-C , 71-C ) :   1.8869
B( 70-C ,111-H ) :   0.9539 B( 71-C ,112-H ) :   0.9283 B( 71-C ,113-H ) :   0.9447

-----------------------------------------------------------------------------
         ABSORPTION SPECTRUM VIA TRANSITION ELECTRIC DIPOLE MOMENTS
-----------------------------------------------------------------------------
State   Energy  Wavelength   fosc         T2         TX        TY        TZ
        (cm-1)    (nm)                  (au**2)     (au)      (au)      (au)
-----------------------------------------------------------------------------
   0   14234.0    702.5   2.204004387  50.97528  -1.23063  -5.75622   4.04064
   1   18770.2    532.8   0.279568640   4.90337  -2.17007   0.33532   0.28584
   2   20355.9    491.3   0.273711457   4.42669   0.28159   1.67651  -1.23964
   3   21176.8    472.2   0.032177782   0.50023   0.36590   0.49852  -0.34325
   4   22915.9    436.4   0.024648129   0.35410  -0.54528   0.21900  -0.09384
   5   25058.4    399.1   0.096330212   1.26556  -1.04473  -0.29273   0.29733
   6   25782.3    387.9   0.231981477   2.96215   0.38872  -1.28267   1.07972
   7   26090.9    383.3   0.049206664   0.62088  -0.20812   0.65490  -0.38559
   8   27354.3    365.6   0.322025079   3.87561  -0.53245  -1.51278   1.14176
   9   28120.6    355.6   0.023844911   0.27916  -0.34834  -0.29329   0.26795
  10   28842.9    346.7   0.010232651   0.11680  -0.18411   0.22388  -0.18104
  11   29077.6    343.9   0.018868664   0.21363   0.20486   0.30544  -0.27994
  12   29426.7    339.8   0.005152798   0.05765  -0.23321   0.05698  -0.00360
  13   29827.9    335.3   0.020924796   0.23095   0.35198   0.22779  -0.23488
  14   30379.0    329.2   0.000906266   0.00982   0.03104  -0.05802  -0.07411
  15   30601.6    326.8   0.003417916   0.03677   0.07774  -0.15811  -0.07567
  16   31081.6    321.7   0.059164499   0.62666  -0.14754  -0.57613   0.52246
  17   32253.5    310.0   0.033601100   0.34297   0.53405  -0.21707   0.10316
  18   32675.4    306.0   0.138791889   1.39836   1.07635  -0.36241   0.32938
  19   33009.4    302.9   0.107779271   1.07491   0.49429   0.69605  -0.58831
  20   33823.0    295.7   0.002669907   0.02599  -0.02650   0.11791  -0.10668
  21   34036.2    293.8   0.011539775   0.11162   0.13532   0.18106  -0.24601
  22   34320.1    291.4   0.299363380   2.87161  -1.12147   1.04718  -0.71925
  23   34334.2    291.3   0.020762935   0.19908   0.44552   0.01579   0.01860
  24   34352.6    291.1   0.076010343   0.72843   0.45309  -0.61826   0.37536
  25   35162.2    284.4   0.013152912   0.12315  -0.10952   0.24269  -0.22859
  26   35472.1    281.9   0.012605274   0.11699   0.24498  -0.17862   0.15833
  27   36249.6    275.9   0.007112561   0.06459  -0.10720   0.16998  -0.15559
  28   36674.9    272.7   0.037384658   0.33558   0.55544   0.12793  -0.10348
  29   37504.6    266.6   0.002784032   0.02444   0.15126   0.02861  -0.02719
  30   37566.1    266.2   0.031688745   0.27771  -0.51192   0.10116  -0.07357
  31   38372.9    260.6   0.024078505   0.20658   0.37742  -0.19246   0.16459
  32   38606.9    259.0   0.000942507   0.00804   0.00661   0.03926   0.08033
  33   39247.0    254.8   0.039062511   0.32766   0.10197   0.46428  -0.31893
  34   39638.3    252.3   0.000150118   0.00125  -0.02035   0.02310   0.01729
  35   39869.0    250.8   0.027422818   0.22644   0.02893  -0.39867   0.25820
  36   40107.6    249.3   0.009008005   0.07394   0.10984   0.24184  -0.05819
  37   40229.6    248.6   0.100706087   0.82411  -0.33706   0.68063  -0.49724

FINAL SINGLE POINT ENERGY     -6215.784399977521

DIPOLE MOMENT
-------------
                                X             Y             Z
Electronic contribution:     13.45538       2.97289      -9.87756
Nuclear contribution   :    -13.95436      -2.06192       9.37831
                        -----------------------------------------
Total Dipole Moment    :     -0.49898       0.91097      -0.49925
                        -----------------------------------------
Magnitude (a.u.)       :      1.15243
Magnitude (Debye)      :      2.92924

Rotational constants in cm-1:     0.002833     0.000144     0.000138
Rotational constants in MHz :    84.917405     4.306351     4.125172

                             ****ORCA TERMINATED NORMALLY****
TOTAL RUN TIME: 0 days 0 hours 9 minutes 58 seconds 465 msec
