                         Program Version 4.2.0 -  RELEASE  -
|  1> # ORCA input file
|  2> # SCF done       -215.573979461160          0.000488203644
|  3> ! CAM-B3LYP def2-SVP def2/J RIJCOSX Grid4 TightSCF
|  4> %maxcore 5000
|  5> %tddft
|  6>     Mode sTDDFT
|  7>     Ethresh 5.0
|  8>     maxcore 5000
|  9> end
| 10>
| 11> %pal
| 12>   nprocs 6
| 13>   end
| 14> * xyz 0 1
| 15>    C      -13.04231         1.43389         0.77286
| 16>    N      -11.85760         1.67761         1.37981
| 17>    C      -10.92041         0.68455         1.84503
| 18>    C      -10.13220         0.07767         0.68762
| 19>    C      -11.58547         3.06548         1.43598
| 20>    O      -10.57905         3.52816         1.93780
| 21>    C      -12.73601         3.67454         0.80905
| 22>    C      -13.61643         2.62893         0.41448
| 23>    C      -14.78284         3.23333        -0.21031
| 24>    O      -15.77864         2.75796        -0.69933
| 25>    N      -14.51974         4.61736        -0.14891
| 26>    C      -15.47672         5.58273        -0.63969
| 27>    C      -16.30937         6.17843         0.49207
| 28>    C      -13.31937         4.89632         0.45335
| 29>    C      -12.82900         6.20860         0.63633
| 30>    C      -11.63058         6.44700         1.24829
| 31>    C      -10.99299         7.68723         1.46502
| 32>    C      -11.09090         8.93484         0.84447
| 33>    N      -12.02141         9.44616        -0.07836
| 34>    O      -13.11099         8.90559        -0.20123
| 35>    O      -11.69083        10.43830        -0.70273
| 36>    C       -9.96958         9.74379         1.23718
| 37>    C       -9.17995         9.03971         2.08855
| 38>    C       -9.78493         7.76384         2.32151
| 39>    C       -9.42058         6.85592         3.29105
| 40>    C      -10.27492         5.92542         3.97242
| 41>    C       -9.58723         5.38576         5.00826
| 42>    C       -8.24892         5.92230         5.02034
| 43>    N       -7.29690         5.43192         5.93540
| 44>    O       -6.25441         6.04437         6.10057
| 45>    O       -7.58067         4.40582         6.52703
| 46>    C       -8.10555         6.81910         3.96977
| 47>    C       -6.97014         7.44904         3.39516
| 48>    C       -5.86594         7.91020         4.03924
| 49>    C       -4.76802         8.52662         3.38904
| 50>    S       -3.50379         9.18209         4.40097
| 51>    C       -2.55819         9.73154         3.04253
| 52>    C       -3.20169         9.39426         1.86183
| 53>    C       -4.44357         8.73642         2.05299
| 54>    C       -5.07839         8.46920         0.75890
| 55>    O       -6.15995         7.97772         0.53738
| 56>    C       -4.11187         8.96536        -0.29983
| 57>    C       -2.91854         9.55359         0.42993
| 58>    O       -1.94448        10.03315        -0.09318
| 59>    C       -1.34950        10.44473         3.26208
| 60>    S       -0.89845        10.92268         4.87789
| 61>    C        0.53099        11.71475         4.30810
| 62>    C        0.64605        11.58496         2.90977
| 63>    C       -0.42675        10.87915         2.33712
| 64>    C        1.77813        12.11960         2.17377
| 65>    O        2.80455        12.54743         2.64092
| 66>    C        1.61692        12.10057         0.62374
| 67>    F        0.48622        12.70022         0.22587
| 68>    F        2.62903        12.72537         0.02889
| 69>    F        1.59157        10.84455         0.14703
| 70>    C        1.36723        12.46232         5.16430
| 71>    C        1.22182        12.50588         6.51458
| 72>    C        1.97788        13.32185         7.39837
| 73>    C        2.46174        14.60851         7.23352
| 74>    N        2.28951        15.50963         6.15505
| 75>    O        2.84512        16.58715         6.25194
| 76>    O        1.57653        15.18763         5.22241
| 77>    C        3.05596        15.06021         8.47110
| 78>    C        2.90951        14.09691         9.40922
| 79>    C        2.27216        12.95510         8.80333
| 80>    C        2.11767        11.71699         9.36817
| 81>    C        1.99156        10.45626         8.67784
| 82>    C        2.09713         9.46047         9.58264
| 83>    C        2.24165        10.03837        10.90838
| 84>    N        2.24070         9.20213        12.04855
| 85>    O        2.68104         9.62683        13.09935
| 86>    O        1.78803         8.08270        11.89542
| 87>    C        2.23903        11.40965        10.81533
| 88>    C        2.11993        12.42786        11.82824
| 89>    C        2.70267        12.44605        13.02755
| 90>    H      -13.40595         0.43157         0.64076
| 91>    H      -11.46516        -0.09362         2.38634
| 92>    H      -10.24087         1.19455         2.53291
| 93>    H      -10.79934        -0.41185        -0.01857
| 94>    H       -9.42726        -0.65570         1.06796
| 95>    H       -9.57844         0.85335         0.16440
| 96>    H      -16.12846         5.03874        -1.32860
| 97>    H      -14.95465         6.37008        -1.18836
| 98>    H      -16.84549         5.39173         1.01777
| 99>    H      -17.03175         6.87767         0.08161
|100>    H      -15.67891         6.70908         1.20153
|101>    H      -13.43483         7.02972         0.28739
|102>    H      -11.07546         5.59106         1.60920
|103>    H       -9.82689        10.75105         0.89314
|104>    H       -8.31600         9.41399         2.60078
|105>    H      -11.31512         5.77637         3.76296
|106>    H       -9.94015         4.67806         5.73416
|107>    H       -7.03063         7.58450         2.32220
|108>    H       -5.79235         7.84593         5.11479
|109>    H       -4.58445         9.71142        -0.94276
|110>    H       -3.80077         8.14900        -0.95589
|111>    H       -0.54466        10.67360         1.28744
|112>    H        2.15939        13.01188         4.67771
|113>    H        0.48290        11.86304         6.97968
|114>    H        3.51895        16.02267         8.58007
|115>    H        3.29462        14.11900        10.40917
|116>    H        1.95337        10.34299         7.61283
|117>    H        2.08849         8.40146         9.40669
|118>    H        1.48440        13.25666        11.53689
|119>    H        3.37663        11.67642        13.35642
|120>    H        2.51833        13.25775        13.71091
|121> *
|122>
|123>                          ****END OF INPUT****

CARTESIAN COORDINATES (ANGSTROEM)
---------------------------------
  C    -13.042310    1.433890    0.772860
  N    -11.857600    1.677610    1.379810
  C    -10.920410    0.684550    1.845030
  C    -10.132200    0.077670    0.687620
  C    -11.585470    3.065480    1.435980
  O    -10.579050    3.528160    1.937800
  C    -12.736010    3.674540    0.809050
  C    -13.616430    2.628930    0.414480
  C    -14.782840    3.233330   -0.210310
  O    -15.778640    2.757960   -0.699330
  N    -14.519740    4.617360   -0.148910
  C    -15.476720    5.582730   -0.639690
  C    -16.309370    6.178430    0.492070
  C    -13.319370    4.896320    0.453350
  C    -12.829000    6.208600    0.636330
  C    -11.630580    6.447000    1.248290
  C    -10.992990    7.687230    1.465020
  C    -11.090900    8.934840    0.844470
  N    -12.021410    9.446160   -0.078360
  O    -13.110990    8.905590   -0.201230
  O    -11.690830   10.438300   -0.702730
  C     -9.969580    9.743790    1.237180
  C     -9.179950    9.039710    2.088550
  C     -9.784930    7.763840    2.321510
  C     -9.420580    6.855920    3.291050
  C    -10.274920    5.925420    3.972420
  C     -9.587230    5.385760    5.008260
  C     -8.248920    5.922300    5.020340
  N     -7.296900    5.431920    5.935400
  O     -6.254410    6.044370    6.100570
  O     -7.580670    4.405820    6.527030
  C     -8.105550    6.819100    3.969770
  C     -6.970140    7.449040    3.395160
  C     -5.865940    7.910200    4.039240
  C     -4.768020    8.526620    3.389040
  S     -3.503790    9.182090    4.400970
  C     -2.558190    9.731540    3.042530
  C     -3.201690    9.394260    1.861830
  C     -4.443570    8.736420    2.052990
  C     -5.078390    8.469200    0.758900
  O     -6.159950    7.977720    0.537380
  C     -4.111870    8.965360   -0.299830
  C     -2.918540    9.553590    0.429930
  O     -1.944480   10.033150   -0.093180
  C     -1.349500   10.444730    3.262080
  S     -0.898450   10.922680    4.877890
  C      0.530990   11.714750    4.308100
  C      0.646050   11.584960    2.909770
  C     -0.426750   10.879150    2.337120
  C      1.778130   12.119600    2.173770
  O      2.804550   12.547430    2.640920
  C      1.616920   12.100570    0.623740
  F      0.486220   12.700220    0.225870
  F      2.629030   12.725370    0.028890
  F      1.591570   10.844550    0.147030
  C      1.367230   12.462320    5.164300
  C      1.221820   12.505880    6.514580
  C      1.977880   13.321850    7.398370
  C      2.461740   14.608510    7.233520
  N      2.289510   15.509630    6.155050
  O      2.845120   16.587150    6.251940
  O      1.576530   15.187630    5.222410
  C      3.055960   15.060210    8.471100
  C      2.909510   14.096910    9.409220
  C      2.272160   12.955100    8.803330
  C      2.117670   11.716990    9.368170
  C      1.991560   10.456260    8.677840
  C      2.097130    9.460470    9.582640
  C      2.241650   10.038370   10.908380
  N      2.240700    9.202130   12.048550
  O      2.681040    9.626830   13.099350
  O      1.788030    8.082700   11.895420
  C      2.239030   11.409650   10.815330
  C      2.119930   12.427860   11.828240
  C      2.702670   12.446050   13.027550
  H    -13.405950    0.431570    0.640760
  H    -11.465160   -0.093620    2.386340
  H    -10.240870    1.194550    2.532910
  H    -10.799340   -0.411850   -0.018570
  H     -9.427260   -0.655700    1.067960
  H     -9.578440    0.853350    0.164400
  H    -16.128460    5.038740   -1.328600
  H    -14.954650    6.370080   -1.188360
  H    -16.845490    5.391730    1.017770
  H    -17.031750    6.877670    0.081610
  H    -15.678910    6.709080    1.201530
  H    -13.434830    7.029720    0.287390
  H    -11.075460    5.591060    1.609200
  H     -9.826890   10.751050    0.893140
  H     -8.316000    9.413990    2.600780
  H    -11.315120    5.776370    3.762960
  H     -9.940150    4.678060    5.734160
  H     -7.030630    7.584500    2.322200
  H     -5.792350    7.845930    5.114790
  H     -4.584450    9.711420   -0.942760
  H     -3.800770    8.149000   -0.955890
  H     -0.544660   10.673600    1.287440
  H      2.159390   13.011880    4.677710
  H      0.482900   11.863040    6.979680
  H      3.518950   16.022670    8.580070
  H      3.294620   14.119000   10.409170
  H      1.953370   10.342990    7.612830
  H      2.088490    8.401460    9.406690
  H      1.484400   13.256660   11.536890
  H      3.376630   11.676420   13.356420
  H      2.518330   13.257750   13.710910

 Total Charge           Charge          ....    0
 Multiplicity           Mult            ....    1
 Number of Electrons    NEL             ....  542
 Basis Dimension        Dim             .... 1213

ORBITAL ENERGIES
----------------

  NO   OCC          E(Eh)            E(eV)
   0   2.0000     -88.996046     -2421.7055
   1   2.0000     -88.991622     -2421.5851
   2   2.0000     -24.806930      -675.0309
   3   2.0000     -24.806569      -675.0211
   4   2.0000     -24.801290      -674.8774
   5   2.0000     -19.246163      -523.7147
   6   2.0000     -19.244918      -523.6808
   7   2.0000     -19.244626      -523.6729
   8   2.0000     -19.244034      -523.6568
   9   2.0000     -19.243933      -523.6540
  10   2.0000     -19.242576      -523.6171
  11   2.0000     -19.242520      -523.6156
  12   2.0000     -19.242106      -523.6043
  13   2.0000     -19.240614      -523.5637
  14   2.0000     -19.232520      -523.3435
  15   2.0000     -19.231529      -523.3165
  16   2.0000     -19.205590      -522.6107
  17   2.0000     -19.191872      -522.2374
  18   2.0000     -14.653432      -398.7402
  19   2.0000     -14.653406      -398.7395
  20   2.0000     -14.652363      -398.7111
  21   2.0000     -14.649868      -398.6432
  22   2.0000     -14.465232      -393.6190
  23   2.0000     -14.456844      -393.3907
  24   2.0000     -10.517848      -286.2052
  25   2.0000     -10.394695      -282.8540
  26   2.0000     -10.385944      -282.6159
  27   2.0000     -10.385174      -282.5949
  28   2.0000     -10.385121      -282.5935
  29   2.0000     -10.378578      -282.4155
  30   2.0000     -10.353114      -281.7225
  31   2.0000     -10.348276      -281.5909
  32   2.0000     -10.345450      -281.5140
  33   2.0000     -10.344725      -281.4943
  34   2.0000     -10.340919      -281.3907
  35   2.0000     -10.339572      -281.3541
  36   2.0000     -10.339447      -281.3507
  37   2.0000     -10.338853      -281.3345
  38   2.0000     -10.335882      -281.2537
  39   2.0000     -10.335405      -281.2407
  40   2.0000     -10.334405      -281.2134
  41   2.0000     -10.334152      -281.2066
  42   2.0000     -10.329946      -281.0921
  43   2.0000     -10.328928      -281.0644
  44   2.0000     -10.328343      -281.0485
  45   2.0000     -10.327863      -281.0354
  46   2.0000     -10.326328      -280.9937
  47   2.0000     -10.323112      -280.9062
  48   2.0000     -10.317617      -280.7566
  49   2.0000     -10.312736      -280.6238
  50   2.0000     -10.309964      -280.5484
  51   2.0000     -10.309316      -280.5307
  52   2.0000     -10.308459      -280.5074
  53   2.0000     -10.308399      -280.5058
  54   2.0000     -10.307776      -280.4888
  55   2.0000     -10.307038      -280.4688
  56   2.0000     -10.306202      -280.4460
  57   2.0000     -10.304286      -280.3939
  58   2.0000     -10.303652      -280.3766
  59   2.0000     -10.302869      -280.3553
  60   2.0000     -10.300533      -280.2918
  61   2.0000     -10.299350      -280.2596
  62   2.0000     -10.299112      -280.2531
  63   2.0000     -10.297908      -280.2203
  64   2.0000     -10.296044      -280.1696
  65   2.0000     -10.295230      -280.1474
  66   2.0000     -10.294350      -280.1235
  67   2.0000     -10.292531      -280.0740
  68   2.0000     -10.288779      -279.9719
  69   2.0000     -10.288513      -279.9647
  70   2.0000     -10.286549      -279.9112
  71   2.0000     -10.272484      -279.5285
  72   2.0000     -10.271612      -279.5048
  73   2.0000     -10.268696      -279.4254
  74   2.0000     -10.262691      -279.2620
  75   2.0000      -8.091658      -220.1852
  76   2.0000      -8.087225      -220.0646
  77   2.0000      -6.060858      -164.9243
  78   2.0000      -6.056534      -164.8067
  79   2.0000      -6.056353      -164.8017
  80   2.0000      -6.054000      -164.7377
  81   2.0000      -6.052245      -164.6900
  82   2.0000      -6.049579      -164.6174
  83   2.0000      -1.395226       -37.9660
  84   2.0000      -1.325711       -36.0744
  85   2.0000      -1.324748       -36.0482
  86   2.0000      -1.322736       -35.9935
  87   2.0000      -1.320911       -35.9438
  88   2.0000      -1.298661       -35.3384
  89   2.0000      -1.296898       -35.2904
  90   2.0000      -1.160762       -31.5859
  91   2.0000      -1.151535       -31.3349
  92   2.0000      -1.146738       -31.2043
  93   2.0000      -1.143282       -31.1103
  94   2.0000      -1.143232       -31.1089
  95   2.0000      -1.142166       -31.0799
  96   2.0000      -1.139188       -30.9989
  97   2.0000      -1.137766       -30.9602
  98   2.0000      -1.133025       -30.8312
  99   2.0000      -1.073284       -29.2055
 100   2.0000      -1.062535       -28.9130
 101   2.0000      -1.033230       -28.1156
 102   2.0000      -1.024476       -27.8774
 103   2.0000      -1.019352       -27.7380
 104   2.0000      -1.012771       -27.5589
 105   2.0000      -1.003394       -27.3037
 106   2.0000      -0.998534       -27.1715
 107   2.0000      -0.942545       -25.6480
 108   2.0000      -0.934621       -25.4323
 109   2.0000      -0.933546       -25.4031
 110   2.0000      -0.917980       -24.9795
 111   2.0000      -0.916990       -24.9526
 112   2.0000      -0.916747       -24.9460
 113   2.0000      -0.913610       -24.8606
 114   2.0000      -0.899445       -24.4751
 115   2.0000      -0.892189       -24.2777
 116   2.0000      -0.884579       -24.0706
 117   2.0000      -0.883995       -24.0547
 118   2.0000      -0.878337       -23.9008
 119   2.0000      -0.875663       -23.8280
 120   2.0000      -0.853636       -23.2286
 121   2.0000      -0.849442       -23.1145
 122   2.0000      -0.840015       -22.8580
 123   2.0000      -0.834066       -22.6961
 124   2.0000      -0.825782       -22.4707
 125   2.0000      -0.823304       -22.4033
 126   2.0000      -0.819745       -22.3064
 127   2.0000      -0.810058       -22.0428
 128   2.0000      -0.803521       -21.8649
 129   2.0000      -0.793431       -21.5904
 130   2.0000      -0.783877       -21.3304
 131   2.0000      -0.765771       -20.8377
 132   2.0000      -0.764568       -20.8050
 133   2.0000      -0.751436       -20.4476
 134   2.0000      -0.746044       -20.3009
 135   2.0000      -0.735139       -20.0042
 136   2.0000      -0.734417       -19.9845
 137   2.0000      -0.730319       -19.8730
 138   2.0000      -0.714809       -19.4509
 139   2.0000      -0.713463       -19.4143
 140   2.0000      -0.712228       -19.3807
 141   2.0000      -0.709524       -19.3071
 142   2.0000      -0.704352       -19.1664
 143   2.0000      -0.686145       -18.6709
 144   2.0000      -0.682501       -18.5718
 145   2.0000      -0.681262       -18.5381
 146   2.0000      -0.678865       -18.4729
 147   2.0000      -0.678251       -18.4561
 148   2.0000      -0.674923       -18.3656
 149   2.0000      -0.666205       -18.1284
 150   2.0000      -0.658956       -17.9311
 151   2.0000      -0.655114       -17.8266
 152   2.0000      -0.650952       -17.7133
 153   2.0000      -0.646739       -17.5987
 154   2.0000      -0.644200       -17.5296
 155   2.0000      -0.639537       -17.4027
 156   2.0000      -0.636138       -17.3102
 157   2.0000      -0.634451       -17.2643
 158   2.0000      -0.633916       -17.2497
 159   2.0000      -0.630478       -17.1562
 160   2.0000      -0.627682       -17.0801
 161   2.0000      -0.625486       -17.0203
 162   2.0000      -0.624407       -16.9910
 163   2.0000      -0.617793       -16.8110
 164   2.0000      -0.613260       -16.6877
 165   2.0000      -0.607344       -16.5267
 166   2.0000      -0.606666       -16.5082
 167   2.0000      -0.603711       -16.4278
 168   2.0000      -0.598123       -16.2758
 169   2.0000      -0.597063       -16.2469
 170   2.0000      -0.592325       -16.1180
 171   2.0000      -0.591271       -16.0893
 172   2.0000      -0.587730       -15.9929
 173   2.0000      -0.587221       -15.9791
 174   2.0000      -0.580959       -15.8087
 175   2.0000      -0.579209       -15.7611
 176   2.0000      -0.578904       -15.7528
 177   2.0000      -0.578382       -15.7386
 178   2.0000      -0.571643       -15.5552
 179   2.0000      -0.567862       -15.4523
 180   2.0000      -0.565284       -15.3822
 181   2.0000      -0.558811       -15.2060
 182   2.0000      -0.556025       -15.1302
 183   2.0000      -0.555161       -15.1067
 184   2.0000      -0.554577       -15.0908
 185   2.0000      -0.548395       -14.9226
 186   2.0000      -0.546797       -14.8791
 187   2.0000      -0.541565       -14.7367
 188   2.0000      -0.539559       -14.6821
 189   2.0000      -0.537865       -14.6361
 190   2.0000      -0.536310       -14.5937
 191   2.0000      -0.535629       -14.5752
 192   2.0000      -0.533491       -14.5170
 193   2.0000      -0.531640       -14.4667
 194   2.0000      -0.530724       -14.4417
 195   2.0000      -0.525808       -14.3080
 196   2.0000      -0.523254       -14.2385
 197   2.0000      -0.519204       -14.1283
 198   2.0000      -0.517510       -14.0822
 199   2.0000      -0.516361       -14.0509
 200   2.0000      -0.516165       -14.0456
 201   2.0000      -0.512883       -13.9563
 202   2.0000      -0.512679       -13.9507
 203   2.0000      -0.509786       -13.8720
 204   2.0000      -0.507586       -13.8121
 205   2.0000      -0.505130       -13.7453
 206   2.0000      -0.504008       -13.7148
 207   2.0000      -0.502425       -13.6717
 208   2.0000      -0.501565       -13.6483
 209   2.0000      -0.496129       -13.5003
 210   2.0000      -0.494116       -13.4456
 211   2.0000      -0.493408       -13.4263
 212   2.0000      -0.492189       -13.3931
 213   2.0000      -0.489889       -13.3306
 214   2.0000      -0.488068       -13.2810
 215   2.0000      -0.487731       -13.2718
 216   2.0000      -0.483064       -13.1448
 217   2.0000      -0.480308       -13.0698
 218   2.0000      -0.478957       -13.0331
 219   2.0000      -0.477868       -13.0034
 220   2.0000      -0.472272       -12.8512
 221   2.0000      -0.471630       -12.8337
 222   2.0000      -0.470216       -12.7952
 223   2.0000      -0.468387       -12.7454
 224   2.0000      -0.466389       -12.6911
 225   2.0000      -0.463890       -12.6231
 226   2.0000      -0.462989       -12.5986
 227   2.0000      -0.460710       -12.5365
 228   2.0000      -0.459553       -12.5051
 229   2.0000      -0.454962       -12.3801
 230   2.0000      -0.453013       -12.3271
 231   2.0000      -0.447821       -12.1858
 232   2.0000      -0.447118       -12.1667
 233   2.0000      -0.439984       -11.9726
 234   2.0000      -0.438789       -11.9401
 235   2.0000      -0.438016       -11.9190
 236   2.0000      -0.428828       -11.6690
 237   2.0000      -0.425742       -11.5850
 238   2.0000      -0.415394       -11.3034
 239   2.0000      -0.403830       -10.9888
 240   2.0000      -0.395002       -10.7485
 241   2.0000      -0.392375       -10.6771
 242   2.0000      -0.389994       -10.6123
 243   2.0000      -0.389257       -10.5922
 244   2.0000      -0.387687       -10.5495
 245   2.0000      -0.386261       -10.5107
 246   2.0000      -0.383408       -10.4331
 247   2.0000      -0.380884       -10.3644
 248   2.0000      -0.377635       -10.2760
 249   2.0000      -0.375829       -10.2268
 250   2.0000      -0.372402       -10.1336
 251   2.0000      -0.370066       -10.0700
 252   2.0000      -0.369164       -10.0455
 253   2.0000      -0.367056        -9.9881
 254   2.0000      -0.363296        -9.8858
 255   2.0000      -0.362387        -9.8610
 256   2.0000      -0.359992        -9.7959
 257   2.0000      -0.357749        -9.7348
 258   2.0000      -0.355259        -9.6671
 259   2.0000      -0.353729        -9.6255
 260   2.0000      -0.346580        -9.4309
 261   2.0000      -0.340721        -9.2715
 262   2.0000      -0.339157        -9.2289
 263   2.0000      -0.337190        -9.1754
 264   2.0000      -0.326120        -8.8742
 265   2.0000      -0.322429        -8.7737
 266   2.0000      -0.307733        -8.3738
 267   2.0000      -0.305213        -8.3053
 268   2.0000      -0.293371        -7.9830
 269   2.0000      -0.266386        -7.2487
 270   2.0000      -0.251337        -6.8392
 271   0.0000      -0.141398        -3.8476
 272   0.0000      -0.135932        -3.6989
 273   0.0000      -0.092426        -2.5151
 274   0.0000      -0.079950        -2.1756
 275   0.0000      -0.060412        -1.6439

MULLIKEN ATOMIC CHARGES
-----------------------
   0 C :    0.048626
   1 N :   -0.251232
   2 C :    0.110596
   3 C :   -0.004336
   4 C :    0.172065
   5 O :   -0.203133
   6 C :   -0.096886
   7 C :   -0.005692
   8 C :    0.163306
   9 O :   -0.176590
  10 N :   -0.265863
  11 C :    0.096131
  12 C :    0.003631
  13 C :    0.152374
  14 C :   -0.011559
  15 C :   -0.079555
  16 C :    0.089347
  17 C :    0.064221
  18 N :    0.277150
  19 O :   -0.255333
  20 O :   -0.243264
  21 C :    0.021699
  22 C :    0.014990
  23 C :    0.025272
  24 C :    0.033107
  25 C :    0.037693
  26 C :    0.016279
  27 C :    0.075043
  28 N :    0.268343
  29 O :   -0.254571
  30 O :   -0.244015
  31 C :    0.069617
  32 C :   -0.110762
  33 C :    0.078155
  34 C :   -0.134812
  35 S :    0.185315
  36 C :   -0.089866
  37 C :    0.003436
  38 C :    0.018092
  39 C :    0.030889
  40 O :   -0.150485
  41 C :    0.077900
  42 C :    0.031307
  43 O :   -0.141103
  44 C :   -0.047542
  45 S :    0.140382
  46 C :   -0.105246
  47 C :    0.028687
  48 C :   -0.010960
  49 C :    0.024545
  50 O :   -0.138632
  51 C :    0.481005
  52 F :   -0.156981
  53 F :   -0.133632
  54 F :   -0.165060
  55 C :    0.077459
  56 C :   -0.085129
  57 C :    0.065887
  58 C :    0.067458
  59 N :    0.263029
  60 O :   -0.238019
  61 O :   -0.242514
  62 C :    0.025319
  63 C :   -0.002176
  64 C :    0.036867
  65 C :    0.009908
  66 C :   -0.006393
  67 C :    0.030632
  68 C :    0.065105
  69 N :    0.269176
  70 O :   -0.239372
  71 O :   -0.244130
  72 C :    0.058560
  73 C :   -0.098632
  74 C :    0.033037
  75 H :    0.020864
  76 H :    0.022646
  77 H :    0.044802
  78 H :    0.017233
  79 H :    0.027676
  80 H :    0.032749
  81 H :    0.042429
  82 H :    0.038784
  83 H :    0.026701
  84 H :    0.027728
  85 H :    0.017621
  86 H :    0.004681
  87 H :    0.034799
  88 H :    0.004904
  89 H :   -0.002049
  90 H :   -0.002604
  91 H :    0.003205
  92 H :    0.046723
  93 H :    0.011475
  94 H :    0.073160
  95 H :    0.074066
  96 H :    0.030582
  97 H :    0.033433
  98 H :    0.020629
  99 H :    0.010057
 100 H :    0.001981
 101 H :    0.001439
 102 H :    0.010426
 103 H :    0.024321
 104 H :    0.056763
 105 H :    0.034612
Sum of atomic charges:   -0.0000000

LOEWDIN ATOMIC CHARGES
----------------------
   0 C :    0.097465
   1 N :    0.005214
   2 C :    0.039399
   3 C :   -0.059842
   4 C :    0.078111
   5 O :   -0.191125
   6 C :   -0.119681
   7 C :   -0.127703
   8 C :    0.080695
   9 O :   -0.182490
  10 N :   -0.003173
  11 C :    0.037676
  12 C :   -0.059758
  13 C :    0.077225
  14 C :   -0.010206
  15 C :    0.008355
  16 C :    0.010082
  17 C :   -0.041694
  18 N :    0.287419
  19 O :   -0.216423
  20 O :   -0.206671
  21 C :    0.018304
  22 C :   -0.033899
  23 C :    0.043883
  24 C :    0.048194
  25 C :   -0.024219
  26 C :    0.015559
  27 C :   -0.036158
  28 N :    0.284856
  29 O :   -0.213293
  30 O :   -0.208077
  31 C :    0.008379
  32 C :   -0.009021
  33 C :   -0.022279
  34 C :   -0.130575
  35 S :    0.480914
  36 C :   -0.150405
  37 C :   -0.091811
  38 C :   -0.092487
  39 C :    0.084024
  40 O :   -0.128412
  41 C :   -0.063798
  42 C :    0.083729
  43 O :   -0.121931
  44 C :   -0.185941
  45 S :    0.458588
  46 C :   -0.120004
  47 C :   -0.102814
  48 C :   -0.011483
  49 C :    0.044143
  50 O :   -0.096356
  51 C :    0.140402
  52 F :   -0.051723
  53 F :   -0.035032
  54 F :   -0.056313
  55 C :    0.006346
  56 C :   -0.030451
  57 C :    0.010901
  58 C :   -0.039457
  59 N :    0.283071
  60 O :   -0.202222
  61 O :   -0.202596
  62 C :    0.017956
  63 C :   -0.040119
  64 C :    0.035510
  65 C :    0.039877
  66 C :   -0.045588
  67 C :    0.022709
  68 C :   -0.036165
  69 N :    0.282822
  70 O :   -0.196486
  71 O :   -0.207482
  72 C :    0.017207
  73 C :   -0.049036
  74 C :    0.015387
  75 H :    0.035299
  76 H :    0.026586
  77 H :    0.037239
  78 H :    0.023419
  79 H :    0.032084
  80 H :    0.032463
  81 H :    0.037656
  82 H :    0.029234
  83 H :    0.030543
  84 H :    0.033088
  85 H :    0.022984
  86 H :    0.028508
  87 H :    0.041116
  88 H :    0.038147
  89 H :    0.031801
  90 H :    0.031729
  91 H :    0.037677
  92 H :    0.036341
  93 H :    0.030030
  94 H :    0.066272
  95 H :    0.067024
  96 H :    0.031721
  97 H :    0.039742
  98 H :    0.027286
  99 H :    0.039692
 100 H :    0.033194
 101 H :    0.031533
 102 H :    0.039629
 103 H :    0.037753
 104 H :    0.029686
 105 H :    0.030522

  Mayer bond orders larger than 0.100000
B(  0-C ,  1-N ) :   1.2058 B(  0-C ,  7-C ) :   1.4311 B(  0-C , 75-H ) :   0.9908
B(  1-N ,  2-C ) :   0.9369 B(  1-N ,  4-C ) :   1.0562 B(  2-C ,  3-C ) :   1.1179
B(  2-C , 76-H ) :   0.9538 B(  2-C , 77-H ) :   0.9354 B(  3-C , 78-H ) :   0.9693
B(  3-C , 79-H ) :   0.9690 B(  3-C , 80-H ) :   0.9678 B(  4-C ,  5-O ) :   2.0081
B(  4-C ,  6-C ) :   1.0024 B(  5-O , 87-H ) :   0.1078 B(  6-C ,  7-C ) :   1.2302
B(  6-C , 13-C ) :   1.3338 B(  7-C ,  8-C ) :   0.9458 B(  8-C ,  9-O ) :   2.1872
B(  8-C , 10-N ) :   1.0188 B( 10-N , 11-C ) :   0.9372 B( 10-N , 13-C ) :   1.1701
B( 11-C , 12-C ) :   1.1219 B( 11-C , 81-H ) :   0.9286 B( 11-C , 82-H ) :   0.9487
B( 12-C , 83-H ) :   0.9644 B( 12-C , 84-H ) :   0.9679 B( 12-C , 85-H ) :   0.9682
B( 13-C , 14-C ) :   1.1516 B( 14-C , 15-C ) :   1.5613 B( 14-C , 86-H ) :   0.9476
B( 15-C , 16-C ) :   1.1684 B( 15-C , 87-H ) :   0.9370 B( 16-C , 17-C ) :   1.4724
B( 16-C , 23-C ) :   1.0134 B( 17-C , 18-N ) :   0.9559 B( 17-C , 21-C ) :   1.1456
B( 18-N , 19-O ) :   1.4641 B( 18-N , 20-O ) :   1.5416 B( 19-O , 20-O ) :   0.2529
B( 19-O , 86-H ) :   0.1024 B( 21-C , 22-C ) :   1.5654 B( 21-C , 88-H ) :   1.0069
B( 22-C , 23-C ) :   1.1309 B( 22-C , 89-H ) :   1.0006 B( 23-C , 24-C ) :   1.5238
B( 24-C , 25-C ) :   1.1210 B( 24-C , 31-C ) :   1.0220 B( 25-C , 26-C ) :   1.5893
B( 25-C , 90-H ) :   1.0013 B( 26-C , 27-C ) :   1.1224 B( 26-C , 91-H ) :   1.0092
B( 27-C , 28-N ) :   0.9477 B( 27-C , 31-C ) :   1.5308 B( 28-N , 29-O ) :   1.4875
B( 28-N , 30-O ) :   1.5416 B( 29-O , 30-O ) :   0.2579 B( 31-C , 32-C ) :   1.1257
B( 32-C , 33-C ) :   1.6595 B( 32-C , 92-H ) :   0.9172 B( 33-C , 34-C ) :   1.1472
B( 33-C , 93-H ) :   0.9425 B( 34-C , 35-S ) :   1.1391 B( 34-C , 38-C ) :   1.4387
B( 35-S , 36-C ) :   1.1475 B( 36-C , 37-C ) :   1.5028 B( 36-C , 44-C ) :   1.1459
B( 37-C , 38-C ) :   1.2163 B( 37-C , 42-C ) :   0.9406 B( 38-C , 39-C ) :   0.9503
B( 39-C , 40-O ) :   2.1348 B( 39-C , 41-C ) :   1.0075 B( 40-O , 92-H ) :   0.1178
B( 41-C , 42-C ) :   1.0033 B( 41-C , 94-H ) :   0.8941 B( 41-C , 95-H ) :   0.8929
B( 42-C , 43-O ) :   2.1590 B( 43-O , 96-H ) :   0.1048 B( 44-C , 45-S ) :   1.0966
B( 44-C , 48-C ) :   1.5092 B( 45-S , 46-C ) :   1.1549 B( 46-C , 47-C ) :   1.4017
B( 46-C , 55-C ) :   1.2140 B( 47-C , 48-C ) :   1.2400 B( 47-C , 49-C ) :   0.9577
B( 48-C , 96-H ) :   0.9445 B( 49-C , 50-O ) :   2.1604 B( 49-C , 51-C ) :   0.8832
B( 51-C , 52-F ) :   1.1446 B( 51-C , 53-F ) :   1.1915 B( 51-C , 54-F ) :   1.1091
B( 55-C , 56-C ) :   1.6237 B( 55-C , 97-H ) :   0.9416 B( 56-C , 57-C ) :   1.1236
B( 56-C , 98-H ) :   0.9407 B( 57-C , 58-C ) :   1.5552 B( 57-C , 64-C ) :   1.0263
B( 58-C , 59-N ) :   0.9363 B( 58-C , 62-C ) :   1.1166 B( 59-N , 60-O ) :   1.5386
B( 59-N , 61-O ) :   1.5162 B( 60-O , 61-O ) :   0.2633 B( 62-C , 63-C ) :   1.6003
B( 62-C , 99-H ) :   1.0078 B( 63-C , 64-C ) :   1.1012 B( 63-C ,100-H ) :   1.0015
B( 64-C , 65-C ) :   1.5569 B( 65-C , 66-C ) :   1.0936 B( 65-C , 72-C ) :   1.0177
B( 66-C , 67-C ) :   1.6190 B( 66-C ,101-H ) :   1.0022 B( 67-C , 68-C ) :   1.0973
B( 67-C ,102-H ) :   1.0109 B( 68-C , 69-N ) :   0.9315 B( 68-C , 72-C ) :   1.6192
B( 69-N , 70-O ) :   1.5086 B( 69-N , 71-O ) :   1.5385 B( 70-O , 71-O ) :   0.2669
B( 72-C , 73-C ) :   1.0799 B( 73-C , 74-C ) :   1.9253 B( 73-C ,103-H ) :   0.9496
B( 74-C ,104-H ) :   0.9470 B( 74-C ,105-H ) :   0.9476

-----------------------------------------------------------------------------
         ABSORPTION SPECTRUM VIA TRANSITION ELECTRIC DIPOLE MOMENTS
-----------------------------------------------------------------------------
State   Energy  Wavelength   fosc         T2         TX        TY        TZ
        (cm-1)    (nm)                  (au**2)     (au)      (au)      (au)
-----------------------------------------------------------------------------
   0    7986.8   1252.1   0.231214884   9.53057  -2.07466  -2.09971  -0.90419
   1   11554.1    865.5   0.219344573   6.24983   2.21380   0.58794   1.00162
   2   12588.1    794.4   0.133703818   3.49670   0.35818   0.54604   1.75221
   3   17056.6    586.3   0.019867719   0.38347  -0.00211  -0.00558  -0.61922
   4   17521.6    570.7   0.036232438   0.68077   0.69484  -0.31038   0.31879
   5   18146.4    551.1   0.018221621   0.33058  -0.56921   0.07938   0.01649
   6   19660.7    508.6   0.103542847   1.73379  -1.28352  -0.29116  -0.03984
   7   20401.5    490.2   0.122453746   1.97599  -0.49404   1.30958  -0.13004
   8   20468.9    488.5   0.213733658   3.43759   1.43543   1.14073   0.27541
   9   22483.0    444.8   0.353038201   5.16944   1.67984   1.34820   0.72797
  10   22778.5    439.0   0.022219513   0.32113  -0.38609  -0.34384  -0.23204
  11   23923.6    418.0   0.010574731   0.14552   0.05127  -0.34044  -0.16429
  12   24773.1    403.7   0.143908080   1.91241  -0.49587   0.01546   1.29085
  13   25288.1    395.4   0.141605084   1.84348   0.07497  -0.55823   1.23541
  14   25373.4    394.1   0.000822023   0.01067  -0.07521  -0.07074  -0.00196
  15   25603.6    390.6   0.010731198   0.13798   0.14513   0.17261  -0.29517
  16   26247.3    381.0   0.143438004   1.79910   0.37290  -0.97383   0.84362
  17   26555.6    376.6   0.041113300   0.50968  -0.55593   0.03941  -0.44617
  18   26984.4    370.6   0.059084131   0.72083  -0.50811  -0.60879  -0.30337
  19   27275.7    366.6   0.053990186   0.65165  -0.20066  -0.43319   0.65095
  20   27426.8    364.6   0.109540395   1.31485   0.14812   1.12885  -0.13637
  21   28361.8    352.6   0.179844291   2.08756   1.10901  -0.08356   0.92231
  22   28579.7    349.9   0.009749030   0.11230  -0.31649   0.03832  -0.10327
  23   28723.9    348.1   0.079040883   0.90591   0.89829   0.18095  -0.25738
  24   28951.1    345.4   0.003622268   0.04119   0.19116  -0.05069   0.04558
  25   29130.5    343.3   0.026138552   0.29540   0.47653   0.22756  -0.12858
  26   29339.3    340.8   0.064200864   0.72039  -0.23859   0.62990  -0.51642
  27   29692.0    336.8   0.010268216   0.11385  -0.09241   0.29744  -0.12977
  28   29886.5    334.6   0.097585876   1.07495   0.45612  -0.02073   0.93084
  29   30404.7    328.9   0.001348754   0.01460   0.05815   0.05774   0.08881
  30   30563.1    327.2   0.032622519   0.35140   0.03315  -0.36145  -0.46867
  31   30802.1    324.7   0.379172474   4.05259   0.24683   1.72320  -1.01106
  32   30925.1    323.4   0.026327570   0.28027  -0.33609  -0.40619  -0.04823
  33   31164.5    320.9   0.011953205   0.12627  -0.04241  -0.33819   0.10051
  34   31432.1    318.1   0.066040259   0.69169  -0.18077  -0.71485   0.38472
  35   31624.9    316.2   0.275677005   2.86977  -0.24673   1.19631  -1.17377
  36   31875.8    313.7   0.026304223   0.27167  -0.10524   0.47121   0.19637
  37   31926.0    313.2   0.004912576   0.05066  -0.20720  -0.05294   0.07016
  38   32081.1    311.7   0.098920952   1.01511   0.43911   0.89086   0.16931
  39   32170.3    310.8   0.012582220   0.12876   0.07509  -0.34187   0.07903
  40   32278.9    309.8   0.020996063   0.21414   0.13322   0.41360  -0.15914
  41   32670.5    306.1   0.125822921   1.26788  -0.39351  -1.05227  -0.07593
  42   32888.2    304.1   0.095463342   0.95559  -0.25755   0.65903  -0.67449
  43   32931.9    303.7   0.026484903   0.26476   0.49908   0.08251   0.09419
  44   33048.1    302.6   0.139008738   1.38475   0.13680  -0.54542   1.03371
  45   33160.9    301.6   0.034578448   0.34328  -0.16223   0.44856  -0.34024
  46   33461.9    298.8   0.121538484   1.19575  -0.59021   0.63621  -0.66530
  47   33736.7    296.4   0.007512494   0.07331  -0.11810  -0.24041   0.03958
  48   33918.6    294.8   0.071672325   0.69565   0.14870   0.68733  -0.44846
  49   33987.6    294.2   0.103133239   0.99897  -0.04798   0.54319  -0.83763
  50   34174.4    292.6   0.010281176   0.09904   0.10375  -0.28665  -0.07817
  51   34601.6    289.0   0.005720440   0.05443  -0.10712   0.10943  -0.17600
  52   34679.4    288.4   0.001462766   0.01389   0.04061  -0.06960   0.08598
  53   34696.5    288.2   0.000546609   0.00519  -0.06442  -0.02321   0.02232
  54   34785.8    287.5   0.030727410   0.29080  -0.38559  -0.25641   0.27637
  55   34981.1    285.9   0.006742353   0.06345  -0.03345  -0.18460  -0.16810
  56   35356.8    282.8   0.001934960   0.01802  -0.04141  -0.08872  -0.09182
  57   35423.1    282.3   0.037230967   0.34601  -0.07463   0.31795  -0.48924
  58   35633.3    280.6   0.090717453   0.83813   0.24587   0.85740  -0.20625
  59   35661.2    280.4   0.013086065   0.12081  -0.10872   0.31148  -0.10939
  60   35954.0    278.1   0.036402133   0.33332  -0.15687  -0.25422  -0.49404
  61   36062.2    277.3   0.000835613   0.00763  -0.06645   0.02982   0.04820
  62   36175.9    276.4   0.029498472   0.26845  -0.21174  -0.45139   0.14090
  63   36514.2    273.9   0.009528242   0.08591   0.27720  -0.00723  -0.09494
  64   36633.0    273.0   0.103944219   0.93412  -0.14042  -0.89923   0.32525
  65   36898.6    271.0   0.188975204   1.68605   0.00101  -1.17380   0.55520
  66   37007.3    270.2   0.000583636   0.00519   0.03299   0.06356   0.00797
  67   37359.1    267.7   0.035650329   0.31415  -0.14555  -0.48678   0.23668
  68   37453.6    267.0   0.013282893   0.11675  -0.14383   0.23210  -0.20542
  69   37547.6    266.3   0.000526820   0.00462   0.05762   0.01645   0.03206
  70   37776.9    264.7   0.047132689   0.41074  -0.31558   0.41950  -0.36765
  71   37901.5    263.8   0.008458262   0.07347   0.19471   0.16822   0.08520
  72   38054.4    262.8   0.009281329   0.08029   0.22012   0.10980   0.14065
  73   38267.7    261.3   0.055560322   0.47798  -0.56650  -0.37676   0.12292
  74   38388.4    260.5   0.008774504   0.07525   0.17300   0.20488   0.05783
  75   38538.4    259.5   0.025749536   0.21996   0.02498  -0.30311   0.35702
  76   38890.3    257.1   0.032989937   0.27926   0.27266   0.44438  -0.08630
  77   38991.0    256.5   0.000382355   0.00323   0.00069   0.05407   0.01743
  78   39277.0    254.6   0.013128086   0.11004   0.06601   0.18819   0.26508
  79   39528.6    253.0   0.062492506   0.52047   0.23098  -0.31355   0.60729
  80   39688.1    252.0   0.014296645   0.11859  -0.27739  -0.20056  -0.03770
  81   39852.2    250.9   0.046851760   0.38703   0.55353   0.17824   0.22107
  82   39932.7    250.4   0.030152520   0.24858  -0.42499  -0.07302  -0.25027
  83   40085.0    249.5   0.069822047   0.57344   0.61540   0.40525   0.17461

FINAL SINGLE POINT ENERGY     -4359.333184350363

DIPOLE MOMENT
-------------
                                X             Y             Z
Electronic contribution:     78.30540      48.52320      -6.46040
Nuclear contribution   :    -79.02899     -49.46089       7.52976
                        -----------------------------------------
Total Dipole Moment    :     -0.72359      -0.93769       1.06935
                        -----------------------------------------
Magnitude (a.u.)       :      1.59573
Magnitude (Debye)      :      4.05603

Rotational constants in cm-1:     0.001330     0.000274     0.000248
Rotational constants in MHz :    39.872494     8.220802     7.436542

                             ****ORCA TERMINATED NORMALLY****
TOTAL RUN TIME: 0 days 0 hours 11 minutes 39 seconds 128 msec
