                         Program Version 4.2.0 -  RELEASE  -
|  1> # ORCA input file
|  2> # SCF done       -188.146108907825          0.000673910138
|  3> ! CAM-B3LYP def2-SVP def2/J RIJCOSX Grid4 TightSCF
|  4> %maxcore 5000
|  5> %tddft
|  6>     Mode sTDDFT
|  7>     Ethresh 5.0
|  8>     maxcore 5000
|  9> end
| 10>
| 11> %pal
| 12>   nprocs 6
| 13>   end
| 14> * xyz 0 1
| 15>    C        3.55042        -0.06170         0.80238
| 16>    N        3.28059         0.65404        -0.31749
| 17>    C        3.58700         0.26276        -1.67059
| 18>    C        2.56898        -0.74000        -2.20758
| 19>    C        2.57521         1.84299        -0.01234
| 20>    O        2.22320         2.64142        -0.85841
| 21>    C        2.43772         1.80846         1.42294
| 22>    C        3.05753         0.60924         1.88991
| 23>    C        2.93997         0.57658         3.33458
| 24>    O        3.30339        -0.22410         4.16591
| 25>    N        2.26439         1.77239         3.64734
| 26>    C        1.90066         2.08337         5.00812
| 27>    C        0.42961         1.78346         5.28738
| 28>    C        1.95520         2.51104         2.52495
| 29>    C        1.28768         3.75676         2.56797
| 30>    C        0.93139         4.44067         1.44383
| 31>    C        0.26407         5.68662         1.43671
| 32>    C       -0.18439         6.34774         0.30428
| 33>    C       -0.81393         7.55781         0.68330
| 34>    C       -0.71246         7.62899         2.15205
| 35>    C       -0.07743         6.50705         2.58694
| 36>    C       -1.15430         8.66228         2.98436
| 37>    N       -1.48673         9.49118         3.70853
| 38>    C       -1.42410         8.49543        -0.13047
| 39>    C       -2.06991         9.68434         0.27219
| 40>    C       -2.54400        10.34726        -0.84967
| 41>    C       -2.19663         9.55037        -2.01689
| 42>    C       -1.53007         8.44241        -1.60372
| 43>    C       -1.04265         7.44215        -2.45181
| 44>    N       -0.66300         6.64369        -3.18521
| 45>    C       -3.22858        11.57383        -0.90678
| 46>    S       -3.75433        12.25602        -2.40923
| 47>    C       -4.38322        13.67285        -1.60817
| 48>    C       -4.23752        13.59034        -0.22177
| 49>    C       -3.56537        12.42157         0.16886
| 50>    O       -3.20506        12.05720         1.40986
| 51>    C       -2.99608        13.08911         2.36274
| 52>    C       -4.28388        13.58498         3.01783
| 53>    C       -5.39236        13.82774         1.99307
| 54>    C       -4.90138        14.54260         0.73115
| 55>    C       -4.94547        14.70153        -2.39477
| 56>    C       -5.21144        16.01765        -2.05380
| 57>    C       -5.75728        16.68723        -3.17395
| 58>    C       -5.84143        15.69080        -4.25574
| 59>    C       -5.34377        14.51873        -3.78288
| 60>    C       -6.42067        15.86020        -5.51974
| 61>    N       -6.92386        15.93217        -6.54942
| 62>    C       -6.13668        18.01574        -3.24982
| 63>    C       -6.55165        18.73323        -4.39507
| 64>    C       -6.89608        20.02642        -4.02872
| 65>    C       -6.68102        20.14770        -2.59809
| 66>    C       -6.20808        18.96051        -2.12575
| 67>    C       -5.89099        18.70062        -0.79023
| 68>    N       -5.63940        18.51152         0.31580
| 69>    C       -7.35648        20.99698        -4.95672
| 70>    N       -8.05563        22.14965        -4.68628
| 71>    C       -8.48962        22.65581        -3.40625
| 72>    C       -7.46359        23.61253        -2.80240
| 73>    C       -8.39568        22.85007        -5.85909
| 74>    O       -9.03024        23.88589        -5.85287
| 75>    C       -7.83812        22.05528        -6.92865
| 76>    C       -7.21239        20.92527        -6.34488
| 77>    C       -6.61231        20.15187        -7.40951
| 78>    O       -5.94462        19.14117        -7.42184
| 79>    N       -6.95994        20.85859        -8.58513
| 80>    C       -6.52263        20.39247        -9.87836
| 81>    C       -5.30099        21.16083       -10.37671
| 82>    C       -7.67887        21.98931        -8.31062
| 83>    C       -8.16449        22.88566        -9.31910
| 84>    C       -8.84735        23.99739        -9.03427
| 85>    H        4.08209        -0.99397         0.75159
| 86>    H        4.59465        -0.16143        -1.69955
| 87>    H        3.56133         1.17500        -2.27266
| 88>    H        2.55917        -1.64159        -1.59870
| 89>    H        2.82074        -1.00996        -3.22921
| 90>    H        1.57426        -0.30127        -2.19845
| 91>    H        2.13338         3.13072         5.22176
| 92>    H        2.52972         1.44904         5.63912
| 93>    H       -0.21947         2.36766         4.63846
| 94>    H        0.19518         2.01872         6.32194
| 95>    H        0.22862         0.72871         5.11679
| 96>    H        1.05370         4.16309         3.54108
| 97>    H        1.15657         4.01498         0.47481
| 98>    H       -0.08037         5.99170        -0.70204
| 99>    H        0.14734         6.27540         3.61151
|100>    H       -2.18133        10.01529         1.28335
|101>    H       -2.43911         9.81664        -3.02948
|102>    H       -2.46538        13.91829         1.88070
|103>    H       -2.33901        12.63995         3.11169
|104>    H       -4.05186        14.50987         3.54801
|105>    H       -4.62904        12.85201         3.74786
|106>    H       -6.17442        14.42834         2.45964
|107>    H       -5.83945        12.87339         1.70449
|108>    H       -4.23619        15.36738         1.00130
|109>    H       -5.76278        14.97741         0.22097
|110>    H       -4.97146        16.49927        -1.12896
|111>    H       -5.27523        13.58847        -4.31625
|112>    H       -6.58364        18.33518        -5.38950
|113>    H       -6.81881        21.02887        -2.00245
|114>    H       -8.70420        21.81711        -2.74098
|115>    H       -9.41853        23.20437        -3.59095
|116>    H       -6.48841        23.13905        -2.70855
|117>    H       -7.79415        23.93931        -1.82010
|118>    H       -7.35907        24.48506        -3.44241
|119>    H       -7.34740        20.46428       -10.59263
|120>    H       -6.26239        19.33852        -9.74493
|121>    H       -5.51888        22.22220       -10.47541
|122>    H       -4.99399        20.77419       -11.34450
|123>    H       -4.47738        21.03994        -9.67746
|124>    H       -7.95823        22.62048       -10.34682
|125>    H       -9.06658        24.28134        -8.01845
|126>    H       -9.20416        24.64632        -9.81535
|127> *
|128>
|129>                          ****END OF INPUT****

CARTESIAN COORDINATES (ANGSTROEM)
---------------------------------
  C      3.550420   -0.061700    0.802380
  N      3.280590    0.654040   -0.317490
  C      3.587000    0.262760   -1.670590
  C      2.568980   -0.740000   -2.207580
  C      2.575210    1.842990   -0.012340
  O      2.223200    2.641420   -0.858410
  C      2.437720    1.808460    1.422940
  C      3.057530    0.609240    1.889910
  C      2.939970    0.576580    3.334580
  O      3.303390   -0.224100    4.165910
  N      2.264390    1.772390    3.647340
  C      1.900660    2.083370    5.008120
  C      0.429610    1.783460    5.287380
  C      1.955200    2.511040    2.524950
  C      1.287680    3.756760    2.567970
  C      0.931390    4.440670    1.443830
  C      0.264070    5.686620    1.436710
  C     -0.184390    6.347740    0.304280
  C     -0.813930    7.557810    0.683300
  C     -0.712460    7.628990    2.152050
  C     -0.077430    6.507050    2.586940
  C     -1.154300    8.662280    2.984360
  N     -1.486730    9.491180    3.708530
  C     -1.424100    8.495430   -0.130470
  C     -2.069910    9.684340    0.272190
  C     -2.544000   10.347260   -0.849670
  C     -2.196630    9.550370   -2.016890
  C     -1.530070    8.442410   -1.603720
  C     -1.042650    7.442150   -2.451810
  N     -0.663000    6.643690   -3.185210
  C     -3.228580   11.573830   -0.906780
  S     -3.754330   12.256020   -2.409230
  C     -4.383220   13.672850   -1.608170
  C     -4.237520   13.590340   -0.221770
  C     -3.565370   12.421570    0.168860
  O     -3.205060   12.057200    1.409860
  C     -2.996080   13.089110    2.362740
  C     -4.283880   13.584980    3.017830
  C     -5.392360   13.827740    1.993070
  C     -4.901380   14.542600    0.731150
  C     -4.945470   14.701530   -2.394770
  C     -5.211440   16.017650   -2.053800
  C     -5.757280   16.687230   -3.173950
  C     -5.841430   15.690800   -4.255740
  C     -5.343770   14.518730   -3.782880
  C     -6.420670   15.860200   -5.519740
  N     -6.923860   15.932170   -6.549420
  C     -6.136680   18.015740   -3.249820
  C     -6.551650   18.733230   -4.395070
  C     -6.896080   20.026420   -4.028720
  C     -6.681020   20.147700   -2.598090
  C     -6.208080   18.960510   -2.125750
  C     -5.890990   18.700620   -0.790230
  N     -5.639400   18.511520    0.315800
  C     -7.356480   20.996980   -4.956720
  N     -8.055630   22.149650   -4.686280
  C     -8.489620   22.655810   -3.406250
  C     -7.463590   23.612530   -2.802400
  C     -8.395680   22.850070   -5.859090
  O     -9.030240   23.885890   -5.852870
  C     -7.838120   22.055280   -6.928650
  C     -7.212390   20.925270   -6.344880
  C     -6.612310   20.151870   -7.409510
  O     -5.944620   19.141170   -7.421840
  N     -6.959940   20.858590   -8.585130
  C     -6.522630   20.392470   -9.878360
  C     -5.300990   21.160830  -10.376710
  C     -7.678870   21.989310   -8.310620
  C     -8.164490   22.885660   -9.319100
  C     -8.847350   23.997390   -9.034270
  H      4.082090   -0.993970    0.751590
  H      4.594650   -0.161430   -1.699550
  H      3.561330    1.175000   -2.272660
  H      2.559170   -1.641590   -1.598700
  H      2.820740   -1.009960   -3.229210
  H      1.574260   -0.301270   -2.198450
  H      2.133380    3.130720    5.221760
  H      2.529720    1.449040    5.639120
  H     -0.219470    2.367660    4.638460
  H      0.195180    2.018720    6.321940
  H      0.228620    0.728710    5.116790
  H      1.053700    4.163090    3.541080
  H      1.156570    4.014980    0.474810
  H     -0.080370    5.991700   -0.702040
  H      0.147340    6.275400    3.611510
  H     -2.181330   10.015290    1.283350
  H     -2.439110    9.816640   -3.029480
  H     -2.465380   13.918290    1.880700
  H     -2.339010   12.639950    3.111690
  H     -4.051860   14.509870    3.548010
  H     -4.629040   12.852010    3.747860
  H     -6.174420   14.428340    2.459640
  H     -5.839450   12.873390    1.704490
  H     -4.236190   15.367380    1.001300
  H     -5.762780   14.977410    0.220970
  H     -4.971460   16.499270   -1.128960
  H     -5.275230   13.588470   -4.316250
  H     -6.583640   18.335180   -5.389500
  H     -6.818810   21.028870   -2.002450
  H     -8.704200   21.817110   -2.740980
  H     -9.418530   23.204370   -3.590950
  H     -6.488410   23.139050   -2.708550
  H     -7.794150   23.939310   -1.820100
  H     -7.359070   24.485060   -3.442410
  H     -7.347400   20.464280  -10.592630
  H     -6.262390   19.338520   -9.744930
  H     -5.518880   22.222200  -10.475410
  H     -4.993990   20.774190  -11.344500
  H     -4.477380   21.039940   -9.677460
  H     -7.958230   22.620480  -10.346820
  H     -9.066580   24.281340   -8.018450
  H     -9.204160   24.646320   -9.815350

 Total Charge           Charge          ....    0
 Multiplicity           Mult            ....    1
 Number of Electrons    NEL             ....  490
 Basis Dimension        Dim             .... 1194

ORBITAL ENERGIES
----------------

  NO   OCC          E(Eh)            E(eV)
   0   2.0000     -88.975448     -2421.1450
   1   2.0000     -19.263387      -524.1834
   2   2.0000     -19.195851      -522.3457
   3   2.0000     -19.190720      -522.2060
   4   2.0000     -19.187815      -522.1270
   5   2.0000     -19.181819      -521.9638
   6   2.0000     -14.457037      -393.3960
   7   2.0000     -14.456901      -393.3923
   8   2.0000     -14.450812      -393.2266
   9   2.0000     -14.447730      -393.1427
  10   2.0000     -14.411275      -392.1507
  11   2.0000     -14.406617      -392.0240
  12   2.0000     -14.405080      -391.9822
  13   2.0000     -14.404232      -391.9591
  14   2.0000     -10.377187      -282.3776
  15   2.0000     -10.374130      -282.2944
  16   2.0000     -10.369037      -282.1558
  17   2.0000     -10.368574      -282.1432
  18   2.0000     -10.355039      -281.7749
  19   2.0000     -10.344648      -281.4922
  20   2.0000     -10.343159      -281.4517
  21   2.0000     -10.338429      -281.3229
  22   2.0000     -10.329130      -281.0699
  23   2.0000     -10.327049      -281.0133
  24   2.0000     -10.326668      -281.0029
  25   2.0000     -10.324010      -280.9306
  26   2.0000     -10.318999      -280.7942
  27   2.0000     -10.317963      -280.7660
  28   2.0000     -10.317943      -280.7655
  29   2.0000     -10.317463      -280.7524
  30   2.0000     -10.315028      -280.6862
  31   2.0000     -10.314291      -280.6661
  32   2.0000     -10.314034      -280.6591
  33   2.0000     -10.313819      -280.6533
  34   2.0000     -10.313293      -280.6390
  35   2.0000     -10.311824      -280.5990
  36   2.0000     -10.310574      -280.5650
  37   2.0000     -10.310465      -280.5620
  38   2.0000     -10.310409      -280.5605
  39   2.0000     -10.309410      -280.5333
  40   2.0000     -10.309233      -280.5285
  41   2.0000     -10.308386      -280.5054
  42   2.0000     -10.306821      -280.4629
  43   2.0000     -10.306623      -280.4575
  44   2.0000     -10.305929      -280.4386
  45   2.0000     -10.305904      -280.4379
  46   2.0000     -10.304957      -280.4121
  47   2.0000     -10.304764      -280.4069
  48   2.0000     -10.303433      -280.3707
  49   2.0000     -10.302249      -280.3384
  50   2.0000     -10.293788      -280.1082
  51   2.0000     -10.292630      -280.0767
  52   2.0000     -10.291933      -280.0577
  53   2.0000     -10.291868      -280.0560
  54   2.0000     -10.284690      -279.8606
  55   2.0000     -10.283456      -279.8271
  56   2.0000     -10.282858      -279.8108
  57   2.0000     -10.281433      -279.7720
  58   2.0000     -10.280341      -279.7423
  59   2.0000     -10.272734      -279.5353
  60   2.0000     -10.272225      -279.5215
  61   2.0000     -10.271786      -279.5095
  62   2.0000     -10.266862      -279.3755
  63   2.0000     -10.266749      -279.3724
  64   2.0000     -10.265184      -279.3299
  65   2.0000     -10.262560      -279.2585
  66   2.0000     -10.261413      -279.2272
  67   2.0000     -10.261057      -279.2175
  68   2.0000     -10.257033      -279.1081
  69   2.0000     -10.255936      -279.0782
  70   2.0000      -8.070598      -219.6121
  71   2.0000      -6.039869      -164.3532
  72   2.0000      -6.035990      -164.2476
  73   2.0000      -6.032555      -164.1542
  74   2.0000      -1.172204       -31.8973
  75   2.0000      -1.136927       -30.9374
  76   2.0000      -1.129667       -30.7398
  77   2.0000      -1.128329       -30.7034
  78   2.0000      -1.121391       -30.5146
  79   2.0000      -1.066950       -29.0332
  80   2.0000      -1.059138       -28.8206
  81   2.0000      -1.058393       -28.8003
  82   2.0000      -1.050570       -28.5875
  83   2.0000      -1.019077       -27.7305
  84   2.0000      -1.013034       -27.5661
  85   2.0000      -1.005332       -27.3565
  86   2.0000      -0.998445       -27.1691
  87   2.0000      -0.993900       -27.0454
  88   2.0000      -0.984259       -26.7831
  89   2.0000      -0.981985       -26.7212
  90   2.0000      -0.978904       -26.6373
  91   2.0000      -0.973140       -26.4805
  92   2.0000      -0.931028       -25.3345
  93   2.0000      -0.924365       -25.1532
  94   2.0000      -0.917512       -24.9668
  95   2.0000      -0.908501       -24.7216
  96   2.0000      -0.898423       -24.4473
  97   2.0000      -0.890285       -24.2259
  98   2.0000      -0.879487       -23.9321
  99   2.0000      -0.876220       -23.8432
 100   2.0000      -0.871026       -23.7018
 101   2.0000      -0.868459       -23.6320
 102   2.0000      -0.859390       -23.3852
 103   2.0000      -0.853870       -23.2350
 104   2.0000      -0.849538       -23.1171
 105   2.0000      -0.843584       -22.9551
 106   2.0000      -0.824561       -22.4375
 107   2.0000      -0.823306       -22.4033
 108   2.0000      -0.817276       -22.2392
 109   2.0000      -0.809964       -22.0402
 110   2.0000      -0.802150       -21.8276
 111   2.0000      -0.794438       -21.6178
 112   2.0000      -0.786637       -21.4055
 113   2.0000      -0.785596       -21.3772
 114   2.0000      -0.770019       -20.9533
 115   2.0000      -0.763292       -20.7702
 116   2.0000      -0.762279       -20.7427
 117   2.0000      -0.757941       -20.6246
 118   2.0000      -0.747270       -20.3342
 119   2.0000      -0.734460       -19.9857
 120   2.0000      -0.718902       -19.5623
 121   2.0000      -0.718077       -19.5399
 122   2.0000      -0.712638       -19.3919
 123   2.0000      -0.707208       -19.2441
 124   2.0000      -0.700972       -19.0744
 125   2.0000      -0.700237       -19.0544
 126   2.0000      -0.683882       -18.6094
 127   2.0000      -0.678788       -18.4708
 128   2.0000      -0.677724       -18.4418
 129   2.0000      -0.669907       -18.2291
 130   2.0000      -0.667751       -18.1704
 131   2.0000      -0.663577       -18.0568
 132   2.0000      -0.659663       -17.9503
 133   2.0000      -0.650998       -17.7146
 134   2.0000      -0.648341       -17.6422
 135   2.0000      -0.645616       -17.5681
 136   2.0000      -0.640142       -17.4192
 137   2.0000      -0.636762       -17.3272
 138   2.0000      -0.622044       -16.9267
 139   2.0000      -0.615088       -16.7374
 140   2.0000      -0.605349       -16.4724
 141   2.0000      -0.605217       -16.4688
 142   2.0000      -0.591061       -16.0836
 143   2.0000      -0.589739       -16.0476
 144   2.0000      -0.584491       -15.9048
 145   2.0000      -0.582320       -15.8457
 146   2.0000      -0.579103       -15.7582
 147   2.0000      -0.575415       -15.6578
 148   2.0000      -0.575089       -15.6490
 149   2.0000      -0.565228       -15.3806
 150   2.0000      -0.562836       -15.3155
 151   2.0000      -0.557495       -15.1702
 152   2.0000      -0.552497       -15.0342
 153   2.0000      -0.551413       -15.0047
 154   2.0000      -0.546558       -14.8726
 155   2.0000      -0.545045       -14.8314
 156   2.0000      -0.544810       -14.8250
 157   2.0000      -0.542218       -14.7545
 158   2.0000      -0.537516       -14.6266
 159   2.0000      -0.535644       -14.5756
 160   2.0000      -0.532401       -14.4874
 161   2.0000      -0.527672       -14.3587
 162   2.0000      -0.526704       -14.3324
 163   2.0000      -0.525078       -14.2881
 164   2.0000      -0.522163       -14.2088
 165   2.0000      -0.520617       -14.1667
 166   2.0000      -0.519759       -14.1434
 167   2.0000      -0.518218       -14.1014
 168   2.0000      -0.514404       -13.9976
 169   2.0000      -0.514183       -13.9916
 170   2.0000      -0.512075       -13.9343
 171   2.0000      -0.509402       -13.8615
 172   2.0000      -0.508868       -13.8470
 173   2.0000      -0.505851       -13.7649
 174   2.0000      -0.503324       -13.6961
 175   2.0000      -0.501582       -13.6487
 176   2.0000      -0.499506       -13.5923
 177   2.0000      -0.498802       -13.5731
 178   2.0000      -0.495461       -13.4822
 179   2.0000      -0.494427       -13.4541
 180   2.0000      -0.491820       -13.3831
 181   2.0000      -0.489390       -13.3170
 182   2.0000      -0.488191       -13.2843
 183   2.0000      -0.487486       -13.2652
 184   2.0000      -0.483865       -13.1666
 185   2.0000      -0.478553       -13.0221
 186   2.0000      -0.477894       -13.0042
 187   2.0000      -0.474710       -12.9175
 188   2.0000      -0.473417       -12.8823
 189   2.0000      -0.471071       -12.8185
 190   2.0000      -0.467814       -12.7299
 191   2.0000      -0.462869       -12.5953
 192   2.0000      -0.461500       -12.5580
 193   2.0000      -0.459723       -12.5097
 194   2.0000      -0.458789       -12.4843
 195   2.0000      -0.457317       -12.4442
 196   2.0000      -0.454450       -12.3662
 197   2.0000      -0.453687       -12.3454
 198   2.0000      -0.452217       -12.3055
 199   2.0000      -0.447557       -12.1786
 200   2.0000      -0.445028       -12.1098
 201   2.0000      -0.444190       -12.0870
 202   2.0000      -0.442953       -12.0534
 203   2.0000      -0.442681       -12.0460
 204   2.0000      -0.442028       -12.0282
 205   2.0000      -0.439179       -11.9507
 206   2.0000      -0.436735       -11.8842
 207   2.0000      -0.436389       -11.8747
 208   2.0000      -0.433616       -11.7993
 209   2.0000      -0.432668       -11.7735
 210   2.0000      -0.431940       -11.7537
 211   2.0000      -0.430999       -11.7281
 212   2.0000      -0.429339       -11.6829
 213   2.0000      -0.427591       -11.6353
 214   2.0000      -0.424674       -11.5560
 215   2.0000      -0.423604       -11.5269
 216   2.0000      -0.422106       -11.4861
 217   2.0000      -0.417281       -11.3548
 218   2.0000      -0.415659       -11.3106
 219   2.0000      -0.413533       -11.2528
 220   2.0000      -0.412758       -11.2317
 221   2.0000      -0.406409       -11.0590
 222   2.0000      -0.403876       -10.9900
 223   2.0000      -0.401781       -10.9330
 224   2.0000      -0.397392       -10.8136
 225   2.0000      -0.394422       -10.7328
 226   2.0000      -0.388118       -10.5612
 227   2.0000      -0.376712       -10.2509
 228   2.0000      -0.355735        -9.6800
 229   2.0000      -0.352499        -9.5920
 230   2.0000      -0.349969        -9.5231
 231   2.0000      -0.342158        -9.3106
 232   2.0000      -0.334210        -9.0943
 233   2.0000      -0.332324        -9.0430
 234   2.0000      -0.325890        -8.8679
 235   2.0000      -0.322828        -8.7846
 236   2.0000      -0.318213        -8.6590
 237   2.0000      -0.314771        -8.5654
 238   2.0000      -0.310460        -8.4481
 239   2.0000      -0.310216        -8.4414
 240   2.0000      -0.305735        -8.3195
 241   2.0000      -0.296111        -8.0576
 242   2.0000      -0.262956        -7.1554
 243   2.0000      -0.243236        -6.6188
 244   2.0000      -0.234090        -6.3699
 245   0.0000      -0.136816        -3.7230
 246   0.0000      -0.113962        -3.1011
 247   0.0000      -0.059132        -1.6091
 248   0.0000      -0.055277        -1.5042
 249   0.0000      -0.022744        -0.6189

MULLIKEN ATOMIC CHARGES
-----------------------
   0 C :    0.045353
   1 N :   -0.257514
   2 C :    0.112436
   3 C :    0.001580
   4 C :    0.173615
   5 O :   -0.206294
   6 C :   -0.102448
   7 C :   -0.003403
   8 C :    0.162807
   9 O :   -0.187966
  10 N :   -0.270809
  11 C :    0.097898
  12 C :    0.003283
  13 C :    0.169568
  14 C :   -0.033075
  15 C :    0.013655
  16 C :    0.108141
  17 C :   -0.106423
  18 C :    0.119413
  19 C :   -0.108040
  20 C :   -0.013950
  21 C :   -0.164629
  22 N :    0.122256
  23 C :    0.144776
  24 C :   -0.164713
  25 C :    0.114658
  26 C :   -0.026674
  27 C :   -0.088218
  28 C :   -0.180127
  29 N :    0.141945
  30 C :   -0.103404
  31 S :    0.131917
  32 C :   -0.105690
  33 C :   -0.087386
  34 C :    0.159863
  35 O :   -0.302544
  36 C :    0.202013
  37 C :    0.000515
  38 C :    0.006550
  39 C :    0.085483
  40 C :    0.109878
  41 C :   -0.160437
  42 C :    0.118449
  43 C :   -0.078725
  44 C :   -0.028875
  45 C :   -0.182520
  46 N :    0.155581
  47 C :    0.124283
  48 C :   -0.117481
  49 C :    0.042064
  50 C :   -0.035584
  51 C :   -0.103036
  52 C :   -0.178848
  53 N :    0.126931
  54 C :    0.158389
  55 N :   -0.262632
  56 C :    0.104702
  57 C :    0.002616
  58 C :    0.160445
  59 O :   -0.211917
  60 C :   -0.066911
  61 C :   -0.058885
  62 C :    0.153038
  63 O :   -0.183018
  64 N :   -0.260933
  65 C :    0.091372
  66 C :    0.006035
  67 C :    0.121879
  68 C :   -0.039210
  69 C :    0.020179
  70 H :    0.014823
  71 H :    0.016419
  72 H :    0.044413
  73 H :    0.013503
  74 H :    0.022502
  75 H :    0.032707
  76 H :    0.020305
  77 H :    0.044137
  78 H :    0.014329
  79 H :    0.022756
  80 H :    0.030253
  81 H :   -0.033066
  82 H :    0.016458
  83 H :    0.014542
  84 H :   -0.006128
  85 H :    0.008429
  86 H :    0.004826
  87 H :    0.012110
  88 H :    0.044237
  89 H :    0.016213
  90 H :    0.024102
  91 H :    0.019020
  92 H :    0.022065
  93 H :    0.036388
  94 H :    0.027753
  95 H :    0.002410
  96 H :    0.008446
  97 H :    0.023838
  98 H :   -0.014441
  99 H :    0.024020
 100 H :    0.039575
 101 H :    0.018674
 102 H :    0.023118
 103 H :    0.035097
 104 H :    0.027008
 105 H :    0.052399
 106 H :    0.014927
 107 H :    0.024255
 108 H :    0.030421
 109 H :   -0.015399
 110 H :    0.057803
 111 H :    0.033502
Sum of atomic charges:   -0.0000000

LOEWDIN ATOMIC CHARGES
----------------------
   0 C :    0.090863
   1 N :    0.002430
   2 C :    0.038804
   3 C :   -0.060042
   4 C :    0.077159
   5 O :   -0.196557
   6 C :   -0.126124
   7 C :   -0.129628
   8 C :    0.080800
   9 O :   -0.192422
  10 N :   -0.009866
  11 C :    0.035135
  12 C :   -0.061732
  13 C :    0.082168
  14 C :   -0.046670
  15 C :    0.039439
  16 C :   -0.027446
  17 C :   -0.007633
  18 C :    0.023110
  19 C :   -0.081441
  20 C :    0.046258
  21 C :   -0.025137
  22 N :   -0.074636
  23 C :    0.041982
  24 C :   -0.040119
  25 C :   -0.022329
  26 C :    0.043069
  27 C :   -0.072158
  28 C :   -0.033147
  29 N :   -0.056397
  30 C :   -0.188508
  31 S :    0.448605
  32 C :   -0.153467
  33 C :   -0.062886
  34 C :    0.037291
  35 O :   -0.073221
  36 C :    0.087783
  37 C :   -0.045469
  38 C :   -0.030227
  39 C :   -0.026710
  40 C :   -0.024671
  41 C :   -0.044940
  42 C :    0.046094
  43 C :   -0.069194
  44 C :    0.039534
  45 C :   -0.034531
  46 N :   -0.046123
  47 C :    0.023143
  48 C :    0.008800
  49 C :   -0.038414
  50 C :    0.039963
  51 C :   -0.085414
  52 C :   -0.027924
  53 N :   -0.075423
  54 C :    0.069962
  55 N :    0.000296
  56 C :    0.036231
  57 C :   -0.062647
  58 C :    0.080184
  59 O :   -0.202793
  60 C :   -0.128580
  61 C :   -0.105790
  62 C :    0.084470
  63 O :   -0.173816
  64 N :    0.002755
  65 C :    0.036258
  66 C :   -0.060719
  67 C :    0.090614
  68 C :   -0.054894
  69 C :    0.033398
  70 H :    0.032932
  71 H :    0.024562
  72 H :    0.037300
  73 H :    0.022077
  74 H :    0.030069
  75 H :    0.032523
  76 H :    0.020951
  77 H :    0.038094
  78 H :    0.021120
  79 H :    0.030196
  80 H :    0.032675
  81 H :    0.025993
  82 H :    0.043231
  83 H :    0.039760
  84 H :    0.032706
  85 H :    0.031655
  86 H :    0.032168
  87 H :    0.016642
  88 H :    0.035753
  89 H :    0.032075
  90 H :    0.031763
  91 H :    0.032681
  92 H :    0.027463
  93 H :    0.037133
  94 H :    0.040830
  95 H :    0.031952
  96 H :    0.032492
  97 H :    0.037827
  98 H :    0.034697
  99 H :    0.023623
 100 H :    0.037544
 101 H :    0.020252
 102 H :    0.030906
 103 H :    0.035268
 104 H :    0.024193
 105 H :    0.040959
 106 H :    0.021767
 107 H :    0.031257
 108 H :    0.032587
 109 H :    0.030917
 110 H :    0.033505
 111 H :    0.031151

  Mayer bond orders larger than 0.100000
B(  0-C ,  1-N ) :   1.2002 B(  0-C ,  7-C ) :   1.4438 B(  0-C , 70-H ) :   0.9900
B(  1-N ,  2-C ) :   0.9430 B(  1-N ,  4-C ) :   1.0493 B(  2-C ,  3-C ) :   1.1193
B(  2-C , 71-H ) :   0.9535 B(  2-C , 72-H ) :   0.9345 B(  3-C , 73-H ) :   0.9686
B(  3-C , 74-H ) :   0.9689 B(  3-C , 75-H ) :   0.9675 B(  4-C ,  5-O ) :   2.0256
B(  4-C ,  6-C ) :   1.0037 B(  5-O , 82-H ) :   0.1064 B(  6-C ,  7-C ) :   1.2135
B(  6-C , 13-C ) :   1.3686 B(  7-C ,  8-C ) :   0.9511 B(  8-C ,  9-O ) :   2.1746
B(  8-C , 10-N ) :   1.0194 B( 10-N , 11-C ) :   0.9504 B( 10-N , 13-C ) :   1.1510
B( 11-C , 12-C ) :   1.1193 B( 11-C , 76-H ) :   0.9502 B( 11-C , 77-H ) :   0.9269
B( 12-C , 78-H ) :   0.9680 B( 12-C , 79-H ) :   0.9680 B( 12-C , 80-H ) :   0.9640
B( 13-C , 14-C ) :   1.1579 B( 14-C , 15-C ) :   1.5569 B( 14-C , 81-H ) :   0.9632
B( 15-C , 16-C ) :   1.1254 B( 15-C , 82-H ) :   0.9606 B( 16-C , 17-C ) :   1.4798
B( 16-C , 20-C ) :   1.0510 B( 17-C , 18-C ) :   1.1306 B( 17-C , 83-H ) :   1.0138
B( 18-C , 19-C ) :   1.1137 B( 18-C , 23-C ) :   1.3600 B( 19-C , 20-C ) :   1.6667
B( 19-C , 21-C ) :   1.0882 B( 20-C , 84-H ) :   1.0157 B( 21-C , 22-N ) :   2.9690
B( 23-C , 24-C ) :   1.1273 B( 23-C , 27-C ) :   1.0972 B( 24-C , 25-C ) :   1.5156
B( 24-C , 85-H ) :   1.0058 B( 25-C , 26-C ) :   1.0194 B( 25-C , 30-C ) :   1.1487
B( 26-C , 27-C ) :   1.6965 B( 26-C , 86-H ) :   1.0134 B( 27-C , 28-C ) :   1.0801
B( 28-C , 29-N ) :   2.9712 B( 30-C , 31-S ) :   1.1126 B( 30-C , 32-C ) :   0.1237
B( 30-C , 34-C ) :   1.3821 B( 31-S , 32-C ) :   1.1083 B( 32-C , 33-C ) :   1.4704
B( 32-C , 40-C ) :   1.1282 B( 33-C , 34-C ) :   1.2720 B( 33-C , 39-C ) :   1.0528
B( 34-C , 35-O ) :   1.1986 B( 35-O , 36-C ) :   0.9183 B( 36-C , 37-C ) :   1.1022
B( 36-C , 87-H ) :   0.9336 B( 36-C , 88-H ) :   0.9521 B( 37-C , 38-C ) :   1.0956
B( 37-C , 89-H ) :   0.9364 B( 37-C , 90-H ) :   0.9375 B( 38-C , 39-C ) :   1.0866
B( 38-C , 91-H ) :   0.9390 B( 38-C , 92-H ) :   0.9352 B( 39-C , 93-H ) :   0.9044
B( 39-C , 94-H ) :   0.9112 B( 40-C , 41-C ) :   1.5067 B( 40-C , 44-C ) :   1.0306
B( 41-C , 42-C ) :   1.1553 B( 41-C , 95-H ) :   1.0007 B( 42-C , 43-C ) :   1.1092
B( 42-C , 47-C ) :   1.3484 B( 43-C , 44-C ) :   1.6856 B( 43-C , 45-C ) :   1.0803
B( 44-C , 96-H ) :   1.0116 B( 45-C , 46-N ) :   2.9890 B( 47-C , 48-C ) :   1.1394
B( 47-C , 51-C ) :   1.1151 B( 48-C , 49-C ) :   1.5234 B( 48-C , 97-H ) :   0.9929
B( 49-C , 50-C ) :   1.0405 B( 49-C , 54-C ) :   1.0456 B( 50-C , 51-C ) :   1.6427
B( 50-C , 98-H ) :   1.0247 B( 51-C , 52-C ) :   1.0874 B( 52-C , 53-N ) :   2.9644
B( 54-C , 55-N ) :   1.1910 B( 54-C , 61-C ) :   1.3769 B( 55-N , 56-C ) :   0.9445
B( 55-N , 58-C ) :   1.0480 B( 56-C , 57-C ) :   1.1180 B( 56-C , 99-H ) :   0.9497
B( 56-C ,100-H ) :   0.9266 B( 57-C ,101-H ) :   0.9650 B( 57-C ,102-H ) :   0.9686
B( 57-C ,103-H ) :   0.9602 B( 58-C , 59-O ) :   2.0367 B( 58-C , 60-C ) :   0.9909
B( 60-C , 61-C ) :   1.2403 B( 60-C , 67-C ) :   1.3359 B( 61-C , 62-C ) :   0.9734
B( 62-C , 63-O ) :   2.0879 B( 62-C , 64-N ) :   1.0298 B( 64-N , 65-C ) :   0.9437
B( 64-N , 67-C ) :   1.1911 B( 65-C , 66-C ) :   1.1200 B( 65-C ,104-H ) :   0.9508
B( 65-C ,105-H ) :   0.9283 B( 66-C ,106-H ) :   0.9686 B( 66-C ,107-H ) :   0.9678
B( 66-C ,108-H ) :   0.9637 B( 67-C , 68-C ) :   1.1285 B( 68-C , 69-C ) :   1.8826
B( 68-C ,109-H ) :   0.9542 B( 69-C ,110-H ) :   0.9268 B( 69-C ,111-H ) :   0.9445

-----------------------------------------------------------------------------
         ABSORPTION SPECTRUM VIA TRANSITION ELECTRIC DIPOLE MOMENTS
-----------------------------------------------------------------------------
State   Energy  Wavelength   fosc         T2         TX        TY        TZ
        (cm-1)    (nm)                  (au**2)     (au)      (au)      (au)
-----------------------------------------------------------------------------
   0    7769.4   1287.1   0.884748655  37.48914   2.29043  -5.09175   2.51339
   1   10561.0    946.9   0.345356280  10.76561  -1.76530   2.73878  -0.38524
   2   13514.1    740.0   0.065927194   1.60603   0.40826  -1.08975   0.50179
   3   13811.1    724.1   0.009181327   0.21885   0.27509  -0.11161   0.36155
   4   18478.4    541.2   0.014327270   0.25525   0.15798  -0.16487   0.45068
   5   18963.6    527.3   0.034180716   0.59338   0.25545  -0.47756  -0.54778
   6   19290.5    518.4   0.008586737   0.14654   0.00072  -0.00082   0.38281
   7   19549.3    511.5   0.059152762   0.99614   0.17431  -0.40784   0.89411
   8   20825.9    480.2   0.146347001   2.31343   0.71312  -1.33835   0.11706
   9   22788.8    438.8   0.163716302   2.36508  -0.19730   0.59864  -1.40278
  10   22824.2    438.1   0.076594196   1.10478   0.14940  -0.19537  -1.02191
  11   23524.5    425.1   0.284979610   3.98812  -0.86994   1.65651  -0.69808
  12   23684.3    422.2   0.393159185   5.46491  -1.09671   1.73555   1.11803
  13   24226.1    412.8   0.266792310   3.62548   0.58895  -1.27935   1.28136
  14   25095.0    398.5   0.008250845   0.10824   0.15493  -0.07620  -0.28005
  15   25365.0    394.2   0.013644801   0.17710  -0.09653   0.10050   0.39708
  16   26105.6    383.1   0.071886269   0.90654  -0.39562   0.66457  -0.55532
  17   26808.1    373.0   0.001113277   0.01367   0.06260   0.01151  -0.09808
  18   28132.5    355.5   0.032845572   0.38437  -0.11431  -0.26050  -0.55085
  19   28426.4    351.8   0.084195595   0.97508   0.34702  -0.53276   0.75553
  20   28684.1    348.6   0.036458411   0.41844   0.30272  -0.00910   0.57159
  21   29979.0    333.6   0.015741265   0.17286  -0.16016   0.29398  -0.24655
  22   30489.9    328.0   0.215510574   2.32695  -0.57241   1.38178  -0.29996
  23   30993.6    322.6   0.070824152   0.75229   0.38292  -0.73661   0.25114
  24   31452.2    317.9   0.007429268   0.07776  -0.08462   0.26073   0.05121
  25   31664.5    315.8   0.395449708   4.11144  -0.78384   1.85865  -0.20604
  26   31973.8    312.8   0.132048139   1.35961   0.48419  -1.04360   0.18992
  27   32374.8    308.9   0.003420641   0.03478   0.00945   0.01533  -0.18563
  28   32481.6    307.9   0.011973100   0.12135   0.12588  -0.23194   0.22739
  29   32550.7    307.2   0.009976156   0.10090   0.13698  -0.27869   0.06681
  30   33165.4    301.5   0.112258537   1.11432   0.58645  -0.69695   0.53353
  31   34051.1    293.7   0.102041596   0.98656  -0.37200   0.57092  -0.72265
  32   34271.6    291.8   0.123686499   1.18813  -0.40854   0.99859  -0.15506
  33   34504.0    289.8   0.013870339   0.13234  -0.21372   0.23903  -0.17184
  34   35149.9    284.5   0.005502906   0.05154  -0.12502   0.15576  -0.10793
  35   35221.1    283.9   0.006569336   0.06140   0.03950  -0.18406   0.16114
  36   35288.0    283.4   0.009222220   0.08604   0.03053  -0.26059   0.13113
  37   35459.9    282.0   0.007309520   0.06786  -0.07084   0.20893  -0.13854
  38   35640.0    280.6   0.051207277   0.47301   0.21164  -0.39761   0.51974
  39   35788.3    279.4   0.004929530   0.04535  -0.06566   0.02582  -0.20092
  40   36049.8    277.4   0.041316918   0.37731   0.23953  -0.56245   0.05984
  41   36449.3    274.4   0.038574476   0.34841   0.22097  -0.45427   0.30532
  42   36526.4    273.8   0.013356517   0.12038   0.16225  -0.20941   0.22406
  43   36618.0    273.1   0.034915252   0.31390  -0.23022   0.49995  -0.10468
  44   36772.2    271.9   0.079207043   0.70912   0.19767  -0.54138   0.61397
  45   36908.0    270.9   0.038301423   0.34164   0.24019  -0.51817  -0.12428
  46   37527.1    266.5   0.057857965   0.50757   0.24201  -0.55336   0.37787
  47   38009.7    263.1   0.018193101   0.15758  -0.11853  -0.14955   0.34808
  48   38367.7    260.6   0.000126983   0.00109  -0.01103  -0.03086   0.00396
  49   38608.2    259.0   0.000357569   0.00305   0.02265  -0.02251   0.04505
  50   38733.4    258.2   0.032389553   0.27529   0.19381  -0.39066   0.29175
  51   38831.6    257.5   0.034193679   0.28989   0.25347  -0.46134   0.11319
  52   39047.9    256.1   0.256298891   2.16085  -0.51902   0.98824  -0.95648
  53   39635.5    252.3   0.016594464   0.13783  -0.11845   0.02069  -0.35125
  54   39881.7    250.7   0.001433083   0.01183   0.03364  -0.10332  -0.00473

FINAL SINGLE POINT ENERGY     -3367.569784402128

DIPOLE MOMENT
-------------
                                X             Y             Z
Electronic contribution:     -1.19494      -3.44432      -5.11533
Nuclear contribution   :      0.78211       4.90217       4.84828
                        -----------------------------------------
Total Dipole Moment    :     -0.41284       1.45784      -0.26705
                        -----------------------------------------
Magnitude (a.u.)       :      1.53852
Magnitude (Debye)      :      3.91062

Rotational constants in cm-1:     0.002746     0.000218     0.000204
Rotational constants in MHz :    82.312802     6.531898     6.101675

                             ****ORCA TERMINATED NORMALLY****
TOTAL RUN TIME: 0 days 0 hours 11 minutes 59 seconds 373 msec
