                         Program Version 4.2.0 -  RELEASE  -
|  1> # ORCA input file
|  2> # SCF done       -180.470201467136          0.000993822970
|  3> ! CAM-B3LYP def2-SVP def2/J RIJCOSX Grid4 TightSCF
|  4> %maxcore 5000
|  5> %tddft
|  6>     Mode sTDDFT
|  7>     Ethresh 5.0
|  8>     maxcore 5000
|  9> end
| 10>
| 11> %pal
| 12>   nprocs 6
| 13>   end
| 14> * xyz 0 1
| 15>    C      -12.18902         5.26120        -1.71939
| 16>    N      -11.36775         4.73267        -0.76599
| 17>    C      -11.76808         3.82591         0.27908
| 18>    C      -12.00198         2.41525        -0.25520
| 19>    C      -10.03553         5.14071        -0.95168
| 20>    O       -9.11681         4.78803        -0.21806
| 21>    C      -10.08262         5.98853        -2.10478
| 22>    C      -11.44380         6.03707        -2.55754
| 23>    C      -11.49430         6.90100        -3.71717
| 24>    O      -12.40054         7.25407        -4.43954
| 25>    N      -10.15965         7.32521        -3.88811
| 26>    C       -9.78813         8.18527        -4.98326
| 27>    C       -9.16652         7.40246        -6.13792
| 28>    C       -9.31512         6.79096        -2.94052
| 29>    C       -7.92571         7.06205        -2.86565
| 30>    C       -7.18697         6.50788        -1.87282
| 31>    N       -5.86569         6.70179        -1.68849
| 32>    C       -5.12696         6.13244        -0.66703
| 33>    C       -5.56436         5.21043         0.24108
| 34>    S       -4.32572         4.75226         1.33888
| 35>    C       -3.20175         5.81406         0.59461
| 36>    C       -3.75055         6.47738        -0.46232
| 37>    N       -3.10502         7.42134        -1.27281
| 38>    C       -1.76130         7.48901        -1.48086
| 39>    N       -0.90819         6.42532        -1.63383
| 40>    C       -1.23441         5.02798        -1.79408
| 41>    C       -2.15461         4.77966        -2.98471
| 42>    C        0.42505         6.87872        -1.86556
| 43>    O        1.35921         6.11747        -2.02412
| 44>    C        0.32646         8.30917        -1.85116
| 45>    C       -1.03767         8.65473        -1.63295
| 46>    C       -1.13274        10.08173        -1.57575
| 47>    O       -2.08849        10.82547        -1.43315
| 48>    N        0.19735        10.52824        -1.73140
| 49>    C        0.46206        11.94333        -1.80451
| 50>    C        0.82167        12.39050        -3.21959
| 51>    C        1.07746         9.47599        -1.89201
| 52>    C        2.49487         9.46054        -2.01596
| 53>    C        3.38918        10.46223        -1.87002
| 54>    C        4.81146        10.31620        -1.93302
| 55>    C        5.71256        11.35213        -2.13720
| 56>    C        5.40483        12.78722        -2.36201
| 57>    C        7.06774        10.85896        -2.09079
| 58>    C        6.96998         9.48128        -1.87154
| 59>    C        5.57659         9.10590        -1.76258
| 60>    C        5.29418         7.79425        -1.47400
| 61>    C        6.37118         6.88715        -1.38494
| 62>    C        7.64762         7.31946        -1.58124
| 63>    O        7.95707         8.59067        -1.81867
| 64>    C        8.21269        11.65009        -2.30753
| 65>    C        9.53416        11.40562        -2.04304
| 66>    C       10.55407        12.20949        -2.77610
| 67>    O       10.34778        13.18172        -3.46585
| 68>    C       11.82908        11.52907        -2.50353
| 69>    C       13.13236        11.64727        -2.87549
| 70>    S       14.10706        10.41464        -2.10536
| 71>    C       12.73533         9.76406        -1.27784
| 72>    C       11.60488        10.44955        -1.58764
| 73>    C       10.20151        10.44036        -1.21021
| 74>    C        9.70618         9.76832        -0.11589
| 75>    C        8.43772         9.98811         0.44256
| 76>    N        7.40533        10.14563         0.92141
| 77>    C       10.48219         8.82559         0.58308
| 78>    N       11.08094         8.01787         1.13783
| 79>   Cl       13.82540        12.78578        -3.92315
| 80>    H      -13.24194         5.05002        -1.71920
| 81>    H      -12.67578         4.20628         0.75773
| 82>    H      -10.95386         3.81766         1.00894
| 83>    H      -12.79133         2.41499        -1.00368
| 84>    H      -12.29030         1.75457         0.55770
| 85>    H      -11.09128         2.03345        -0.71021
| 86>    H       -9.10447         8.96060        -4.62520
| 87>    H      -10.71332         8.66041        -5.32170
| 88>    H       -8.27008         6.87779        -5.81455
| 89>    H       -8.90580         8.07987        -6.94664
| 90>    H       -9.87813         6.67088        -6.51213
| 91>    H       -7.47245         7.71745        -3.59491
| 92>    H       -7.66440         5.85974        -1.15277
| 93>    H       -5.36492         7.30841        -2.32555
| 94>    H       -6.53716         4.77158         0.33411
| 95>    H       -2.21057         5.91546         0.98903
| 96>    H       -3.52948         8.34380        -1.28210
| 97>    H       -1.68664         4.62895        -0.88130
| 98>    H       -0.27205         4.53198        -1.95393
| 99>    H       -3.13657         5.21623        -2.81939
|100>    H       -2.27581         3.71008        -3.13151
|101>    H       -1.72714         5.20916        -3.88784
|102>    H        1.24288        12.21577        -1.08856
|103>    H       -0.47019        12.42721        -1.49524
|104>    H        1.70105        11.86587        -3.58639
|105>    H        1.01787        13.45946        -3.22971
|106>    H       -0.00671        12.18448        -3.89300
|107>    H        2.85378         8.46715        -2.24012
|108>    H        3.04784        11.46871        -1.68865
|109>    H        4.33718        12.97989        -2.34046
|110>    H        5.78954        13.10699        -3.33073
|111>    H        5.88818        13.39522        -1.59782
|112>    H        4.29328         7.43158        -1.30796
|113>    H        6.18755         5.84857        -1.16990
|114>    H        8.51724         6.68035        -1.54498
|115>    H        8.04179        12.58332        -2.83561
|116>    H       12.86552         8.91967        -0.63068
|117> *
|118>
|119>                          ****END OF INPUT****

CARTESIAN COORDINATES (ANGSTROEM)
---------------------------------
  C    -12.189020    5.261200   -1.719390
  N    -11.367750    4.732670   -0.765990
  C    -11.768080    3.825910    0.279080
  C    -12.001980    2.415250   -0.255200
  C    -10.035530    5.140710   -0.951680
  O     -9.116810    4.788030   -0.218060
  C    -10.082620    5.988530   -2.104780
  C    -11.443800    6.037070   -2.557540
  C    -11.494300    6.901000   -3.717170
  O    -12.400540    7.254070   -4.439540
  N    -10.159650    7.325210   -3.888110
  C     -9.788130    8.185270   -4.983260
  C     -9.166520    7.402460   -6.137920
  C     -9.315120    6.790960   -2.940520
  C     -7.925710    7.062050   -2.865650
  C     -7.186970    6.507880   -1.872820
  N     -5.865690    6.701790   -1.688490
  C     -5.126960    6.132440   -0.667030
  C     -5.564360    5.210430    0.241080
  S     -4.325720    4.752260    1.338880
  C     -3.201750    5.814060    0.594610
  C     -3.750550    6.477380   -0.462320
  N     -3.105020    7.421340   -1.272810
  C     -1.761300    7.489010   -1.480860
  N     -0.908190    6.425320   -1.633830
  C     -1.234410    5.027980   -1.794080
  C     -2.154610    4.779660   -2.984710
  C      0.425050    6.878720   -1.865560
  O      1.359210    6.117470   -2.024120
  C      0.326460    8.309170   -1.851160
  C     -1.037670    8.654730   -1.632950
  C     -1.132740   10.081730   -1.575750
  O     -2.088490   10.825470   -1.433150
  N      0.197350   10.528240   -1.731400
  C      0.462060   11.943330   -1.804510
  C      0.821670   12.390500   -3.219590
  C      1.077460    9.475990   -1.892010
  C      2.494870    9.460540   -2.015960
  C      3.389180   10.462230   -1.870020
  C      4.811460   10.316200   -1.933020
  C      5.712560   11.352130   -2.137200
  C      5.404830   12.787220   -2.362010
  C      7.067740   10.858960   -2.090790
  C      6.969980    9.481280   -1.871540
  C      5.576590    9.105900   -1.762580
  C      5.294180    7.794250   -1.474000
  C      6.371180    6.887150   -1.384940
  C      7.647620    7.319460   -1.581240
  O      7.957070    8.590670   -1.818670
  C      8.212690   11.650090   -2.307530
  C      9.534160   11.405620   -2.043040
  C     10.554070   12.209490   -2.776100
  O     10.347780   13.181720   -3.465850
  C     11.829080   11.529070   -2.503530
  C     13.132360   11.647270   -2.875490
  S     14.107060   10.414640   -2.105360
  C     12.735330    9.764060   -1.277840
  C     11.604880   10.449550   -1.587640
  C     10.201510   10.440360   -1.210210
  C      9.706180    9.768320   -0.115890
  C      8.437720    9.988110    0.442560
  N      7.405330   10.145630    0.921410
  C     10.482190    8.825590    0.583080
  N     11.080940    8.017870    1.137830
  Cl    13.825400   12.785780   -3.923150
  H    -13.241940    5.050020   -1.719200
  H    -12.675780    4.206280    0.757730
  H    -10.953860    3.817660    1.008940
  H    -12.791330    2.414990   -1.003680
  H    -12.290300    1.754570    0.557700
  H    -11.091280    2.033450   -0.710210
  H     -9.104470    8.960600   -4.625200
  H    -10.713320    8.660410   -5.321700
  H     -8.270080    6.877790   -5.814550
  H     -8.905800    8.079870   -6.946640
  H     -9.878130    6.670880   -6.512130
  H     -7.472450    7.717450   -3.594910
  H     -7.664400    5.859740   -1.152770
  H     -5.364920    7.308410   -2.325550
  H     -6.537160    4.771580    0.334110
  H     -2.210570    5.915460    0.989030
  H     -3.529480    8.343800   -1.282100
  H     -1.686640    4.628950   -0.881300
  H     -0.272050    4.531980   -1.953930
  H     -3.136570    5.216230   -2.819390
  H     -2.275810    3.710080   -3.131510
  H     -1.727140    5.209160   -3.887840
  H      1.242880   12.215770   -1.088560
  H     -0.470190   12.427210   -1.495240
  H      1.701050   11.865870   -3.586390
  H      1.017870   13.459460   -3.229710
  H     -0.006710   12.184480   -3.893000
  H      2.853780    8.467150   -2.240120
  H      3.047840   11.468710   -1.688650
  H      4.337180   12.979890   -2.340460
  H      5.789540   13.106990   -3.330730
  H      5.888180   13.395220   -1.597820
  H      4.293280    7.431580   -1.307960
  H      6.187550    5.848570   -1.169900
  H      8.517240    6.680350   -1.544980
  H      8.041790   12.583320   -2.835610
  H     12.865520    8.919670   -0.630680

 Total Charge           Charge          ....    0
 Multiplicity           Mult            ....    1
 Number of Electrons    NEL             ....  478
 Basis Dimension        Dim             .... 1107

ORBITAL ENERGIES
----------------

  NO   OCC          E(Eh)            E(eV)
   0   2.0000    -101.608396     -2764.9050
   1   2.0000     -88.981480     -2421.3092
   2   2.0000     -88.964406     -2420.8445
   3   2.0000     -19.345165      -526.4087
   4   2.0000     -19.206351      -522.6314
   5   2.0000     -19.192428      -522.2525
   6   2.0000     -19.179353      -521.8967
   7   2.0000     -19.175474      -521.7912
   8   2.0000     -19.174012      -521.7514
   9   2.0000     -14.472901      -393.8277
  10   2.0000     -14.472677      -393.8215
  11   2.0000     -14.457613      -393.4117
  12   2.0000     -14.446014      -393.0960
  13   2.0000     -14.442674      -393.0052
  14   2.0000     -14.440883      -392.9564
  15   2.0000     -14.411438      -392.1552
  16   2.0000     -14.410593      -392.1322
  17   2.0000     -10.377838      -282.3953
  18   2.0000     -10.377366      -282.3825
  19   2.0000     -10.375488      -282.3314
  20   2.0000     -10.370469      -282.1948
  21   2.0000     -10.365612      -282.0626
  22   2.0000     -10.364603      -282.0352
  23   2.0000     -10.362824      -281.9868
  24   2.0000     -10.362511      -281.9783
  25   2.0000     -10.356188      -281.8062
  26   2.0000     -10.336062      -281.2586
  27   2.0000     -10.334615      -281.2192
  28   2.0000     -10.331950      -281.1467
  29   2.0000     -10.330862      -281.1170
  30   2.0000     -10.330198      -281.0990
  31   2.0000     -10.329523      -281.0806
  32   2.0000     -10.328062      -281.0409
  33   2.0000     -10.322709      -280.8952
  34   2.0000     -10.318102      -280.7698
  35   2.0000     -10.314931      -280.6835
  36   2.0000     -10.312645      -280.6213
  37   2.0000     -10.310705      -280.5686
  38   2.0000     -10.310258      -280.5564
  39   2.0000     -10.309492      -280.5355
  40   2.0000     -10.306293      -280.4485
  41   2.0000     -10.305929      -280.4386
  42   2.0000     -10.304667      -280.4042
  43   2.0000     -10.302122      -280.3350
  44   2.0000     -10.301891      -280.3287
  45   2.0000     -10.301407      -280.3155
  46   2.0000     -10.300360      -280.2870
  47   2.0000     -10.297113      -280.1987
  48   2.0000     -10.293350      -280.0963
  49   2.0000     -10.289188      -279.9830
  50   2.0000     -10.288674      -279.9691
  51   2.0000     -10.286662      -279.9143
  52   2.0000     -10.284700      -279.8609
  53   2.0000     -10.279463      -279.7184
  54   2.0000     -10.278853      -279.7018
  55   2.0000     -10.278184      -279.6836
  56   2.0000     -10.274853      -279.5930
  57   2.0000     -10.265749      -279.3452
  58   2.0000     -10.261294      -279.2240
  59   2.0000     -10.259608      -279.1781
  60   2.0000     -10.258602      -279.1508
  61   2.0000     -10.253744      -279.0186
  62   2.0000     -10.247337      -278.8442
  63   2.0000     -10.246946      -278.8336
  64   2.0000     -10.239040      -278.6185
  65   2.0000      -9.563172      -260.2271
  66   2.0000      -8.077264      -219.7935
  67   2.0000      -8.060192      -219.3290
  68   2.0000      -7.333785      -199.5624
  69   2.0000      -7.323226      -199.2751
  70   2.0000      -7.322698      -199.2607
  71   2.0000      -6.046709      -164.5393
  72   2.0000      -6.042155      -164.4154
  73   2.0000      -6.039343      -164.3389
  74   2.0000      -6.029583      -164.0733
  75   2.0000      -6.025253      -163.9555
  76   2.0000      -6.022289      -163.8748
  77   2.0000      -1.255187       -34.1554
  78   2.0000      -1.133806       -30.8524
  79   2.0000      -1.122711       -30.5505
  80   2.0000      -1.120689       -30.4955
  81   2.0000      -1.115552       -30.3557
  82   2.0000      -1.110451       -30.2169
  83   2.0000      -1.092837       -29.7376
  84   2.0000      -1.071648       -29.1610
  85   2.0000      -1.050700       -28.5910
  86   2.0000      -1.047707       -28.5096
  87   2.0000      -1.040543       -28.3146
  88   2.0000      -1.032185       -28.0872
  89   2.0000      -1.026880       -27.9428
  90   2.0000      -1.008694       -27.4480
  91   2.0000      -0.997031       -27.1306
  92   2.0000      -0.989578       -26.9278
  93   2.0000      -0.979203       -26.6455
  94   2.0000      -0.977021       -26.5861
  95   2.0000      -0.946712       -25.7613
  96   2.0000      -0.938339       -25.5335
  97   2.0000      -0.925037       -25.1715
  98   2.0000      -0.916469       -24.9384
  99   2.0000      -0.903920       -24.5969
 100   2.0000      -0.895875       -24.3780
 101   2.0000      -0.892828       -24.2951
 102   2.0000      -0.885500       -24.0957
 103   2.0000      -0.876098       -23.8398
 104   2.0000      -0.866785       -23.5864
 105   2.0000      -0.864114       -23.5137
 106   2.0000      -0.843422       -22.9507
 107   2.0000      -0.827881       -22.5278
 108   2.0000      -0.824975       -22.4487
 109   2.0000      -0.821659       -22.3585
 110   2.0000      -0.818851       -22.2821
 111   2.0000      -0.817730       -22.2516
 112   2.0000      -0.811967       -22.0947
 113   2.0000      -0.795495       -21.6465
 114   2.0000      -0.789760       -21.4905
 115   2.0000      -0.778736       -21.1905
 116   2.0000      -0.771466       -20.9926
 117   2.0000      -0.764068       -20.7913
 118   2.0000      -0.759550       -20.6684
 119   2.0000      -0.753110       -20.4932
 120   2.0000      -0.745235       -20.2789
 121   2.0000      -0.731766       -19.9124
 122   2.0000      -0.724615       -19.7178
 123   2.0000      -0.718874       -19.5616
 124   2.0000      -0.710175       -19.3248
 125   2.0000      -0.701910       -19.0999
 126   2.0000      -0.693347       -18.8669
 127   2.0000      -0.687559       -18.7094
 128   2.0000      -0.682142       -18.5620
 129   2.0000      -0.678174       -18.4541
 130   2.0000      -0.675079       -18.3698
 131   2.0000      -0.666612       -18.1394
 132   2.0000      -0.664432       -18.0801
 133   2.0000      -0.663505       -18.0549
 134   2.0000      -0.653893       -17.7933
 135   2.0000      -0.645905       -17.5760
 136   2.0000      -0.642795       -17.4913
 137   2.0000      -0.641590       -17.4586
 138   2.0000      -0.622175       -16.9302
 139   2.0000      -0.617754       -16.8099
 140   2.0000      -0.610344       -16.6083
 141   2.0000      -0.604100       -16.4384
 142   2.0000      -0.601068       -16.3559
 143   2.0000      -0.596966       -16.2443
 144   2.0000      -0.593777       -16.1575
 145   2.0000      -0.588639       -16.0177
 146   2.0000      -0.587118       -15.9763
 147   2.0000      -0.582115       -15.8402
 148   2.0000      -0.577681       -15.7195
 149   2.0000      -0.575084       -15.6488
 150   2.0000      -0.568751       -15.4765
 151   2.0000      -0.567202       -15.4344
 152   2.0000      -0.565189       -15.3796
 153   2.0000      -0.556132       -15.1331
 154   2.0000      -0.552000       -15.0207
 155   2.0000      -0.550148       -14.9703
 156   2.0000      -0.548366       -14.9218
 157   2.0000      -0.543615       -14.7925
 158   2.0000      -0.539383       -14.6774
 159   2.0000      -0.537819       -14.6348
 160   2.0000      -0.535999       -14.5853
 161   2.0000      -0.535036       -14.5591
 162   2.0000      -0.534109       -14.5338
 163   2.0000      -0.526724       -14.3329
 164   2.0000      -0.522488       -14.2176
 165   2.0000      -0.520726       -14.1697
 166   2.0000      -0.520334       -14.1590
 167   2.0000      -0.516320       -14.0498
 168   2.0000      -0.515762       -14.0346
 169   2.0000      -0.512183       -13.9372
 170   2.0000      -0.511818       -13.9273
 171   2.0000      -0.510069       -13.8797
 172   2.0000      -0.505808       -13.7637
 173   2.0000      -0.504504       -13.7282
 174   2.0000      -0.502563       -13.6754
 175   2.0000      -0.500601       -13.6221
 176   2.0000      -0.494628       -13.4595
 177   2.0000      -0.494565       -13.4578
 178   2.0000      -0.490941       -13.3592
 179   2.0000      -0.489583       -13.3222
 180   2.0000      -0.487038       -13.2530
 181   2.0000      -0.483523       -13.1573
 182   2.0000      -0.482101       -13.1186
 183   2.0000      -0.475140       -12.9292
 184   2.0000      -0.474722       -12.9178
 185   2.0000      -0.471271       -12.8239
 186   2.0000      -0.470314       -12.7979
 187   2.0000      -0.468883       -12.7590
 188   2.0000      -0.468175       -12.7397
 189   2.0000      -0.464625       -12.6431
 190   2.0000      -0.461065       -12.5462
 191   2.0000      -0.460124       -12.5206
 192   2.0000      -0.453597       -12.3430
 193   2.0000      -0.453331       -12.3358
 194   2.0000      -0.452146       -12.3035
 195   2.0000      -0.449837       -12.2407
 196   2.0000      -0.448776       -12.2118
 197   2.0000      -0.448254       -12.1976
 198   2.0000      -0.447776       -12.1846
 199   2.0000      -0.444943       -12.1075
 200   2.0000      -0.444703       -12.1010
 201   2.0000      -0.442278       -12.0350
 202   2.0000      -0.440101       -11.9758
 203   2.0000      -0.438088       -11.9210
 204   2.0000      -0.437390       -11.9020
 205   2.0000      -0.435138       -11.8407
 206   2.0000      -0.432574       -11.7709
 207   2.0000      -0.431023       -11.7287
 208   2.0000      -0.428023       -11.6471
 209   2.0000      -0.425284       -11.5726
 210   2.0000      -0.424870       -11.5613
 211   2.0000      -0.423143       -11.5143
 212   2.0000      -0.421085       -11.4583
 213   2.0000      -0.418949       -11.4002
 214   2.0000      -0.413225       -11.2444
 215   2.0000      -0.409252       -11.1363
 216   2.0000      -0.404877       -11.0173
 217   2.0000      -0.396640       -10.7931
 218   2.0000      -0.393859       -10.7175
 219   2.0000      -0.391384       -10.6501
 220   2.0000      -0.376751       -10.2519
 221   2.0000      -0.366764        -9.9802
 222   2.0000      -0.348463        -9.4822
 223   2.0000      -0.345915        -9.4128
 224   2.0000      -0.340034        -9.2528
 225   2.0000      -0.335464        -9.1284
 226   2.0000      -0.332335        -9.0433
 227   2.0000      -0.326240        -8.8774
 228   2.0000      -0.323215        -8.7951
 229   2.0000      -0.319644        -8.6979
 230   2.0000      -0.314989        -8.5713
 231   2.0000      -0.308142        -8.3850
 232   2.0000      -0.306110        -8.3297
 233   2.0000      -0.301178        -8.1955
 234   2.0000      -0.294464        -8.0128
 235   2.0000      -0.281418        -7.6578
 236   2.0000      -0.271879        -7.3982
 237   2.0000      -0.234204        -6.3730
 238   2.0000      -0.228075        -6.2062
 239   0.0000      -0.077850        -2.1184
 240   0.0000      -0.064507        -1.7553
 241   0.0000      -0.048291        -1.3141
 242   0.0000      -0.042776        -1.1640
 243   0.0000      -0.035514        -0.9664

MULLIKEN ATOMIC CHARGES
-----------------------
   0 C :    0.015364
   1 N :   -0.250866
   2 C :    0.113821
   3 C :   -0.000364
   4 C :    0.173959
   5 O :   -0.268411
   6 C :   -0.123260
   7 C :    0.018831
   8 C :    0.161842
   9 O :   -0.188092
  10 N :   -0.274756
  11 C :    0.102930
  12 C :    0.005214
  13 C :    0.151062
  14 C :   -0.055037
  15 C :    0.079727
  16 N :   -0.018863
  17 C :    0.116793
  18 C :   -0.203713
  19 S :    0.139279
  20 C :   -0.168599
  21 C :    0.094064
  22 N :   -0.045596
  23 C :    0.024451
  24 N :   -0.289777
  25 C :    0.113505
  26 C :   -0.001210
  27 C :    0.156616
  28 O :   -0.202761
  29 C :   -0.059594
  30 C :   -0.023661
  31 C :    0.108320
  32 O :   -0.229454
  33 N :   -0.271054
  34 C :    0.102285
  35 C :   -0.007944
  36 C :    0.123958
  37 C :   -0.065824
  38 C :   -0.004056
  39 C :    0.065606
  40 C :   -0.146676
  41 C :    0.128178
  42 C :    0.062674
  43 C :    0.046746
  44 C :    0.064965
  45 C :    0.014656
  46 C :   -0.018246
  47 C :    0.182031
  48 O :   -0.138111
  49 C :   -0.010335
  50 C :   -0.146944
  51 C :    0.125115
  52 O :   -0.142719
  53 C :    0.097841
  54 C :   -0.176058
  55 S :    0.167979
  56 C :   -0.141264
  57 C :    0.019348
  58 C :    0.288069
  59 C :   -0.343326
  60 C :   -0.222225
  61 N :    0.168738
  62 C :   -0.195197
  63 N :    0.140802
  64 Cl:   -0.009526
  65 H :    0.006996
  66 H :    0.015104
  67 H :    0.037553
  68 H :    0.015405
  69 H :    0.019596
  70 H :    0.027071
  71 H :    0.018292
  72 H :    0.041295
  73 H :    0.010463
  74 H :    0.019559
  75 H :    0.029986
  76 H :   -0.041624
  77 H :    0.041903
  78 H :    0.116165
  79 H :    0.051299
  80 H :    0.031452
  81 H :    0.159580
  82 H :    0.025332
  83 H :    0.042124
  84 H :    0.013624
  85 H :    0.027148
  86 H :    0.021999
  87 H :    0.027072
  88 H :    0.042247
  89 H :    0.022732
  90 H :    0.021094
  91 H :    0.025051
  92 H :   -0.008585
  93 H :   -0.033979
  94 H :    0.006622
  95 H :    0.041396
  96 H :    0.041723
  97 H :    0.021949
  98 H :    0.027115
  99 H :    0.047497
 100 H :    0.008891
 101 H :    0.047607
Sum of atomic charges:   -0.0000000

LOEWDIN ATOMIC CHARGES
----------------------
   0 C :    0.065863
   1 N :    0.004026
   2 C :    0.037791
   3 C :   -0.061223
   4 C :    0.070245
   5 O :   -0.252607
   6 C :   -0.162529
   7 C :   -0.122625
   8 C :    0.086156
   9 O :   -0.191146
  10 N :   -0.011826
  11 C :    0.035705
  12 C :   -0.062066
  13 C :    0.102451
  14 C :   -0.131685
  15 C :    0.101200
  16 N :    0.048802
  17 C :   -0.029254
  18 C :   -0.215573
  19 S :    0.459937
  20 C :   -0.203579
  21 C :   -0.050303
  22 N :    0.014513
  23 C :    0.110345
  24 N :   -0.020145
  25 C :    0.032679
  26 C :   -0.061291
  27 C :    0.086187
  28 O :   -0.206553
  29 C :   -0.123621
  30 C :   -0.174275
  31 C :    0.069288
  32 O :   -0.234481
  33 N :   -0.005453
  34 C :    0.033887
  35 C :   -0.064932
  36 C :    0.065801
  37 C :   -0.054753
  38 C :    0.001612
  39 C :   -0.073657
  40 C :    0.029937
  41 C :   -0.047044
  42 C :   -0.102684
  43 C :    0.090401
  44 C :   -0.012525
  45 C :    0.055559
  46 C :   -0.056224
  47 C :    0.095996
  48 O :    0.081407
  49 C :    0.071582
  50 C :   -0.110982
  51 C :    0.079262
  52 O :   -0.146516
  53 C :   -0.117258
  54 C :   -0.273688
  55 S :    0.456661
  56 C :   -0.159052
  57 C :   -0.055439
  58 C :    0.065795
  59 C :   -0.160638
  60 C :   -0.024490
  61 N :   -0.060005
  62 C :   -0.020903
  63 N :   -0.069589
  64 Cl:    0.184054
  65 H :    0.028484
  66 H :    0.023200
  67 H :    0.034053
  68 H :    0.022358
  69 H :    0.028419
  70 H :    0.030387
  71 H :    0.021133
  72 H :    0.036798
  73 H :    0.019965
  74 H :    0.028758
  75 H :    0.032269
  76 H :    0.022631
  77 H :    0.038767
  78 H :    0.083215
  79 H :    0.033597
  80 H :    0.028815
  81 H :    0.101289
  82 H :    0.021357
  83 H :    0.035489
  84 H :    0.020199
  85 H :    0.033300
  86 H :    0.028402
  87 H :    0.019467
  88 H :    0.036967
  89 H :    0.021901
  90 H :    0.029141
  91 H :    0.031375
  92 H :    0.036961
  93 H :    0.026660
  94 H :    0.031938
  95 H :    0.045025
  96 H :    0.046149
  97 H :    0.046052
  98 H :    0.049466
  99 H :    0.041026
 100 H :    0.043675
 101 H :    0.034785

  Mayer bond orders larger than 0.100000
B(  0-C ,  1-N ) :   1.1682 B(  0-C ,  7-C ) :   1.4773 B(  0-C , 65-H ) :   0.9912
B(  1-N ,  2-C ) :   0.9482 B(  1-N ,  4-C ) :   1.0869 B(  2-C ,  3-C ) :   1.1189
B(  2-C , 66-H ) :   0.9535 B(  2-C , 67-H ) :   0.9344 B(  3-C , 68-H ) :   0.9691
B(  3-C , 69-H ) :   0.9685 B(  3-C , 70-H ) :   0.9671 B(  4-C ,  5-O ) :   1.9116
B(  4-C ,  6-C ) :   1.0562 B(  5-O , 77-H ) :   0.1320 B(  6-C ,  7-C ) :   1.1999
B(  6-C , 13-C ) :   1.3250 B(  7-C ,  8-C ) :   0.9467 B(  8-C ,  9-O ) :   2.1748
B(  8-C , 10-N ) :   1.0134 B( 10-N , 11-C ) :   0.9511 B( 10-N , 13-C ) :   1.1585
B( 11-C , 12-C ) :   1.1202 B( 11-C , 71-H ) :   0.9500 B( 11-C , 72-H ) :   0.9286
B( 12-C , 73-H ) :   0.9682 B( 12-C , 74-H ) :   0.9681 B( 12-C , 75-H ) :   0.9644
B( 13-C , 14-C ) :   1.2072 B( 14-C , 15-C ) :   1.5213 B( 14-C , 76-H ) :   0.9628
B( 15-C , 16-N ) :   1.2315 B( 15-C , 77-H ) :   0.9333 B( 16-N , 17-C ) :   1.1116
B( 16-N , 78-H ) :   0.9111 B( 17-C , 18-C ) :   1.5338 B( 17-C , 21-C ) :   1.2646
B( 18-C , 19-S ) :   1.1471 B( 18-C , 79-H ) :   0.9603 B( 19-S , 20-C ) :   1.1690
B( 20-C , 21-C ) :   1.5327 B( 20-C , 80-H ) :   0.9704 B( 21-C , 22-N ) :   1.0104
B( 22-N , 23-C ) :   1.2787 B( 22-N , 81-H ) :   0.8860 B( 23-C , 24-N ) :   1.1951
B( 23-C , 30-C ) :   1.3148 B( 24-N , 25-C ) :   0.9400 B( 24-N , 27-C ) :   0.9971
B( 25-C , 26-C ) :   1.1202 B( 25-C , 82-H ) :   0.9408 B( 25-C , 83-H ) :   0.9247
B( 26-C , 84-H ) :   0.9663 B( 26-C , 85-H ) :   0.9662 B( 26-C , 86-H ) :   0.9645
B( 27-C , 28-O ) :   2.1106 B( 27-C , 29-C ) :   1.0147 B( 29-C , 30-C ) :   1.1892
B( 29-C , 36-C ) :   1.3853 B( 30-C , 31-C ) :   0.9930 B( 31-C , 32-O ) :   2.1177
B( 31-C , 33-N ) :   1.0431 B( 33-N , 34-C ) :   0.9500 B( 33-N , 36-C ) :   1.1589
B( 34-C , 35-C ) :   1.1156 B( 34-C , 87-H ) :   0.9489 B( 34-C , 88-H ) :   0.9213
B( 35-C , 89-H ) :   0.9670 B( 35-C , 90-H ) :   0.9677 B( 35-C , 91-H ) :   0.9623
B( 36-C , 37-C ) :   1.1650 B( 37-C , 38-C ) :   1.6005 B( 37-C , 92-H ) :   0.9518
B( 38-C , 39-C ) :   1.1157 B( 38-C , 93-H ) :   0.9666 B( 39-C , 40-C ) :   1.5063
B( 39-C , 44-C ) :   1.0796 B( 40-C , 41-C ) :   1.1313 B( 40-C , 42-C ) :   1.1555
B( 41-C , 94-H ) :   0.9404 B( 41-C , 95-H ) :   0.9260 B( 41-C , 96-H ) :   0.9337
B( 42-C , 43-C ) :   1.3354 B( 42-C , 49-C ) :   1.1693 B( 43-C , 44-C ) :   1.1353
B( 43-C , 48-O ) :   1.1798 B( 44-C , 45-C ) :   1.4787 B( 45-C , 46-C ) :   1.2311
B( 45-C , 97-H ) :   0.9819 B( 46-C , 47-C ) :   1.5848 B( 46-C , 98-H ) :   0.9685
B( 47-C , 48-O ) :   1.1432 B( 47-C , 99-H ) :   0.9796 B( 49-C , 50-C ) :   1.5610
B( 49-C ,100-H ) :   0.9303 B( 50-C , 51-C ) :   0.9513 B( 50-C , 58-C ) :   1.1027
B( 51-C , 52-O ) :   2.2555 B( 51-C , 53-C ) :   0.9243 B( 53-C , 54-C ) :   1.4941
B( 53-C , 57-C ) :   1.2197 B( 54-C , 55-S ) :   1.1409 B( 54-C , 64-Cl) :   1.1204
B( 55-S , 56-C ) :   1.1454 B( 56-C , 57-C ) :   1.5627 B( 56-C ,101-H ) :   0.9558
B( 57-C , 58-C ) :   1.0044 B( 58-C , 59-C ) :   1.5938 B( 59-C , 60-C ) :   1.1772
B( 59-C , 62-C ) :   1.1450 B( 60-C , 61-N ) :   2.9980 B( 62-C , 63-N ) :   2.9912

-----------------------------------------------------------------------------
         ABSORPTION SPECTRUM VIA TRANSITION ELECTRIC DIPOLE MOMENTS
-----------------------------------------------------------------------------
State   Energy  Wavelength   fosc         T2         TX        TY        TZ
        (cm-1)    (nm)                  (au**2)     (au)      (au)      (au)
-----------------------------------------------------------------------------
   0   17980.9    556.1   0.018667649   0.34179   0.53452   0.15072   0.18265
   1   18860.6    530.2   0.829776051  14.48377  -3.53166  -1.39408  -0.26020
   2   23142.7    432.1   0.618901935   8.80406  -2.25672  -1.87153   0.45679
   3   24107.0    414.8   0.109784461   1.49925  -1.12419  -0.23468   0.42470
   4   24729.5    404.4   0.202575983   2.69680   1.47796   0.30851   0.64594
   5   26089.9    383.3   0.067896659   0.85674  -0.82940   0.37386  -0.17051
   6   27011.9    370.2   0.001933335   0.02356  -0.09936   0.11347  -0.02853
   7   28246.0    354.0   0.038074841   0.44377   0.42891   0.48077  -0.16931
   8   28841.1    346.7   0.019841787   0.22649  -0.28572   0.18907  -0.33030
   9   29126.7    343.3   0.006425650   0.07263   0.20641  -0.08951  -0.14836
  10   29415.4    340.0   0.024333400   0.27234  -0.40475   0.17269   0.28052
  11   30352.5    329.5   0.026232612   0.28453   0.45909  -0.07153   0.26200
  12   31270.2    319.8   0.013127999   0.13821   0.34674  -0.01172   0.13358
  13   31468.8    317.8   0.050100739   0.52413   0.68891   0.21205  -0.06760
  14   31837.7    314.1   0.004119208   0.04259  -0.00625   0.20348   0.03393
  15   32217.3    310.4   0.200332867   2.04710   1.38398  -0.01233  -0.36267
  16   32787.3    305.0   0.104671383   1.05099   0.91378   0.39961  -0.23727
  17   33048.5    302.6   0.083942742   0.83619  -0.09214  -0.90406  -0.10185
  18   33468.6    298.8   0.407492834   4.00828  -1.67669   0.43847  -1.00237
  19   33886.4    295.1   0.016877587   0.16397  -0.30190   0.00166  -0.26985
  20   34025.6    293.9   0.014798563   0.14318  -0.08061   0.36845   0.03051
  21   34594.5    289.1   0.082185908   0.78211  -0.50326  -0.51150   0.51692
  22   35014.4    285.6   0.305454790   2.87194   0.29647   1.46434  -0.79985
  23   35339.3    283.0   0.164422545   1.53172  -1.23067   0.11660  -0.05973
  24   35598.8    280.9   0.026843324   0.24824   0.44921  -0.21264   0.03521
  25   36515.6    273.9   0.091302119   0.82315  -0.23490  -0.33224   0.81092
  26   36907.3    270.9   0.229593170   2.04796  -0.88751   0.52644  -0.99154
  27   37026.8    270.1   0.037022279   0.32917  -0.55568   0.11130  -0.08947
  28   37102.8    269.5   0.177873328   1.57827   0.95966   0.33430  -0.73863
  29   37470.5    266.9   0.008306315   0.07298  -0.14060   0.10332  -0.20624
  30   37782.4    264.7   0.049207144   0.42876   0.41065   0.18531  -0.47517
  31   37984.5    263.3   0.285737991   2.47649   0.55477  -1.37830   0.51867
  32   38244.3    261.5   0.377782191   3.25200  -1.34407  -0.70445   0.97427
  33   38352.5    260.7   0.005449971   0.04678   0.19609  -0.05028  -0.07617
  34   38623.6    258.9   0.112842174   0.96182  -0.76411   0.18854   0.58516
  35   39302.6    254.4   0.001146944   0.00961   0.00790  -0.00164   0.09768
  36   39562.2    252.8   0.020493430   0.17053   0.08589  -0.07529  -0.39685
  37   39870.5    250.8   0.106611894   0.88030  -0.92902   0.08428   0.10060

FINAL SINGLE POINT ENERGY     -3993.489156156558

DIPOLE MOMENT
-------------
                                X             Y             Z
Electronic contribution:    141.00933      29.17854      12.14048
Nuclear contribution   :   -140.72720     -30.49400     -12.98973
                        -----------------------------------------
Total Dipole Moment    :      0.28213      -1.31546      -0.84925
                        -----------------------------------------
Magnitude (a.u.)       :      1.59099
Magnitude (Debye)      :      4.04398

Rotational constants in cm-1:     0.003502     0.000245     0.000236
Rotational constants in MHz :   104.989403     7.353580     7.067535

                             ****ORCA TERMINATED NORMALLY****
TOTAL RUN TIME: 0 days 0 hours 9 minutes 20 seconds 575 msec
