                         Program Version 4.2.0 -  RELEASE  -
|  1> # ORCA input file
|  2> # SCF done       -137.684397201175          0.000373100383
|  3> ! CAM-B3LYP def2-SVP def2/J RIJCOSX Grid4 TightSCF
|  4> %maxcore 5000
|  5> %tddft
|  6>     Mode sTDDFT
|  7>     Ethresh 5.0
|  8>     maxcore 5000
|  9> end
| 10>
| 11> %pal
| 12>   nprocs 6
| 13>   end
| 14> * xyz 0 1
| 15>    C        0.13810        -1.87474         1.32722
| 16>    N        0.55154        -0.77930         2.02087
| 17>    C        1.35713        -0.79286         3.21602
| 18>    C        0.54225        -1.20556         4.43899
| 19>    C        0.03589         0.40859         1.46278
| 20>    O        0.26755         1.51538         1.91717
| 21>    C       -0.74040        -0.04119         0.33450
| 22>    C       -0.65015        -1.47155         0.28818
| 23>    C       -1.42033        -1.93014        -0.84960
| 24>    O       -1.64244        -3.03224        -1.29729
| 25>    N       -1.91988        -0.74196        -1.42335
| 26>    C       -2.79691        -0.78307        -2.56799
| 27>    C       -4.25990        -0.59598        -2.17251
| 28>    C       -1.52564         0.37889        -0.72798
| 29>    C       -1.88586         1.70470        -1.10934
| 30>    C       -1.50202         2.78231        -0.39159
| 31>    C       -1.80616         4.15884        -0.68788
| 32>    C       -2.55524         4.57070        -1.78865
| 33>    C       -2.80756         5.91266        -2.02571
| 34>    N       -3.54088         6.21693        -3.22593
| 35>    O       -4.24149         5.33686        -3.68550
| 36>    O       -3.41224         7.31556        -3.72543
| 37>    C       -2.33744         6.92116        -1.15990
| 38>    C       -1.59022         6.48757        -0.05293
| 39>    C       -1.32506         5.15974         0.17337
| 40>    C       -2.64841         8.31886        -1.33261
| 41>    C       -1.88845         9.32349        -0.85527
| 42>    C       -2.21910        10.70311        -0.99345
| 43>    O       -3.36867        11.10981        -1.57534
| 44>    C       -3.38976        12.44716        -1.54591
| 45>    C       -2.26967        12.94846        -0.95428
| 46>    C       -1.50236        11.81839        -0.58305
| 47>    S        0.07361        11.76459         0.18224
| 48>    C       -0.03301        13.12650         1.25995
| 49>    C        1.01266        13.53753         1.99405
| 50>    C        0.97418        14.62436         2.92116
| 51>    S        2.38007        14.98432         3.86787
| 52>    C        1.57086        16.29821         4.66094
| 53>    C        2.24467        16.95748         5.74758
| 54>    O        3.40148        16.77730         6.05128
| 55>    C        0.27081        16.45602         4.18052
| 56>    C       -0.05566        15.49347         3.20986
| 57>    C       -0.64622        17.49505         4.57798
| 58>    S       -2.35360        17.20347         4.52971
| 59>    C       -2.68828        18.81898         5.06318
| 60>    C       -4.04717        19.27523         5.25165
| 61>    O       -4.35510        20.38258         5.61883
| 62>    C       -1.52307        19.53015         5.24946
| 63>    C       -0.37404        18.78642         4.97466
| 64>    H        0.44366        -2.86209         1.62011
| 65>    H        1.73547         0.22466         3.34604
| 66>    H        2.20067        -1.47451         3.07212
| 67>    H       -0.28292        -0.51358         4.58867
| 68>    H        1.17224        -1.19352         5.32392
| 69>    H        0.13775        -2.20724         4.31112
| 70>    H       -2.66219        -1.77310        -3.01292
| 71>    H       -2.48961        -0.02696        -3.29623
| 72>    H       -4.56132        -1.38396        -1.48674
| 73>    H       -4.88916        -0.64513        -3.05678
| 74>    H       -4.41526         0.36417        -1.68519
| 75>    H       -2.47965         1.81531        -2.00430
| 76>    H       -0.90694         2.62280         0.49786
| 77>    H       -2.94798         3.85667        -2.49608
| 78>    H       -1.23798         7.22432         0.65152
| 79>    H       -0.74286         4.86589         1.03400
| 80>    H       -3.53225         8.57638        -1.89817
| 81>    H       -0.94651         9.13945        -0.35836
| 82>    H       -4.24143        12.93621        -1.97578
| 83>    H       -2.01898        13.98014        -0.81721
| 84>    H       -1.00319        13.59103         1.31382
| 85>    H        1.95709        13.01997         1.90451
| 86>    H        1.59852        17.64256         6.32870
| 87>    H       -1.01749        15.46159         2.73037
| 88>    H       -4.81012        18.50487         5.02536
| 89>    H       -1.52574        20.55625         5.57025
| 90>    H        0.62199        19.18739         5.02513
| 91> *
| 92>
| 93>                          ****END OF INPUT****

CARTESIAN COORDINATES (ANGSTROEM)
---------------------------------
  C      0.138100   -1.874740    1.327220
  N      0.551540   -0.779300    2.020870
  C      1.357130   -0.792860    3.216020
  C      0.542250   -1.205560    4.438990
  C      0.035890    0.408590    1.462780
  O      0.267550    1.515380    1.917170
  C     -0.740400   -0.041190    0.334500
  C     -0.650150   -1.471550    0.288180
  C     -1.420330   -1.930140   -0.849600
  O     -1.642440   -3.032240   -1.297290
  N     -1.919880   -0.741960   -1.423350
  C     -2.796910   -0.783070   -2.567990
  C     -4.259900   -0.595980   -2.172510
  C     -1.525640    0.378890   -0.727980
  C     -1.885860    1.704700   -1.109340
  C     -1.502020    2.782310   -0.391590
  C     -1.806160    4.158840   -0.687880
  C     -2.555240    4.570700   -1.788650
  C     -2.807560    5.912660   -2.025710
  N     -3.540880    6.216930   -3.225930
  O     -4.241490    5.336860   -3.685500
  O     -3.412240    7.315560   -3.725430
  C     -2.337440    6.921160   -1.159900
  C     -1.590220    6.487570   -0.052930
  C     -1.325060    5.159740    0.173370
  C     -2.648410    8.318860   -1.332610
  C     -1.888450    9.323490   -0.855270
  C     -2.219100   10.703110   -0.993450
  O     -3.368670   11.109810   -1.575340
  C     -3.389760   12.447160   -1.545910
  C     -2.269670   12.948460   -0.954280
  C     -1.502360   11.818390   -0.583050
  S      0.073610   11.764590    0.182240
  C     -0.033010   13.126500    1.259950
  C      1.012660   13.537530    1.994050
  C      0.974180   14.624360    2.921160
  S      2.380070   14.984320    3.867870
  C      1.570860   16.298210    4.660940
  C      2.244670   16.957480    5.747580
  O      3.401480   16.777300    6.051280
  C      0.270810   16.456020    4.180520
  C     -0.055660   15.493470    3.209860
  C     -0.646220   17.495050    4.577980
  S     -2.353600   17.203470    4.529710
  C     -2.688280   18.818980    5.063180
  C     -4.047170   19.275230    5.251650
  O     -4.355100   20.382580    5.618830
  C     -1.523070   19.530150    5.249460
  C     -0.374040   18.786420    4.974660
  H      0.443660   -2.862090    1.620110
  H      1.735470    0.224660    3.346040
  H      2.200670   -1.474510    3.072120
  H     -0.282920   -0.513580    4.588670
  H      1.172240   -1.193520    5.323920
  H      0.137750   -2.207240    4.311120
  H     -2.662190   -1.773100   -3.012920
  H     -2.489610   -0.026960   -3.296230
  H     -4.561320   -1.383960   -1.486740
  H     -4.889160   -0.645130   -3.056780
  H     -4.415260    0.364170   -1.685190
  H     -2.479650    1.815310   -2.004300
  H     -0.906940    2.622800    0.497860
  H     -2.947980    3.856670   -2.496080
  H     -1.237980    7.224320    0.651520
  H     -0.742860    4.865890    1.034000
  H     -3.532250    8.576380   -1.898170
  H     -0.946510    9.139450   -0.358360
  H     -4.241430   12.936210   -1.975780
  H     -2.018980   13.980140   -0.817210
  H     -1.003190   13.591030    1.313820
  H      1.957090   13.019970    1.904510
  H      1.598520   17.642560    6.328700
  H     -1.017490   15.461590    2.730370
  H     -4.810120   18.504870    5.025360
  H     -1.525740   20.556250    5.570250
  H      0.621990   19.187390    5.025130

 Total Charge           Charge          ....    0
 Multiplicity           Mult            ....    1
 Number of Electrons    NEL             ....  368
 Basis Dimension        Dim             ....  833

ORBITAL ENERGIES
----------------

  NO   OCC          E(Eh)            E(eV)
   0   2.0000     -88.977056     -2421.1888
   1   2.0000     -88.969862     -2420.9930
   2   2.0000     -88.960995     -2420.7518
   3   2.0000     -19.304724      -525.3082
   4   2.0000     -19.246168      -523.7149
   5   2.0000     -19.243899      -523.6531
   6   2.0000     -19.212378      -522.7954
   7   2.0000     -19.206092      -522.6243
   8   2.0000     -19.188070      -522.1339
   9   2.0000     -19.184908      -522.0479
  10   2.0000     -14.650848      -398.6698
  11   2.0000     -14.451810      -393.2537
  12   2.0000     -14.449740      -393.1974
  13   2.0000     -10.370830      -282.2046
  14   2.0000     -10.370293      -282.1900
  15   2.0000     -10.362906      -281.9890
  16   2.0000     -10.357108      -281.8312
  17   2.0000     -10.342214      -281.4259
  18   2.0000     -10.340925      -281.3909
  19   2.0000     -10.340759      -281.3864
  20   2.0000     -10.334649      -281.2201
  21   2.0000     -10.328175      -281.0439
  22   2.0000     -10.326544      -280.9995
  23   2.0000     -10.325030      -280.9584
  24   2.0000     -10.321996      -280.8758
  25   2.0000     -10.315707      -280.7046
  26   2.0000     -10.314034      -280.6591
  27   2.0000     -10.312514      -280.6178
  28   2.0000     -10.308388      -280.5055
  29   2.0000     -10.306586      -280.4565
  30   2.0000     -10.306400      -280.4514
  31   2.0000     -10.305770      -280.4343
  32   2.0000     -10.301904      -280.3291
  33   2.0000     -10.300300      -280.2854
  34   2.0000     -10.298693      -280.2417
  35   2.0000     -10.296364      -280.1783
  36   2.0000     -10.295771      -280.1622
  37   2.0000     -10.294573      -280.1296
  38   2.0000     -10.293485      -280.1000
  39   2.0000     -10.293449      -280.0990
  40   2.0000     -10.292518      -280.0736
  41   2.0000     -10.291714      -280.0518
  42   2.0000     -10.289321      -279.9867
  43   2.0000     -10.288527      -279.9651
  44   2.0000     -10.287534      -279.9380
  45   2.0000     -10.264910      -279.3224
  46   2.0000     -10.262384      -279.2537
  47   2.0000     -10.257327      -279.1161
  48   2.0000     -10.255846      -279.0758
  49   2.0000      -8.072728      -219.6701
  50   2.0000      -8.065525      -219.4741
  51   2.0000      -8.056281      -219.2226
  52   2.0000      -6.041786      -164.4054
  53   2.0000      -6.037707      -164.2944
  54   2.0000      -6.035271      -164.2281
  55   2.0000      -6.034616      -164.2102
  56   2.0000      -6.030463      -164.0972
  57   2.0000      -6.027937      -164.0285
  58   2.0000      -6.026505      -163.9895
  59   2.0000      -6.022263      -163.8741
  60   2.0000      -6.016607      -163.7202
  61   2.0000      -1.325813       -36.0772
  62   2.0000      -1.225375       -33.3441
  63   2.0000      -1.143681       -31.1212
  64   2.0000      -1.129431       -30.7334
  65   2.0000      -1.125562       -30.6281
  66   2.0000      -1.122790       -30.5527
  67   2.0000      -1.120568       -30.4922
  68   2.0000      -1.060234       -28.8504
  69   2.0000      -1.051840       -28.6220
  70   2.0000      -1.011030       -27.5115
  71   2.0000      -0.993312       -27.0294
  72   2.0000      -0.991207       -26.9721
  73   2.0000      -0.955526       -26.0012
  74   2.0000      -0.932175       -25.3658
  75   2.0000      -0.923816       -25.1383
  76   2.0000      -0.915480       -24.9115
  77   2.0000      -0.910395       -24.7731
  78   2.0000      -0.894804       -24.3489
  79   2.0000      -0.884768       -24.0758
  80   2.0000      -0.875716       -23.8295
  81   2.0000      -0.866854       -23.5883
  82   2.0000      -0.859985       -23.4014
  83   2.0000      -0.851699       -23.1759
  84   2.0000      -0.829606       -22.5747
  85   2.0000      -0.823336       -22.4041
  86   2.0000      -0.818851       -22.2821
  87   2.0000      -0.808061       -21.9885
  88   2.0000      -0.801676       -21.8147
  89   2.0000      -0.790398       -21.5078
  90   2.0000      -0.775656       -21.1067
  91   2.0000      -0.759625       -20.6704
  92   2.0000      -0.740241       -20.1430
  93   2.0000      -0.739826       -20.1317
  94   2.0000      -0.733443       -19.9580
  95   2.0000      -0.713196       -19.4070
  96   2.0000      -0.708571       -19.2812
  97   2.0000      -0.701300       -19.0833
  98   2.0000      -0.693892       -18.8818
  99   2.0000      -0.687490       -18.7076
 100   2.0000      -0.674516       -18.3545
 101   2.0000      -0.665334       -18.1047
 102   2.0000      -0.653038       -17.7701
 103   2.0000      -0.649192       -17.6654
 104   2.0000      -0.648806       -17.6549
 105   2.0000      -0.642454       -17.4821
 106   2.0000      -0.636974       -17.3329
 107   2.0000      -0.629390       -17.1266
 108   2.0000      -0.624658       -16.9978
 109   2.0000      -0.617011       -16.7897
 110   2.0000      -0.607438       -16.5292
 111   2.0000      -0.604338       -16.4449
 112   2.0000      -0.598552       -16.2874
 113   2.0000      -0.595462       -16.2033
 114   2.0000      -0.593511       -16.1502
 115   2.0000      -0.587966       -15.9994
 116   2.0000      -0.580335       -15.7917
 117   2.0000      -0.576735       -15.6938
 118   2.0000      -0.575842       -15.6694
 119   2.0000      -0.568344       -15.4654
 120   2.0000      -0.561084       -15.2679
 121   2.0000      -0.549855       -14.9623
 122   2.0000      -0.546552       -14.8724
 123   2.0000      -0.545439       -14.8422
 124   2.0000      -0.543231       -14.7821
 125   2.0000      -0.540127       -14.6976
 126   2.0000      -0.537720       -14.6321
 127   2.0000      -0.531188       -14.4544
 128   2.0000      -0.529904       -14.4194
 129   2.0000      -0.527718       -14.3599
 130   2.0000      -0.519510       -14.1366
 131   2.0000      -0.515446       -14.0260
 132   2.0000      -0.514312       -13.9951
 133   2.0000      -0.509206       -13.8562
 134   2.0000      -0.505549       -13.7567
 135   2.0000      -0.504803       -13.7364
 136   2.0000      -0.502250       -13.6669
 137   2.0000      -0.499317       -13.5871
 138   2.0000      -0.496570       -13.5124
 139   2.0000      -0.496039       -13.4979
 140   2.0000      -0.494349       -13.4519
 141   2.0000      -0.489696       -13.3253
 142   2.0000      -0.482650       -13.1336
 143   2.0000      -0.475163       -12.9299
 144   2.0000      -0.474068       -12.9001
 145   2.0000      -0.473046       -12.8722
 146   2.0000      -0.467385       -12.7182
 147   2.0000      -0.464786       -12.6475
 148   2.0000      -0.461392       -12.5551
 149   2.0000      -0.459136       -12.4937
 150   2.0000      -0.457666       -12.4537
 151   2.0000      -0.456489       -12.4217
 152   2.0000      -0.455788       -12.4026
 153   2.0000      -0.453090       -12.3292
 154   2.0000      -0.448372       -12.2008
 155   2.0000      -0.442464       -12.0401
 156   2.0000      -0.439702       -11.9649
 157   2.0000      -0.437337       -11.9006
 158   2.0000      -0.432851       -11.7785
 159   2.0000      -0.431299       -11.7362
 160   2.0000      -0.431031       -11.7289
 161   2.0000      -0.425896       -11.5892
 162   2.0000      -0.421325       -11.4648
 163   2.0000      -0.412442       -11.2231
 164   2.0000      -0.402804       -10.9609
 165   2.0000      -0.389321       -10.5940
 166   2.0000      -0.387785       -10.5522
 167   2.0000      -0.382848       -10.4178
 168   2.0000      -0.375724       -10.2240
 169   2.0000      -0.370096       -10.0708
 170   2.0000      -0.361252        -9.8302
 171   2.0000      -0.348607        -9.4861
 172   2.0000      -0.344279        -9.3683
 173   2.0000      -0.344044        -9.3619
 174   2.0000      -0.339450        -9.2369
 175   2.0000      -0.336110        -9.1460
 176   2.0000      -0.329962        -8.9787
 177   2.0000      -0.327654        -8.9159
 178   2.0000      -0.323021        -8.7899
 179   2.0000      -0.311157        -8.4670
 180   2.0000      -0.301612        -8.2073
 181   2.0000      -0.284780        -7.7493
 182   2.0000      -0.261593        -7.1183
 183   2.0000      -0.245092        -6.6693
 184   0.0000      -0.077827        -2.1178
 185   0.0000      -0.064824        -1.7640
 186   0.0000      -0.052440        -1.4270
 187   0.0000      -0.037414        -1.0181
 188   0.0000      -0.024023        -0.6537

MULLIKEN ATOMIC CHARGES
-----------------------
   0 C :    0.035178
   1 N :   -0.253844
   2 C :    0.114389
   3 C :   -0.003279
   4 C :    0.172945
   5 O :   -0.224457
   6 C :   -0.107742
   7 C :    0.005912
   8 C :    0.162005
   9 O :   -0.184608
  10 N :   -0.270533
  11 C :    0.098852
  12 C :    0.004217
  13 C :    0.152643
  14 C :    0.003667
  15 C :    0.006206
  16 C :    0.105003
  17 C :   -0.058593
  18 C :    0.144449
  19 N :    0.243996
  20 O :   -0.235897
  21 O :   -0.231162
  22 C :    0.057123
  23 C :   -0.031467
  24 C :    0.016575
  25 C :    0.004103
  26 C :   -0.026934
  27 C :    0.114233
  28 O :   -0.179945
  29 C :    0.158062
  30 C :   -0.049963
  31 C :   -0.056171
  32 S :    0.090732
  33 C :   -0.088966
  34 C :    0.098081
  35 C :   -0.072609
  36 S :    0.186624
  37 C :   -0.223673
  38 C :    0.150315
  39 O :   -0.199536
  40 C :    0.195072
  41 C :   -0.047954
  42 C :   -0.134152
  43 S :    0.149457
  44 C :   -0.150236
  45 C :    0.190476
  46 O :   -0.180581
  47 C :    0.047148
  48 C :    0.021599
  49 H :    0.013856
  50 H :    0.039708
  51 H :    0.018529
  52 H :    0.030656
  53 H :    0.023262
  54 H :    0.014681
  55 H :    0.043408
  56 H :    0.023523
  57 H :    0.029393
  58 H :    0.025351
  59 H :    0.013988
  60 H :   -0.027711
  61 H :    0.006492
  62 H :   -0.002404
  63 H :   -0.010166
  64 H :    0.006865
  65 H :    0.015970
  66 H :    0.002304
  67 H :    0.020592
  68 H :   -0.000689
  69 H :    0.042147
  70 H :   -0.002131
  71 H :   -0.011649
  72 H :   -0.019444
  73 H :   -0.024460
  74 H :    0.010042
  75 H :    0.001129
Sum of atomic charges:   -0.0000000

LOEWDIN ATOMIC CHARGES
----------------------
   0 C :    0.086378
   1 N :    0.001247
   2 C :    0.038438
   3 C :   -0.060762
   4 C :    0.076211
   5 O :   -0.213950
   6 C :   -0.135402
   7 C :   -0.126617
   8 C :    0.082636
   9 O :   -0.188798
  10 N :   -0.008929
  11 C :    0.035125
  12 C :   -0.061156
  13 C :    0.088350
  14 C :   -0.047537
  15 C :    0.038000
  16 C :   -0.033789
  17 C :    0.018108
  18 C :   -0.029135
  19 N :    0.285716
  20 O :   -0.205796
  21 O :   -0.191556
  22 C :    0.001870
  23 C :   -0.009854
  24 C :    0.019803
  25 C :   -0.014615
  26 C :   -0.027637
  27 C :    0.005341
  28 O :    0.030115
  29 C :    0.054388
  30 C :   -0.089589
  31 C :   -0.207110
  32 S :    0.379042
  33 C :   -0.139496
  34 C :   -0.082858
  35 C :   -0.144938
  36 S :    0.490081
  37 C :   -0.236158
  38 C :    0.070673
  39 O :   -0.153971
  40 C :   -0.045140
  41 C :   -0.072447
  42 C :   -0.151847
  43 S :    0.458854
  44 C :   -0.239369
  45 C :    0.084153
  46 O :   -0.138035
  47 C :   -0.005482
  48 C :   -0.054397
  49 H :    0.032104
  50 H :    0.035436
  51 H :    0.024599
  52 H :    0.031485
  53 H :    0.030014
  54 H :    0.022468
  55 H :    0.038056
  56 H :    0.022376
  57 H :    0.032225
  58 H :    0.031381
  59 H :    0.021363
  60 H :    0.027320
  61 H :    0.038242
  62 H :    0.036139
  63 H :    0.034612
  64 H :    0.041721
  65 H :    0.032244
  66 H :    0.030695
  67 H :    0.028013
  68 H :    0.032707
  69 H :    0.026502
  70 H :    0.030900
  71 H :    0.001751
  72 H :    0.021558
  73 H :   -0.008418
  74 H :    0.042057
  75 H :    0.034295

  Mayer bond orders larger than 0.100000
B(  0-C ,  1-N ) :   1.1827 B(  0-C ,  7-C ) :   1.4661 B(  0-C , 49-H ) :   0.9903
B(  1-N ,  2-C ) :   0.9447 B(  1-N ,  4-C ) :   1.0674 B(  2-C ,  3-C ) :   1.1177
B(  2-C , 50-H ) :   0.9346 B(  2-C , 51-H ) :   0.9536 B(  3-C , 52-H ) :   0.9674
B(  3-C , 53-H ) :   0.9691 B(  3-C , 54-H ) :   0.9695 B(  4-C ,  5-O ) :   2.0008
B(  4-C ,  6-C ) :   1.0083 B(  5-O , 61-H ) :   0.1198 B(  6-C ,  7-C ) :   1.1977
B(  6-C , 13-C ) :   1.3878 B(  7-C ,  8-C ) :   0.9478 B(  8-C ,  9-O ) :   2.1771
B(  8-C , 10-N ) :   1.0167 B( 10-N , 11-C ) :   0.9468 B( 10-N , 13-C ) :   1.1596
B( 11-C , 12-C ) :   1.1196 B( 11-C , 55-H ) :   0.9270 B( 11-C , 56-H ) :   0.9496
B( 12-C , 57-H ) :   0.9638 B( 12-C , 58-H ) :   0.9678 B( 12-C , 59-H ) :   0.9685
B( 13-C , 14-C ) :   1.1373 B( 14-C , 15-C ) :   1.6276 B( 14-C , 60-H ) :   0.9576
B( 15-C , 16-C ) :   1.0722 B( 15-C , 61-H ) :   0.9654 B( 16-C , 17-C ) :   1.2964
B( 16-C , 24-C ) :   1.3064 B( 17-C , 18-C ) :   1.3867 B( 17-C , 62-H ) :   0.9851
B( 18-C , 19-N ) :   0.8813 B( 18-C , 22-C ) :   1.3314 B( 19-N , 20-O ) :   1.5453
B( 19-N , 21-O ) :   1.5251 B( 20-O , 21-O ) :   0.2637 B( 22-C , 23-C ) :   1.3353
B( 22-C , 25-C ) :   1.0633 B( 23-C , 24-C ) :   1.3985 B( 23-C , 63-H ) :   0.9876
B( 24-C , 64-H ) :   1.0008 B( 25-C , 26-C ) :   1.7086 B( 25-C , 65-H ) :   0.9619
B( 26-C , 27-C ) :   1.1570 B( 26-C , 66-H ) :   0.9484 B( 27-C , 28-O ) :   1.1631
B( 27-C , 31-C ) :   1.4834 B( 28-O , 29-C ) :   1.1519 B( 29-C , 30-C ) :   1.5490
B( 29-C , 67-H ) :   1.0038 B( 30-C , 31-C ) :   1.2371 B( 30-C , 68-H ) :   1.0061
B( 31-C , 32-S ) :   0.9962 B( 32-S , 33-C ) :   1.0603 B( 33-C , 34-C ) :   1.7787
B( 33-C , 69-H ) :   0.9397 B( 34-C , 35-C ) :   1.1255 B( 34-C , 70-H ) :   0.9491
B( 35-C , 36-S ) :   1.1655 B( 35-C , 41-C ) :   1.4931 B( 36-S , 37-C ) :   1.1023
B( 37-C , 38-C ) :   1.0338 B( 37-C , 40-C ) :   1.4282 B( 38-C , 39-O ) :   2.1514
B( 38-C , 71-H ) :   0.9589 B( 40-C , 41-C ) :   1.2860 B( 40-C , 42-C ) :   1.0377
B( 41-C , 72-H ) :   0.9862 B( 42-C , 43-S ) :   1.1732 B( 42-C , 44-C ) :   0.1034
B( 42-C , 48-C ) :   1.4948 B( 43-S , 44-C ) :   1.1028 B( 44-C , 45-C ) :   1.0009
B( 44-C , 47-C ) :   1.4956 B( 45-C , 46-O ) :   2.1870 B( 45-C , 73-H ) :   0.9552
B( 47-C , 48-C ) :   1.2742 B( 47-C , 74-H ) :   1.0013 B( 48-C , 75-H ) :   1.0016

-----------------------------------------------------------------------------
         ABSORPTION SPECTRUM VIA TRANSITION ELECTRIC DIPOLE MOMENTS
-----------------------------------------------------------------------------
State   Energy  Wavelength   fosc         T2         TX        TY        TZ
        (cm-1)    (nm)                  (au**2)     (au)      (au)      (au)
-----------------------------------------------------------------------------
   0   20660.8    484.0   0.639427527  10.18873   0.80702  -2.94630   0.92560
   1   24974.6    400.4   0.780443111  10.28769  -0.99258  -2.64035  -1.52678
   2   26598.1    376.0   0.228949300   2.83377  -0.11237  -1.67038  -0.17602
   3   28011.4    357.0   0.237602670   2.79250   0.95411   0.26584   1.34592
   4   28983.6    345.0   0.004629923   0.05259   0.11850   0.06877   0.18390
   5   30123.5    332.0   0.065197285   0.71252  -0.02642   0.84157   0.05985
   6   30173.3    331.4   0.066291343   0.72329   0.74080  -0.41764   0.00893
   7   30792.4    324.8   0.001444624   0.01544  -0.11696  -0.03685  -0.02017
   8   31483.4    317.6   0.084409729   0.88265  -0.36210   0.12324  -0.85810
   9   31849.7    314.0   0.209919619   2.16982   0.73745  -1.27432  -0.04587
  10   32098.1    311.5   0.002245715   0.02303   0.00465   0.15169  -0.00074
  11   33093.9    302.2   0.047082280   0.46837   0.36797   0.37657  -0.43721
  12   33315.5    300.2   0.635856623   6.28331  -0.17681  -2.25853  -1.07290
  13   33880.9    295.2   0.448930389   4.36214  -1.91799   0.82621  -0.02911
  14   34693.7    288.2   0.016819820   0.15961  -0.26617  -0.03194  -0.29621
  15   35076.7    285.1   0.002543985   0.02388  -0.04571   0.14712   0.01193
  16   35833.7    279.1   0.317813544   2.91982  -0.01514  -1.50252  -0.81365
  17   36594.0    273.3   0.087776270   0.78967   0.12207  -0.69340   0.54218
  18   37498.6    266.7   0.030185743   0.26501  -0.13361   0.48976  -0.08541
  19   37761.1    264.8   0.159001996   1.38622  -0.35413   1.02100   0.46732
  20   38206.7    261.7   0.059586306   0.51343  -0.29067   0.27657   0.59368
  21   39323.7    254.3   0.020836169   0.17444  -0.00949  -0.23683  -0.34389
  22   40037.9    249.8   0.092928266   0.76410  -0.78216   0.39019  -0.00833

FINAL SINGLE POINT ENERGY     -3270.419789278008

DIPOLE MOMENT
-------------
                                X             Y             Z
Electronic contribution:      5.24165      58.72412       0.81705
Nuclear contribution   :     -5.31850     -59.25719      -0.71777
                        -----------------------------------------
Total Dipole Moment    :     -0.07685      -0.53306       0.09928
                        -----------------------------------------
Magnitude (a.u.)       :      0.54765
Magnitude (Debye)      :      1.39201

Rotational constants in cm-1:     0.002784     0.000406     0.000373
Rotational constants in MHz :    83.473835    12.172985    11.177321

                             ****ORCA TERMINATED NORMALLY****
TOTAL RUN TIME: 0 days 0 hours 4 minutes 23 seconds 74 msec
