                         Program Version 4.2.0 -  RELEASE  -
|  1> # ORCA input file
|  2> # SCF done       -149.736300795842          0.000220133088
|  3> ! CAM-B3LYP def2-SVP def2/J RIJCOSX Grid4 TightSCF
|  4> %maxcore 5000
|  5> %tddft
|  6>     Mode sTDDFT
|  7>     Ethresh 5.0
|  8>     maxcore 5000
|  9> end
| 10>
| 11> %pal
| 12>   nprocs 6
| 13>   end
| 14> * xyz 0 1
| 15>    C       -1.61323         0.71276        -5.88812
| 16>    N       -0.79275         1.74808        -6.20487
| 17>    C        0.19199         1.75475        -7.25809
| 18>    C       -0.45590         1.88141        -8.63408
| 19>    C       -1.05253         2.88031        -5.39441
| 20>    O       -0.45231         3.93084        -5.49134
| 21>    C       -2.11865         2.44035        -4.52778
| 22>    C       -2.44113         1.09096        -4.86645
| 23>    C       -3.51202         0.66963        -3.98756
| 24>    O       -4.13404        -0.36303        -3.89245
| 25>    N       -3.75775         1.79807        -3.16640
| 26>    C       -4.78053         1.72298        -2.15186
| 27>    C       -4.20407         1.35042        -0.78723
| 28>    C       -2.92528         2.84934        -3.47720
| 29>    C       -2.81722         4.14839        -2.90375
| 30>    C       -3.41202         4.67146        -1.80765
| 31>    C       -3.16738         5.99823        -1.33970
| 32>    S       -3.88440         6.51868         0.15080
| 33>    C       -3.11523         8.07043         0.04166
| 34>    C       -3.35607         9.00218         1.10217
| 35>    O       -2.82207        10.08181         1.24340
| 36>    C       -2.35438         8.18551        -1.12878
| 37>    C       -2.39865         6.99930        -1.88991
| 38>    C       -1.61141         9.33606        -1.57076
| 39>    S       -1.16200        10.66322        -0.55056
| 40>    C       -0.28397        11.40599        -1.83634
| 41>    C        0.57649        12.54816        -1.57551
| 42>    O        1.49827        12.88539        -2.27375
| 43>    C       -0.39589        10.68864        -3.02140
| 44>    C       -1.12803         9.50879        -2.85482
| 45>    C        0.14346        11.18083        -4.27392
| 46>    S        1.23519        10.25871        -5.23700
| 47>    C        1.41292        11.56646        -6.37221
| 48>    C        2.48745        11.43402        -7.31971
| 49>    O        2.90246        12.29011        -8.06757
| 50>    C        0.59594        12.64563        -6.02959
| 51>    C       -0.09855        12.40756        -4.82271
| 52>    C        0.45358        13.93105        -6.67034
| 53>    N        0.45927        14.22132        -8.00925
| 54>    C        0.32853        13.31426        -9.12416
| 55>    C       -0.91074        12.43281        -9.00735
| 56>    C        0.38067        15.61413        -8.23435
| 57>    O        0.34329        16.10538        -9.34553
| 58>    C        0.31886        16.19353        -6.91637
| 59>    C        0.30729        15.12100        -5.97514
| 60>    C        0.16817        15.69311        -4.65561
| 61>    O       -0.01088        15.20713        -3.55712
| 62>    N        0.17088        17.08623        -4.88442
| 63>    C        0.12712        18.01223        -3.78020
| 64>    C        1.51579        18.54493        -3.43449
| 65>    C        0.25976        17.38997        -6.22108
| 66>    C        0.27477        18.73416        -6.72605
| 67>    C        0.35580        19.01812        -8.02715
| 68>    H       -1.54442        -0.22563        -6.40703
| 69>    H        0.78667         0.83832        -7.19977
| 70>    H        0.83923         2.61541        -7.06938
| 71>    H       -1.12283         1.04343        -8.82443
| 72>    H        0.31181         1.89781        -9.40236
| 73>    H       -1.02894         2.80332        -8.69449
| 74>    H       -5.46572         0.93309        -2.47527
| 75>    H       -5.32895         2.66705        -2.11650
| 76>    H       -3.76750         0.35613        -0.83530
| 77>    H       -4.99393         1.34652        -0.04107
| 78>    H       -3.42991         2.05001        -0.47949
| 79>    H       -2.11218         4.76195        -3.44934
| 80>    H       -4.09371         4.09681        -1.20129
| 81>    H       -4.10351         8.64287         1.83402
| 82>    H       -1.86103         6.87308        -2.81046
| 83>    H        0.35064        13.05680        -0.62015
| 84>    H       -1.31532         8.82677        -3.66436
| 85>    H        2.96010        10.43285        -7.28212
| 86>    H       -0.74480        13.13276        -4.36421
| 87>    H        1.23171        12.71121        -9.22644
| 88>    H        0.24668        13.95930       -10.00452
| 89>    H       -0.84363        11.76820        -8.14895
| 90>    H       -1.01002        11.82770        -9.90435
| 91>    H       -1.80319        13.04687        -8.90253
| 92>    H       -0.26892        17.44720        -2.93116
| 93>    H       -0.56076        18.83086        -4.01017
| 94>    H        2.17141        17.71869        -3.17076
| 95>    H        1.45141        19.22269        -2.58753
| 96>    H        1.95115        19.07610        -4.27821
| 97>    H        0.21518        19.53007        -5.99639
| 98>    H        0.41438        18.24111        -8.77075
| 99>    H        0.36433        20.03668        -8.37537
|100> *
|101>
|102>                          ****END OF INPUT****

CARTESIAN COORDINATES (ANGSTROEM)
---------------------------------
  C     -1.613230    0.712760   -5.888120
  N     -0.792750    1.748080   -6.204870
  C      0.191990    1.754750   -7.258090
  C     -0.455900    1.881410   -8.634080
  C     -1.052530    2.880310   -5.394410
  O     -0.452310    3.930840   -5.491340
  C     -2.118650    2.440350   -4.527780
  C     -2.441130    1.090960   -4.866450
  C     -3.512020    0.669630   -3.987560
  O     -4.134040   -0.363030   -3.892450
  N     -3.757750    1.798070   -3.166400
  C     -4.780530    1.722980   -2.151860
  C     -4.204070    1.350420   -0.787230
  C     -2.925280    2.849340   -3.477200
  C     -2.817220    4.148390   -2.903750
  C     -3.412020    4.671460   -1.807650
  C     -3.167380    5.998230   -1.339700
  S     -3.884400    6.518680    0.150800
  C     -3.115230    8.070430    0.041660
  C     -3.356070    9.002180    1.102170
  O     -2.822070   10.081810    1.243400
  C     -2.354380    8.185510   -1.128780
  C     -2.398650    6.999300   -1.889910
  C     -1.611410    9.336060   -1.570760
  S     -1.162000   10.663220   -0.550560
  C     -0.283970   11.405990   -1.836340
  C      0.576490   12.548160   -1.575510
  O      1.498270   12.885390   -2.273750
  C     -0.395890   10.688640   -3.021400
  C     -1.128030    9.508790   -2.854820
  C      0.143460   11.180830   -4.273920
  S      1.235190   10.258710   -5.237000
  C      1.412920   11.566460   -6.372210
  C      2.487450   11.434020   -7.319710
  O      2.902460   12.290110   -8.067570
  C      0.595940   12.645630   -6.029590
  C     -0.098550   12.407560   -4.822710
  C      0.453580   13.931050   -6.670340
  N      0.459270   14.221320   -8.009250
  C      0.328530   13.314260   -9.124160
  C     -0.910740   12.432810   -9.007350
  C      0.380670   15.614130   -8.234350
  O      0.343290   16.105380   -9.345530
  C      0.318860   16.193530   -6.916370
  C      0.307290   15.121000   -5.975140
  C      0.168170   15.693110   -4.655610
  O     -0.010880   15.207130   -3.557120
  N      0.170880   17.086230   -4.884420
  C      0.127120   18.012230   -3.780200
  C      1.515790   18.544930   -3.434490
  C      0.259760   17.389970   -6.221080
  C      0.274770   18.734160   -6.726050
  C      0.355800   19.018120   -8.027150
  H     -1.544420   -0.225630   -6.407030
  H      0.786670    0.838320   -7.199770
  H      0.839230    2.615410   -7.069380
  H     -1.122830    1.043430   -8.824430
  H      0.311810    1.897810   -9.402360
  H     -1.028940    2.803320   -8.694490
  H     -5.465720    0.933090   -2.475270
  H     -5.328950    2.667050   -2.116500
  H     -3.767500    0.356130   -0.835300
  H     -4.993930    1.346520   -0.041070
  H     -3.429910    2.050010   -0.479490
  H     -2.112180    4.761950   -3.449340
  H     -4.093710    4.096810   -1.201290
  H     -4.103510    8.642870    1.834020
  H     -1.861030    6.873080   -2.810460
  H      0.350640   13.056800   -0.620150
  H     -1.315320    8.826770   -3.664360
  H      2.960100   10.432850   -7.282120
  H     -0.744800   13.132760   -4.364210
  H      1.231710   12.711210   -9.226440
  H      0.246680   13.959300  -10.004520
  H     -0.843630   11.768200   -8.148950
  H     -1.010020   11.827700   -9.904350
  H     -1.803190   13.046870   -8.902530
  H     -0.268920   17.447200   -2.931160
  H     -0.560760   18.830860   -4.010170
  H      2.171410   17.718690   -3.170760
  H      1.451410   19.222690   -2.587530
  H      1.951150   19.076100   -4.278210
  H      0.215180   19.530070   -5.996390
  H      0.414380   18.241110   -8.770750
  H      0.364330   20.036680   -8.375370

 Total Charge           Charge          ....    0
 Multiplicity           Mult            ....    1
 Number of Electrons    NEL             ....  398
 Basis Dimension        Dim             ....  914

ORBITAL ENERGIES
----------------

  NO   OCC          E(Eh)            E(eV)
   0   2.0000     -88.982328     -2421.3322
   1   2.0000     -88.967034     -2420.9161
   2   2.0000     -88.965655     -2420.8785
   3   2.0000     -19.222820      -523.0795
   4   2.0000     -19.203822      -522.5626
   5   2.0000     -19.198955      -522.4301
   6   2.0000     -19.198436      -522.4160
   7   2.0000     -19.192743      -522.2611
   8   2.0000     -19.180499      -521.9279
   9   2.0000     -19.175699      -521.7973
  10   2.0000     -14.461378      -393.5141
  11   2.0000     -14.458675      -393.4406
  12   2.0000     -14.442607      -393.0033
  13   2.0000     -14.438913      -392.9028
  14   2.0000     -10.381245      -282.4880
  15   2.0000     -10.379200      -282.4324
  16   2.0000     -10.371860      -282.2327
  17   2.0000     -10.364283      -282.0265
  18   2.0000     -10.358197      -281.8609
  19   2.0000     -10.354870      -281.7703
  20   2.0000     -10.349029      -281.6114
  21   2.0000     -10.348129      -281.5869
  22   2.0000     -10.341340      -281.4022
  23   2.0000     -10.334317      -281.2111
  24   2.0000     -10.330055      -281.0951
  25   2.0000     -10.328811      -281.0612
  26   2.0000     -10.322513      -280.8899
  27   2.0000     -10.319976      -280.8208
  28   2.0000     -10.316777      -280.7338
  29   2.0000     -10.315297      -280.6935
  30   2.0000     -10.315268      -280.6927
  31   2.0000     -10.314044      -280.6594
  32   2.0000     -10.311343      -280.5859
  33   2.0000     -10.308581      -280.5108
  34   2.0000     -10.300792      -280.2988
  35   2.0000     -10.300161      -280.2816
  36   2.0000     -10.299691      -280.2688
  37   2.0000     -10.298973      -280.2493
  38   2.0000     -10.296838      -280.1912
  39   2.0000     -10.294002      -280.1140
  40   2.0000     -10.287925      -279.9487
  41   2.0000     -10.279323      -279.7146
  42   2.0000     -10.279267      -279.7131
  43   2.0000     -10.272185      -279.5204
  44   2.0000     -10.270997      -279.4880
  45   2.0000     -10.270660      -279.4789
  46   2.0000     -10.269870      -279.4574
  47   2.0000     -10.268827      -279.4290
  48   2.0000     -10.266666      -279.3702
  49   2.0000     -10.255639      -279.0701
  50   2.0000     -10.249810      -278.9115
  51   2.0000     -10.248706      -278.8815
  52   2.0000     -10.245845      -278.8036
  53   2.0000      -8.078240      -219.8201
  54   2.0000      -8.061248      -219.3577
  55   2.0000      -8.060988      -219.3506
  56   2.0000      -6.047311      -164.5557
  57   2.0000      -6.043360      -164.4482
  58   2.0000      -6.040542      -164.3715
  59   2.0000      -6.030239      -164.0912
  60   2.0000      -6.030103      -164.0875
  61   2.0000      -6.026175      -163.9806
  62   2.0000      -6.025696      -163.9675
  63   2.0000      -6.023903      -163.9187
  64   2.0000      -6.023651      -163.9119
  65   2.0000      -1.138851       -30.9897
  66   2.0000      -1.137225       -30.9455
  67   2.0000      -1.131842       -30.7990
  68   2.0000      -1.121701       -30.5230
  69   2.0000      -1.117643       -30.4126
  70   2.0000      -1.113027       -30.2870
  71   2.0000      -1.112097       -30.2617
  72   2.0000      -1.069702       -29.1081
  73   2.0000      -1.060009       -28.8443
  74   2.0000      -1.051306       -28.6075
  75   2.0000      -1.041807       -28.3490
  76   2.0000      -1.015224       -27.6256
  77   2.0000      -0.998116       -27.1601
  78   2.0000      -0.981856       -26.7177
  79   2.0000      -0.935273       -25.4501
  80   2.0000      -0.925563       -25.1858
  81   2.0000      -0.914992       -24.8982
  82   2.0000      -0.892786       -24.2940
  83   2.0000      -0.884454       -24.0672
  84   2.0000      -0.882125       -24.0038
  85   2.0000      -0.873482       -23.7687
  86   2.0000      -0.863241       -23.4900
  87   2.0000      -0.860480       -23.4149
  88   2.0000      -0.852436       -23.1960
  89   2.0000      -0.833376       -22.6773
  90   2.0000      -0.827049       -22.5052
  91   2.0000      -0.820204       -22.3189
  92   2.0000      -0.810001       -22.0412
  93   2.0000      -0.807275       -21.9671
  94   2.0000      -0.786989       -21.4151
  95   2.0000      -0.784565       -21.3491
  96   2.0000      -0.767408       -20.8822
  97   2.0000      -0.759704       -20.6726
  98   2.0000      -0.748186       -20.3592
  99   2.0000      -0.743831       -20.2407
 100   2.0000      -0.734520       -19.9873
 101   2.0000      -0.724159       -19.7054
 102   2.0000      -0.715128       -19.4596
 103   2.0000      -0.709454       -19.3052
 104   2.0000      -0.697540       -18.9810
 105   2.0000      -0.689741       -18.7688
 106   2.0000      -0.685513       -18.6538
 107   2.0000      -0.669461       -18.2170
 108   2.0000      -0.661749       -18.0071
 109   2.0000      -0.659695       -17.9512
 110   2.0000      -0.649542       -17.6749
 111   2.0000      -0.648837       -17.6558
 112   2.0000      -0.642898       -17.4941
 113   2.0000      -0.629719       -17.1355
 114   2.0000      -0.621528       -16.9126
 115   2.0000      -0.608916       -16.5694
 116   2.0000      -0.600095       -16.3294
 117   2.0000      -0.592063       -16.1108
 118   2.0000      -0.587250       -15.9799
 119   2.0000      -0.587050       -15.9744
 120   2.0000      -0.585269       -15.9260
 121   2.0000      -0.582640       -15.8544
 122   2.0000      -0.578820       -15.7505
 123   2.0000      -0.573485       -15.6053
 124   2.0000      -0.569563       -15.4986
 125   2.0000      -0.564321       -15.3560
 126   2.0000      -0.557843       -15.1797
 127   2.0000      -0.552903       -15.0453
 128   2.0000      -0.552583       -15.0365
 129   2.0000      -0.539381       -14.6773
 130   2.0000      -0.536571       -14.6008
 131   2.0000      -0.535323       -14.5669
 132   2.0000      -0.530248       -14.4288
 133   2.0000      -0.527339       -14.3496
 134   2.0000      -0.525342       -14.2953
 135   2.0000      -0.522272       -14.2117
 136   2.0000      -0.521853       -14.2003
 137   2.0000      -0.520552       -14.1649
 138   2.0000      -0.518481       -14.1086
 139   2.0000      -0.517689       -14.0870
 140   2.0000      -0.511603       -13.9214
 141   2.0000      -0.510849       -13.9009
 142   2.0000      -0.508216       -13.8293
 143   2.0000      -0.507728       -13.8160
 144   2.0000      -0.507348       -13.8056
 145   2.0000      -0.504334       -13.7236
 146   2.0000      -0.498278       -13.5588
 147   2.0000      -0.496020       -13.4974
 148   2.0000      -0.488860       -13.3025
 149   2.0000      -0.486694       -13.2436
 150   2.0000      -0.482258       -13.1229
 151   2.0000      -0.480493       -13.0749
 152   2.0000      -0.477368       -12.9898
 153   2.0000      -0.476465       -12.9653
 154   2.0000      -0.473146       -12.8750
 155   2.0000      -0.472267       -12.8510
 156   2.0000      -0.469745       -12.7824
 157   2.0000      -0.465044       -12.6545
 158   2.0000      -0.462242       -12.5782
 159   2.0000      -0.460221       -12.5233
 160   2.0000      -0.459576       -12.5057
 161   2.0000      -0.458274       -12.4703
 162   2.0000      -0.456567       -12.4238
 163   2.0000      -0.454224       -12.3601
 164   2.0000      -0.449044       -12.2191
 165   2.0000      -0.446797       -12.1580
 166   2.0000      -0.444533       -12.0964
 167   2.0000      -0.441458       -12.0127
 168   2.0000      -0.439441       -11.9578
 169   2.0000      -0.437683       -11.9100
 170   2.0000      -0.436047       -11.8654
 171   2.0000      -0.432066       -11.7571
 172   2.0000      -0.429547       -11.6886
 173   2.0000      -0.425068       -11.5667
 174   2.0000      -0.422787       -11.5046
 175   2.0000      -0.419963       -11.4278
 176   2.0000      -0.413796       -11.2600
 177   2.0000      -0.412107       -11.2140
 178   2.0000      -0.405632       -11.0378
 179   2.0000      -0.392790       -10.6884
 180   2.0000      -0.389869       -10.6089
 181   2.0000      -0.365410        -9.9433
 182   2.0000      -0.353568        -9.6211
 183   2.0000      -0.343164        -9.3380
 184   2.0000      -0.341255        -9.2860
 185   2.0000      -0.339795        -9.2463
 186   2.0000      -0.336421        -9.1545
 187   2.0000      -0.335917        -9.1408
 188   2.0000      -0.327652        -8.9159
 189   2.0000      -0.324520        -8.8306
 190   2.0000      -0.321990        -8.7618
 191   2.0000      -0.319606        -8.6969
 192   2.0000      -0.318124        -8.6566
 193   2.0000      -0.316836        -8.6215
 194   2.0000      -0.301336        -8.1998
 195   2.0000      -0.298298        -8.1171
 196   2.0000      -0.282701        -7.6927
 197   2.0000      -0.255150        -6.9430
 198   2.0000      -0.235120        -6.3980
 199   0.0000      -0.091095        -2.4788
 200   0.0000      -0.065382        -1.7791
 201   0.0000      -0.053547        -1.4571
 202   0.0000      -0.027360        -0.7445
 203   0.0000      -0.010655        -0.2899

MULLIKEN ATOMIC CHARGES
-----------------------
   0 C :    0.057353
   1 N :   -0.266835
   2 C :    0.106210
   3 C :   -0.002682
   4 C :    0.170536
   5 O :   -0.195710
   6 C :   -0.089831
   7 C :   -0.000667
   8 C :    0.170462
   9 O :   -0.185396
  10 N :   -0.279783
  11 C :    0.097814
  12 C :    0.002209
  13 C :    0.142617
  14 C :   -0.031446
  15 C :    0.073155
  16 C :   -0.066322
  17 S :    0.154402
  18 C :   -0.234866
  19 C :    0.196596
  20 O :   -0.200914
  21 C :    0.203086
  22 C :   -0.053570
  23 C :   -0.112052
  24 S :    0.215448
  25 C :   -0.189472
  26 C :    0.198941
  27 O :   -0.169111
  28 C :    0.142258
  29 C :   -0.024893
  30 C :   -0.130863
  31 S :    0.164398
  32 C :   -0.203452
  33 C :    0.191828
  34 O :   -0.197197
  35 C :    0.034717
  36 C :    0.063395
  37 C :    0.109086
  38 N :   -0.238107
  39 C :    0.101729
  40 C :   -0.013442
  41 C :    0.171723
  42 O :   -0.208932
  43 C :   -0.082895
  44 C :   -0.055546
  45 C :    0.156318
  46 O :   -0.202202
  47 N :   -0.264776
  48 C :    0.097728
  49 C :    0.003957
  50 C :    0.125639
  51 C :   -0.039808
  52 C :    0.016003
  53 H :    0.020229
  54 H :    0.021926
  55 H :    0.044969
  56 H :    0.016116
  57 H :    0.027640
  58 H :    0.030327
  59 H :    0.044435
  60 H :    0.022186
  61 H :    0.032297
  62 H :    0.023397
  63 H :    0.018014
  64 H :    0.009159
  65 H :   -0.017799
  66 H :   -0.011593
  67 H :    0.005559
  68 H :   -0.018600
  69 H :   -0.017042
  70 H :   -0.018068
  71 H :    0.002423
  72 H :    0.041942
  73 H :    0.038541
  74 H :    0.023558
  75 H :    0.018608
  76 H :    0.016969
  77 H :    0.040385
  78 H :    0.021034
  79 H :    0.033582
  80 H :    0.020944
  81 H :    0.015554
  82 H :   -0.019293
  83 H :    0.058029
  84 H :    0.027731
Sum of atomic charges:   -0.0000000

LOEWDIN ATOMIC CHARGES
----------------------
   0 C :    0.103675
   1 N :   -0.002111
   2 C :    0.038005
   3 C :   -0.060131
   4 C :    0.078490
   5 O :   -0.196049
   6 C :   -0.116198
   7 C :   -0.133545
   8 C :    0.084664
   9 O :   -0.187312
  10 N :   -0.011401
  11 C :    0.034001
  12 C :   -0.063711
  13 C :    0.073663
  14 C :   -0.012220
  15 C :   -0.028842
  16 C :   -0.148503
  17 S :    0.463804
  18 C :   -0.241972
  19 C :    0.079371
  20 O :   -0.156623
  21 C :   -0.021561
  22 C :   -0.040349
  23 C :   -0.168646
  24 S :    0.535332
  25 C :   -0.232878
  26 C :    0.090480
  27 O :   -0.120577
  28 C :   -0.054434
  29 C :   -0.043992
  30 C :   -0.149748
  31 S :    0.474161
  32 C :   -0.234375
  33 C :    0.079632
  34 O :   -0.143669
  35 C :   -0.027225
  36 C :   -0.014071
  37 C :    0.077725
  38 N :    0.012135
  39 C :    0.030857
  40 C :   -0.065189
  41 C :    0.084486
  42 O :   -0.197662
  43 C :   -0.128210
  44 C :   -0.118126
  45 C :    0.085629
  46 O :   -0.195059
  47 N :   -0.002554
  48 C :    0.034808
  49 C :   -0.061464
  50 C :    0.085202
  51 C :   -0.055372
  52 C :    0.026254
  53 H :    0.034877
  54 H :    0.025704
  55 H :    0.037268
  56 H :    0.022690
  57 H :    0.031927
  58 H :    0.031728
  59 H :    0.038443
  60 H :    0.020988
  61 H :    0.034632
  62 H :    0.030689
  63 H :    0.020288
  64 H :    0.046772
  65 H :    0.029514
  66 H :   -0.001275
  67 H :    0.035527
  68 H :   -0.005593
  69 H :    0.029857
  70 H :   -0.006755
  71 H :    0.037875
  72 H :    0.022052
  73 H :    0.034064
  74 H :    0.020955
  75 H :    0.029666
  76 H :    0.025568
  77 H :    0.036122
  78 H :    0.021625
  79 H :    0.033906
  80 H :    0.029164
  81 H :    0.022116
  82 H :    0.028860
  83 H :    0.033385
  84 H :    0.028770

  Mayer bond orders larger than 0.100000
B(  0-C ,  1-N ) :   1.2013 B(  0-C ,  7-C ) :   1.4511 B(  0-C , 53-H ) :   0.9883
B(  1-N ,  2-C ) :   0.9387 B(  1-N ,  4-C ) :   1.0315 B(  2-C ,  3-C ) :   1.1178
B(  2-C , 54-H ) :   0.9546 B(  2-C , 55-H ) :   0.9350 B(  3-C , 56-H ) :   0.9694
B(  3-C , 57-H ) :   0.9687 B(  3-C , 58-H ) :   0.9676 B(  4-C ,  5-O ) :   2.1172
B(  4-C ,  6-C ) :   0.9896 B(  6-C ,  7-C ) :   1.1963 B(  6-C , 13-C ) :   1.3913
B(  7-C ,  8-C ) :   0.9528 B(  8-C ,  9-O ) :   2.1685 B(  8-C , 10-N ) :   1.0142
B( 10-N , 11-C ) :   0.9464 B( 10-N , 13-C ) :   1.1609 B( 11-C , 12-C ) :   1.1156
B( 11-C , 59-H ) :   0.9254 B( 11-C , 60-H ) :   0.9517 B( 12-C , 61-H ) :   0.9613
B( 12-C , 62-H ) :   0.9685 B( 12-C , 63-H ) :   0.9675 B( 13-C , 14-C ) :   1.1703
B( 14-C , 15-C ) :   1.6322 B( 14-C , 64-H ) :   0.9464 B( 15-C , 16-C ) :   1.0924
B( 15-C , 65-H ) :   0.9664 B( 16-C , 17-S ) :   1.1571 B( 16-C , 22-C ) :   1.4787
B( 17-S , 18-C ) :   1.0922 B( 18-C , 19-C ) :   1.0516 B( 18-C , 21-C ) :   1.4238
B( 19-C , 20-O ) :   2.0742 B( 19-C , 66-H ) :   0.9594 B( 21-C , 22-C ) :   1.2887
B( 21-C , 23-C ) :   1.0753 B( 22-C , 67-H ) :   0.9922 B( 23-C , 24-S ) :   1.1796
B( 23-C , 29-C ) :   1.4513 B( 24-S , 25-C ) :   1.1098 B( 25-C , 26-C ) :   0.9896
B( 25-C , 28-C ) :   1.4751 B( 26-C , 27-O ) :   2.1557 B( 26-C , 68-H ) :   0.9457
B( 28-C , 29-C ) :   1.3213 B( 28-C , 30-C ) :   0.9587 B( 29-C , 69-H ) :   0.9989
B( 30-C , 31-S ) :   1.1745 B( 30-C , 36-C ) :   1.5253 B( 31-S , 32-C ) :   1.0979
B( 32-C , 33-C ) :   1.0287 B( 32-C , 35-C ) :   1.4282 B( 33-C , 34-O ) :   2.0905
B( 33-C , 70-H ) :   0.9486 B( 35-C , 36-C ) :   1.2916 B( 35-C , 37-C ) :   1.0164
B( 36-C , 71-H ) :   0.9941 B( 37-C , 38-N ) :   1.2162 B( 37-C , 44-C ) :   1.4345
B( 38-N , 39-C ) :   0.9422 B( 38-N , 41-C ) :   1.0405 B( 39-C , 40-C ) :   1.1119
B( 39-C , 72-H ) :   0.9341 B( 39-C , 73-H ) :   0.9272 B( 40-C , 74-H ) :   0.9685
B( 40-C , 75-H ) :   0.9674 B( 40-C , 76-H ) :   0.9651 B( 41-C , 42-O ) :   2.0382
B( 41-C , 43-C ) :   0.9964 B( 43-C , 44-C ) :   1.2064 B( 43-C , 50-C ) :   1.3884
B( 44-C , 45-C ) :   0.9671 B( 45-C , 46-O ) :   2.0761 B( 45-C , 47-N ) :   1.0419
B( 47-N , 48-C ) :   0.9497 B( 47-N , 50-C ) :   1.1648 B( 48-C , 49-C ) :   1.1204
B( 48-C , 77-H ) :   0.9269 B( 48-C , 78-H ) :   0.9505 B( 49-C , 79-H ) :   0.9637
B( 49-C , 80-H ) :   0.9679 B( 49-C , 81-H ) :   0.9688 B( 50-C , 51-C ) :   1.1232
B( 51-C , 52-C ) :   1.8906 B( 51-C , 82-H ) :   0.9541 B( 52-C , 83-H ) :   0.9265
B( 52-C , 84-H ) :   0.9446

-----------------------------------------------------------------------------
         ABSORPTION SPECTRUM VIA TRANSITION ELECTRIC DIPOLE MOMENTS
-----------------------------------------------------------------------------
State   Energy  Wavelength   fosc         T2         TX        TY        TZ
        (cm-1)    (nm)                  (au**2)     (au)      (au)      (au)
-----------------------------------------------------------------------------
   0   19420.7    514.9   0.236043684   4.00133   0.26706  -1.93440  -0.43370
   1   20150.6    496.3   0.575328493   9.39946   1.04690  -1.97157  -2.10151
   2   21914.0    456.3   0.009055736   0.13604  -0.05594   0.35613   0.07803
   3   25869.7    386.6   0.052851234   0.67257  -0.14440  -0.79185  -0.15712
   4   26358.7    379.4   0.119471826   1.49217   0.76034   0.31264  -0.90350
   5   27699.1    361.0   0.008586423   0.10205   0.02790   0.07409  -0.30949
   6   28169.1    355.0   0.010237757   0.11965  -0.12154   0.20017   0.25457
   7   28867.8    346.4   0.072135704   0.82264  -0.10063   0.45037   0.78082
   8   29017.4    344.6   0.018965309   0.21517  -0.30471   0.10577   0.33336
   9   29352.9    340.7   0.030166447   0.33834   0.20783   0.24129  -0.48675
  10   29899.4    334.5   0.037189902   0.40949   0.13067   0.55222   0.29575
  11   30104.1    332.2   0.028738400   0.31428  -0.00164  -0.42010  -0.37120
  12   30209.5    331.0   0.016321385   0.17786  -0.08677   0.24002   0.33575
  13   30538.3    327.5   0.024345259   0.26245   0.31938   0.24515  -0.31678
  14   30705.2    325.7   0.035977204   0.38574   0.49762   0.09975  -0.35799
  15   31735.4    315.1   0.702163757   7.28401   0.54827   2.55492   0.67511
  16   32115.9    311.4   0.011769061   0.12064   0.16986  -0.22698  -0.20067
  17   32245.8    310.1   0.213105349   2.17569  -0.72013  -1.28036   0.13331
  18   33362.7    299.7   0.197750173   1.95133   0.95907   0.74305  -0.69238
  19   33835.8    295.5   0.059742645   0.58128  -0.59691  -0.42310   0.21437
  20   34057.3    293.6   0.001598787   0.01545   0.04304  -0.09395  -0.06910
  21   34765.5    287.6   0.033531406   0.31753  -0.14953  -0.50844   0.19146
  22   34953.4    286.1   0.011895283   0.11204   0.05202   0.20152   0.26215
  23   36129.6    276.8   0.530646638   4.83524   1.10351   1.67304  -0.90469
  24   36340.5    275.2   0.001611447   0.01460   0.09455   0.03403  -0.06708
  25   36656.7    272.8   0.057306821   0.51467   0.41819   0.54637   0.20315
  26   37125.5    269.4   0.222481149   1.97286   0.45076  -0.34727  -1.28416
  27   37730.5    265.0   0.337322506   2.94326  -0.17193   1.32673  -1.07400
  28   38632.6    258.8   0.064472905   0.54941  -0.06572  -0.53978   0.50372
  29   38779.8    257.9   0.087590960   0.74358   0.54185  -0.43850  -0.50764
  30   39011.4    256.3   0.053425170   0.45085  -0.05575  -0.61796   0.25665
  31   39216.6    255.0   0.012306061   0.10331  -0.14701   0.19672   0.20735
  32   39976.5    250.1   0.048388716   0.39849   0.23603  -0.42035   0.40753
  33   40094.6    249.4   0.022363389   0.18362  -0.07554  -0.20372   0.36934
  34   40294.9    248.2   0.003430991   0.02803  -0.04528   0.15179  -0.05423

FINAL SINGLE POINT ENERGY     -3442.404766205569

DIPOLE MOMENT
-------------
                                X             Y             Z
Electronic contribution:      0.58758       1.36891      25.41294
Nuclear contribution   :     -2.09907      -3.44425     -24.54171
                        -----------------------------------------
Total Dipole Moment    :     -1.51149      -2.07534       0.87122
                        -----------------------------------------
Magnitude (a.u.)       :      2.71121
Magnitude (Debye)      :      6.89135

Rotational constants in cm-1:     0.002412     0.000627     0.000523
Rotational constants in MHz :    72.313954    18.789387    15.666030

                             ****ORCA TERMINATED NORMALLY****
TOTAL RUN TIME: 0 days 0 hours 5 minutes 51 seconds 592 msec
