                         Program Version 4.2.0 -  RELEASE  -
|  1> # ORCA input file
|  2> # SCF done       -182.124567196877          0.000685957241
|  3> ! CAM-B3LYP def2-SVP def2/J RIJCOSX Grid4 TightSCF
|  4> %maxcore 5000
|  5> %tddft
|  6>     Mode sTDDFT
|  7>     Ethresh 5.0
|  8>     maxcore 5000
|  9> end
| 10>
| 11> %pal
| 12>   nprocs 6
| 13>   end
| 14> * xyz 0 1
| 15>    C       -6.51979        -1.89351        -3.41274
| 16>    N       -5.80708        -1.57560        -2.29939
| 17>    C       -5.52438        -2.46009        -1.19659
| 18>    C       -4.46016        -3.49173        -1.56013
| 19>    C       -5.31082        -0.25611        -2.36561
| 20>    O       -4.64162         0.25418        -1.48490
| 21>    C       -5.79103         0.23498        -3.63205
| 22>    C       -6.53747        -0.81561        -4.25361
| 23>    C       -7.02622        -0.32235        -5.52622
| 24>    O       -7.68576        -0.83293        -6.40238
| 25>    N       -6.54267         1.00096        -5.58705
| 26>    C       -6.85258         1.85715        -6.70573
| 27>    C       -7.99326         2.82149        -6.38896
| 28>    C       -5.81571         1.34342        -4.46874
| 29>    C       -5.22839         2.61681        -4.26965
| 30>    C       -4.49291         2.91780        -3.16726
| 31>    C       -3.91941         4.18189        -2.92847
| 32>    S       -4.14915         5.57089        -3.97943
| 33>    C       -3.18217         6.63144        -2.98145
| 34>    C       -2.70987         5.90864        -1.89880
| 35>    C       -3.11977         4.56407        -1.86680
| 36>    S       -2.47506         3.77815        -0.45731
| 37>    C       -1.68852         5.30993         0.01039
| 38>    S       -0.77990         5.52624         1.33172
| 39>    O       -1.92953         6.29414        -0.86411
| 40>    C       -3.00832         7.99297        -3.31840
| 41>    C       -2.24468         8.85823        -2.60171
| 42>    C       -2.10737        10.22928        -2.91170
| 43>    S       -1.05411        11.25957        -1.96590
| 44>    C       -1.44041        12.69629        -2.88240
| 45>    C       -2.34801        12.35338        -3.87139
| 46>    C       -2.71114        10.99542        -3.89326
| 47>    S       -3.84614        10.71641        -5.18429
| 48>    C       -3.76137        12.44559        -5.61791
| 49>    S       -4.58002        13.13744        -6.82920
| 50>    O       -2.93265        13.12220        -4.81950
| 51>    C       -0.86119        13.94816        -2.57117
| 52>    C       -1.19537        15.10971        -3.19114
| 53>    C       -0.61630        16.36272        -2.89197
| 54>    S       -1.19970        17.82217        -3.66312
| 55>    C       -0.06400        18.85568        -2.83167
| 56>    C        0.72179        18.06572        -2.00522
| 57>    C        0.41508        16.69546        -2.02989
| 58>    S        1.47059        15.84142        -0.93808
| 59>    C        2.26005        17.38317        -0.51329
| 60>    S        3.47814        17.54859         0.53915
| 61>    O        1.72922        18.41630        -1.17174
| 62>    C       -0.05311        20.25491        -3.02653
| 63>    C        0.85724        21.08196        -2.44505
| 64>    C        0.82914        22.48641        -2.61697
| 65>    N        1.75609        23.34091        -2.06379
| 66>    C        2.87062        22.97425        -1.22329
| 67>    C        2.43738        22.68498         0.21171
| 68>    C        1.48657        24.68546        -2.37212
| 69>    O        2.17549        25.60987        -1.98971
| 70>    C        0.29346        24.63269        -3.18877
| 71>    C       -0.08083        23.26785        -3.32366
| 72>    C       -1.27311        23.21339        -4.13333
| 73>    O       -1.95468        22.28489        -4.52681
| 74>    N       -1.54581        24.55906        -4.44097
| 75>    C       -2.72090        24.92202        -5.19473
| 76>    C       -3.84818        25.40833        -4.28693
| 77>    C       -0.62445        25.41100        -3.88061
| 78>    C       -0.66464        26.83555        -4.04283
| 79>    C        0.22621        27.65490        -3.47937
| 80>    H       -6.97155        -2.86188        -3.52295
| 81>    H       -6.44903        -2.95827        -0.88999
| 82>    H       -5.16833        -1.82856        -0.37825
| 83>    H       -4.79217        -4.11091        -2.39062
| 84>    H       -4.26019        -4.13182        -0.70555
| 85>    H       -3.53736        -2.99244        -1.84516
| 86>    H       -7.15332         1.19120        -7.51960
| 87>    H       -5.95428         2.40232        -7.00933
| 88>    H       -8.89010         2.26240        -6.13428
| 89>    H       -8.20381         3.43923        -7.25743
| 90>    H       -7.73889         3.46844        -5.55226
| 91>    H       -5.37290         3.37623        -5.02591
| 92>    H       -4.32201         2.16732        -2.40472
| 93>    H       -3.53395         8.33208        -4.19993
| 94>    H       -1.70347         8.50893        -1.73488
| 95>    H       -0.12261        13.94381        -1.78222
| 96>    H       -1.95459        15.11091        -3.95918
| 97>    H       -0.82312        20.66087        -3.66897
| 98>    H        1.63570        20.66486        -1.82406
| 99>    H        3.55005        23.83127        -1.23384
|100>    H        3.38529        22.11107        -1.65453
|101>    H        1.96761        23.56568         0.64275
|102>    H        3.30538        22.42413         0.81059
|103>    H        1.72887        21.86064         0.24909
|104>    H       -3.03674        24.01331        -5.71505
|105>    H       -2.46278        25.68121        -5.93797
|106>    H       -4.11950        24.62561        -3.58288
|107>    H       -4.72129        25.65639        -4.88389
|108>    H       -3.54492        26.28889        -3.72488
|109>    H       -1.46031        27.23448        -4.65636
|110>    H        1.02777        27.28033        -2.86521
|111>    H        0.17215        28.72004        -3.62431
|112> *
|113>
|114>                          ****END OF INPUT****

CARTESIAN COORDINATES (ANGSTROEM)
---------------------------------
  C     -6.519790   -1.893510   -3.412740
  N     -5.807080   -1.575600   -2.299390
  C     -5.524380   -2.460090   -1.196590
  C     -4.460160   -3.491730   -1.560130
  C     -5.310820   -0.256110   -2.365610
  O     -4.641620    0.254180   -1.484900
  C     -5.791030    0.234980   -3.632050
  C     -6.537470   -0.815610   -4.253610
  C     -7.026220   -0.322350   -5.526220
  O     -7.685760   -0.832930   -6.402380
  N     -6.542670    1.000960   -5.587050
  C     -6.852580    1.857150   -6.705730
  C     -7.993260    2.821490   -6.388960
  C     -5.815710    1.343420   -4.468740
  C     -5.228390    2.616810   -4.269650
  C     -4.492910    2.917800   -3.167260
  C     -3.919410    4.181890   -2.928470
  S     -4.149150    5.570890   -3.979430
  C     -3.182170    6.631440   -2.981450
  C     -2.709870    5.908640   -1.898800
  C     -3.119770    4.564070   -1.866800
  S     -2.475060    3.778150   -0.457310
  C     -1.688520    5.309930    0.010390
  S     -0.779900    5.526240    1.331720
  O     -1.929530    6.294140   -0.864110
  C     -3.008320    7.992970   -3.318400
  C     -2.244680    8.858230   -2.601710
  C     -2.107370   10.229280   -2.911700
  S     -1.054110   11.259570   -1.965900
  C     -1.440410   12.696290   -2.882400
  C     -2.348010   12.353380   -3.871390
  C     -2.711140   10.995420   -3.893260
  S     -3.846140   10.716410   -5.184290
  C     -3.761370   12.445590   -5.617910
  S     -4.580020   13.137440   -6.829200
  O     -2.932650   13.122200   -4.819500
  C     -0.861190   13.948160   -2.571170
  C     -1.195370   15.109710   -3.191140
  C     -0.616300   16.362720   -2.891970
  S     -1.199700   17.822170   -3.663120
  C     -0.064000   18.855680   -2.831670
  C      0.721790   18.065720   -2.005220
  C      0.415080   16.695460   -2.029890
  S      1.470590   15.841420   -0.938080
  C      2.260050   17.383170   -0.513290
  S      3.478140   17.548590    0.539150
  O      1.729220   18.416300   -1.171740
  C     -0.053110   20.254910   -3.026530
  C      0.857240   21.081960   -2.445050
  C      0.829140   22.486410   -2.616970
  N      1.756090   23.340910   -2.063790
  C      2.870620   22.974250   -1.223290
  C      2.437380   22.684980    0.211710
  C      1.486570   24.685460   -2.372120
  O      2.175490   25.609870   -1.989710
  C      0.293460   24.632690   -3.188770
  C     -0.080830   23.267850   -3.323660
  C     -1.273110   23.213390   -4.133330
  O     -1.954680   22.284890   -4.526810
  N     -1.545810   24.559060   -4.440970
  C     -2.720900   24.922020   -5.194730
  C     -3.848180   25.408330   -4.286930
  C     -0.624450   25.411000   -3.880610
  C     -0.664640   26.835550   -4.042830
  C      0.226210   27.654900   -3.479370
  H     -6.971550   -2.861880   -3.522950
  H     -6.449030   -2.958270   -0.889990
  H     -5.168330   -1.828560   -0.378250
  H     -4.792170   -4.110910   -2.390620
  H     -4.260190   -4.131820   -0.705550
  H     -3.537360   -2.992440   -1.845160
  H     -7.153320    1.191200   -7.519600
  H     -5.954280    2.402320   -7.009330
  H     -8.890100    2.262400   -6.134280
  H     -8.203810    3.439230   -7.257430
  H     -7.738890    3.468440   -5.552260
  H     -5.372900    3.376230   -5.025910
  H     -4.322010    2.167320   -2.404720
  H     -3.533950    8.332080   -4.199930
  H     -1.703470    8.508930   -1.734880
  H     -0.122610   13.943810   -1.782220
  H     -1.954590   15.110910   -3.959180
  H     -0.823120   20.660870   -3.668970
  H      1.635700   20.664860   -1.824060
  H      3.550050   23.831270   -1.233840
  H      3.385290   22.111070   -1.654530
  H      1.967610   23.565680    0.642750
  H      3.305380   22.424130    0.810590
  H      1.728870   21.860640    0.249090
  H     -3.036740   24.013310   -5.715050
  H     -2.462780   25.681210   -5.937970
  H     -4.119500   24.625610   -3.582880
  H     -4.721290   25.656390   -4.883890
  H     -3.544920   26.288890   -3.724880
  H     -1.460310   27.234480   -4.656360
  H      1.027770   27.280330   -2.865210
  H      0.172150   28.720040   -3.624310

 Total Charge           Charge          ....    0
 Multiplicity           Mult            ....    1
 Number of Electrons    NEL             ....  530
 Basis Dimension        Dim             .... 1106

ORBITAL ENERGIES
----------------

  NO   OCC          E(Eh)            E(eV)
   0   2.0000     -88.988152     -2421.4907
   1   2.0000     -88.985431     -2421.4167
   2   2.0000     -88.983208     -2421.3562
   3   2.0000     -88.982360     -2421.3331
   4   2.0000     -88.981590     -2421.3122
   5   2.0000     -88.977254     -2421.1942
   6   2.0000     -88.901779     -2419.1404
   7   2.0000     -88.899701     -2419.0839
   8   2.0000     -88.898453     -2419.0499
   9   2.0000     -19.326309      -525.8956
  10   2.0000     -19.323731      -525.8255
  11   2.0000     -19.323509      -525.8194
  12   2.0000     -19.190151      -522.1906
  13   2.0000     -19.186441      -522.0896
  14   2.0000     -19.185889      -522.0746
  15   2.0000     -19.182671      -521.9870
  16   2.0000     -14.453122      -393.2894
  17   2.0000     -14.451060      -393.2333
  18   2.0000     -14.448488      -393.1634
  19   2.0000     -14.445846      -393.0914
  20   2.0000     -10.420174      -283.5473
  21   2.0000     -10.417808      -283.4830
  22   2.0000     -10.416559      -283.4490
  23   2.0000     -10.372270      -282.2438
  24   2.0000     -10.371519      -282.2234
  25   2.0000     -10.367860      -282.1238
  26   2.0000     -10.367738      -282.1205
  27   2.0000     -10.366631      -282.0904
  28   2.0000     -10.366228      -282.0794
  29   2.0000     -10.364644      -282.0363
  30   2.0000     -10.342533      -281.4346
  31   2.0000     -10.336265      -281.2641
  32   2.0000     -10.333731      -281.1951
  33   2.0000     -10.333224      -281.1813
  34   2.0000     -10.332764      -281.1688
  35   2.0000     -10.332060      -281.1496
  36   2.0000     -10.331762      -281.1415
  37   2.0000     -10.330986      -281.1204
  38   2.0000     -10.330785      -281.1149
  39   2.0000     -10.330542      -281.1083
  40   2.0000     -10.327714      -281.0314
  41   2.0000     -10.327639      -281.0293
  42   2.0000     -10.325514      -280.9715
  43   2.0000     -10.310331      -280.5584
  44   2.0000     -10.308868      -280.5186
  45   2.0000     -10.308791      -280.5165
  46   2.0000     -10.308683      -280.5135
  47   2.0000     -10.308573      -280.5105
  48   2.0000     -10.305361      -280.4231
  49   2.0000     -10.305155      -280.4175
  50   2.0000     -10.304912      -280.4109
  51   2.0000     -10.300909      -280.3020
  52   2.0000     -10.296738      -280.1885
  53   2.0000     -10.296383      -280.1788
  54   2.0000     -10.287422      -279.9350
  55   2.0000     -10.282639      -279.8048
  56   2.0000     -10.273503      -279.5562
  57   2.0000     -10.265186      -279.3299
  58   2.0000     -10.264999      -279.3248
  59   2.0000     -10.261204      -279.2215
  60   2.0000     -10.258595      -279.1506
  61   2.0000     -10.257532      -279.1216
  62   2.0000     -10.255952      -279.0786
  63   2.0000     -10.253386      -279.0088
  64   2.0000     -10.252104      -278.9739
  65   2.0000      -8.083522      -219.9638
  66   2.0000      -8.080780      -219.8892
  67   2.0000      -8.078871      -219.8372
  68   2.0000      -8.077511      -219.8002
  69   2.0000      -8.076487      -219.7724
  70   2.0000      -8.072282      -219.6580
  71   2.0000      -7.999549      -217.6788
  72   2.0000      -7.997311      -217.6179
  73   2.0000      -7.996194      -217.5875
  74   2.0000      -6.053548      -164.7254
  75   2.0000      -6.050766      -164.6497
  76   2.0000      -6.049246      -164.6084
  77   2.0000      -6.048802      -164.5963
  78   2.0000      -6.046949      -164.5458
  79   2.0000      -6.046515      -164.5340
  80   2.0000      -6.045918      -164.5178
  81   2.0000      -6.044587      -164.4816
  82   2.0000      -6.044076      -164.4677
  83   2.0000      -6.042998      -164.4383
  84   2.0000      -6.042082      -164.4134
  85   2.0000      -6.041691      -164.4028
  86   2.0000      -6.041372      -164.3941
  87   2.0000      -6.039376      -164.3398
  88   2.0000      -6.039136      -164.3333
  89   2.0000      -6.038085      -164.3047
  90   2.0000      -6.037690      -164.2939
  91   2.0000      -6.033999      -164.1935
  92   2.0000      -5.969117      -162.4279
  93   2.0000      -5.966878      -162.3670
  94   2.0000      -5.966197      -162.3485
  95   2.0000      -5.965758      -162.3365
  96   2.0000      -5.963988      -162.2884
  97   2.0000      -5.962838      -162.2571
  98   2.0000      -5.959536      -162.1672
  99   2.0000      -5.957345      -162.1076
 100   2.0000      -5.956203      -162.0765
 101   2.0000      -1.248578       -33.9755
 102   2.0000      -1.245834       -33.9009
 103   2.0000      -1.245628       -33.8953
 104   2.0000      -1.130969       -30.7752
 105   2.0000      -1.127286       -30.6750
 106   2.0000      -1.124331       -30.5946
 107   2.0000      -1.120312       -30.4852
 108   2.0000      -1.061867       -28.8949
 109   2.0000      -1.057298       -28.7705
 110   2.0000      -1.053459       -28.6661
 111   2.0000      -1.048930       -28.5428
 112   2.0000      -1.019354       -27.7380
 113   2.0000      -1.016226       -27.6529
 114   2.0000      -1.012789       -27.5594
 115   2.0000      -0.957421       -26.0528
 116   2.0000      -0.951808       -25.9000
 117   2.0000      -0.949472       -25.8364
 118   2.0000      -0.929442       -25.2914
 119   2.0000      -0.924492       -25.1567
 120   2.0000      -0.922302       -25.0971
 121   2.0000      -0.919375       -25.0175
 122   2.0000      -0.912167       -24.8213
 123   2.0000      -0.904245       -24.6057
 124   2.0000      -0.898583       -24.4517
 125   2.0000      -0.894300       -24.3351
 126   2.0000      -0.889077       -24.1930
 127   2.0000      -0.885032       -24.0829
 128   2.0000      -0.873981       -23.7822
 129   2.0000      -0.865520       -23.5520
 130   2.0000      -0.859742       -23.3948
 131   2.0000      -0.841847       -22.9078
 132   2.0000      -0.820906       -22.3380
 133   2.0000      -0.820007       -22.3135
 134   2.0000      -0.814647       -22.1677
 135   2.0000      -0.808259       -21.9939
 136   2.0000      -0.807261       -21.9667
 137   2.0000      -0.806190       -21.9375
 138   2.0000      -0.800186       -21.7742
 139   2.0000      -0.786929       -21.4134
 140   2.0000      -0.777147       -21.1472
 141   2.0000      -0.766371       -20.8540
 142   2.0000      -0.761056       -20.7094
 143   2.0000      -0.755171       -20.5492
 144   2.0000      -0.753522       -20.5044
 145   2.0000      -0.750302       -20.4168
 146   2.0000      -0.727795       -19.8043
 147   2.0000      -0.724104       -19.7039
 148   2.0000      -0.710587       -19.3361
 149   2.0000      -0.709756       -19.3134
 150   2.0000      -0.704113       -19.1599
 151   2.0000      -0.698874       -19.0173
 152   2.0000      -0.694522       -18.8989
 153   2.0000      -0.688998       -18.7486
 154   2.0000      -0.685272       -18.6472
 155   2.0000      -0.676653       -18.4127
 156   2.0000      -0.666632       -18.1400
 157   2.0000      -0.660402       -17.9704
 158   2.0000      -0.651491       -17.7280
 159   2.0000      -0.650677       -17.7058
 160   2.0000      -0.648399       -17.6438
 161   2.0000      -0.642590       -17.4858
 162   2.0000      -0.634744       -17.2723
 163   2.0000      -0.620317       -16.8797
 164   2.0000      -0.611278       -16.6337
 165   2.0000      -0.608469       -16.5573
 166   2.0000      -0.598366       -16.2824
 167   2.0000      -0.597402       -16.2561
 168   2.0000      -0.594914       -16.1884
 169   2.0000      -0.592673       -16.1275
 170   2.0000      -0.591980       -16.1086
 171   2.0000      -0.591605       -16.0984
 172   2.0000      -0.588481       -16.0134
 173   2.0000      -0.583010       -15.8645
 174   2.0000      -0.580755       -15.8032
 175   2.0000      -0.578718       -15.7477
 176   2.0000      -0.576454       -15.6861
 177   2.0000      -0.572895       -15.5893
 178   2.0000      -0.571445       -15.5498
 179   2.0000      -0.564480       -15.3603
 180   2.0000      -0.563334       -15.3291
 181   2.0000      -0.548015       -14.9122
 182   2.0000      -0.543222       -14.7818
 183   2.0000      -0.542732       -14.7685
 184   2.0000      -0.537946       -14.6382
 185   2.0000      -0.530861       -14.4454
 186   2.0000      -0.528364       -14.3775
 187   2.0000      -0.526659       -14.3311
 188   2.0000      -0.524633       -14.2760
 189   2.0000      -0.523426       -14.2431
 190   2.0000      -0.518368       -14.1055
 191   2.0000      -0.514737       -14.0067
 192   2.0000      -0.511911       -13.9298
 193   2.0000      -0.509907       -13.8753
 194   2.0000      -0.509680       -13.8691
 195   2.0000      -0.507991       -13.8232
 196   2.0000      -0.505744       -13.7620
 197   2.0000      -0.505192       -13.7470
 198   2.0000      -0.503291       -13.6952
 199   2.0000      -0.500690       -13.6245
 200   2.0000      -0.499369       -13.5885
 201   2.0000      -0.495517       -13.4837
 202   2.0000      -0.494807       -13.4644
 203   2.0000      -0.493846       -13.4382
 204   2.0000      -0.491783       -13.3821
 205   2.0000      -0.490703       -13.3527
 206   2.0000      -0.484490       -13.1837
 207   2.0000      -0.479453       -13.0466
 208   2.0000      -0.475073       -12.9274
 209   2.0000      -0.471001       -12.8166
 210   2.0000      -0.469113       -12.7652
 211   2.0000      -0.466524       -12.6948
 212   2.0000      -0.466153       -12.6847
 213   2.0000      -0.462856       -12.5949
 214   2.0000      -0.460655       -12.5351
 215   2.0000      -0.457763       -12.4564
 216   2.0000      -0.456854       -12.4316
 217   2.0000      -0.456114       -12.4115
 218   2.0000      -0.454546       -12.3688
 219   2.0000      -0.453191       -12.3320
 220   2.0000      -0.451220       -12.2783
 221   2.0000      -0.450202       -12.2506
 222   2.0000      -0.446456       -12.1487
 223   2.0000      -0.446038       -12.1373
 224   2.0000      -0.445236       -12.1155
 225   2.0000      -0.444090       -12.0843
 226   2.0000      -0.438445       -11.9307
 227   2.0000      -0.438259       -11.9256
 228   2.0000      -0.436721       -11.8838
 229   2.0000      -0.435730       -11.8568
 230   2.0000      -0.433123       -11.7859
 231   2.0000      -0.432782       -11.7766
 232   2.0000      -0.431482       -11.7412
 233   2.0000      -0.430605       -11.7173
 234   2.0000      -0.430165       -11.7054
 235   2.0000      -0.424100       -11.5403
 236   2.0000      -0.423305       -11.5187
 237   2.0000      -0.419631       -11.4187
 238   2.0000      -0.412673       -11.2294
 239   2.0000      -0.406113       -11.0509
 240   2.0000      -0.404246       -11.0001
 241   2.0000      -0.396871       -10.7994
 242   2.0000      -0.378499       -10.2995
 243   2.0000      -0.376372       -10.2416
 244   2.0000      -0.373265       -10.1571
 245   2.0000      -0.369351       -10.0506
 246   2.0000      -0.354628        -9.6499
 247   2.0000      -0.345907        -9.4126
 248   2.0000      -0.344308        -9.3691
 249   2.0000      -0.341776        -9.3002
 250   2.0000      -0.329241        -8.9591
 251   2.0000      -0.325516        -8.8578
 252   2.0000      -0.323618        -8.8061
 253   2.0000      -0.312918        -8.5149
 254   2.0000      -0.308470        -8.3939
 255   2.0000      -0.307902        -8.3784
 256   2.0000      -0.305840        -8.3223
 257   2.0000      -0.304684        -8.2909
 258   2.0000      -0.300274        -8.1709
 259   2.0000      -0.293951        -7.9988
 260   2.0000      -0.293229        -7.9792
 261   2.0000      -0.288401        -7.8478
 262   2.0000      -0.261928        -7.1274
 263   2.0000      -0.241768        -6.5788
 264   2.0000      -0.228837        -6.2270
 265   0.0000      -0.099325        -2.7028
 266   0.0000      -0.079768        -2.1706
 267   0.0000      -0.054235        -1.4758
 268   0.0000      -0.033199        -0.9034
 269   0.0000      -0.026467        -0.7202

MULLIKEN ATOMIC CHARGES
-----------------------
   0 C :    0.038000
   1 N :   -0.258046
   2 C :    0.114263
   3 C :   -0.000580
   4 C :    0.174853
   5 O :   -0.223495
   6 C :   -0.110526
   7 C :    0.006673
   8 C :    0.161984
   9 O :   -0.184692
  10 N :   -0.272421
  11 C :    0.101198
  12 C :    0.005134
  13 C :    0.168029
  14 C :   -0.050454
  15 C :    0.030421
  16 C :   -0.169238
  17 S :    0.141184
  18 C :   -0.164168
  19 C :    0.213144
  20 C :   -0.002124
  21 S :    0.192140
  22 C :    0.048166
  23 S :   -0.125888
  24 O :   -0.159594
  25 C :    0.045063
  26 C :    0.057368
  27 C :   -0.198184
  28 S :    0.174061
  29 C :   -0.170002
  30 C :    0.203127
  31 C :   -0.012708
  32 S :    0.145698
  33 C :    0.062291
  34 S :   -0.122382
  35 O :   -0.156602
  36 C :    0.047426
  37 C :    0.052645
  38 C :   -0.198292
  39 S :    0.193557
  40 C :   -0.177234
  41 C :    0.205037
  42 C :   -0.011059
  43 S :    0.148453
  44 C :    0.061799
  45 S :   -0.127486
  46 O :   -0.156489
  47 C :    0.076622
  48 C :   -0.045302
  49 C :    0.137947
  50 N :   -0.261349
  51 C :    0.097429
  52 C :    0.006536
  53 C :    0.160002
  54 O :   -0.208632
  55 C :   -0.059036
  56 C :   -0.069103
  57 C :    0.160548
  58 O :   -0.217551
  59 N :   -0.258577
  60 C :    0.100686
  61 C :    0.004257
  62 C :    0.103759
  63 C :   -0.036251
  64 C :    0.010383
  65 H :    0.014124
  66 H :    0.018619
  67 H :    0.041359
  68 H :    0.015011
  69 H :    0.023304
  70 H :    0.029093
  71 H :    0.043036
  72 H :    0.020950
  73 H :    0.030259
  74 H :    0.022529
  75 H :    0.012685
  76 H :   -0.020007
  77 H :    0.016905
  78 H :   -0.025281
  79 H :    0.006739
  80 H :   -0.024250
  81 H :    0.006413
  82 H :   -0.000557
  83 H :   -0.005949
  84 H :    0.042025
  85 H :    0.026207
  86 H :    0.025843
  87 H :    0.025567
  88 H :    0.017099
  89 H :    0.041369
  90 H :    0.023526
  91 H :    0.028899
  92 H :    0.021056
  93 H :    0.015973
  94 H :   -0.020576
  95 H :    0.056572
  96 H :    0.029042
Sum of atomic charges:   -0.0000000

LOEWDIN ATOMIC CHARGES
----------------------
   0 C :    0.086482
   1 N :    0.001783
   2 C :    0.038689
   3 C :   -0.060002
   4 C :    0.075775
   5 O :   -0.212288
   6 C :   -0.133798
   7 C :   -0.127128
   8 C :    0.082503
   9 O :   -0.189221
  10 N :   -0.009904
  11 C :    0.035696
  12 C :   -0.061166
  13 C :    0.084144
  14 C :   -0.058469
  15 C :    0.013964
  16 C :   -0.190363
  17 S :    0.443812
  18 C :   -0.178527
  19 C :   -0.011112
  20 C :   -0.198937
  21 S :    0.414345
  22 C :   -0.237957
  23 S :    0.006282
  24 O :   -0.010148
  25 C :   -0.046776
  26 C :   -0.026653
  27 C :   -0.188205
  28 S :    0.462368
  29 C :   -0.187337
  30 C :   -0.007142
  31 C :   -0.209842
  32 S :    0.391178
  33 C :   -0.236696
  34 S :    0.009355
  35 O :   -0.005791
  36 C :   -0.043995
  37 C :   -0.030937
  38 C :   -0.184575
  39 S :    0.476812
  40 C :   -0.192013
  41 C :   -0.002195
  42 C :   -0.213334
  43 S :    0.391672
  44 C :   -0.237058
  45 S :    0.004406
  46 O :   -0.005298
  47 C :    0.004387
  48 C :   -0.044100
  49 C :    0.074350
  50 N :   -0.001010
  51 C :    0.036151
  52 C :   -0.060412
  53 C :    0.080930
  54 O :   -0.201158
  55 C :   -0.124600
  56 C :   -0.123948
  57 C :    0.078699
  58 O :   -0.207878
  59 N :    0.000991
  60 C :    0.036227
  61 C :   -0.061132
  62 C :    0.076927
  63 C :   -0.055053
  64 C :    0.021635
  65 H :    0.032247
  66 H :    0.024579
  67 H :    0.036088
  68 H :    0.022431
  69 H :    0.030429
  70 H :    0.031313
  71 H :    0.038021
  72 H :    0.021935
  73 H :    0.032774
  74 H :    0.030416
  75 H :    0.020521
  76 H :    0.022274
  77 H :    0.042002
  78 H :    0.019911
  79 H :    0.036661
  80 H :    0.020771
  81 H :    0.035871
  82 H :    0.038140
  83 H :    0.029695
  84 H :    0.037064
  85 H :    0.024522
  86 H :    0.030662
  87 H :    0.032000
  88 H :    0.022560
  89 H :    0.036784
  90 H :    0.022770
  91 H :    0.031918
  92 H :    0.029694
  93 H :    0.022406
  94 H :    0.028737
  95 H :    0.032611
  96 H :    0.028788

  Mayer bond orders larger than 0.100000
B(  0-C ,  1-N ) :   1.1872 B(  0-C ,  7-C ) :   1.4584 B(  0-C , 65-H ) :   0.9904
B(  1-N ,  2-C ) :   0.9420 B(  1-N ,  4-C ) :   1.0629 B(  2-C ,  3-C ) :   1.1183
B(  2-C , 66-H ) :   0.9540 B(  2-C , 67-H ) :   0.9345 B(  3-C , 68-H ) :   0.9695
B(  3-C , 69-H ) :   0.9688 B(  3-C , 70-H ) :   0.9673 B(  4-C ,  5-O ) :   1.9984
B(  4-C ,  6-C ) :   1.0121 B(  5-O , 77-H ) :   0.1225 B(  6-C ,  7-C ) :   1.2045
B(  6-C , 13-C ) :   1.3692 B(  7-C ,  8-C ) :   0.9483 B(  8-C ,  9-O ) :   2.1781
B(  8-C , 10-N ) :   1.0157 B( 10-N , 11-C ) :   0.9485 B( 10-N , 13-C ) :   1.1550
B( 11-C , 12-C ) :   1.1192 B( 11-C , 71-H ) :   0.9277 B( 11-C , 72-H ) :   0.9504
B( 12-C , 73-H ) :   0.9639 B( 12-C , 74-H ) :   0.9679 B( 12-C , 75-H ) :   0.9687
B( 13-C , 14-C ) :   1.1699 B( 14-C , 15-C ) :   1.5821 B( 14-C , 76-H ) :   0.9635
B( 15-C , 16-C ) :   1.1920 B( 15-C , 77-H ) :   0.9454 B( 16-C , 17-S ) :   1.0853
B( 16-C , 18-C ) :   0.1033 B( 16-C , 20-C ) :   1.5075 B( 17-S , 18-C ) :   1.1071
B( 18-C , 19-C ) :   1.4822 B( 18-C , 25-C ) :   1.1649 B( 19-C , 20-C ) :   1.2663
B( 19-C , 24-O ) :   1.0766 B( 20-C , 21-S ) :   1.0059 B( 21-S , 22-C ) :   1.0531
B( 21-S , 23-S ) :   0.1206 B( 22-C , 23-S ) :   1.7789 B( 22-C , 24-O ) :   1.0737
B( 25-C , 26-C ) :   1.6424 B( 25-C , 78-H ) :   0.9476 B( 26-C , 27-C ) :   1.1647
B( 26-C , 79-H ) :   0.9579 B( 27-C , 28-S ) :   1.1132 B( 27-C , 29-C ) :   0.1019
B( 27-C , 31-C ) :   1.5138 B( 28-S , 29-C ) :   1.1045 B( 29-C , 30-C ) :   1.4843
B( 29-C , 36-C ) :   1.1587 B( 30-C , 31-C ) :   1.2808 B( 30-C , 35-O ) :   1.0721
B( 31-C , 32-S ) :   1.0011 B( 32-S , 33-C ) :   1.0454 B( 32-S , 34-S ) :   0.1179
B( 33-C , 34-S ) :   1.7816 B( 33-C , 35-O ) :   1.0839 B( 36-C , 37-C ) :   1.6457
B( 36-C , 80-H ) :   0.9488 B( 37-C , 38-C ) :   1.1650 B( 37-C , 81-H ) :   0.9576
B( 38-C , 39-S ) :   1.1226 B( 38-C , 40-C ) :   0.1023 B( 38-C , 42-C ) :   1.5034
B( 39-S , 40-C ) :   1.1095 B( 40-C , 41-C ) :   1.4618 B( 40-C , 47-C ) :   1.1468
B( 41-C , 42-C ) :   1.2905 B( 41-C , 46-O ) :   1.0753 B( 42-C , 43-S ) :   0.9984
B( 43-S , 44-C ) :   1.0501 B( 43-S , 45-S ) :   0.1193 B( 44-C , 45-S ) :   1.7758
B( 44-C , 46-O ) :   1.0825 B( 47-C , 48-C ) :   1.5944 B( 47-C , 82-H ) :   0.9357
B( 48-C , 49-C ) :   1.1663 B( 48-C , 83-H ) :   0.9593 B( 49-C , 50-N ) :   1.1569
B( 49-C , 56-C ) :   1.3438 B( 50-N , 51-C ) :   0.9438 B( 50-N , 53-C ) :   1.0574
B( 51-C , 52-C ) :   1.1228 B( 51-C , 84-H ) :   0.9279 B( 51-C , 85-H ) :   0.9497
B( 52-C , 86-H ) :   0.9631 B( 52-C , 87-H ) :   0.9673 B( 52-C , 88-H ) :   0.9678
B( 53-C , 54-O ) :   2.0478 B( 53-C , 55-C ) :   0.9805 B( 55-C , 56-C ) :   1.2392
B( 55-C , 62-C ) :   1.3750 B( 56-C , 57-C ) :   0.9964 B( 57-C , 58-O ) :   2.0140
B( 57-C , 59-N ) :   1.0599 B( 58-O , 82-H ) :   0.1148 B( 59-N , 60-C ) :   0.9488
B( 59-N , 62-C ) :   1.1652 B( 60-C , 61-C ) :   1.1192 B( 60-C , 89-H ) :   0.9283
B( 60-C , 90-H ) :   0.9506 B( 61-C , 91-H ) :   0.9640 B( 61-C , 92-H ) :   0.9681
B( 61-C , 93-H ) :   0.9688 B( 62-C , 63-C ) :   1.1266 B( 63-C , 64-C ) :   1.8874
B( 63-C , 94-H ) :   0.9530 B( 64-C , 95-H ) :   0.9268 B( 64-C , 96-H ) :   0.9450

-----------------------------------------------------------------------------
         ABSORPTION SPECTRUM VIA TRANSITION ELECTRIC DIPOLE MOMENTS
-----------------------------------------------------------------------------
State   Energy  Wavelength   fosc         T2         TX        TY        TZ
        (cm-1)    (nm)                  (au**2)     (au)      (au)      (au)
-----------------------------------------------------------------------------
   0   15351.3    651.4   2.244694195  48.13793  -0.96794  -6.85515   0.45599
   1   17717.4    564.4   0.305890344   5.68383   1.47729   1.85079   0.27572
   2   21074.6    474.5   0.243203328   3.79914  -1.23079  -1.32629  -0.72473
   3   22064.6    453.2   0.262365130   3.91458   0.44954   1.91767   0.18712
   4   24383.9    410.1   0.083218227   1.12355  -0.54966   0.61590  -0.66490
   5   26069.0    383.6   0.016183428   0.20437   0.27020  -0.12672   0.33957
   6   27051.0    369.7   0.015376059   0.18713  -0.23963  -0.20720   0.29457
   7   27179.1    367.9   0.419090548   5.07632  -1.46929  -0.63944  -1.58386
   8   27753.7    360.3   0.009626399   0.11419  -0.04944   0.32530  -0.07695
   9   27882.6    358.6   0.036889156   0.43555   0.20051  -0.30340   0.55073
  10   28258.3    353.9   0.004312158   0.05024   0.09236  -0.00458   0.20417
  11   28278.1    353.6   0.125209897   1.45769   0.51911  -0.91882   0.58649
  12   28740.7    347.9   0.033464395   0.38332   0.35888  -0.08260   0.49769
  13   29078.1    343.9   0.000059074   0.00067  -0.02568  -0.00279   0.00115
  14   29542.9    338.5   0.065061576   0.72502  -0.54080   0.28551  -0.59248
  15   30030.7    333.0   0.000863188   0.00946  -0.07399   0.04347  -0.04582
  16   30111.1    332.1   0.000911193   0.00996   0.09084  -0.04020  -0.00977
  17   30255.4    330.5   0.000084169   0.00092   0.00190  -0.01367   0.02693
  18   30622.7    326.6   0.016047620   0.17252  -0.18691  -0.33535  -0.15852
  19   30729.1    325.4   0.019076019   0.20437   0.31527   0.29221   0.13995
  20   31021.2    322.4   0.002183787   0.02318  -0.08811  -0.11748   0.04015
  21   32112.0    311.4   0.030274836   0.31038  -0.30990  -0.23114  -0.40114
  22   32399.0    308.7   0.155241532   1.57744  -0.54699  -1.01363  -0.50080
  23   32799.4    304.9   0.080353312   0.80652   0.54051   0.06294   0.71443
  24   33873.2    295.2   0.021940599   0.21324  -0.20648  -0.40814  -0.06348
  25   34095.5    293.3   0.000292621   0.00283   0.03067  -0.01308   0.04139
  26   34362.7    291.0   0.019359962   0.18548  -0.11398   0.17578  -0.37628
  27   34573.6    289.2   0.024846673   0.23659  -0.31362  -0.28120  -0.24323
  28   34845.0    287.0   0.181106503   1.71108   0.55393  -0.55496   1.04702
  29   35052.3    285.3   0.014514420   0.13632   0.29071   0.15681   0.16497
  30   36060.5    277.3   0.128670474   1.17469  -0.60879  -0.04585  -0.89552
  31   36163.5    276.5   0.040303749   0.36690  -0.35590  -0.23757  -0.42872
  32   37148.9    269.2   0.000802265   0.00711   0.01738   0.07469   0.03505
  33   37332.1    267.9   0.096662347   0.85241  -0.44934  -0.67734  -0.43785
  34   37382.3    267.5   0.003100598   0.02731   0.08199   0.03989   0.13782
  35   37456.6    267.0   0.146061099   1.28375   0.60159  -0.19645   0.93981
  36   37740.1    265.0   0.000063840   0.00056  -0.01023  -0.02121   0.00152
  37   37828.1    264.4   0.004858668   0.04228   0.08886   0.05333   0.17761
  38   38083.1    262.6   0.000048956   0.00042   0.01941   0.00445   0.00514
  39   38290.7    261.2   0.127945471   1.10004  -0.54489   0.13519  -0.88592
  40   38485.3    259.8   0.001744892   0.01493   0.10905   0.00111   0.05508
  41   38760.6    258.0   0.000191071   0.00162  -0.01765  -0.00622   0.03567
  42   38933.4    256.8   0.012409483   0.10493   0.15733  -0.26709   0.09403
  43   39642.4    252.3   0.016546945   0.13741  -0.15776  -0.17985  -0.28316
  44   39812.9    251.2   0.000284876   0.00236   0.04507  -0.00137  -0.01796
  45   39922.8    250.5   0.100529864   0.82899   0.43938  -0.40588   0.68644
  46   40047.8    249.7   0.005004236   0.04114  -0.04300   0.17286   0.09699
  47   40318.0    248.0   0.012058502   0.09846  -0.01673   0.27010  -0.15883

FINAL SINGLE POINT ENERGY     -6059.183572363396

DIPOLE MOMENT
-------------
                                X             Y             Z
Electronic contribution:     20.01801     -24.75829       9.30607
Nuclear contribution   :    -20.97776      24.04721      -9.79332
                        -----------------------------------------
Total Dipole Moment    :     -0.95975      -0.71108      -0.48724
                        -----------------------------------------
Magnitude (a.u.)       :      1.29003
Magnitude (Debye)      :      3.27899

Rotational constants in cm-1:     0.002280     0.000194     0.000181
Rotational constants in MHz :    68.350847     5.828215     5.413438

                             ****ORCA TERMINATED NORMALLY****
TOTAL RUN TIME: 0 days 0 hours 7 minutes 32 seconds 726 msec
