                         Program Version 4.2.0 -  RELEASE  -
|  1> # ORCA input file
|  2> # SCF done       -171.929713359914          0.000749056275
|  3> ! CAM-B3LYP def2-SVP def2/J RIJCOSX Grid4 TightSCF
|  4> %maxcore 5000
|  5> %tddft
|  6>     Mode sTDDFT
|  7>     Ethresh 5.0
|  8>     maxcore 5000
|  9> end
| 10>
| 11> %pal
| 12>   nprocs 6
| 13>   end
| 14> * xyz 0 1
| 15>    C        1.21425        -0.91098        -0.43238
| 16>    N        1.95583         0.22915        -0.46459
| 17>    C        3.37239         0.31058        -0.71768
| 18>    C        3.69209         0.12133        -2.19815
| 19>    C        1.15079         1.37104        -0.26914
| 20>    O        1.59436         2.50702        -0.25615
| 21>    C       -0.17717         0.83970        -0.10045
| 22>    C       -0.09408        -0.58417        -0.20913
| 23>    C       -1.42974        -1.12344        -0.02977
| 24>    O       -1.85903        -2.25478        -0.04567
| 25>    N       -2.23264         0.01501         0.17709
| 26>    C       -3.64581        -0.10426         0.44783
| 27>    C       -3.95576         0.03114         1.93599
| 28>    C       -1.50388         1.18136         0.14225
| 29>    C       -2.07366         2.46572         0.32477
| 30>    C       -1.32379         3.60014         0.27317
| 31>    C       -1.87811         4.88477         0.47949
| 32>    N       -1.14821         6.04834         0.40532
| 33>    C        0.23689         6.16550         0.01414
| 34>    C        0.40530         6.05311        -1.49857
| 35>    C       -1.93088         7.17982         0.67514
| 36>    O       -1.49946         8.31672         0.66882
| 37>    C       -3.25080         6.64928         0.94544
| 38>    C       -3.18548         5.23875         0.81461
| 39>    C       -4.49604         4.70503         1.09679
| 40>    O       -4.93112         3.56723         1.11231
| 41>    N       -5.27653         5.83425         1.39002
| 42>    C       -6.68270         5.70964         1.68451
| 43>    C       -7.55147         6.04204         0.47340
| 44>    C       -4.55031         7.00252         1.29810
| 45>    C       -5.09912         8.28934         1.54191
| 46>    C       -4.36503         9.42151         1.42998
| 47>    C       -4.83667        10.76293         1.64271
| 48>    C       -3.93231        11.82030         1.51018
| 49>    C       -4.31781        13.13340         1.71150
| 50>    N       -3.27444        14.12001         1.56165
| 51>    O       -2.42122        13.89257         0.73175
| 52>    O       -3.29320        15.10140         2.27549
| 53>    C       -5.65401        13.47494         2.01441
| 54>    C       -6.54871        12.39890         2.14064
| 55>    C       -6.16061        11.09301         1.97513
| 56>    C       -6.09733        14.83951         2.14527
| 57>    C       -7.37885        15.25400         2.06613
| 58>    C       -7.78311        16.61446         2.18296
| 59>    S       -6.65398        17.90561         2.50710
| 60>    C       -7.91246        19.09829         2.46597
| 61>    C       -9.15435        18.50468         2.23736
| 62>    C       -9.05854        17.10908         2.06536
| 63>    C      -10.44673        19.17261         2.30889
| 64>    O      -11.48266        18.71434         1.89293
| 65>    C       -7.55628        20.46889         2.61336
| 66>    C       -8.26120        21.51278         2.12234
| 67>    C       -7.90505        22.88192         2.30376
| 68>    S       -8.86717        24.12146         1.53542
| 69>    C       -7.89401        25.38469         2.20289
| 70>    C       -6.85959        24.85906         2.96778
| 71>    C       -6.88589        23.44885         3.02616
| 72>    C       -5.77141        25.62939         3.56049
| 73>    O       -5.01240        25.21291         4.39945
| 74>    C       -8.26092        26.75495         1.95848
| 75>    C       -8.04648        27.76633         2.79683
| 76>    H        1.67347        -1.87339        -0.56195
| 77>    H        3.88836        -0.44401        -0.11659
| 78>    H        3.68766         1.30585        -0.39271
| 79>    H        3.36108        -0.85651        -2.54081
| 80>    H        4.76344         0.20347        -2.35805
| 81>    H        3.19176         0.88474        -2.78880
| 82>    H       -3.93455        -1.10013         0.09999
| 83>    H       -4.19498         0.64818        -0.12345
| 84>    H       -3.39781        -0.70967         2.50398
| 85>    H       -5.01739        -0.12779         2.10104
| 86>    H       -3.69673         1.02319         2.29674
| 87>    H       -3.13537         2.53472         0.51210
| 88>    H       -0.26329         3.52814         0.07905
| 89>    H        0.82885         5.39899         0.51959
| 90>    H        0.56447         7.15293         0.35065
| 91>    H        0.07345         5.07950        -1.85103
| 92>    H        1.45250         6.17616        -1.75833
| 93>    H       -0.17332         6.82586        -1.99951
| 94>    H       -6.93790         6.34726         2.53580
| 95>    H       -6.83893         4.66544         1.96994
| 96>    H       -7.37316         7.05895         0.13084
| 97>    H       -8.60153         5.93700         0.73232
| 98>    H       -7.32473         5.35989        -0.34200
| 99>    H       -6.14038         8.33151         1.82578
|100>    H       -3.32344         9.33334         1.15051
|101>    H       -2.90266        11.61432         1.25481
|102>    H       -7.57451        12.60791         2.39947
|103>    H       -6.89468        10.31259         2.10132
|104>    H       -5.33408        15.59051         2.29540
|105>    H       -8.18736        14.56053         1.87800
|106>    H       -9.92384        16.49695         1.88255
|107>    H      -10.42526        20.14675         2.83463
|108>    H       -6.61655        20.65415         3.11516
|109>    H       -9.14416        21.33302         1.52493
|110>    H       -6.15103        22.89428         3.58054
|111>    H       -5.66086        26.64828         3.14260
|112>    H       -8.79485        26.92762         1.03224
|113>    H       -7.59175        27.62665         3.76235
|114>    H       -8.34837        28.76819         2.54602
|115> *
|116>
|117>                          ****END OF INPUT****

CARTESIAN COORDINATES (ANGSTROEM)
---------------------------------
  C      1.214250   -0.910980   -0.432380
  N      1.955830    0.229150   -0.464590
  C      3.372390    0.310580   -0.717680
  C      3.692090    0.121330   -2.198150
  C      1.150790    1.371040   -0.269140
  O      1.594360    2.507020   -0.256150
  C     -0.177170    0.839700   -0.100450
  C     -0.094080   -0.584170   -0.209130
  C     -1.429740   -1.123440   -0.029770
  O     -1.859030   -2.254780   -0.045670
  N     -2.232640    0.015010    0.177090
  C     -3.645810   -0.104260    0.447830
  C     -3.955760    0.031140    1.935990
  C     -1.503880    1.181360    0.142250
  C     -2.073660    2.465720    0.324770
  C     -1.323790    3.600140    0.273170
  C     -1.878110    4.884770    0.479490
  N     -1.148210    6.048340    0.405320
  C      0.236890    6.165500    0.014140
  C      0.405300    6.053110   -1.498570
  C     -1.930880    7.179820    0.675140
  O     -1.499460    8.316720    0.668820
  C     -3.250800    6.649280    0.945440
  C     -3.185480    5.238750    0.814610
  C     -4.496040    4.705030    1.096790
  O     -4.931120    3.567230    1.112310
  N     -5.276530    5.834250    1.390020
  C     -6.682700    5.709640    1.684510
  C     -7.551470    6.042040    0.473400
  C     -4.550310    7.002520    1.298100
  C     -5.099120    8.289340    1.541910
  C     -4.365030    9.421510    1.429980
  C     -4.836670   10.762930    1.642710
  C     -3.932310   11.820300    1.510180
  C     -4.317810   13.133400    1.711500
  N     -3.274440   14.120010    1.561650
  O     -2.421220   13.892570    0.731750
  O     -3.293200   15.101400    2.275490
  C     -5.654010   13.474940    2.014410
  C     -6.548710   12.398900    2.140640
  C     -6.160610   11.093010    1.975130
  C     -6.097330   14.839510    2.145270
  C     -7.378850   15.254000    2.066130
  C     -7.783110   16.614460    2.182960
  S     -6.653980   17.905610    2.507100
  C     -7.912460   19.098290    2.465970
  C     -9.154350   18.504680    2.237360
  C     -9.058540   17.109080    2.065360
  C    -10.446730   19.172610    2.308890
  O    -11.482660   18.714340    1.892930
  C     -7.556280   20.468890    2.613360
  C     -8.261200   21.512780    2.122340
  C     -7.905050   22.881920    2.303760
  S     -8.867170   24.121460    1.535420
  C     -7.894010   25.384690    2.202890
  C     -6.859590   24.859060    2.967780
  C     -6.885890   23.448850    3.026160
  C     -5.771410   25.629390    3.560490
  O     -5.012400   25.212910    4.399450
  C     -8.260920   26.754950    1.958480
  C     -8.046480   27.766330    2.796830
  H      1.673470   -1.873390   -0.561950
  H      3.888360   -0.444010   -0.116590
  H      3.687660    1.305850   -0.392710
  H      3.361080   -0.856510   -2.540810
  H      4.763440    0.203470   -2.358050
  H      3.191760    0.884740   -2.788800
  H     -3.934550   -1.100130    0.099990
  H     -4.194980    0.648180   -0.123450
  H     -3.397810   -0.709670    2.503980
  H     -5.017390   -0.127790    2.101040
  H     -3.696730    1.023190    2.296740
  H     -3.135370    2.534720    0.512100
  H     -0.263290    3.528140    0.079050
  H      0.828850    5.398990    0.519590
  H      0.564470    7.152930    0.350650
  H      0.073450    5.079500   -1.851030
  H      1.452500    6.176160   -1.758330
  H     -0.173320    6.825860   -1.999510
  H     -6.937900    6.347260    2.535800
  H     -6.838930    4.665440    1.969940
  H     -7.373160    7.058950    0.130840
  H     -8.601530    5.937000    0.732320
  H     -7.324730    5.359890   -0.342000
  H     -6.140380    8.331510    1.825780
  H     -3.323440    9.333340    1.150510
  H     -2.902660   11.614320    1.254810
  H     -7.574510   12.607910    2.399470
  H     -6.894680   10.312590    2.101320
  H     -5.334080   15.590510    2.295400
  H     -8.187360   14.560530    1.878000
  H     -9.923840   16.496950    1.882550
  H    -10.425260   20.146750    2.834630
  H     -6.616550   20.654150    3.115160
  H     -9.144160   21.333020    1.524930
  H     -6.151030   22.894280    3.580540
  H     -5.660860   26.648280    3.142600
  H     -8.794850   26.927620    1.032240
  H     -7.591750   27.626650    3.762350
  H     -8.348370   28.768190    2.546020

 Total Charge           Charge          ....    0
 Multiplicity           Mult            ....    1
 Number of Electrons    NEL             ....  446
 Basis Dimension        Dim             .... 1057

ORBITAL ENERGIES
----------------

  NO   OCC          E(Eh)            E(eV)
   0   2.0000     -88.971741     -2421.0441
   1   2.0000     -88.967564     -2420.9305
   2   2.0000     -19.244202      -523.6613
   3   2.0000     -19.243604      -523.6451
   4   2.0000     -19.209817      -522.7257
   5   2.0000     -19.208383      -522.6867
   6   2.0000     -19.195813      -522.3446
   7   2.0000     -19.190470      -522.1992
   8   2.0000     -19.188543      -522.1468
   9   2.0000     -19.181578      -521.9573
  10   2.0000     -14.648796      -398.6140
  11   2.0000     -14.456243      -393.3744
  12   2.0000     -14.452231      -393.2652
  13   2.0000     -14.450369      -393.2145
  14   2.0000     -14.445774      -393.0895
  15   2.0000     -10.376984      -282.3721
  16   2.0000     -10.371727      -282.2290
  17   2.0000     -10.371199      -282.2147
  18   2.0000     -10.368062      -282.1293
  19   2.0000     -10.355673      -281.7922
  20   2.0000     -10.354988      -281.7736
  21   2.0000     -10.341024      -281.3936
  22   2.0000     -10.336859      -281.2802
  23   2.0000     -10.335318      -281.2383
  24   2.0000     -10.332867      -281.1716
  25   2.0000     -10.326840      -281.0076
  26   2.0000     -10.325429      -280.9692
  27   2.0000     -10.324843      -280.9533
  28   2.0000     -10.315682      -280.7040
  29   2.0000     -10.315480      -280.6985
  30   2.0000     -10.312817      -280.6260
  31   2.0000     -10.311582      -280.5924
  32   2.0000     -10.308245      -280.5016
  33   2.0000     -10.304619      -280.4029
  34   2.0000     -10.299711      -280.2694
  35   2.0000     -10.299411      -280.2612
  36   2.0000     -10.298991      -280.2498
  37   2.0000     -10.298453      -280.2351
  38   2.0000     -10.298445      -280.2349
  39   2.0000     -10.298331      -280.2318
  40   2.0000     -10.298330      -280.2318
  41   2.0000     -10.296409      -280.1795
  42   2.0000     -10.294954      -280.1399
  43   2.0000     -10.293539      -280.1014
  44   2.0000     -10.292876      -280.0834
  45   2.0000     -10.290262      -280.0123
  46   2.0000     -10.288263      -279.9579
  47   2.0000     -10.287652      -279.9412
  48   2.0000     -10.287370      -279.9336
  49   2.0000     -10.287339      -279.9327
  50   2.0000     -10.286376      -279.9065
  51   2.0000     -10.284951      -279.8677
  52   2.0000     -10.284925      -279.8670
  53   2.0000     -10.268591      -279.4226
  54   2.0000     -10.264436      -279.3095
  55   2.0000     -10.262833      -279.2659
  56   2.0000     -10.260760      -279.2095
  57   2.0000     -10.256981      -279.1066
  58   2.0000     -10.256647      -279.0975
  59   2.0000     -10.253230      -279.0046
  60   2.0000     -10.250252      -278.9235
  61   2.0000      -8.067809      -219.5363
  62   2.0000      -8.063225      -219.4115
  63   2.0000      -6.036885      -164.2720
  64   2.0000      -6.032864      -164.1626
  65   2.0000      -6.032387      -164.1496
  66   2.0000      -6.030145      -164.0886
  67   2.0000      -6.028303      -164.0385
  68   2.0000      -6.025487      -163.9618
  69   2.0000      -1.324758       -36.0485
  70   2.0000      -1.143056       -31.1041
  71   2.0000      -1.135002       -30.8850
  72   2.0000      -1.128907       -30.7191
  73   2.0000      -1.126304       -30.6483
  74   2.0000      -1.123171       -30.5630
  75   2.0000      -1.121564       -30.5193
  76   2.0000      -1.120848       -30.4998
  77   2.0000      -1.064560       -28.9682
  78   2.0000      -1.059333       -28.8259
  79   2.0000      -1.054896       -28.7052
  80   2.0000      -1.049814       -28.5669
  81   2.0000      -1.002121       -27.2691
  82   2.0000      -0.997926       -27.1550
  83   2.0000      -0.991266       -26.9737
  84   2.0000      -0.933092       -25.3907
  85   2.0000      -0.927827       -25.2475
  86   2.0000      -0.923764       -25.1369
  87   2.0000      -0.922513       -25.1029
  88   2.0000      -0.908974       -24.7344
  89   2.0000      -0.907455       -24.6931
  90   2.0000      -0.893437       -24.3117
  91   2.0000      -0.886528       -24.1237
  92   2.0000      -0.871913       -23.7259
  93   2.0000      -0.866873       -23.5888
  94   2.0000      -0.863538       -23.4981
  95   2.0000      -0.857514       -23.3341
  96   2.0000      -0.849543       -23.1172
  97   2.0000      -0.832735       -22.6599
  98   2.0000      -0.828706       -22.5502
  99   2.0000      -0.818608       -22.2755
 100   2.0000      -0.814710       -22.1694
 101   2.0000      -0.804223       -21.8840
 102   2.0000      -0.796261       -21.6674
 103   2.0000      -0.790321       -21.5057
 104   2.0000      -0.779620       -21.2145
 105   2.0000      -0.759244       -20.6601
 106   2.0000      -0.755340       -20.5538
 107   2.0000      -0.750601       -20.4249
 108   2.0000      -0.747532       -20.3414
 109   2.0000      -0.733346       -19.9554
 110   2.0000      -0.726962       -19.7816
 111   2.0000      -0.713954       -19.4277
 112   2.0000      -0.707594       -19.2546
 113   2.0000      -0.706356       -19.2209
 114   2.0000      -0.703843       -19.1525
 115   2.0000      -0.694035       -18.8856
 116   2.0000      -0.681903       -18.5555
 117   2.0000      -0.679970       -18.5029
 118   2.0000      -0.671056       -18.2603
 119   2.0000      -0.655792       -17.8450
 120   2.0000      -0.654999       -17.8234
 121   2.0000      -0.650944       -17.7131
 122   2.0000      -0.647011       -17.6061
 123   2.0000      -0.643418       -17.5083
 124   2.0000      -0.636761       -17.3271
 125   2.0000      -0.632161       -17.2020
 126   2.0000      -0.631650       -17.1881
 127   2.0000      -0.620885       -16.8951
 128   2.0000      -0.611868       -16.6498
 129   2.0000      -0.607067       -16.5191
 130   2.0000      -0.601276       -16.3616
 131   2.0000      -0.597183       -16.2502
 132   2.0000      -0.592734       -16.1291
 133   2.0000      -0.591977       -16.1085
 134   2.0000      -0.590302       -16.0629
 135   2.0000      -0.587142       -15.9769
 136   2.0000      -0.581910       -15.8346
 137   2.0000      -0.578014       -15.7285
 138   2.0000      -0.575968       -15.6729
 139   2.0000      -0.567974       -15.4554
 140   2.0000      -0.563898       -15.3444
 141   2.0000      -0.559721       -15.2308
 142   2.0000      -0.553988       -15.0748
 143   2.0000      -0.550756       -14.9868
 144   2.0000      -0.548344       -14.9212
 145   2.0000      -0.545329       -14.8392
 146   2.0000      -0.540235       -14.7005
 147   2.0000      -0.538264       -14.6469
 148   2.0000      -0.533495       -14.5171
 149   2.0000      -0.532110       -14.4794
 150   2.0000      -0.530793       -14.4436
 151   2.0000      -0.526729       -14.3330
 152   2.0000      -0.522177       -14.2092
 153   2.0000      -0.522091       -14.2068
 154   2.0000      -0.521705       -14.1963
 155   2.0000      -0.517986       -14.0951
 156   2.0000      -0.514208       -13.9923
 157   2.0000      -0.512266       -13.9395
 158   2.0000      -0.509665       -13.8687
 159   2.0000      -0.507413       -13.8074
 160   2.0000      -0.504973       -13.7410
 161   2.0000      -0.503748       -13.7077
 162   2.0000      -0.502032       -13.6610
 163   2.0000      -0.499215       -13.5843
 164   2.0000      -0.497574       -13.5397
 165   2.0000      -0.494853       -13.4656
 166   2.0000      -0.492585       -13.4039
 167   2.0000      -0.490901       -13.3581
 168   2.0000      -0.486756       -13.2453
 169   2.0000      -0.479376       -13.0445
 170   2.0000      -0.477435       -12.9917
 171   2.0000      -0.474027       -12.8989
 172   2.0000      -0.473447       -12.8831
 173   2.0000      -0.470448       -12.8015
 174   2.0000      -0.468548       -12.7498
 175   2.0000      -0.468269       -12.7422
 176   2.0000      -0.462937       -12.5972
 177   2.0000      -0.462018       -12.5721
 178   2.0000      -0.459405       -12.5010
 179   2.0000      -0.458829       -12.4854
 180   2.0000      -0.457062       -12.4373
 181   2.0000      -0.455636       -12.3985
 182   2.0000      -0.451099       -12.2750
 183   2.0000      -0.450071       -12.2471
 184   2.0000      -0.448117       -12.1939
 185   2.0000      -0.446459       -12.1488
 186   2.0000      -0.445174       -12.1138
 187   2.0000      -0.440989       -11.9999
 188   2.0000      -0.439209       -11.9515
 189   2.0000      -0.437705       -11.9106
 190   2.0000      -0.436412       -11.8754
 191   2.0000      -0.435336       -11.8461
 192   2.0000      -0.430984       -11.7277
 193   2.0000      -0.430245       -11.7076
 194   2.0000      -0.425462       -11.5774
 195   2.0000      -0.422831       -11.5058
 196   2.0000      -0.421092       -11.4585
 197   2.0000      -0.416780       -11.3412
 198   2.0000      -0.407056       -11.0766
 199   2.0000      -0.405207       -11.0262
 200   2.0000      -0.402364       -10.9489
 201   2.0000      -0.387058       -10.5324
 202   2.0000      -0.384818       -10.4714
 203   2.0000      -0.380586       -10.3563
 204   2.0000      -0.375112       -10.2073
 205   2.0000      -0.359631        -9.7861
 206   2.0000      -0.350273        -9.5314
 207   2.0000      -0.344281        -9.3684
 208   2.0000      -0.343661        -9.3515
 209   2.0000      -0.341475        -9.2920
 210   2.0000      -0.335385        -9.1263
 211   2.0000      -0.333229        -9.0676
 212   2.0000      -0.332577        -9.0499
 213   2.0000      -0.329942        -8.9782
 214   2.0000      -0.328299        -8.9335
 215   2.0000      -0.325656        -8.8616
 216   2.0000      -0.324633        -8.8337
 217   2.0000      -0.314940        -8.5700
 218   2.0000      -0.309730        -8.4282
 219   2.0000      -0.294784        -8.0215
 220   2.0000      -0.263345        -7.1660
 221   2.0000      -0.255695        -6.9578
 222   2.0000      -0.231055        -6.2873
 223   0.0000      -0.097507        -2.6533
 224   0.0000      -0.072705        -1.9784
 225   0.0000      -0.053863        -1.4657
 226   0.0000      -0.038310        -1.0425
 227   0.0000      -0.031029        -0.8443

MULLIKEN ATOMIC CHARGES
-----------------------
   0 C :    0.035268
   1 N :   -0.254593
   2 C :    0.112811
   3 C :   -0.002737
   4 C :    0.176401
   5 O :   -0.225417
   6 C :   -0.101012
   7 C :    0.006447
   8 C :    0.163967
   9 O :   -0.184861
  10 N :   -0.264681
  11 C :    0.099194
  12 C :    0.010729
  13 C :    0.152646
  14 C :   -0.020181
  15 C :   -0.007774
  16 C :    0.128316
  17 N :   -0.252588
  18 C :    0.097427
  19 C :    0.011234
  20 C :    0.169608
  21 O :   -0.214114
  22 C :   -0.068877
  23 C :   -0.059352
  24 C :    0.166605
  25 O :   -0.219924
  26 N :   -0.260634
  27 C :    0.100663
  28 C :    0.004931
  29 C :    0.131416
  30 C :    0.001385
  31 C :    0.007763
  32 C :    0.100082
  33 C :   -0.059492
  34 C :    0.135074
  35 N :    0.244323
  36 O :   -0.223150
  37 O :   -0.232828
  38 C :    0.094556
  39 C :   -0.043917
  40 C :    0.021379
  41 C :   -0.062846
  42 C :    0.063349
  43 C :   -0.048511
  44 S :    0.146258
  45 C :   -0.090531
  46 C :    0.021748
  47 C :   -0.019788
  48 C :    0.119441
  49 O :   -0.188297
  50 C :    0.032012
  51 C :    0.064860
  52 C :   -0.090962
  53 S :    0.149946
  54 C :   -0.110601
  55 C :    0.020645
  56 C :   -0.011279
  57 C :    0.123024
  58 O :   -0.185059
  59 C :    0.012615
  60 C :   -0.017187
  61 H :    0.014761
  62 H :    0.018865
  63 H :    0.040172
  64 H :    0.015180
  65 H :    0.024132
  66 H :    0.030266
  67 H :    0.036846
  68 H :    0.034267
  69 H :    0.020589
  70 H :    0.021626
  71 H :    0.020172
  72 H :   -0.003186
  73 H :   -0.002837
  74 H :    0.042535
  75 H :    0.037829
  76 H :    0.018027
  77 H :    0.024197
  78 H :    0.021724
  79 H :    0.022234
  80 H :    0.042738
  81 H :    0.013960
  82 H :    0.023542
  83 H :    0.030738
  84 H :   -0.034245
  85 H :    0.010827
  86 H :    0.019997
  87 H :   -0.016065
  88 H :   -0.020266
  89 H :    0.021471
  90 H :   -0.008346
  91 H :   -0.004588
  92 H :   -0.007615
  93 H :    0.004946
  94 H :    0.000085
  95 H :   -0.000448
  96 H :   -0.007086
  97 H :    0.011182
  98 H :    0.039398
  99 H :    0.037445
Sum of atomic charges:   -0.0000000

LOEWDIN ATOMIC CHARGES
----------------------
   0 C :    0.088217
   1 N :    0.001677
   2 C :    0.038371
   3 C :   -0.060608
   4 C :    0.077209
   5 O :   -0.213180
   6 C :   -0.127594
   7 C :   -0.125629
   8 C :    0.081872
   9 O :   -0.188738
  10 N :   -0.003910
  11 C :    0.036872
  12 C :   -0.058996
  13 C :    0.081463
  14 C :   -0.007448
  15 C :    0.001737
  16 C :    0.068758
  17 N :    0.006623
  18 C :    0.037932
  19 C :   -0.058102
  20 C :    0.079526
  21 O :   -0.203107
  22 C :   -0.122133
  23 C :   -0.114383
  24 C :    0.081902
  25 O :   -0.206893
  26 N :   -0.000752
  27 C :    0.035698
  28 C :   -0.061166
  29 C :    0.079504
  30 C :   -0.051315
  31 C :    0.038078
  32 C :   -0.033463
  33 C :    0.021093
  34 C :   -0.025834
  35 N :    0.285232
  36 O :   -0.190821
  37 O :   -0.198756
  38 C :    0.001381
  39 C :   -0.008714
  40 C :    0.011090
  41 C :   -0.040164
  42 C :   -0.013004
  43 C :   -0.169467
  44 S :    0.460421
  45 C :   -0.137691
  46 C :   -0.119654
  47 C :   -0.018040
  48 C :    0.096634
  49 O :   -0.142333
  50 C :   -0.040821
  51 C :   -0.023461
  52 C :   -0.173494
  53 S :    0.456287
  54 C :   -0.146953
  55 C :   -0.112949
  56 C :   -0.018037
  57 C :    0.101126
  58 O :   -0.137875
  59 C :   -0.045959
  60 C :   -0.018374
  61 H :    0.032493
  62 H :    0.024820
  63 H :    0.035526
  64 H :    0.022594
  65 H :    0.030347
  66 H :    0.031429
  67 H :    0.035254
  68 H :    0.028071
  69 H :    0.027600
  70 H :    0.031269
  71 H :    0.023964
  72 H :    0.035345
  73 H :    0.036541
  74 H :    0.031046
  75 H :    0.035715
  76 H :    0.023990
  77 H :    0.032175
  78 H :    0.027993
  79 H :    0.022275
  80 H :    0.037701
  81 H :    0.021459
  82 H :    0.030518
  83 H :    0.032854
  84 H :    0.024616
  85 H :    0.039203
  86 H :    0.047555
  87 H :    0.032383
  88 H :    0.030629
  89 H :    0.022239
  90 H :    0.033382
  91 H :    0.036941
  92 H :   -0.002479
  93 H :    0.034289
  94 H :    0.031605
  95 H :    0.036259
  96 H :   -0.001077
  97 H :    0.034695
  98 H :    0.028029
  99 H :    0.031860

  Mayer bond orders larger than 0.100000
B(  0-C ,  1-N ) :   1.1857 B(  0-C ,  7-C ) :   1.4552 B(  0-C , 61-H ) :   0.9910
B(  1-N ,  2-C ) :   0.9436 B(  1-N ,  4-C ) :   1.0644 B(  2-C ,  3-C ) :   1.1190
B(  2-C , 62-H ) :   0.9535 B(  2-C , 63-H ) :   0.9348 B(  3-C , 64-H ) :   0.9693
B(  3-C , 65-H ) :   0.9688 B(  3-C , 66-H ) :   0.9672 B(  4-C ,  5-O ) :   1.9961
B(  4-C ,  6-C ) :   1.0120 B(  5-O , 73-H ) :   0.1088 B(  6-C ,  7-C ) :   1.2100
B(  6-C , 13-C ) :   1.3541 B(  7-C ,  8-C ) :   0.9433 B(  8-C ,  9-O ) :   2.1786
B(  8-C , 10-N ) :   1.0214 B( 10-N , 11-C ) :   0.9411 B( 10-N , 13-C ) :   1.1658
B( 11-C , 12-C ) :   1.1254 B( 11-C , 67-H ) :   0.9282 B( 11-C , 68-H ) :   0.9478
B( 12-C , 69-H ) :   0.9637 B( 12-C , 70-H ) :   0.9672 B( 12-C , 71-H ) :   0.9660
B( 13-C , 14-C ) :   1.1490 B( 14-C , 15-C ) :   1.5474 B( 14-C , 72-H ) :   0.9511
B( 15-C , 16-C ) :   1.1528 B( 15-C , 73-H ) :   0.9455 B( 16-C , 17-N ) :   1.1653
B( 16-C , 23-C ) :   1.3247 B( 17-N , 18-C ) :   0.9386 B( 17-N , 20-C ) :   1.0694
B( 18-C , 19-C ) :   1.1256 B( 18-C , 74-H ) :   0.9465 B( 18-C , 75-H ) :   0.9286
B( 19-C , 76-H ) :   0.9666 B( 19-C , 77-H ) :   0.9677 B( 19-C , 78-H ) :   0.9642
B( 20-C , 21-O ) :   2.0186 B( 20-C , 22-C ) :   0.9824 B( 21-O , 85-H ) :   0.1182
B( 22-C , 23-C ) :   1.2556 B( 22-C , 29-C ) :   1.3468 B( 23-C , 24-C ) :   0.9909
B( 24-C , 25-O ) :   2.0108 B( 24-C , 26-N ) :   1.0637 B( 25-O , 72-H ) :   0.1019
B( 26-N , 27-C ) :   0.9469 B( 26-N , 29-C ) :   1.1541 B( 27-C , 28-C ) :   1.1207
B( 27-C , 79-H ) :   0.9497 B( 27-C , 80-H ) :   0.9273 B( 28-C , 81-H ) :   0.9686
B( 28-C , 82-H ) :   0.9680 B( 28-C , 83-H ) :   0.9630 B( 29-C , 30-C ) :   1.1548
B( 30-C , 31-C ) :   1.6010 B( 30-C , 84-H ) :   0.9556 B( 31-C , 32-C ) :   1.0840
B( 31-C , 85-H ) :   0.9653 B( 32-C , 33-C ) :   1.2980 B( 32-C , 40-C ) :   1.2904
B( 33-C , 34-C ) :   1.3641 B( 33-C , 86-H ) :   1.0058 B( 34-C , 35-N ) :   0.8707
B( 34-C , 38-C ) :   1.3529 B( 35-N , 36-O ) :   1.5630 B( 35-N , 37-O ) :   1.5150
B( 36-O , 37-O ) :   0.2667 B( 38-C , 39-C ) :   1.3097 B( 38-C , 41-C ) :   1.0956
B( 39-C , 40-C ) :   1.4458 B( 39-C , 87-H ) :   0.9852 B( 40-C , 88-H ) :   0.9897
B( 41-C , 42-C ) :   1.6616 B( 41-C , 89-H ) :   0.9636 B( 42-C , 43-C ) :   1.1540
B( 42-C , 90-H ) :   0.9711 B( 43-C , 44-S ) :   1.0900 B( 43-C , 47-C ) :   1.4805
B( 44-S , 45-C ) :   1.1588 B( 45-C , 46-C ) :   1.4194 B( 45-C , 50-C ) :   1.1217
B( 46-C , 47-C ) :   1.2323 B( 46-C , 48-C ) :   0.9804 B( 47-C , 91-H ) :   1.0093
B( 48-C , 49-O ) :   2.1735 B( 48-C , 92-H ) :   0.9579 B( 50-C , 51-C ) :   1.7163
B( 50-C , 93-H ) :   0.9520 B( 51-C , 52-C ) :   1.1137 B( 51-C , 94-H ) :   0.9604
B( 52-C , 53-S ) :   1.1041 B( 52-C , 56-C ) :   1.5111 B( 53-S , 54-C ) :   1.1650
B( 54-C , 55-C ) :   1.4535 B( 54-C , 59-C ) :   1.0743 B( 55-C , 56-C ) :   1.2467
B( 55-C , 57-C ) :   0.9757 B( 56-C , 95-H ) :   0.9992 B( 57-C , 58-O ) :   2.1756
B( 57-C , 96-H ) :   0.9574 B( 59-C , 60-C ) :   1.9363 B( 59-C , 97-H ) :   0.9522
B( 60-C , 98-H ) :   0.9640 B( 60-C , 99-H ) :   0.9498

-----------------------------------------------------------------------------
         ABSORPTION SPECTRUM VIA TRANSITION ELECTRIC DIPOLE MOMENTS
-----------------------------------------------------------------------------
State   Energy  Wavelength   fosc         T2         TX        TY        TZ
        (cm-1)    (nm)                  (au**2)     (au)      (au)      (au)
-----------------------------------------------------------------------------
   0   14169.4    705.7   1.139840259  26.48307  -3.00452   4.08772   0.86398
   1   19603.8    510.1   0.036639682   0.61530  -0.22229  -0.75102  -0.04310
   2   21877.7    457.1   0.600338211   9.03379   0.31922  -2.98652  -0.11222
   3   23300.4    429.2   0.688189406   9.72347   0.67561  -3.04043  -0.15095
   4   26124.6    382.8   0.000191366   0.00241   0.03346  -0.03482   0.00891
   5   26637.7    375.4   0.057411810   0.70954  -0.06328  -0.83996   0.00381
   6   26866.9    372.2   0.023399569   0.28673   0.29124   0.44848  -0.02763
   7   26970.6    370.8   0.206444768   2.51994  -0.71228  -1.41862  -0.01082
   8   28357.0    352.6   0.001002316   0.01164   0.03570   0.09850  -0.02568
   9   28810.6    347.1   0.002744860   0.03136  -0.16815   0.03758   0.04095
  10   29190.5    342.6   0.001373725   0.01549   0.00851   0.06004   0.10870
  11   30275.9    330.3   0.075487104   0.82083  -0.72003  -0.54871   0.03613
  12   30847.2    324.2   0.056147964   0.59923  -0.76898   0.02699   0.08468
  13   30933.1    323.3   0.087848510   0.93495  -0.34992  -0.90016  -0.04715
  14   31983.5    312.7   0.007009548   0.07215   0.03696  -0.26574  -0.01302
  15   32532.7    307.4   0.007596597   0.07687   0.06368   0.26615  -0.04455
  16   33004.2    303.0   0.336359653   3.35514  -0.31895   1.79620   0.16459
  17   33065.0    302.4   0.039549863   0.39378   0.12056  -0.61199  -0.06868
  18   33294.6    300.3   0.066069250   0.65328   0.67010  -0.41058   0.18886
  19   34412.5    290.6   0.102204241   0.97775  -0.16203   0.97516   0.02379
  20   34616.3    288.9   0.003501256   0.03330  -0.15419   0.01122  -0.09695
  21   34875.2    286.7   0.006752693   0.06374  -0.10785   0.22677  -0.02618
  22   35272.2    283.5   0.353424192   3.29868  -0.15003  -1.80890  -0.06350
  23   35638.2    280.6   0.012106894   0.11184  -0.28752  -0.14993   0.08181
  24   36186.2    276.3   0.161408265   1.46845   0.70223   0.97572  -0.15263
  25   37068.0    269.8   0.009274451   0.08237   0.07025  -0.27743   0.02161
  26   37827.7    264.4   0.058562078   0.50966   0.06636   0.70846   0.05782
  27   38236.2    261.5   0.019725355   0.16983   0.39014  -0.13062   0.02371
  28   38343.5    260.8   0.001300466   0.01117  -0.07091  -0.05886   0.05171
  29   38908.5    257.0   0.032431062   0.27441   0.52205   0.02585  -0.03463
  30   39112.1    255.7   0.034546679   0.29078  -0.14705  -0.51879   0.00434
  31   39215.4    255.0   0.046202742   0.38787   0.21092   0.57153  -0.12940
  32   39709.6    251.8   0.009581924   0.07944  -0.02223  -0.28023  -0.02038
  33   39799.5    251.3   0.002768325   0.02290  -0.08757   0.10863   0.05858
  34   40077.3    249.5   0.008249665   0.06777  -0.13787  -0.22034  -0.01451

FINAL SINGLE POINT ENERGY     -3444.679235725543

DIPOLE MOMENT
-------------
                                X             Y             Z
Electronic contribution:    -18.84705      67.49581      12.79485
Nuclear contribution   :     17.74950     -66.91150     -13.14079
                        -----------------------------------------
Total Dipole Moment    :     -1.09755       0.58431      -0.34595
                        -----------------------------------------
Magnitude (a.u.)       :      1.29062
Magnitude (Debye)      :      3.28050

Rotational constants in cm-1:     0.003805     0.000226     0.000216
Rotational constants in MHz :   114.066399     6.782230     6.461744

                             ****ORCA TERMINATED NORMALLY****
TOTAL RUN TIME: 0 days 0 hours 10 minutes 15 seconds 480 msec
