                         Program Version 4.2.0 -  RELEASE  -
|  1> # ORCA input file
|  2> # SCF done       -186.536534066549          0.000622626090
|  3> ! CAM-B3LYP def2-SVP def2/J RIJCOSX Grid4 TightSCF
|  4> %maxcore 5000
|  5> %tddft
|  6>     Mode sTDDFT
|  7>     Ethresh 5.0
|  8>     maxcore 5000
|  9> end
| 10>
| 11> %pal
| 12>   nprocs 6
| 13>   end
| 14> * xyz 0 1
| 15>    C       -0.92070        -1.84794         0.52943
| 16>    N       -2.11503        -1.48077        -0.00429
| 17>    C       -3.08059        -2.36699        -0.60533
| 18>    C       -3.85539        -3.15181         0.44975
| 19>    C       -2.34593        -0.09675         0.15429
| 20>    O       -3.35003         0.46273        -0.24519
| 21>    C       -1.16662         0.37931         0.83668
| 22>    C       -0.30587        -0.74352         1.05083
| 23>    C        0.88370        -0.27042         1.73248
| 24>    O        1.87767        -0.83441         2.12745
| 25>    N        0.65858         1.11391         1.88662
| 26>    C        1.65115         1.96768         2.49355
| 27>    C        2.46411         2.72645         1.44757
| 28>    C       -0.54716         1.50857         1.35643
| 29>    C       -1.01930         2.84941         1.38551
| 30>    C       -2.21549         3.21350         0.86783
| 31>    C       -2.69268         4.56513         0.91372
| 32>    C       -3.97206         4.90461         0.43406
| 33>    N       -4.41669         6.13655         0.43530
| 34>    C       -3.62270         7.09913         0.93387
| 35>    C       -2.35019         6.75726         1.44335
| 36>    N       -1.90331         5.52660         1.42330
| 37>    C       -4.08729         8.45778         0.94862
| 38>    N       -5.35056         8.86134         0.60791
| 39>    C       -6.44715         8.05962         0.11816
| 40>    C       -6.32658         7.80210        -1.38033
| 41>    C       -5.50223        10.25978         0.72631
| 42>    O       -6.53192        10.85450         0.48672
| 43>    C       -4.21160        10.71448         1.18574
| 44>    C       -3.36519         9.59585         1.32546
| 45>    C       -2.08537        10.09158         1.79608
| 46>    O       -1.05428         9.52561         2.09515
| 47>    N       -2.24848        11.48854         1.88959
| 48>    C       -1.13828        12.30834         2.31801
| 49>    C       -0.38258        12.91117         1.13642
| 50>    C       -3.51492        11.87808         1.52226
| 51>    C       -4.12597        13.14990         1.45897
| 52>    C       -3.56575        14.38063         1.63657
| 53>    C       -4.18153        15.64762         1.54391
| 54>    N       -5.48900        16.01354         1.33679
| 55>    C       -6.66787        15.18232         1.23970
| 56>    C       -7.07429        14.60553         2.59277
| 57>    C       -5.63521        17.41835         1.30577
| 58>    O       -6.69684        17.97571         1.13666
| 59>    C       -4.29387        17.93514         1.49899
| 60>    C       -3.43779        16.83359         1.64308
| 61>    C       -2.08479        17.32053         1.82147
| 62>    O       -1.03244        16.73990         1.98537
| 63>    N       -2.22057        18.71839         1.77702
| 64>    C       -1.07053        19.58696         1.87041
| 65>    C       -0.63480        20.10338         0.50174
| 66>    C       -3.52730        19.10778         1.58418
| 67>    C       -3.94301        20.44977         1.51534
| 68>    C       -5.25165        20.81048         1.34409
| 69>    C       -5.71120        22.14462         1.27457
| 70>    C       -7.04668        22.50530         1.14479
| 71>    C       -7.28272        23.91266         1.09569
| 72>    C       -8.49075        24.55428         0.97686
| 73>    C       -9.73776        23.90613         0.87771
| 74>    N      -10.78941        23.45651         0.79267
| 75>    C       -8.56230        25.96284         0.94500
| 76>    N       -8.62562        27.10751         0.91769
| 77>    S       -5.78343        24.81655         1.21062
| 78>    C       -4.81079        23.30798         1.33087
| 79>    O       -3.61640        23.33822         1.43486
| 80>    C       -8.08991        21.56443         1.07944
| 81>    N       -8.91969        20.77422         1.03298
| 82>    H       -0.58858        -2.86905         0.49330
| 83>    H       -2.56444        -3.04972        -1.28646
| 84>    H       -3.76548        -1.73669        -1.17880
| 85>    H       -3.18178        -3.76364         1.04569
| 86>    H       -4.58165        -3.79995        -0.03234
| 87>    H       -4.38270        -2.46887         1.11128
| 88>    H        2.31094         1.30542         3.06131
| 89>    H        1.16462         2.66056         3.18533
| 90>    H        2.97993         2.02413         0.79726
| 91>    H        3.20380         3.35111         1.94031
| 92>    H        1.82261         3.35873         0.83788
| 93>    H       -0.40555         3.61085         1.84448
| 94>    H       -2.86255         2.48214         0.40407
| 95>    H       -4.63655         4.15243         0.03039
| 96>    H       -1.69002         7.50125         1.86664
| 97>    H       -7.35462         8.63472         0.32273
| 98>    H       -6.47106         7.11444         0.66112
| 99>    H       -6.27467         8.74430        -1.92083
|100>    H       -7.19513         7.24926        -1.72538
|101>    H       -5.43451         7.21825        -1.59030
|102>    H       -0.46878        11.64191         2.87014
|103>    H       -1.49853        13.08187         2.99930
|104>    H        0.09021        12.12148         0.55765
|105>    H        0.38440        13.58814         1.50099
|106>    H       -1.04964        13.46687         0.48148
|107>    H       -5.17179        13.06720         1.20302
|108>    H       -2.51007        14.47049         1.84519
|109>    H       -6.51025        14.39351         0.50087
|110>    H       -7.46136        15.84154         0.87489
|111>    H       -6.26618        14.02916         3.03712
|112>    H       -7.93432        13.95506         2.46431
|113>    H       -7.34282        15.40930         3.27389
|114>    H       -0.27131        18.98120         2.30656
|115>    H       -1.29279        20.41809         2.54472
|116>    H       -0.39662        19.26894        -0.15360
|117>    H        0.25018        20.72365         0.61067
|118>    H       -1.41987        20.69686         0.03923
|119>    H       -3.19010        21.21747         1.61110
|120>    H       -6.01097        20.04178         1.25588
|121> *
|122>
|123>                          ****END OF INPUT****

CARTESIAN COORDINATES (ANGSTROEM)
---------------------------------
  C     -0.920700   -1.847940    0.529430
  N     -2.115030   -1.480770   -0.004290
  C     -3.080590   -2.366990   -0.605330
  C     -3.855390   -3.151810    0.449750
  C     -2.345930   -0.096750    0.154290
  O     -3.350030    0.462730   -0.245190
  C     -1.166620    0.379310    0.836680
  C     -0.305870   -0.743520    1.050830
  C      0.883700   -0.270420    1.732480
  O      1.877670   -0.834410    2.127450
  N      0.658580    1.113910    1.886620
  C      1.651150    1.967680    2.493550
  C      2.464110    2.726450    1.447570
  C     -0.547160    1.508570    1.356430
  C     -1.019300    2.849410    1.385510
  C     -2.215490    3.213500    0.867830
  C     -2.692680    4.565130    0.913720
  C     -3.972060    4.904610    0.434060
  N     -4.416690    6.136550    0.435300
  C     -3.622700    7.099130    0.933870
  C     -2.350190    6.757260    1.443350
  N     -1.903310    5.526600    1.423300
  C     -4.087290    8.457780    0.948620
  N     -5.350560    8.861340    0.607910
  C     -6.447150    8.059620    0.118160
  C     -6.326580    7.802100   -1.380330
  C     -5.502230   10.259780    0.726310
  O     -6.531920   10.854500    0.486720
  C     -4.211600   10.714480    1.185740
  C     -3.365190    9.595850    1.325460
  C     -2.085370   10.091580    1.796080
  O     -1.054280    9.525610    2.095150
  N     -2.248480   11.488540    1.889590
  C     -1.138280   12.308340    2.318010
  C     -0.382580   12.911170    1.136420
  C     -3.514920   11.878080    1.522260
  C     -4.125970   13.149900    1.458970
  C     -3.565750   14.380630    1.636570
  C     -4.181530   15.647620    1.543910
  N     -5.489000   16.013540    1.336790
  C     -6.667870   15.182320    1.239700
  C     -7.074290   14.605530    2.592770
  C     -5.635210   17.418350    1.305770
  O     -6.696840   17.975710    1.136660
  C     -4.293870   17.935140    1.498990
  C     -3.437790   16.833590    1.643080
  C     -2.084790   17.320530    1.821470
  O     -1.032440   16.739900    1.985370
  N     -2.220570   18.718390    1.777020
  C     -1.070530   19.586960    1.870410
  C     -0.634800   20.103380    0.501740
  C     -3.527300   19.107780    1.584180
  C     -3.943010   20.449770    1.515340
  C     -5.251650   20.810480    1.344090
  C     -5.711200   22.144620    1.274570
  C     -7.046680   22.505300    1.144790
  C     -7.282720   23.912660    1.095690
  C     -8.490750   24.554280    0.976860
  C     -9.737760   23.906130    0.877710
  N    -10.789410   23.456510    0.792670
  C     -8.562300   25.962840    0.945000
  N     -8.625620   27.107510    0.917690
  S     -5.783430   24.816550    1.210620
  C     -4.810790   23.307980    1.330870
  O     -3.616400   23.338220    1.434860
  C     -8.089910   21.564430    1.079440
  N     -8.919690   20.774220    1.032980
  H     -0.588580   -2.869050    0.493300
  H     -2.564440   -3.049720   -1.286460
  H     -3.765480   -1.736690   -1.178800
  H     -3.181780   -3.763640    1.045690
  H     -4.581650   -3.799950   -0.032340
  H     -4.382700   -2.468870    1.111280
  H      2.310940    1.305420    3.061310
  H      1.164620    2.660560    3.185330
  H      2.979930    2.024130    0.797260
  H      3.203800    3.351110    1.940310
  H      1.822610    3.358730    0.837880
  H     -0.405550    3.610850    1.844480
  H     -2.862550    2.482140    0.404070
  H     -4.636550    4.152430    0.030390
  H     -1.690020    7.501250    1.866640
  H     -7.354620    8.634720    0.322730
  H     -6.471060    7.114440    0.661120
  H     -6.274670    8.744300   -1.920830
  H     -7.195130    7.249260   -1.725380
  H     -5.434510    7.218250   -1.590300
  H     -0.468780   11.641910    2.870140
  H     -1.498530   13.081870    2.999300
  H      0.090210   12.121480    0.557650
  H      0.384400   13.588140    1.500990
  H     -1.049640   13.466870    0.481480
  H     -5.171790   13.067200    1.203020
  H     -2.510070   14.470490    1.845190
  H     -6.510250   14.393510    0.500870
  H     -7.461360   15.841540    0.874890
  H     -6.266180   14.029160    3.037120
  H     -7.934320   13.955060    2.464310
  H     -7.342820   15.409300    3.273890
  H     -0.271310   18.981200    2.306560
  H     -1.292790   20.418090    2.544720
  H     -0.396620   19.268940   -0.153600
  H      0.250180   20.723650    0.610670
  H     -1.419870   20.696860    0.039230
  H     -3.190100   21.217470    1.611100
  H     -6.010970   20.041780    1.255880

 Total Charge           Charge          ....    0
 Multiplicity           Mult            ....    1
 Number of Electrons    NEL             ....  476
 Basis Dimension        Dim             .... 1137

ORBITAL ENERGIES
----------------

  NO   OCC          E(Eh)            E(eV)
   0   2.0000     -88.979176     -2421.2465
   1   2.0000     -19.259259      -524.0711
   2   2.0000     -19.215451      -522.8790
   3   2.0000     -19.208935      -522.7017
   4   2.0000     -19.204061      -522.5691
   5   2.0000     -19.202885      -522.5371
   6   2.0000     -19.197397      -522.3877
   7   2.0000     -19.188986      -522.1589
   8   2.0000     -14.471921      -393.8010
   9   2.0000     -14.468548      -393.7092
  10   2.0000     -14.466781      -393.6611
  11   2.0000     -14.466281      -393.6475
  12   2.0000     -14.458950      -393.4480
  13   2.0000     -14.454102      -393.3161
  14   2.0000     -14.442905      -393.0114
  15   2.0000     -14.434629      -392.7862
  16   2.0000     -14.426132      -392.5550
  17   2.0000     -14.424383      -392.5074
  18   2.0000     -14.421028      -392.4161
  19   2.0000     -10.421131      -283.5734
  20   2.0000     -10.395289      -282.8702
  21   2.0000     -10.389323      -282.7079
  22   2.0000     -10.389120      -282.7023
  23   2.0000     -10.387786      -282.6660
  24   2.0000     -10.378559      -282.4149
  25   2.0000     -10.376563      -282.3606
  26   2.0000     -10.375445      -282.3302
  27   2.0000     -10.367232      -282.1067
  28   2.0000     -10.361351      -281.9467
  29   2.0000     -10.360839      -281.9328
  30   2.0000     -10.355031      -281.7747
  31   2.0000     -10.354539      -281.7613
  32   2.0000     -10.352748      -281.7126
  33   2.0000     -10.345168      -281.5063
  34   2.0000     -10.344980      -281.5012
  35   2.0000     -10.343421      -281.4588
  36   2.0000     -10.337158      -281.2884
  37   2.0000     -10.334822      -281.2248
  38   2.0000     -10.330645      -281.1111
  39   2.0000     -10.327738      -281.0320
  40   2.0000     -10.325574      -280.9732
  41   2.0000     -10.320937      -280.8470
  42   2.0000     -10.320376      -280.8317
  43   2.0000     -10.317958      -280.7659
  44   2.0000     -10.317655      -280.7577
  45   2.0000     -10.317442      -280.7519
  46   2.0000     -10.314315      -280.6668
  47   2.0000     -10.314046      -280.6595
  48   2.0000     -10.313214      -280.6368
  49   2.0000     -10.312777      -280.6249
  50   2.0000     -10.311909      -280.6013
  51   2.0000     -10.308529      -280.5093
  52   2.0000     -10.302474      -280.3446
  53   2.0000     -10.298351      -280.2324
  54   2.0000     -10.294257      -280.1210
  55   2.0000     -10.287665      -279.9416
  56   2.0000     -10.281507      -279.7740
  57   2.0000     -10.281104      -279.7631
  58   2.0000     -10.279848      -279.7289
  59   2.0000     -10.271331      -279.4971
  60   2.0000     -10.269535      -279.4483
  61   2.0000     -10.267312      -279.3878
  62   2.0000     -10.264819      -279.3199
  63   2.0000     -10.264366      -279.3076
  64   2.0000     -10.263710      -279.2898
  65   2.0000     -10.263629      -279.2876
  66   2.0000     -10.257320      -279.1159
  67   2.0000      -8.076583      -219.7750
  68   2.0000      -6.046151      -164.5241
  69   2.0000      -6.042132      -164.4148
  70   2.0000      -6.037272      -164.2825
  71   2.0000      -1.180786       -32.1308
  72   2.0000      -1.153724       -31.3944
  73   2.0000      -1.148767       -31.2595
  74   2.0000      -1.141998       -31.0753
  75   2.0000      -1.141722       -31.0678
  76   2.0000      -1.136513       -30.9261
  77   2.0000      -1.128755       -30.7150
  78   2.0000      -1.097751       -29.8713
  79   2.0000      -1.081070       -29.4174
  80   2.0000      -1.076850       -29.3026
  81   2.0000      -1.070917       -29.1411
  82   2.0000      -1.067260       -29.0416
  83   2.0000      -1.066964       -29.0336
  84   2.0000      -1.057871       -28.7861
  85   2.0000      -1.037842       -28.2411
  86   2.0000      -1.016073       -27.6488
  87   2.0000      -1.011996       -27.5378
  88   2.0000      -0.999588       -27.2002
  89   2.0000      -0.995909       -27.1001
  90   2.0000      -0.949307       -25.8320
  91   2.0000      -0.943137       -25.6641
  92   2.0000      -0.941096       -25.6085
  93   2.0000      -0.931922       -25.3589
  94   2.0000      -0.927732       -25.2449
  95   2.0000      -0.923669       -25.1343
  96   2.0000      -0.914452       -24.8835
  97   2.0000      -0.896489       -24.3947
  98   2.0000      -0.889550       -24.2059
  99   2.0000      -0.881727       -23.9930
 100   2.0000      -0.878340       -23.9009
 101   2.0000      -0.873253       -23.7624
 102   2.0000      -0.852580       -23.1999
 103   2.0000      -0.841596       -22.9010
 104   2.0000      -0.836001       -22.7488
 105   2.0000      -0.831588       -22.6287
 106   2.0000      -0.825103       -22.4522
 107   2.0000      -0.823195       -22.4003
 108   2.0000      -0.805349       -21.9147
 109   2.0000      -0.791880       -21.5482
 110   2.0000      -0.780461       -21.2374
 111   2.0000      -0.770928       -20.9780
 112   2.0000      -0.766553       -20.8590
 113   2.0000      -0.765397       -20.8275
 114   2.0000      -0.763723       -20.7820
 115   2.0000      -0.762295       -20.7431
 116   2.0000      -0.739092       -20.1117
 117   2.0000      -0.737984       -20.0816
 118   2.0000      -0.726398       -19.7663
 119   2.0000      -0.721933       -19.6448
 120   2.0000      -0.715318       -19.4648
 121   2.0000      -0.712518       -19.3886
 122   2.0000      -0.707896       -19.2628
 123   2.0000      -0.702815       -19.1246
 124   2.0000      -0.698318       -19.0022
 125   2.0000      -0.692986       -18.8571
 126   2.0000      -0.684124       -18.6160
 127   2.0000      -0.666205       -18.1284
 128   2.0000      -0.662933       -18.0393
 129   2.0000      -0.661604       -18.0032
 130   2.0000      -0.658812       -17.9272
 131   2.0000      -0.653777       -17.7902
 132   2.0000      -0.644475       -17.5371
 133   2.0000      -0.632839       -17.2204
 134   2.0000      -0.624618       -16.9967
 135   2.0000      -0.620656       -16.8889
 136   2.0000      -0.612996       -16.6805
 137   2.0000      -0.607143       -16.5212
 138   2.0000      -0.603602       -16.4248
 139   2.0000      -0.598499       -16.2860
 140   2.0000      -0.596064       -16.2197
 141   2.0000      -0.590663       -16.0728
 142   2.0000      -0.586666       -15.9640
 143   2.0000      -0.584606       -15.9079
 144   2.0000      -0.582708       -15.8563
 145   2.0000      -0.578791       -15.7497
 146   2.0000      -0.575227       -15.6527
 147   2.0000      -0.571314       -15.5462
 148   2.0000      -0.568048       -15.4574
 149   2.0000      -0.563174       -15.3247
 150   2.0000      -0.561445       -15.2777
 151   2.0000      -0.559175       -15.2159
 152   2.0000      -0.556097       -15.1322
 153   2.0000      -0.555731       -15.1222
 154   2.0000      -0.549394       -14.9498
 155   2.0000      -0.545368       -14.8402
 156   2.0000      -0.541567       -14.7368
 157   2.0000      -0.539844       -14.6899
 158   2.0000      -0.538737       -14.6598
 159   2.0000      -0.536073       -14.5873
 160   2.0000      -0.534689       -14.5496
 161   2.0000      -0.534002       -14.5309
 162   2.0000      -0.531331       -14.4582
 163   2.0000      -0.528937       -14.3931
 164   2.0000      -0.526652       -14.3309
 165   2.0000      -0.526284       -14.3209
 166   2.0000      -0.522138       -14.2081
 167   2.0000      -0.519746       -14.1430
 168   2.0000      -0.519195       -14.1280
 169   2.0000      -0.515002       -14.0139
 170   2.0000      -0.514396       -13.9974
 171   2.0000      -0.513097       -13.9621
 172   2.0000      -0.511381       -13.9154
 173   2.0000      -0.510725       -13.8975
 174   2.0000      -0.500634       -13.6230
 175   2.0000      -0.497206       -13.5297
 176   2.0000      -0.495811       -13.4917
 177   2.0000      -0.482518       -13.1300
 178   2.0000      -0.482180       -13.1208
 179   2.0000      -0.479735       -13.0543
 180   2.0000      -0.479368       -13.0443
 181   2.0000      -0.478478       -13.0200
 182   2.0000      -0.478007       -13.0072
 183   2.0000      -0.477381       -12.9902
 184   2.0000      -0.477320       -12.9885
 185   2.0000      -0.472507       -12.8576
 186   2.0000      -0.469599       -12.7785
 187   2.0000      -0.466735       -12.7005
 188   2.0000      -0.463864       -12.6224
 189   2.0000      -0.461974       -12.5710
 190   2.0000      -0.461512       -12.5584
 191   2.0000      -0.459025       -12.4907
 192   2.0000      -0.457767       -12.4565
 193   2.0000      -0.457264       -12.4428
 194   2.0000      -0.456449       -12.4206
 195   2.0000      -0.455326       -12.3900
 196   2.0000      -0.454369       -12.3640
 197   2.0000      -0.451486       -12.2855
 198   2.0000      -0.450035       -12.2461
 199   2.0000      -0.449602       -12.2343
 200   2.0000      -0.448935       -12.2161
 201   2.0000      -0.446024       -12.1369
 202   2.0000      -0.443850       -12.0778
 203   2.0000      -0.437034       -11.8923
 204   2.0000      -0.436649       -11.8818
 205   2.0000      -0.434518       -11.8238
 206   2.0000      -0.433239       -11.7890
 207   2.0000      -0.432837       -11.7781
 208   2.0000      -0.430929       -11.7262
 209   2.0000      -0.428019       -11.6470
 210   2.0000      -0.427385       -11.6297
 211   2.0000      -0.424814       -11.5598
 212   2.0000      -0.424134       -11.5413
 213   2.0000      -0.423343       -11.5197
 214   2.0000      -0.413531       -11.2528
 215   2.0000      -0.409842       -11.1524
 216   2.0000      -0.406152       -11.0520
 217   2.0000      -0.402769       -10.9599
 218   2.0000      -0.396748       -10.7961
 219   2.0000      -0.382411       -10.4059
 220   2.0000      -0.373822       -10.1722
 221   2.0000      -0.364851        -9.9281
 222   2.0000      -0.363710        -9.8971
 223   2.0000      -0.362774        -9.8716
 224   2.0000      -0.351013        -9.5515
 225   2.0000      -0.348356        -9.4792
 226   2.0000      -0.347241        -9.4489
 227   2.0000      -0.342052        -9.3077
 228   2.0000      -0.334266        -9.0958
 229   2.0000      -0.333761        -9.0821
 230   2.0000      -0.333040        -9.0625
 231   2.0000      -0.328665        -8.9434
 232   2.0000      -0.327668        -8.9163
 233   2.0000      -0.322977        -8.7887
 234   2.0000      -0.317303        -8.6342
 235   2.0000      -0.276413        -7.5216
 236   2.0000      -0.255856        -6.9622
 237   2.0000      -0.240602        -6.5471
 238   0.0000      -0.142345        -3.8734
 239   0.0000      -0.108625        -2.9558
 240   0.0000      -0.080143        -2.1808
 241   0.0000      -0.052692        -1.4338
 242   0.0000      -0.024699        -0.6721

MULLIKEN ATOMIC CHARGES
-----------------------
   0 C :    0.041662
   1 N :   -0.255947
   2 C :    0.108954
   3 C :   -0.002351
   4 C :    0.174047
   5 O :   -0.213724
   6 C :   -0.097666
   7 C :    0.004504
   8 C :    0.161529
   9 O :   -0.181761
  10 N :   -0.267415
  11 C :    0.095085
  12 C :    0.002421
  13 C :    0.164628
  14 C :   -0.001164
  15 C :    0.003992
  16 C :    0.001183
  17 C :    0.020249
  18 N :   -0.041506
  19 C :   -0.096936
  20 C :    0.020658
  21 N :   -0.025997
  22 C :    0.181564
  23 N :   -0.262324
  24 C :    0.142395
  25 C :    0.003900
  26 C :    0.151020
  27 O :   -0.184623
  28 C :   -0.035842
  29 C :   -0.063595
  30 C :    0.161718
  31 O :   -0.201070
  32 N :   -0.261416
  33 C :    0.094199
  34 C :    0.009062
  35 C :    0.120521
  36 C :   -0.020628
  37 C :   -0.046486
  38 C :    0.145870
  39 N :   -0.262122
  40 C :    0.084176
  41 C :    0.002478
  42 C :    0.167547
  43 O :   -0.171961
  44 C :   -0.041948
  45 C :   -0.061069
  46 C :    0.154806
  47 O :   -0.197209
  48 N :   -0.260936
  49 C :    0.091905
  50 C :    0.004537
  51 C :    0.143576
  52 C :   -0.005352
  53 C :   -0.088044
  54 C :    0.134634
  55 C :   -0.085075
  56 C :    0.082331
  57 C :   -0.280904
  58 C :   -0.191843
  59 N :    0.222615
  60 C :   -0.205686
  61 N :    0.173246
  62 S :    0.114831
  63 C :    0.050966
  64 O :   -0.137149
  65 C :   -0.237090
  66 N :    0.224286
  67 H :    0.017679
  68 H :    0.020988
  69 H :    0.042981
  70 H :    0.016404
  71 H :    0.025151
  72 H :    0.030503
  73 H :    0.044570
  74 H :    0.027254
  75 H :    0.028705
  76 H :    0.025239
  77 H :    0.018773
  78 H :   -0.000347
  79 H :    0.013287
  80 H :    0.016965
  81 H :    0.021953
  82 H :    0.031813
  83 H :    0.029359
  84 H :    0.018884
  85 H :    0.018851
  86 H :    0.016985
  87 H :    0.044269
  88 H :    0.033275
  89 H :    0.025494
  90 H :    0.035744
  91 H :    0.019820
  92 H :    0.003482
  93 H :    0.005837
  94 H :    0.046454
  95 H :    0.054291
  96 H :    0.019740
  97 H :    0.037337
  98 H :    0.026731
  99 H :    0.045079
 100 H :    0.032182
 101 H :    0.028082
 102 H :    0.029880
 103 H :    0.020106
 104 H :    0.010680
 105 H :    0.041265
Sum of atomic charges:   -0.0000000

LOEWDIN ATOMIC CHARGES
----------------------
   0 C :    0.093213
   1 N :    0.001571
   2 C :    0.038414
   3 C :   -0.060334
   4 C :    0.078764
   5 O :   -0.203508
   6 C :   -0.124661
   7 C :   -0.127731
   8 C :    0.081599
   9 O :   -0.186709
  10 N :   -0.006321
  11 C :    0.035921
  12 C :   -0.060678
  13 C :    0.080741
  14 C :   -0.010284
  15 C :    0.009550
  16 C :   -0.001834
  17 C :    0.016385
  18 N :   -0.028905
  19 C :   -0.032850
  20 C :    0.044316
  21 N :   -0.041004
  22 C :    0.086581
  23 N :    0.013576
  24 C :    0.036427
  25 C :   -0.059945
  26 C :    0.081938
  27 O :   -0.183965
  28 C :   -0.095921
  29 C :   -0.125776
  30 C :    0.084503
  31 O :   -0.190949
  32 N :   -0.000093
  33 C :    0.035762
  34 C :   -0.060455
  35 C :    0.063678
  36 C :   -0.002041
  37 C :   -0.028313
  38 C :    0.084751
  39 N :    0.001350
  40 C :    0.035657
  41 C :   -0.060249
  42 C :    0.087620
  43 O :   -0.159843
  44 C :   -0.092966
  45 C :   -0.107834
  46 C :    0.075754
  47 O :   -0.200150
  48 N :   -0.000336
  49 C :    0.036953
  50 C :   -0.059625
  51 C :    0.061554
  52 C :    0.004583
  53 C :    0.004321
  54 C :   -0.026719
  55 C :   -0.076410
  56 C :   -0.076193
  57 C :   -0.122968
  58 C :   -0.033293
  59 N :   -0.007123
  60 C :   -0.035851
  61 N :   -0.019713
  62 S :    0.384553
  63 C :   -0.033969
  64 O :   -0.119649
  65 C :   -0.042054
  66 N :    0.006028
  67 H :    0.033804
  68 H :    0.025522
  69 H :    0.036322
  70 H :    0.023019
  71 H :    0.030903
  72 H :    0.031651
  73 H :    0.037820
  74 H :    0.024743
  75 H :    0.031664
  76 H :    0.031605
  77 H :    0.023365
  78 H :    0.035123
  79 H :    0.036952
  80 H :    0.032536
  81 H :    0.031038
  82 H :    0.030607
  83 H :    0.025253
  84 H :    0.025894
  85 H :    0.030283
  86 H :    0.019859
  87 H :    0.038136
  88 H :    0.026086
  89 H :    0.030929
  90 H :    0.037381
  91 H :    0.022410
  92 H :    0.045895
  93 H :    0.045900
  94 H :    0.028176
  95 H :    0.041762
  96 H :    0.021822
  97 H :    0.038023
  98 H :    0.031491
  99 H :    0.038715
 100 H :    0.026735
 101 H :    0.031626
 102 H :    0.033825
 103 H :    0.023904
 104 H :    0.035822
 105 H :    0.044558

  Mayer bond orders larger than 0.100000
B(  0-C ,  1-N ) :   1.1916 B(  0-C ,  7-C ) :   1.4530 B(  0-C , 67-H ) :   0.9905
B(  1-N ,  2-C ) :   0.9400 B(  1-N ,  4-C ) :   1.0593 B(  2-C ,  3-C ) :   1.1182
B(  2-C , 68-H ) :   0.9540 B(  2-C , 69-H ) :   0.9353 B(  3-C , 70-H ) :   0.9694
B(  3-C , 71-H ) :   0.9689 B(  3-C , 72-H ) :   0.9676 B(  4-C ,  5-O ) :   2.0164
B(  4-C ,  6-C ) :   1.0007 B(  5-O , 79-H ) :   0.1137 B(  6-C ,  7-C ) :   1.2085
B(  6-C , 13-C ) :   1.3830 B(  7-C ,  8-C ) :   0.9482 B(  8-C ,  9-O ) :   2.1811
B(  8-C , 10-N ) :   1.0166 B( 10-N , 11-C ) :   0.9430 B( 10-N , 13-C ) :   1.1639
B( 11-C , 12-C ) :   1.1206 B( 11-C , 73-H ) :   0.9289 B( 11-C , 74-H ) :   0.9505
B( 12-C , 75-H ) :   0.9644 B( 12-C , 76-H ) :   0.9679 B( 12-C , 77-H ) :   0.9687
B( 13-C , 14-C ) :   1.1140 B( 14-C , 15-C ) :   1.6402 B( 14-C , 78-H ) :   0.9673
B( 15-C , 16-C ) :   1.0762 B( 15-C , 79-H ) :   0.9523 B( 16-C , 17-C ) :   1.2748
B( 16-C , 21-N ) :   1.4891 B( 17-C , 18-N ) :   1.5727 B( 17-C , 80-H ) :   0.9786
B( 18-N , 19-C ) :   1.4622 B( 19-C , 20-C ) :   1.3110 B( 19-C , 22-C ) :   1.0560
B( 20-C , 21-N ) :   1.6025 B( 20-C , 81-H ) :   0.9472 B( 22-C , 23-N ) :   1.2287
B( 22-C , 29-C ) :   1.3330 B( 23-N , 24-C ) :   0.9297 B( 23-N , 26-C ) :   1.0342
B( 24-C , 25-C ) :   1.1246 B( 24-C , 82-H ) :   0.9269 B( 24-C , 83-H ) :   0.9347
B( 25-C , 84-H ) :   0.9653 B( 25-C , 85-H ) :   0.9683 B( 25-C , 86-H ) :   0.9648
B( 26-C , 27-O ) :   2.1200 B( 26-C , 28-C ) :   0.9727 B( 28-C , 29-C ) :   1.2600
B( 28-C , 35-C ) :   1.3204 B( 29-C , 30-C ) :   0.9669 B( 30-C , 31-O ) :   2.0414
B( 30-C , 32-N ) :   1.0645 B( 31-O , 81-H ) :   0.1025 B( 32-N , 33-C ) :   0.9302
B( 32-N , 35-C ) :   1.1659 B( 33-C , 34-C ) :   1.1195 B( 33-C , 87-H ) :   0.9254
B( 33-C , 88-H ) :   0.9513 B( 34-C , 89-H ) :   0.9609 B( 34-C , 90-H ) :   0.9674
B( 34-C , 91-H ) :   0.9678 B( 35-C , 36-C ) :   1.1993 B( 36-C , 37-C ) :   1.4653
B( 36-C , 92-H ) :   0.9485 B( 37-C , 38-C ) :   1.2070 B( 37-C , 93-H ) :   0.9494
B( 38-C , 39-N ) :   1.1844 B( 38-C , 45-C ) :   1.2820 B( 39-N , 40-C ) :   0.9283
B( 39-N , 42-C ) :   1.0512 B( 40-C , 41-C ) :   1.1182 B( 40-C , 94-H ) :   0.9500
B( 40-C , 95-H ) :   0.9231 B( 41-C , 96-H ) :   0.9685 B( 41-C , 97-H ) :   0.9675
B( 41-C , 98-H ) :   0.9619 B( 42-C , 43-O ) :   2.0582 B( 42-C , 44-C ) :   0.9630
B( 43-O ,105-H ) :   0.1014 B( 44-C , 45-C ) :   1.3002 B( 44-C , 51-C ) :   1.3015
B( 45-C , 46-C ) :   0.9783 B( 46-C , 47-O ) :   2.1145 B( 46-C , 48-N ) :   1.0529
B( 48-N , 49-C ) :   0.9396 B( 48-N , 51-C ) :   1.1550 B( 49-C , 50-C ) :   1.1226
B( 49-C , 99-H ) :   0.9280 B( 49-C ,100-H ) :   0.9496 B( 50-C ,101-H ) :   0.9635
B( 50-C ,102-H ) :   0.9676 B( 50-C ,103-H ) :   0.9681 B( 51-C , 52-C ) :   1.1738
B( 52-C , 53-C ) :   1.5007 B( 52-C ,104-H ) :   0.9578 B( 53-C , 54-C ) :   1.2245
B( 53-C ,105-H ) :   0.9485 B( 54-C , 55-C ) :   1.5187 B( 54-C , 63-C ) :   0.8482
B( 55-C , 56-C ) :   1.1207 B( 55-C , 65-C ) :   1.1733 B( 56-C , 57-C ) :   1.6537
B( 56-C , 62-S ) :   1.0499 B( 57-C , 58-C ) :   1.1710 B( 57-C , 60-C ) :   1.1332
B( 58-C , 59-N ) :   3.0191 B( 60-C , 61-N ) :   3.0300 B( 62-S , 63-C ) :   1.0211
B( 62-S , 64-O ) :   0.1068 B( 63-C , 64-O ) :   2.1267 B( 65-C , 66-N ) :   2.9777

-----------------------------------------------------------------------------
         ABSORPTION SPECTRUM VIA TRANSITION ELECTRIC DIPOLE MOMENTS
-----------------------------------------------------------------------------
State   Energy  Wavelength   fosc         T2         TX        TY        TZ
        (cm-1)    (nm)                  (au**2)     (au)      (au)      (au)
-----------------------------------------------------------------------------
   0    8536.5   1171.4   1.090779533  42.06626   1.06669  -6.39589  -0.14491
   1   14613.4    684.3   0.273498933   6.16140  -0.48586  -2.38309  -0.49622
   2   16337.3    612.1   0.172197871   3.46996  -0.72200  -1.68611  -0.32513
   3   17041.3    586.8   0.034244717   0.66156  -0.66176   0.47272  -0.01283
   4   20507.7    487.6   0.046696774   0.74963   0.18855  -0.79075  -0.29798
   5   22219.8    450.0   0.016288800   0.24134  -0.45617  -0.16611  -0.07517
   6   23111.1    432.7   0.013763718   0.19606  -0.28025   0.34279  -0.00365
   7   23489.7    425.7   0.022258355   0.31195  -0.24670   0.50108   0.00274
   8   24373.2    410.3   0.014280302   0.19289  -0.39441   0.18179  -0.06541
   9   24470.7    408.7   0.021806381   0.29337  -0.42981   0.31332  -0.10228
  10   24692.8    405.0   0.206405193   2.75186   1.43731  -0.81551   0.14467
  11   25191.8    397.0   0.014105086   0.18433   0.33462  -0.24970  -0.10002
  12   25284.7    395.5   0.451016622   5.87233   2.04851  -1.27503   0.22417
  13   26362.4    379.3   0.111922292   1.39768   1.11193  -0.23051   0.32888
  14   26797.5    373.2   0.000479515   0.00589   0.02975   0.05895   0.03913
  15   26926.8    371.4   0.001902302   0.02326   0.08414  -0.09374  -0.08597
  16   27103.2    369.0   0.004522113   0.05493  -0.17899  -0.12389  -0.08684
  17   28161.6    355.1   0.079639621   0.93100  -0.80910   0.36211  -0.38110
  18   28905.2    346.0   0.000257426   0.00293   0.01215  -0.05265  -0.00346
  19   28988.3    345.0   0.012177450   0.13830  -0.07844   0.35948  -0.05400
  20   29677.4    337.0   0.496726374   5.51020  -0.96898   2.13625  -0.08795
  21   30253.0    330.5   0.047199024   0.51362   0.49714  -0.51563   0.02437
  22   30770.2    325.0   0.000720537   0.00771   0.07839   0.00939  -0.03843
  23   31871.5    313.8   0.038182559   0.39440  -0.43163   0.43458  -0.13868
  24   32383.3    308.8   0.001343724   0.01366   0.09556   0.06444   0.01940
  25   32626.0    306.5   0.005228690   0.05276  -0.22608   0.00473  -0.04033
  26   32675.4    306.0   0.000964759   0.00972  -0.00818  -0.09045  -0.03837
  27   33106.6    302.1   0.002240252   0.02228  -0.05845   0.13175  -0.03877
  28   33385.8    299.5   0.000968470   0.00955  -0.07018  -0.05964  -0.03268
  29   33544.9    298.1   0.065125053   0.63914  -0.62191  -0.39189  -0.31432
  30   33827.4    295.6   0.006570681   0.06395   0.18017   0.10090   0.14595
  31   34216.5    292.3   0.176022249   1.69359   0.21068  -1.27712   0.13481
  32   34375.3    290.9   0.163971779   1.57035  -0.90917   0.82253  -0.25922
  33   34658.2    288.5   0.013622321   0.12940  -0.28056  -0.20703  -0.08844
  34   35230.6    283.8   0.090317376   0.84397  -0.39357   0.83009  -0.00541
  35   36046.4    277.4   0.003239591   0.02959  -0.10155   0.13833   0.01181
  36   36157.0    276.6   0.032860466   0.29920   0.49933  -0.18560   0.12418
  37   36313.9    275.4   0.016672584   0.15115  -0.08933   0.37744   0.02661
  38   36455.7    274.3   0.166291456   1.50169  -0.94821   0.72678  -0.27273
  39   36531.2    273.7   0.031408290   0.28305  -0.46093   0.24839  -0.09429
  40   36791.5    271.8   0.000061145   0.00055  -0.00477   0.00736   0.02169
  41   37659.1    265.5   0.145572351   1.27258   0.95146  -0.59099   0.13429
  42   38568.4    259.3   0.004764891   0.04067  -0.11091   0.13163  -0.10509
  43   38768.6    257.9   0.002534866   0.02153  -0.04178   0.12741  -0.05956
  44   38799.0    257.7   0.000330371   0.00280  -0.01344  -0.04183  -0.02954
  45   38983.4    256.5   0.003452117   0.02915  -0.03014  -0.02199   0.16662
  46   39696.2    251.9   0.064552199   0.53535   0.70893  -0.10221   0.14940
  47   39828.2    251.1   0.112374025   0.92886   0.86268  -0.38528   0.19027
  48   40048.8    249.7   0.000622018   0.00511  -0.06135   0.02684  -0.02507
  49   40212.3    248.7   0.006293622   0.05152  -0.19934   0.00161  -0.10857
  50   40255.8    248.4   0.015428449   0.12617  -0.29580   0.09421  -0.17263

FINAL SINGLE POINT ENERGY     -3375.797915186724

DIPOLE MOMENT
-------------
                                X             Y             Z
Electronic contribution:    -34.49110     103.34297       5.08094
Nuclear contribution   :     36.80224    -107.22161      -5.10956
                        -----------------------------------------
Total Dipole Moment    :      2.31114      -3.87864      -0.02862
                        -----------------------------------------
Magnitude (a.u.)       :      4.51509
Magnitude (Debye)      :     11.47644

Rotational constants in cm-1:     0.003442     0.000230     0.000218
Rotational constants in MHz :   103.178522     6.908918     6.522719

                             ****ORCA TERMINATED NORMALLY****
TOTAL RUN TIME: 0 days 0 hours 10 minutes 48 seconds 212 msec
