                         Program Version 4.2.0 -  RELEASE  -
|  1> # ORCA input file
|  2> # SCF done       -202.896938929676          0.000483524949
|  3> ! CAM-B3LYP def2-SVP def2/J RIJCOSX Grid4 TightSCF
|  4> %maxcore 5000
|  5> %tddft
|  6>     Mode sTDDFT
|  7>     Ethresh 5.0
|  8>     maxcore 5000
|  9> end
| 10>
| 11> %pal
| 12>   nprocs 6
| 13>   end
| 14> * xyz 0 1
| 15>    C       -4.74515         0.20201         4.23022
| 16>    N       -4.49386         0.38299         2.90628
| 17>    C       -4.30274        -0.66257         1.93263
| 18>    C       -2.91389        -1.28580         2.04482
| 19>    C       -4.36101         1.75309         2.58926
| 20>    O       -4.13558         2.15918         1.46535
| 21>    C       -4.56316         2.42442         3.85033
| 22>    C       -4.80115         1.42070         4.84483
| 23>    C       -5.01172         2.09125         6.11243
| 24>    O       -5.25105         1.67990         7.22491
| 25>    N       -4.88786         3.46033         5.79746
| 26>    C       -4.99229         4.47220         6.82058
| 27>    C       -3.62113         4.96758         7.27367
| 28>    C       -4.61774         3.66644         4.46340
| 29>    C       -4.44713         4.95762         3.88899
| 30>    C       -4.20101         5.15068         2.57409
| 31>    C       -4.03015         6.46062         2.03584
| 32>    O       -3.84901         6.60255         0.68793
| 33>    C       -3.72102         7.92931         0.49250
| 34>    C       -3.82668         8.56228         1.76886
| 35>    N       -4.02337         7.58054         2.69834
| 36>    C       -3.73094         9.93641         1.91921
| 37>    C       -3.53355        10.63520         0.73877
| 38>    C       -3.44325         9.97775        -0.52454
| 39>    C       -3.52924         8.61066        -0.69386
| 40>    O       -3.26825        10.93171        -1.46481
| 41>    C       -3.25180        12.11194        -0.76293
| 42>    N       -3.40245        11.97445         0.51720
| 43>    C       -3.08214        13.36783        -1.41887
| 44>    N       -3.13694        13.57204        -2.77652
| 45>    C       -3.45821        12.60807        -3.80192
| 46>    C       -4.95143        12.29412        -3.83498
| 47>    C       -2.95067        14.92983        -3.09935
| 48>    O       -2.96844        15.35322        -4.23889
| 49>    C       -2.74431        15.57618        -1.82629
| 50>    C       -2.83251        14.58623        -0.80946
| 51>    C       -2.58928        15.23227         0.46879
| 52>    O       -2.54240        14.83090         1.60518
| 53>    N       -2.38664        16.59109         0.12341
| 54>    C       -2.06820        17.57227         1.13198
| 55>    C       -0.57337        17.88047         1.17073
| 56>    C       -2.47188        16.80368        -1.22882
| 57>    C       -2.32199        18.08074        -1.83379
| 58>    C       -2.43486        18.28912        -3.16601
| 59>    C       -2.29877        19.59624        -3.71940
| 60>    O       -2.49280        19.77642        -5.05952
| 61>    C       -2.31686        21.09724        -5.26352
| 62>    C       -2.00443        21.68483        -3.99870
| 63>    N       -2.01035        20.68665        -3.06783
| 64>    C       -1.76299        23.04197        -3.85625
| 65>    C       -1.85974        23.77067        -5.03018
| 66>    C       -2.18349        23.16232        -6.28040
| 67>    C       -2.41780        21.81054        -6.44168
| 68>    O       -2.21352        24.13863        -7.20750
| 69>    C       -1.91882        25.27938        -6.52596
| 70>    N       -1.70162        25.10954        -5.25400
| 71>    C       -1.89656        26.50773        -7.25364
| 72>    N       -1.52602        27.71581        -6.72225
| 73>    C       -1.13298        27.98302        -5.35997
| 74>    C       -2.34495        28.14217        -4.44768
| 75>    C       -1.61518        28.74691        -7.67665
| 76>    O       -1.32717        29.90326        -7.43833
| 77>    C       -2.07670        28.08751        -8.87648
| 78>    C       -2.23301        26.70165        -8.58129
| 79>    C       -2.70905        26.03872        -9.77719
| 80>    O       -2.99260        24.89006       -10.02917
| 81>    N       -2.81438        27.08599       -10.72340
| 82>    C       -3.21885        26.81486       -12.08113
| 83>    C       -2.02502        26.76704       -13.03191
| 84>    C       -2.44102        28.29735       -10.19813
| 85>    C       -2.47426        29.52507       -10.94222
| 86>    C       -2.08630        30.69361       -10.42743
| 87>    H       -4.87407        -0.78335         4.63868
| 88>    H       -4.42421        -0.19851         0.95031
| 89>    H       -5.07537        -1.42468         2.06899
| 90>    H       -2.15132        -0.52714         1.88755
| 91>    H       -2.79459        -2.06097         1.29331
| 92>    H       -2.76897        -1.72661         3.02863
| 93>    H       -5.50587         3.99673         7.66117
| 94>    H       -5.60383         5.30136         6.45488
| 95>    H       -3.03904         4.13800         7.66751
| 96>    H       -3.74018         5.71106         8.05673
| 97>    H       -3.07483         5.41470         6.44641
| 98>    H       -4.52001         5.82567         4.52734
| 99>    H       -4.12581         4.32660         1.87845
|100>    H       -3.80241        10.42753         2.87265
|101>    H       -3.45595         8.12297        -1.65027
|102>    H       -2.87663        11.69767        -3.64524
|103>    H       -3.15866        13.07065        -4.74677
|104>    H       -5.27473        11.84724        -2.89793
|105>    H       -5.16154        11.59792        -4.64202
|106>    H       -5.52083        13.20538        -4.00238
|107>    H       -2.37674        17.13350         2.08507
|108>    H       -2.64817        18.48186         0.95511
|109>    H       -0.01395        16.97265         1.38247
|110>    H       -0.36804        18.60554         1.95325
|111>    H       -0.23376        18.28525         0.22011
|112>    H       -2.12130        18.93366        -1.20209
|113>    H       -2.64009        17.48377        -3.85753
|114>    H       -1.52543        23.49350        -2.90982
|115>    H       -2.66012        21.36492        -7.39026
|116>    H       -0.56070        28.91439        -5.38694
|117>    H       -0.50590        27.16363        -5.00564
|118>    H       -2.99535        28.92988        -4.82025
|119>    H       -2.01528        28.40429        -3.44678
|120>    H       -2.89903        27.20896        -4.39950
|121>    H       -3.94643        27.56405       -12.40607
|122>    H       -3.70778        25.83666       -12.05856
|123>    H       -1.49375        27.71628       -13.04071
|124>    H       -2.36557        26.54607       -14.03973
|125>    H       -1.33451        25.98767       -12.71956
|126>    H       -2.83990        29.47043       -11.95833
|127>    H       -1.72091        30.77152        -9.41692
|128>    H       -2.13043        31.59916       -11.00779
|129> *
|130>
|131>                          ****END OF INPUT****

CARTESIAN COORDINATES (ANGSTROEM)
---------------------------------
  C     -4.745150    0.202010    4.230220
  N     -4.493860    0.382990    2.906280
  C     -4.302740   -0.662570    1.932630
  C     -2.913890   -1.285800    2.044820
  C     -4.361010    1.753090    2.589260
  O     -4.135580    2.159180    1.465350
  C     -4.563160    2.424420    3.850330
  C     -4.801150    1.420700    4.844830
  C     -5.011720    2.091250    6.112430
  O     -5.251050    1.679900    7.224910
  N     -4.887860    3.460330    5.797460
  C     -4.992290    4.472200    6.820580
  C     -3.621130    4.967580    7.273670
  C     -4.617740    3.666440    4.463400
  C     -4.447130    4.957620    3.888990
  C     -4.201010    5.150680    2.574090
  C     -4.030150    6.460620    2.035840
  O     -3.849010    6.602550    0.687930
  C     -3.721020    7.929310    0.492500
  C     -3.826680    8.562280    1.768860
  N     -4.023370    7.580540    2.698340
  C     -3.730940    9.936410    1.919210
  C     -3.533550   10.635200    0.738770
  C     -3.443250    9.977750   -0.524540
  C     -3.529240    8.610660   -0.693860
  O     -3.268250   10.931710   -1.464810
  C     -3.251800   12.111940   -0.762930
  N     -3.402450   11.974450    0.517200
  C     -3.082140   13.367830   -1.418870
  N     -3.136940   13.572040   -2.776520
  C     -3.458210   12.608070   -3.801920
  C     -4.951430   12.294120   -3.834980
  C     -2.950670   14.929830   -3.099350
  O     -2.968440   15.353220   -4.238890
  C     -2.744310   15.576180   -1.826290
  C     -2.832510   14.586230   -0.809460
  C     -2.589280   15.232270    0.468790
  O     -2.542400   14.830900    1.605180
  N     -2.386640   16.591090    0.123410
  C     -2.068200   17.572270    1.131980
  C     -0.573370   17.880470    1.170730
  C     -2.471880   16.803680   -1.228820
  C     -2.321990   18.080740   -1.833790
  C     -2.434860   18.289120   -3.166010
  C     -2.298770   19.596240   -3.719400
  O     -2.492800   19.776420   -5.059520
  C     -2.316860   21.097240   -5.263520
  C     -2.004430   21.684830   -3.998700
  N     -2.010350   20.686650   -3.067830
  C     -1.762990   23.041970   -3.856250
  C     -1.859740   23.770670   -5.030180
  C     -2.183490   23.162320   -6.280400
  C     -2.417800   21.810540   -6.441680
  O     -2.213520   24.138630   -7.207500
  C     -1.918820   25.279380   -6.525960
  N     -1.701620   25.109540   -5.254000
  C     -1.896560   26.507730   -7.253640
  N     -1.526020   27.715810   -6.722250
  C     -1.132980   27.983020   -5.359970
  C     -2.344950   28.142170   -4.447680
  C     -1.615180   28.746910   -7.676650
  O     -1.327170   29.903260   -7.438330
  C     -2.076700   28.087510   -8.876480
  C     -2.233010   26.701650   -8.581290
  C     -2.709050   26.038720   -9.777190
  O     -2.992600   24.890060  -10.029170
  N     -2.814380   27.085990  -10.723400
  C     -3.218850   26.814860  -12.081130
  C     -2.025020   26.767040  -13.031910
  C     -2.441020   28.297350  -10.198130
  C     -2.474260   29.525070  -10.942220
  C     -2.086300   30.693610  -10.427430
  H     -4.874070   -0.783350    4.638680
  H     -4.424210   -0.198510    0.950310
  H     -5.075370   -1.424680    2.068990
  H     -2.151320   -0.527140    1.887550
  H     -2.794590   -2.060970    1.293310
  H     -2.768970   -1.726610    3.028630
  H     -5.505870    3.996730    7.661170
  H     -5.603830    5.301360    6.454880
  H     -3.039040    4.138000    7.667510
  H     -3.740180    5.711060    8.056730
  H     -3.074830    5.414700    6.446410
  H     -4.520010    5.825670    4.527340
  H     -4.125810    4.326600    1.878450
  H     -3.802410   10.427530    2.872650
  H     -3.455950    8.122970   -1.650270
  H     -2.876630   11.697670   -3.645240
  H     -3.158660   13.070650   -4.746770
  H     -5.274730   11.847240   -2.897930
  H     -5.161540   11.597920   -4.642020
  H     -5.520830   13.205380   -4.002380
  H     -2.376740   17.133500    2.085070
  H     -2.648170   18.481860    0.955110
  H     -0.013950   16.972650    1.382470
  H     -0.368040   18.605540    1.953250
  H     -0.233760   18.285250    0.220110
  H     -2.121300   18.933660   -1.202090
  H     -2.640090   17.483770   -3.857530
  H     -1.525430   23.493500   -2.909820
  H     -2.660120   21.364920   -7.390260
  H     -0.560700   28.914390   -5.386940
  H     -0.505900   27.163630   -5.005640
  H     -2.995350   28.929880   -4.820250
  H     -2.015280   28.404290   -3.446780
  H     -2.899030   27.208960   -4.399500
  H     -3.946430   27.564050  -12.406070
  H     -3.707780   25.836660  -12.058560
  H     -1.493750   27.716280  -13.040710
  H     -2.365570   26.546070  -14.039730
  H     -1.334510   25.987670  -12.719560
  H     -2.839900   29.470430  -11.958330
  H     -1.720910   30.771520   -9.416920
  H     -2.130430   31.599160  -11.007790

 Total Charge           Charge          ....    0
 Multiplicity           Mult            ....    1
 Number of Electrons    NEL             ....  504
 Basis Dimension        Dim             .... 1218

ORBITAL ENERGIES
----------------

  NO   OCC          E(Eh)            E(eV)
   0   2.0000     -19.307208      -525.3758
   1   2.0000     -19.301284      -525.2146
   2   2.0000     -19.300863      -525.2032
   3   2.0000     -19.300850      -525.2028
   4   2.0000     -19.191845      -522.2367
   5   2.0000     -19.191749      -522.2340
   6   2.0000     -19.189204      -522.1648
   7   2.0000     -19.188176      -522.1368
   8   2.0000     -19.184548      -522.0381
   9   2.0000     -19.183570      -522.0115
  10   2.0000     -14.454965      -393.3396
  11   2.0000     -14.453959      -393.3122
  12   2.0000     -14.453807      -393.3081
  13   2.0000     -14.452130      -393.2624
  14   2.0000     -14.450776      -393.2256
  15   2.0000     -14.449988      -393.2042
  16   2.0000     -14.417687      -392.3252
  17   2.0000     -14.412544      -392.1853
  18   2.0000     -14.411923      -392.1684
  19   2.0000     -14.410787      -392.1374
  20   2.0000     -10.381145      -282.4853
  21   2.0000     -10.379402      -282.4379
  22   2.0000     -10.376038      -282.3463
  23   2.0000     -10.373302      -282.2719
  24   2.0000     -10.373260      -282.2708
  25   2.0000     -10.372543      -282.2512
  26   2.0000     -10.372282      -282.2441
  27   2.0000     -10.371762      -282.2300
  28   2.0000     -10.371065      -282.2110
  29   2.0000     -10.368369      -282.1377
  30   2.0000     -10.347302      -281.5644
  31   2.0000     -10.345593      -281.5179
  32   2.0000     -10.345402      -281.5127
  33   2.0000     -10.345055      -281.5033
  34   2.0000     -10.344538      -281.4892
  35   2.0000     -10.343530      -281.4617
  36   2.0000     -10.342818      -281.4424
  37   2.0000     -10.341063      -281.3946
  38   2.0000     -10.340359      -281.3755
  39   2.0000     -10.330439      -281.1055
  40   2.0000     -10.310342      -280.5587
  41   2.0000     -10.309572      -280.5377
  42   2.0000     -10.309257      -280.5291
  43   2.0000     -10.309013      -280.5225
  44   2.0000     -10.308953      -280.5209
  45   2.0000     -10.308865      -280.5185
  46   2.0000     -10.305860      -280.4367
  47   2.0000     -10.304709      -280.4054
  48   2.0000     -10.301281      -280.3121
  49   2.0000     -10.298448      -280.2350
  50   2.0000     -10.297708      -280.2149
  51   2.0000     -10.297204      -280.2012
  52   2.0000     -10.296122      -280.1717
  53   2.0000     -10.295437      -280.1531
  54   2.0000     -10.293714      -280.1062
  55   2.0000     -10.290191      -280.0103
  56   2.0000     -10.290105      -280.0080
  57   2.0000     -10.284947      -279.8676
  58   2.0000     -10.283851      -279.8378
  59   2.0000     -10.283056      -279.8162
  60   2.0000     -10.269416      -279.4450
  61   2.0000     -10.268080      -279.4087
  62   2.0000     -10.265242      -279.3314
  63   2.0000     -10.264748      -279.3180
  64   2.0000     -10.262510      -279.2571
  65   2.0000     -10.261213      -279.2218
  66   2.0000     -10.260116      -279.1919
  67   2.0000     -10.260055      -279.1903
  68   2.0000     -10.259130      -279.1651
  69   2.0000     -10.258845      -279.1574
  70   2.0000     -10.258082      -279.1366
  71   2.0000     -10.244965      -278.7797
  72   2.0000      -1.234558       -33.5940
  73   2.0000      -1.234531       -33.5933
  74   2.0000      -1.230523       -33.4842
  75   2.0000      -1.230433       -33.4818
  76   2.0000      -1.132809       -30.8253
  77   2.0000      -1.132733       -30.8232
  78   2.0000      -1.131523       -30.7903
  79   2.0000      -1.125981       -30.6395
  80   2.0000      -1.124027       -30.5863
  81   2.0000      -1.123183       -30.5634
  82   2.0000      -1.064042       -28.9541
  83   2.0000      -1.063473       -28.9386
  84   2.0000      -1.062139       -28.9023
  85   2.0000      -1.055526       -28.7223
  86   2.0000      -1.054650       -28.6985
  87   2.0000      -1.053229       -28.6598
  88   2.0000      -1.028172       -27.9780
  89   2.0000      -1.027586       -27.9620
  90   2.0000      -1.021561       -27.7981
  91   2.0000      -1.021423       -27.7943
  92   2.0000      -0.959616       -26.1125
  93   2.0000      -0.959117       -26.0989
  94   2.0000      -0.928387       -25.2627
  95   2.0000      -0.926774       -25.2188
  96   2.0000      -0.926151       -25.2019
  97   2.0000      -0.914301       -24.8794
  98   2.0000      -0.912375       -24.8270
  99   2.0000      -0.895208       -24.3598
 100   2.0000      -0.880220       -23.9520
 101   2.0000      -0.874632       -23.7999
 102   2.0000      -0.871625       -23.7181
 103   2.0000      -0.864254       -23.5175
 104   2.0000      -0.861897       -23.4534
 105   2.0000      -0.852216       -23.1900
 106   2.0000      -0.852111       -23.1871
 107   2.0000      -0.834585       -22.7102
 108   2.0000      -0.828903       -22.5556
 109   2.0000      -0.818973       -22.2854
 110   2.0000      -0.818497       -22.2724
 111   2.0000      -0.814703       -22.1692
 112   2.0000      -0.801844       -21.8193
 113   2.0000      -0.793097       -21.5813
 114   2.0000      -0.781882       -21.2761
 115   2.0000      -0.773985       -21.0612
 116   2.0000      -0.759688       -20.6722
 117   2.0000      -0.758763       -20.6470
 118   2.0000      -0.755587       -20.5606
 119   2.0000      -0.746412       -20.3109
 120   2.0000      -0.736522       -20.0418
 121   2.0000      -0.728720       -19.8295
 122   2.0000      -0.727738       -19.8028
 123   2.0000      -0.708821       -19.2880
 124   2.0000      -0.708413       -19.2769
 125   2.0000      -0.707167       -19.2430
 126   2.0000      -0.705178       -19.1889
 127   2.0000      -0.703707       -19.1488
 128   2.0000      -0.701886       -19.0993
 129   2.0000      -0.697691       -18.9851
 130   2.0000      -0.690728       -18.7957
 131   2.0000      -0.678430       -18.4610
 132   2.0000      -0.674100       -18.3432
 133   2.0000      -0.661416       -17.9980
 134   2.0000      -0.660570       -17.9750
 135   2.0000      -0.656376       -17.8609
 136   2.0000      -0.654802       -17.8181
 137   2.0000      -0.649366       -17.6702
 138   2.0000      -0.647075       -17.6078
 139   2.0000      -0.645280       -17.5590
 140   2.0000      -0.642164       -17.4742
 141   2.0000      -0.626869       -17.0580
 142   2.0000      -0.622335       -16.9346
 143   2.0000      -0.605270       -16.4702
 144   2.0000      -0.602718       -16.4008
 145   2.0000      -0.594795       -16.1852
 146   2.0000      -0.591681       -16.1005
 147   2.0000      -0.589417       -16.0388
 148   2.0000      -0.588859       -16.0237
 149   2.0000      -0.585411       -15.9298
 150   2.0000      -0.584289       -15.8993
 151   2.0000      -0.580392       -15.7933
 152   2.0000      -0.576965       -15.7000
 153   2.0000      -0.576143       -15.6777
 154   2.0000      -0.575895       -15.6709
 155   2.0000      -0.575251       -15.6534
 156   2.0000      -0.573246       -15.5988
 157   2.0000      -0.569933       -15.5087
 158   2.0000      -0.567755       -15.4494
 159   2.0000      -0.566505       -15.4154
 160   2.0000      -0.561821       -15.2879
 161   2.0000      -0.559482       -15.2243
 162   2.0000      -0.556349       -15.1390
 163   2.0000      -0.547065       -14.8864
 164   2.0000      -0.546211       -14.8632
 165   2.0000      -0.544395       -14.8137
 166   2.0000      -0.544219       -14.8090
 167   2.0000      -0.534868       -14.5545
 168   2.0000      -0.532410       -14.4876
 169   2.0000      -0.529644       -14.4124
 170   2.0000      -0.529302       -14.4030
 171   2.0000      -0.529280       -14.4024
 172   2.0000      -0.528478       -14.3806
 173   2.0000      -0.524703       -14.2779
 174   2.0000      -0.523670       -14.2498
 175   2.0000      -0.520565       -14.1653
 176   2.0000      -0.519921       -14.1478
 177   2.0000      -0.518080       -14.0977
 178   2.0000      -0.516237       -14.0475
 179   2.0000      -0.513188       -13.9646
 180   2.0000      -0.511641       -13.9225
 181   2.0000      -0.508551       -13.8384
 182   2.0000      -0.507152       -13.8003
 183   2.0000      -0.504315       -13.7231
 184   2.0000      -0.502483       -13.6733
 185   2.0000      -0.500069       -13.6076
 186   2.0000      -0.497305       -13.5323
 187   2.0000      -0.496469       -13.5096
 188   2.0000      -0.494365       -13.4524
 189   2.0000      -0.483348       -13.1526
 190   2.0000      -0.482994       -13.1429
 191   2.0000      -0.475474       -12.9383
 192   2.0000      -0.473571       -12.8865
 193   2.0000      -0.470582       -12.8052
 194   2.0000      -0.469001       -12.7622
 195   2.0000      -0.466731       -12.7004
 196   2.0000      -0.464442       -12.6381
 197   2.0000      -0.463104       -12.6017
 198   2.0000      -0.461049       -12.5458
 199   2.0000      -0.459586       -12.5060
 200   2.0000      -0.458915       -12.4877
 201   2.0000      -0.457225       -12.4417
 202   2.0000      -0.455468       -12.3939
 203   2.0000      -0.453520       -12.3409
 204   2.0000      -0.453276       -12.3343
 205   2.0000      -0.449529       -12.2323
 206   2.0000      -0.449098       -12.2206
 207   2.0000      -0.447918       -12.1885
 208   2.0000      -0.447223       -12.1696
 209   2.0000      -0.446055       -12.1378
 210   2.0000      -0.445383       -12.1195
 211   2.0000      -0.444652       -12.0996
 212   2.0000      -0.443141       -12.0585
 213   2.0000      -0.441984       -12.0270
 214   2.0000      -0.439165       -11.9503
 215   2.0000      -0.434543       -11.8245
 216   2.0000      -0.433405       -11.7936
 217   2.0000      -0.432436       -11.7672
 218   2.0000      -0.431923       -11.7532
 219   2.0000      -0.426018       -11.5925
 220   2.0000      -0.424689       -11.5564
 221   2.0000      -0.422507       -11.4970
 222   2.0000      -0.421917       -11.4809
 223   2.0000      -0.414665       -11.2836
 224   2.0000      -0.412896       -11.2355
 225   2.0000      -0.408740       -11.1224
 226   2.0000      -0.404940       -11.0190
 227   2.0000      -0.397241       -10.8095
 228   2.0000      -0.395093       -10.7510
 229   2.0000      -0.374857       -10.2004
 230   2.0000      -0.372698       -10.1416
 231   2.0000      -0.369718       -10.0606
 232   2.0000      -0.367876       -10.0104
 233   2.0000      -0.360161        -9.8005
 234   2.0000      -0.357224        -9.7206
 235   2.0000      -0.350081        -9.5262
 236   2.0000      -0.345882        -9.4119
 237   2.0000      -0.344782        -9.3820
 238   2.0000      -0.344549        -9.3757
 239   2.0000      -0.328714        -8.9448
 240   2.0000      -0.328439        -8.9373
 241   2.0000      -0.328380        -8.9357
 242   2.0000      -0.315781        -8.5928
 243   2.0000      -0.313018        -8.5177
 244   2.0000      -0.312730        -8.5098
 245   2.0000      -0.307343        -8.3632
 246   2.0000      -0.306697        -8.3457
 247   2.0000      -0.296694        -8.0734
 248   2.0000      -0.294406        -8.0112
 249   2.0000      -0.251021        -6.8306
 250   2.0000      -0.246779        -6.7152
 251   2.0000      -0.239348        -6.5130
 252   0.0000      -0.092513        -2.5174
 253   0.0000      -0.077276        -2.1028
 254   0.0000      -0.071635        -1.9493
 255   0.0000      -0.027396        -0.7455
 256   0.0000      -0.004624        -0.1258

MULLIKEN ATOMIC CHARGES
-----------------------
   0 C :    0.043984
   1 N :   -0.257801
   2 C :    0.110411
   3 C :   -0.002679
   4 C :    0.173141
   5 O :   -0.206664
   6 C :   -0.098881
   7 C :   -0.000071
   8 C :    0.164086
   9 O :   -0.184542
  10 N :   -0.267987
  11 C :    0.096053
  12 C :    0.001079
  13 C :    0.160299
  14 C :   -0.016179
  15 C :    0.000304
  16 C :    0.105981
  17 O :   -0.188446
  18 C :    0.213044
  19 C :    0.025464
  20 N :   -0.050176
  21 C :   -0.080574
  22 C :    0.021335
  23 C :    0.235695
  24 C :   -0.161584
  25 O :   -0.216348
  26 C :   -0.007534
  27 N :    0.014286
  28 C :    0.133910
  29 N :   -0.255512
  30 C :    0.116223
  31 C :   -0.001088
  32 C :    0.161621
  33 O :   -0.210880
  34 C :   -0.075199
  35 C :   -0.031318
  36 C :    0.138408
  37 O :   -0.149676
  38 N :   -0.269340
  39 C :    0.100129
  40 C :    0.001927
  41 C :    0.153375
  42 C :   -0.017884
  43 C :    0.004642
  44 C :    0.107315
  45 O :   -0.185838
  46 C :    0.214711
  47 C :    0.018595
  48 N :   -0.050405
  49 C :   -0.085100
  50 C :    0.032081
  51 C :    0.223316
  52 C :   -0.155366
  53 O :   -0.164520
  54 C :    0.047071
  55 N :   -0.058743
  56 C :    0.087447
  57 N :   -0.254566
  58 C :    0.130877
  59 C :    0.005860
  60 C :    0.159764
  61 O :   -0.209479
  62 C :   -0.073520
  63 C :   -0.024669
  64 C :    0.135907
  65 O :   -0.166591
  66 N :   -0.271018
  67 C :    0.097809
  68 C :    0.005114
  69 C :    0.121456
  70 C :   -0.038774
  71 C :    0.021392
  72 H :    0.016432
  73 H :    0.042416
  74 H :    0.019803
  75 H :    0.031621
  76 H :    0.024560
  77 H :    0.014832
  78 H :    0.043371
  79 H :    0.026073
  80 H :    0.028272
  81 H :    0.026004
  82 H :    0.019116
  83 H :    0.004118
  84 H :    0.030139
  85 H :   -0.016538
  86 H :   -0.012499
  87 H :    0.027507
  88 H :    0.040363
  89 H :    0.016412
  90 H :    0.021102
  91 H :    0.025762
  92 H :    0.044319
  93 H :    0.026011
  94 H :    0.029302
  95 H :    0.024535
  96 H :    0.018836
  97 H :    0.003107
  98 H :    0.032168
  99 H :   -0.024948
 100 H :   -0.001804
 101 H :    0.031804
 102 H :    0.028650
 103 H :    0.017324
 104 H :    0.013828
 105 H :    0.018554
 106 H :    0.024588
 107 H :    0.044173
 108 H :    0.015374
 109 H :    0.022820
 110 H :    0.029877
 111 H :   -0.016909
 112 H :    0.061012
 113 H :    0.033349
Sum of atomic charges:    0.0000000

LOEWDIN ATOMIC CHARGES
----------------------
   0 C :    0.093136
   1 N :    0.000468
   2 C :    0.038333
   3 C :   -0.060587
   4 C :    0.078293
   5 O :   -0.199033
   6 C :   -0.124822
   7 C :   -0.128202
   8 C :    0.081470
   9 O :   -0.189136
  10 N :   -0.006771
  11 C :    0.035652
  12 C :   -0.061183
  13 C :    0.080029
  14 C :   -0.007261
  15 C :    0.002260
  16 C :    0.058569
  17 O :   -0.000255
  18 C :    0.039809
  19 C :   -0.035170
  20 N :   -0.100613
  21 C :   -0.010083
  22 C :   -0.036107
  23 C :    0.038177
  24 C :   -0.063731
  25 O :   -0.007932
  26 C :    0.048345
  27 N :   -0.060640
  28 C :    0.041020
  29 N :    0.004651
  30 C :    0.033515
  31 C :   -0.061053
  32 C :    0.077989
  33 O :   -0.201916
  34 C :   -0.124457
  35 C :   -0.089885
  36 C :    0.084871
  37 O :   -0.159380
  38 N :   -0.004327
  39 C :    0.036144
  40 C :   -0.060556
  41 C :    0.084581
  42 C :   -0.010148
  43 C :    0.008374
  44 C :    0.057417
  45 O :    0.001571
  46 C :    0.040094
  47 C :   -0.035881
  48 N :   -0.100284
  49 C :   -0.018112
  50 C :   -0.037091
  51 C :    0.042168
  52 C :   -0.056302
  53 O :    0.019909
  54 C :    0.057707
  55 N :   -0.090287
  56 C :    0.038363
  57 N :    0.012957
  58 C :    0.036861
  59 C :   -0.060882
  60 C :    0.078260
  61 O :   -0.202850
  62 C :   -0.131934
  63 C :   -0.101273
  64 C :    0.082676
  65 O :   -0.174816
  66 N :   -0.005497
  67 C :    0.035436
  68 C :   -0.060921
  69 C :    0.094466
  70 C :   -0.056439
  71 C :    0.035950
  72 H :    0.033380
  73 H :    0.036361
  74 H :    0.025118
  75 H :    0.031978
  76 H :    0.030473
  77 H :    0.022517
  78 H :    0.037639
  79 H :    0.024393
  80 H :    0.031583
  81 H :    0.031558
  82 H :    0.023370
  83 H :    0.038323
  84 H :    0.044636
  85 H :    0.046189
  86 H :    0.044540
  87 H :    0.022180
  88 H :    0.035154
  89 H :    0.020057
  90 H :    0.030523
  91 H :    0.029708
  92 H :    0.037903
  93 H :    0.024482
  94 H :    0.032034
  95 H :    0.031325
  96 H :    0.023229
  97 H :    0.038290
  98 H :    0.045411
  99 H :    0.042297
 100 H :    0.049177
 101 H :    0.031146
 102 H :    0.025559
 103 H :    0.025262
 104 H :    0.028134
 105 H :    0.020708
 106 H :    0.023014
 107 H :    0.037716
 108 H :    0.022130
 109 H :    0.030540
 110 H :    0.032413
 111 H :    0.030310
 112 H :    0.034484
 113 H :    0.031054

  Mayer bond orders larger than 0.100000
B(  0-C ,  1-N ) :   1.1903 B(  0-C ,  7-C ) :   1.4585 B(  0-C , 72-H ) :   0.9902
B(  1-N ,  2-C ) :   0.9420 B(  1-N ,  4-C ) :   1.0542 B(  2-C ,  3-C ) :   1.1194
B(  2-C , 73-H ) :   0.9350 B(  2-C , 74-H ) :   0.9537 B(  3-C , 75-H ) :   0.9675
B(  3-C , 76-H ) :   0.9688 B(  3-C , 77-H ) :   0.9691 B(  4-C ,  5-O ) :   2.0380
B(  4-C ,  6-C ) :   0.9967 B(  6-C ,  7-C ) :   1.2050 B(  6-C , 13-C ) :   1.3936
B(  7-C ,  8-C ) :   0.9482 B(  8-C ,  9-O ) :   2.1778 B(  8-C , 10-N ) :   1.0189
B( 10-N , 11-C ) :   0.9458 B( 10-N , 13-C ) :   1.1590 B( 11-C , 12-C ) :   1.1204
B( 11-C , 78-H ) :   0.9283 B( 11-C , 79-H ) :   0.9504 B( 12-C , 80-H ) :   0.9641
B( 12-C , 81-H ) :   0.9677 B( 12-C , 82-H ) :   0.9689 B( 13-C , 14-C ) :   1.1182
B( 14-C , 15-C ) :   1.6511 B( 14-C , 83-H ) :   0.9706 B( 15-C , 16-C ) :   1.0912
B( 15-C , 84-H ) :   0.9368 B( 16-C , 17-O ) :   1.1335 B( 16-C , 20-N ) :   1.7369
B( 17-O , 18-C ) :   1.1205 B( 18-C , 19-C ) :   1.2422 B( 18-C , 24-C ) :   1.3132
B( 19-C , 20-N ) :   1.2966 B( 19-C , 21-C ) :   1.2768 B( 21-C , 22-C ) :   1.2787
B( 21-C , 24-C ) :   0.1474 B( 21-C , 85-H ) :   1.0542 B( 22-C , 23-C ) :   1.2326
B( 22-C , 27-N ) :   1.2881 B( 23-C , 24-C ) :   1.3105 B( 23-C , 25-O ) :   1.0928
B( 24-C , 86-H ) :   1.0472 B( 25-O , 26-C ) :   1.1186 B( 26-C , 27-N ) :   1.8237
B( 26-C , 28-C ) :   0.9949 B( 28-C , 29-N ) :   1.1937 B( 28-C , 35-C ) :   1.4416
B( 29-N , 30-C ) :   0.9417 B( 29-N , 32-C ) :   1.0515 B( 30-C , 31-C ) :   1.1205
B( 30-C , 87-H ) :   0.9453 B( 30-C , 88-H ) :   0.9272 B( 31-C , 89-H ) :   0.9696
B( 31-C , 90-H ) :   0.9680 B( 31-C , 91-H ) :   0.9654 B( 32-C , 33-O ) :   2.0327
B( 32-C , 34-C ) :   0.9944 B( 33-O , 98-H ) :   0.1002 B( 34-C , 35-C ) :   1.2367
B( 34-C , 41-C ) :   1.3331 B( 35-C , 36-C ) :   0.9373 B( 36-C , 37-O ) :   2.1994
B( 36-C , 38-N ) :   1.0119 B( 38-N , 39-C ) :   0.9440 B( 38-N , 41-C ) :   1.1824
B( 39-C , 40-C ) :   1.1208 B( 39-C , 92-H ) :   0.9273 B( 39-C , 93-H ) :   0.9501
B( 40-C , 94-H ) :   0.9637 B( 40-C , 95-H ) :   0.9681 B( 40-C , 96-H ) :   0.9688
B( 41-C , 42-C ) :   1.1233 B( 42-C , 43-C ) :   1.6434 B( 42-C , 97-H ) :   0.9684
B( 43-C , 44-C ) :   1.0954 B( 43-C , 98-H ) :   0.9356 B( 44-C , 45-O ) :   1.1371
B( 44-C , 48-N ) :   1.7283 B( 45-O , 46-C ) :   1.1191 B( 46-C , 47-C ) :   1.2391
B( 46-C , 52-C ) :   1.3081 B( 47-C , 48-N ) :   1.3029 B( 47-C , 49-C ) :   1.2841
B( 49-C , 50-C ) :   1.2797 B( 49-C , 52-C ) :   0.1483 B( 49-C , 99-H ) :   1.0497
B( 50-C , 51-C ) :   1.2288 B( 50-C , 55-N ) :   1.2767 B( 51-C , 52-C ) :   1.3148
B( 51-C , 53-O ) :   1.1173 B( 52-C ,100-H ) :   1.0493 B( 53-O , 54-C ) :   1.2181
B( 54-C , 55-N ) :   1.6856 B( 54-C , 56-C ) :   1.0361 B( 56-C , 57-N ) :   1.2123
B( 56-C , 63-C ) :   1.4062 B( 57-N , 58-C ) :   0.9367 B( 57-N , 60-C ) :   1.0520
B( 58-C , 59-C ) :   1.1250 B( 58-C ,101-H ) :   0.9289 B( 58-C ,102-H ) :   0.9369
B( 59-C ,103-H ) :   0.9658 B( 59-C ,104-H ) :   0.9673 B( 59-C ,105-H ) :   0.9646
B( 60-C , 61-O ) :   2.0441 B( 60-C , 62-C ) :   0.9898 B( 62-C , 63-C ) :   1.2223
B( 62-C , 69-C ) :   1.3621 B( 63-C , 64-C ) :   0.9433 B( 64-C , 65-O ) :   2.1873
B( 64-C , 66-N ) :   1.0178 B( 66-N , 67-C ) :   0.9450 B( 66-N , 69-C ) :   1.1810
B( 67-C , 68-C ) :   1.1202 B( 67-C ,106-H ) :   0.9508 B( 67-C ,107-H ) :   0.9275
B( 68-C ,108-H ) :   0.9688 B( 68-C ,109-H ) :   0.9678 B( 68-C ,110-H ) :   0.9638
B( 69-C , 70-C ) :   1.1257 B( 70-C , 71-C ) :   1.8855 B( 70-C ,111-H ) :   0.9537
B( 71-C ,112-H ) :   0.9241 B( 71-C ,113-H ) :   0.9449

-----------------------------------------------------------------------------
         ABSORPTION SPECTRUM VIA TRANSITION ELECTRIC DIPOLE MOMENTS
-----------------------------------------------------------------------------
State   Energy  Wavelength   fosc         T2         TX        TY        TZ
        (cm-1)    (nm)                  (au**2)     (au)      (au)      (au)
-----------------------------------------------------------------------------
   0   16686.7    599.3   1.429871910  28.20999  -0.55465  -5.06782   1.48982
   1   20319.3    492.1   0.362139938   5.86738  -0.56059  -0.24758  -2.34346
   2   20729.1    482.4   0.366303759   5.81749  -0.18665   2.16524  -1.04614
   3   24282.4    411.8   0.036325064   0.49248   0.21226   0.62968  -0.22568
   4   24900.0    401.6   0.044883796   0.59343  -0.07632  -0.19531   0.74125
   5   25874.1    386.5   0.036905326   0.46957  -0.10258  -0.22633   0.63861
   6   26554.2    376.6   0.050219171   0.62260  -0.08856  -0.45247   0.64034
   7   27006.0    370.3   0.067153729   0.81863   0.11675   0.80250  -0.40124
   8   27896.0    358.5   0.013336931   0.15739   0.13531   0.35015  -0.12839
   9   27977.7    357.4   0.002663383   0.03134   0.06259   0.15813   0.04918
  10   28260.5    353.9   0.010667913   0.12427   0.01502  -0.33840  -0.09764
  11   28702.3    348.4   0.519636007   5.96017   0.22521   2.16937  -1.09694
  12   29695.0    336.8   0.001966914   0.02181  -0.03581   0.14283   0.01110
  13   29934.7    334.1   0.425964158   4.68462   0.29444   1.79601  -1.17143
  14   30130.1    331.9   0.130617245   1.42717   0.07568   0.96360  -0.70208
  15   30976.4    322.8   0.068791517   0.73110  -0.04006   0.20116  -0.83008
  16   31313.8    319.3   0.001444435   0.01519  -0.04013   0.07253  -0.09119
  17   31663.0    315.8   0.066335979   0.68972   0.12217   0.32357  -0.75505
  18   31795.5    314.5   0.008355217   0.08651  -0.04790   0.16219  -0.24064
  19   31991.2    312.6   0.094276646   0.97017  -0.07184   0.64382  -0.74196
  20   32658.0    306.2   0.051058916   0.51470  -0.07361  -0.48025   0.52787
  21   33320.7    300.1   0.010227432   0.10105  -0.16251  -0.23245  -0.14354
  22   33832.5    295.6   0.048412519   0.47108  -0.00109  -0.18505   0.66094
  23   34738.3    287.9   0.025459586   0.24128   0.03006  -0.02621   0.48958
  24   34895.5    286.6   0.001075178   0.01014  -0.00894  -0.05841   0.08156
  25   35245.8    283.7   0.250644164   2.34113  -0.14059  -1.44203   0.49184
  26   35462.7    282.0   0.021940448   0.20368   0.05979   0.06821  -0.44210
  27   36182.1    276.4   0.377405122   3.43392  -0.31897  -0.64904   1.70614
  28   38482.0    259.9   0.003185497   0.02725  -0.00105   0.09449  -0.13536
  29   39521.7    253.0   0.032649676   0.27197   0.06140  -0.51786   0.00485
  30   39596.0    252.6   0.000681166   0.00566   0.07395  -0.01326  -0.00429
  31   39883.6    250.7   0.164229461   1.35560   0.09778   0.52677  -1.03371

FINAL SINGLE POINT ENERGY     -3302.620440086886

DIPOLE MOMENT
-------------
                                X             Y             Z
Electronic contribution:     -3.23034       0.77864      -0.62378
Nuclear contribution   :      3.19274      -1.21295      -0.93251
                        -----------------------------------------
Total Dipole Moment    :     -0.03760      -0.43431      -1.55630
                        -----------------------------------------
Magnitude (a.u.)       :      1.61620
Magnitude (Debye)      :      4.10806

Rotational constants in cm-1:     0.003837     0.000153     0.000148
Rotational constants in MHz :   115.043340     4.598327     4.446856

                             ****ORCA TERMINATED NORMALLY****
TOTAL RUN TIME: 0 days 0 hours 9 minutes 29 seconds 971 msec
