                         Program Version 4.2.0 -  RELEASE  -
|  1> # ORCA input file
|  2> # SCF done       -201.448239290016          0.000612901902
|  3> ! CAM-B3LYP def2-SVP def2/J RIJCOSX Grid4 TightSCF
|  4> %maxcore 5000
|  5> %tddft
|  6>     Mode sTDDFT
|  7>     Ethresh 5.0
|  8>     maxcore 5000
|  9> end
| 10>
| 11> %pal
| 12>   nprocs 6
| 13>   end
| 14> * xyz 0 1
| 15>    C       -3.90954         3.57365         7.74093
| 16>    N       -3.62682         4.87125         7.45113
| 17>    C       -3.47346         5.93702         8.40962
| 18>    C       -2.11393         5.87853         9.10107
| 19>    C       -3.43140         5.05802         6.06667
| 20>    O       -3.15966         6.13728         5.56896
| 21>    C       -3.63398         3.74750         5.50283
| 22>    C       -3.92621         2.85237         6.57925
| 23>    C       -4.13143         1.53065         6.01997
| 24>    O       -4.38972         0.46165         6.52299
| 25>    N       -3.94727         1.71542         4.63434
| 26>    C       -4.12211         0.62037         3.71108
| 27>    C       -5.49287         0.65366         3.03890
| 28>    C       -3.65870         3.02411         4.31428
| 29>    C       -3.43464         3.47291         2.98993
| 30>    C       -3.13203         4.77351         2.71896
| 31>    C       -2.89530         5.36792         1.46261
| 32>    S       -2.19475         6.95508         1.48631
| 33>    C       -2.15741         7.08504        -0.23735
| 34>    C       -2.64540         5.90196        -0.82549
| 35>    C       -3.10136         4.94277         0.13290
| 36>    C       -3.71204         3.76568        -0.32908
| 37>    C       -3.78032         3.51033        -1.68087
| 38>    C       -4.40209         2.32325        -2.13137
| 39>    N       -4.90671         1.34853        -2.46045
| 40>    C       -3.19772         4.40852        -2.62162
| 41>    C       -3.19446         4.08592        -3.99775
| 42>    N       -3.16970         3.83603        -5.11557
| 43>    C       -2.63635         5.58823        -2.19303
| 44>    C       -1.82752         8.26856        -0.93833
| 45>    N       -0.90611         9.21588        -0.56074
| 46>    C       -0.03536         9.19063         0.58976
| 47>    C       -0.61728         9.98818         1.75368
| 48>    C       -0.84407        10.28427        -1.48234
| 49>    O       -0.07637        11.21762        -1.37591
| 50>    C       -1.84447         9.95498        -2.46864
| 51>    C       -2.41821         8.71220        -2.12485
| 52>    C       -3.51442         8.47034        -3.03847
| 53>    O       -4.32533         7.56855        -3.11248
| 54>    N       -3.50673         9.57960        -3.90576
| 55>    C       -4.43536         9.61708        -5.00995
| 56>    C       -3.76101         9.27645        -6.33674
| 57>    C       -2.51529        10.48125        -3.57682
| 58>    C       -2.17135        11.72255        -4.14618
| 59>    C       -2.74600        12.41256        -5.17500
| 60>    C       -2.27103        13.65127        -5.63691
| 61>    S       -0.87032        14.41940        -4.95710
| 62>    C       -0.98441        15.78467        -6.01655
| 63>    C       -2.05746        15.62965        -6.91215
| 64>    C       -2.80269        14.43319        -6.68312
| 65>    C       -3.92765        14.15483        -7.47325
| 66>    C       -4.28278        15.02416        -8.48077
| 67>    C       -5.42813        14.75762        -9.26537
| 68>    N       -6.36046        14.51485        -9.88559
| 69>    C       -3.48296        16.17079        -8.76465
| 70>    C       -3.81883        17.00909        -9.85255
| 71>    N       -4.06810        17.69740       -10.73383
| 72>    C       -2.37650        16.45721        -8.00025
| 73>    C       -0.18212        16.94671        -5.89254
| 74>    N        1.12852        16.98937        -5.47592
| 75>    C        1.99881        15.86654        -5.22279
| 76>    C        2.31902        15.09013        -6.49652
| 77>    C        1.62894        18.30712        -5.46001
| 78>    O        2.77385        18.57723        -5.15942
| 79>    C        0.50420        19.12395        -5.85015
| 80>    C       -0.59054        18.25665        -6.12214
| 81>    C       -1.75312        19.07690        -6.38114
| 82>    O       -2.91579        18.80165        -6.60316
| 83>    N       -1.26882        20.39616        -6.29537
| 84>    C       -2.13191        21.51730        -6.57971
| 85>    C       -1.92804        22.04255        -7.99865
| 86>    C        0.06684        20.43594        -5.97978
| 87>    C        0.80372        21.65503        -5.81203
| 88>    C        2.10599        21.68007        -5.51867
| 89>    H       -4.08733         3.25752         8.75199
| 90>    H       -4.27952         5.87360         9.14622
| 91>    H       -3.56777         6.87293         7.85237
| 92>    H       -1.99482         4.93845         9.63529
| 93>    H       -2.02467         6.69708         9.80959
| 94>    H       -1.31745         5.96498         8.36604
| 95>    H       -4.03099        -0.29244         4.30649
| 96>    H       -3.32008         0.63395         2.96724
| 97>    H       -6.27453         0.56476         3.78912
| 98>    H       -5.58284        -0.17552         2.34272
| 99>    H       -5.64305         1.58453         2.49590
|100>    H       -3.48123         2.73621         2.20494
|101>    H       -3.02744         5.44608         3.56247
|102>    H       -4.15217         3.06049         0.35596
|103>    H       -2.17467         6.25482        -2.90174
|104>    H        0.90764         9.64981         0.27783
|105>    H        0.15001         8.15377         0.87928
|106>    H       -0.74109        11.02689         1.45839
|107>    H        0.05842         9.94394         2.60267
|108>    H       -1.58335         9.59081         2.05584
|109>    H       -4.92963        10.59151        -5.04418
|110>    H       -5.19067         8.85805        -4.78377
|111>    H       -2.93441         9.95212        -6.54651
|112>    H       -4.48427         9.34227        -7.14495
|113>    H       -3.37478         8.26066        -6.30337
|114>    H       -1.31498        12.17358        -3.65702
|115>    H       -3.61128        12.02703        -5.68940
|116>    H       -4.51956        13.26848        -7.30255
|117>    H       -1.75023        17.29661        -8.25068
|118>    H        1.55253        15.20984        -4.47055
|119>    H        2.91630        16.29687        -4.81094
|120>    H        1.41743        14.67099        -6.93837
|121>    H        3.00152        14.27729        -6.26638
|122>    H        2.79025        15.74520        -7.22543
|123>    H       -1.96404        22.30658        -5.84202
|124>    H       -3.15452        21.14500        -6.47052
|125>    H       -0.90045        22.36579        -8.15134
|126>    H       -2.59099        22.88433        -8.17747
|127>    H       -2.15784        21.26267        -8.72070
|128>    H        0.25432        22.57795        -5.93547
|129>    H        2.67447        20.77380        -5.39254
|130>    H        2.63077        22.61197        -5.39812
|131> *
|132>
|133>                          ****END OF INPUT****

CARTESIAN COORDINATES (ANGSTROEM)
---------------------------------
  C     -3.909540    3.573650    7.740930
  N     -3.626820    4.871250    7.451130
  C     -3.473460    5.937020    8.409620
  C     -2.113930    5.878530    9.101070
  C     -3.431400    5.058020    6.066670
  O     -3.159660    6.137280    5.568960
  C     -3.633980    3.747500    5.502830
  C     -3.926210    2.852370    6.579250
  C     -4.131430    1.530650    6.019970
  O     -4.389720    0.461650    6.522990
  N     -3.947270    1.715420    4.634340
  C     -4.122110    0.620370    3.711080
  C     -5.492870    0.653660    3.038900
  C     -3.658700    3.024110    4.314280
  C     -3.434640    3.472910    2.989930
  C     -3.132030    4.773510    2.718960
  C     -2.895300    5.367920    1.462610
  S     -2.194750    6.955080    1.486310
  C     -2.157410    7.085040   -0.237350
  C     -2.645400    5.901960   -0.825490
  C     -3.101360    4.942770    0.132900
  C     -3.712040    3.765680   -0.329080
  C     -3.780320    3.510330   -1.680870
  C     -4.402090    2.323250   -2.131370
  N     -4.906710    1.348530   -2.460450
  C     -3.197720    4.408520   -2.621620
  C     -3.194460    4.085920   -3.997750
  N     -3.169700    3.836030   -5.115570
  C     -2.636350    5.588230   -2.193030
  C     -1.827520    8.268560   -0.938330
  N     -0.906110    9.215880   -0.560740
  C     -0.035360    9.190630    0.589760
  C     -0.617280    9.988180    1.753680
  C     -0.844070   10.284270   -1.482340
  O     -0.076370   11.217620   -1.375910
  C     -1.844470    9.954980   -2.468640
  C     -2.418210    8.712200   -2.124850
  C     -3.514420    8.470340   -3.038470
  O     -4.325330    7.568550   -3.112480
  N     -3.506730    9.579600   -3.905760
  C     -4.435360    9.617080   -5.009950
  C     -3.761010    9.276450   -6.336740
  C     -2.515290   10.481250   -3.576820
  C     -2.171350   11.722550   -4.146180
  C     -2.746000   12.412560   -5.175000
  C     -2.271030   13.651270   -5.636910
  S     -0.870320   14.419400   -4.957100
  C     -0.984410   15.784670   -6.016550
  C     -2.057460   15.629650   -6.912150
  C     -2.802690   14.433190   -6.683120
  C     -3.927650   14.154830   -7.473250
  C     -4.282780   15.024160   -8.480770
  C     -5.428130   14.757620   -9.265370
  N     -6.360460   14.514850   -9.885590
  C     -3.482960   16.170790   -8.764650
  C     -3.818830   17.009090   -9.852550
  N     -4.068100   17.697400  -10.733830
  C     -2.376500   16.457210   -8.000250
  C     -0.182120   16.946710   -5.892540
  N      1.128520   16.989370   -5.475920
  C      1.998810   15.866540   -5.222790
  C      2.319020   15.090130   -6.496520
  C      1.628940   18.307120   -5.460010
  O      2.773850   18.577230   -5.159420
  C      0.504200   19.123950   -5.850150
  C     -0.590540   18.256650   -6.122140
  C     -1.753120   19.076900   -6.381140
  O     -2.915790   18.801650   -6.603160
  N     -1.268820   20.396160   -6.295370
  C     -2.131910   21.517300   -6.579710
  C     -1.928040   22.042550   -7.998650
  C      0.066840   20.435940   -5.979780
  C      0.803720   21.655030   -5.812030
  C      2.105990   21.680070   -5.518670
  H     -4.087330    3.257520    8.751990
  H     -4.279520    5.873600    9.146220
  H     -3.567770    6.872930    7.852370
  H     -1.994820    4.938450    9.635290
  H     -2.024670    6.697080    9.809590
  H     -1.317450    5.964980    8.366040
  H     -4.030990   -0.292440    4.306490
  H     -3.320080    0.633950    2.967240
  H     -6.274530    0.564760    3.789120
  H     -5.582840   -0.175520    2.342720
  H     -5.643050    1.584530    2.495900
  H     -3.481230    2.736210    2.204940
  H     -3.027440    5.446080    3.562470
  H     -4.152170    3.060490    0.355960
  H     -2.174670    6.254820   -2.901740
  H      0.907640    9.649810    0.277830
  H      0.150010    8.153770    0.879280
  H     -0.741090   11.026890    1.458390
  H      0.058420    9.943940    2.602670
  H     -1.583350    9.590810    2.055840
  H     -4.929630   10.591510   -5.044180
  H     -5.190670    8.858050   -4.783770
  H     -2.934410    9.952120   -6.546510
  H     -4.484270    9.342270   -7.144950
  H     -3.374780    8.260660   -6.303370
  H     -1.314980   12.173580   -3.657020
  H     -3.611280   12.027030   -5.689400
  H     -4.519560   13.268480   -7.302550
  H     -1.750230   17.296610   -8.250680
  H      1.552530   15.209840   -4.470550
  H      2.916300   16.296870   -4.810940
  H      1.417430   14.670990   -6.938370
  H      3.001520   14.277290   -6.266380
  H      2.790250   15.745200   -7.225430
  H     -1.964040   22.306580   -5.842020
  H     -3.154520   21.145000   -6.470520
  H     -0.900450   22.365790   -8.151340
  H     -2.590990   22.884330   -8.177470
  H     -2.157840   21.262670   -8.720700
  H      0.254320   22.577950   -5.935470
  H      2.674470   20.773800   -5.392540
  H      2.630770   22.611970   -5.398120

 Total Charge           Charge          ....    0
 Multiplicity           Mult            ....    1
 Number of Electrons    NEL             ....  528
 Basis Dimension        Dim             .... 1254

ORBITAL ENERGIES
----------------

  NO   OCC          E(Eh)            E(eV)
   0   2.0000     -89.003707     -2421.9140
   1   2.0000     -89.000978     -2421.8397
   2   2.0000     -19.203804      -522.5621
   3   2.0000     -19.203763      -522.5610
   4   2.0000     -19.203611      -522.5568
   5   2.0000     -19.199195      -522.4366
   6   2.0000     -19.197323      -522.3857
   7   2.0000     -19.191380      -522.2240
   8   2.0000     -14.470712      -393.7681
   9   2.0000     -14.467273      -393.6745
  10   2.0000     -14.464772      -393.6064
  11   2.0000     -14.464487      -393.5987
  12   2.0000     -14.461135      -393.5075
  13   2.0000     -14.457446      -393.4071
  14   2.0000     -14.414434      -392.2367
  15   2.0000     -14.412466      -392.1831
  16   2.0000     -14.410002      -392.1161
  17   2.0000     -14.407873      -392.0581
  18   2.0000     -10.387765      -282.6655
  19   2.0000     -10.387493      -282.6581
  20   2.0000     -10.386166      -282.6219
  21   2.0000     -10.382181      -282.5135
  22   2.0000     -10.380232      -282.4605
  23   2.0000     -10.377920      -282.3976
  24   2.0000     -10.364400      -282.0297
  25   2.0000     -10.356822      -281.8235
  26   2.0000     -10.354020      -281.7472
  27   2.0000     -10.351645      -281.6826
  28   2.0000     -10.350058      -281.6394
  29   2.0000     -10.343164      -281.4518
  30   2.0000     -10.342236      -281.4266
  31   2.0000     -10.342022      -281.4207
  32   2.0000     -10.339883      -281.3625
  33   2.0000     -10.338529      -281.3257
  34   2.0000     -10.336991      -281.2838
  35   2.0000     -10.335625      -281.2466
  36   2.0000     -10.333742      -281.1954
  37   2.0000     -10.331605      -281.1373
  38   2.0000     -10.321585      -280.8646
  39   2.0000     -10.321450      -280.8609
  40   2.0000     -10.320976      -280.8480
  41   2.0000     -10.320769      -280.8424
  42   2.0000     -10.320239      -280.8280
  43   2.0000     -10.319690      -280.8130
  44   2.0000     -10.319118      -280.7975
  45   2.0000     -10.317629      -280.7570
  46   2.0000     -10.317425      -280.7514
  47   2.0000     -10.317182      -280.7448
  48   2.0000     -10.315775      -280.7065
  49   2.0000     -10.315486      -280.6986
  50   2.0000     -10.315452      -280.6977
  51   2.0000     -10.315200      -280.6909
  52   2.0000     -10.312997      -280.6309
  53   2.0000     -10.312924      -280.6289
  54   2.0000     -10.312530      -280.6182
  55   2.0000     -10.310675      -280.5677
  56   2.0000     -10.310534      -280.5639
  57   2.0000     -10.308527      -280.5093
  58   2.0000     -10.307622      -280.4847
  59   2.0000     -10.306535      -280.4551
  60   2.0000     -10.297379      -280.2059
  61   2.0000     -10.290325      -280.0140
  62   2.0000     -10.280736      -279.7531
  63   2.0000     -10.278745      -279.6989
  64   2.0000     -10.277314      -279.6599
  65   2.0000     -10.272070      -279.5172
  66   2.0000     -10.271340      -279.4974
  67   2.0000     -10.271040      -279.4892
  68   2.0000     -10.270664      -279.4790
  69   2.0000     -10.269451      -279.4460
  70   2.0000     -10.268843      -279.4294
  71   2.0000     -10.267938      -279.4048
  72   2.0000     -10.267152      -279.3834
  73   2.0000     -10.265876      -279.3487
  74   2.0000      -8.098028      -220.3585
  75   2.0000      -8.095152      -220.2803
  76   2.0000      -6.066969      -165.0906
  77   2.0000      -6.064102      -165.0126
  78   2.0000      -6.062631      -164.9726
  79   2.0000      -6.061141      -164.9320
  80   2.0000      -6.060001      -164.9010
  81   2.0000      -6.058070      -164.8485
  82   2.0000      -1.147440       -31.2234
  83   2.0000      -1.144567       -31.1452
  84   2.0000      -1.140291       -31.0289
  85   2.0000      -1.138427       -30.9782
  86   2.0000      -1.136798       -30.9338
  87   2.0000      -1.131097       -30.7787
  88   2.0000      -1.078985       -29.3607
  89   2.0000      -1.075279       -29.2598
  90   2.0000      -1.069154       -29.0932
  91   2.0000      -1.069067       -29.0908
  92   2.0000      -1.067541       -29.0493
  93   2.0000      -1.060496       -28.8576
  94   2.0000      -1.032609       -28.0987
  95   2.0000      -1.031002       -28.0550
  96   2.0000      -1.006618       -27.3915
  97   2.0000      -1.004679       -27.3387
  98   2.0000      -0.992478       -27.0067
  99   2.0000      -0.990419       -26.9507
 100   2.0000      -0.968321       -26.3493
 101   2.0000      -0.966681       -26.3047
 102   2.0000      -0.945070       -25.7167
 103   2.0000      -0.940823       -25.6011
 104   2.0000      -0.937153       -25.5012
 105   2.0000      -0.934403       -25.4264
 106   2.0000      -0.929705       -25.2986
 107   2.0000      -0.905452       -24.6386
 108   2.0000      -0.901713       -24.5369
 109   2.0000      -0.898220       -24.4418
 110   2.0000      -0.886987       -24.1362
 111   2.0000      -0.883913       -24.0525
 112   2.0000      -0.880907       -23.9707
 113   2.0000      -0.879820       -23.9411
 114   2.0000      -0.878407       -23.9027
 115   2.0000      -0.866821       -23.5874
 116   2.0000      -0.862687       -23.4749
 117   2.0000      -0.834065       -22.6961
 118   2.0000      -0.832645       -22.6574
 119   2.0000      -0.828576       -22.5467
 120   2.0000      -0.826027       -22.4773
 121   2.0000      -0.822235       -22.3742
 122   2.0000      -0.802944       -21.8492
 123   2.0000      -0.795419       -21.6445
 124   2.0000      -0.782646       -21.2969
 125   2.0000      -0.778056       -21.1720
 126   2.0000      -0.771851       -21.0031
 127   2.0000      -0.769578       -20.9413
 128   2.0000      -0.767023       -20.8718
 129   2.0000      -0.766540       -20.8586
 130   2.0000      -0.765882       -20.8407
 131   2.0000      -0.744496       -20.2588
 132   2.0000      -0.734602       -19.9895
 133   2.0000      -0.725743       -19.7485
 134   2.0000      -0.721485       -19.6326
 135   2.0000      -0.717775       -19.5317
 136   2.0000      -0.715777       -19.4773
 137   2.0000      -0.708585       -19.2816
 138   2.0000      -0.703422       -19.1411
 139   2.0000      -0.702278       -19.1100
 140   2.0000      -0.695523       -18.9262
 141   2.0000      -0.683475       -18.5983
 142   2.0000      -0.677720       -18.4417
 143   2.0000      -0.668316       -18.1858
 144   2.0000      -0.664199       -18.0738
 145   2.0000      -0.658867       -17.9287
 146   2.0000      -0.657539       -17.8925
 147   2.0000      -0.648848       -17.6561
 148   2.0000      -0.646934       -17.6040
 149   2.0000      -0.635801       -17.3010
 150   2.0000      -0.621500       -16.9119
 151   2.0000      -0.620506       -16.8848
 152   2.0000      -0.617237       -16.7959
 153   2.0000      -0.615334       -16.7441
 154   2.0000      -0.609217       -16.5776
 155   2.0000      -0.602593       -16.3974
 156   2.0000      -0.598232       -16.2787
 157   2.0000      -0.596353       -16.2276
 158   2.0000      -0.594946       -16.1893
 159   2.0000      -0.593060       -16.1380
 160   2.0000      -0.588543       -16.0151
 161   2.0000      -0.586600       -15.9622
 162   2.0000      -0.583687       -15.8829
 163   2.0000      -0.579252       -15.7622
 164   2.0000      -0.572437       -15.5768
 165   2.0000      -0.568679       -15.4745
 166   2.0000      -0.566364       -15.4116
 167   2.0000      -0.563773       -15.3410
 168   2.0000      -0.560385       -15.2488
 169   2.0000      -0.554972       -15.1016
 170   2.0000      -0.554118       -15.0783
 171   2.0000      -0.549445       -14.9511
 172   2.0000      -0.547815       -14.9068
 173   2.0000      -0.547125       -14.8880
 174   2.0000      -0.541304       -14.7296
 175   2.0000      -0.540255       -14.7011
 176   2.0000      -0.538457       -14.6522
 177   2.0000      -0.538241       -14.6463
 178   2.0000      -0.536347       -14.5947
 179   2.0000      -0.533515       -14.5177
 180   2.0000      -0.533261       -14.5108
 181   2.0000      -0.530031       -14.4229
 182   2.0000      -0.529049       -14.3962
 183   2.0000      -0.527609       -14.3570
 184   2.0000      -0.524332       -14.2678
 185   2.0000      -0.522124       -14.2077
 186   2.0000      -0.519830       -14.1453
 187   2.0000      -0.519280       -14.1303
 188   2.0000      -0.517485       -14.0815
 189   2.0000      -0.515230       -14.0201
 190   2.0000      -0.513030       -13.9603
 191   2.0000      -0.508383       -13.8338
 192   2.0000      -0.507479       -13.8092
 193   2.0000      -0.505148       -13.7458
 194   2.0000      -0.501033       -13.6338
 195   2.0000      -0.496637       -13.5142
 196   2.0000      -0.493599       -13.4315
 197   2.0000      -0.493290       -13.4231
 198   2.0000      -0.490004       -13.3337
 199   2.0000      -0.484012       -13.1706
 200   2.0000      -0.481014       -13.0891
 201   2.0000      -0.478630       -13.0242
 202   2.0000      -0.478317       -13.0157
 203   2.0000      -0.475856       -12.9487
 204   2.0000      -0.475396       -12.9362
 205   2.0000      -0.472386       -12.8543
 206   2.0000      -0.471346       -12.8260
 207   2.0000      -0.468819       -12.7572
 208   2.0000      -0.467224       -12.7138
 209   2.0000      -0.464523       -12.6403
 210   2.0000      -0.463094       -12.6014
 211   2.0000      -0.462518       -12.5858
 212   2.0000      -0.461743       -12.5647
 213   2.0000      -0.460857       -12.5406
 214   2.0000      -0.459889       -12.5142
 215   2.0000      -0.455190       -12.3863
 216   2.0000      -0.454594       -12.3701
 217   2.0000      -0.451554       -12.2874
 218   2.0000      -0.451021       -12.2729
 219   2.0000      -0.449961       -12.2441
 220   2.0000      -0.448838       -12.2135
 221   2.0000      -0.444942       -12.1075
 222   2.0000      -0.444484       -12.0950
 223   2.0000      -0.443205       -12.0602
 224   2.0000      -0.441505       -12.0139
 225   2.0000      -0.440009       -11.9733
 226   2.0000      -0.439588       -11.9618
 227   2.0000      -0.438272       -11.9260
 228   2.0000      -0.437301       -11.8996
 229   2.0000      -0.437180       -11.8963
 230   2.0000      -0.435694       -11.8558
 231   2.0000      -0.433069       -11.7844
 232   2.0000      -0.431327       -11.7370
 233   2.0000      -0.429668       -11.6919
 234   2.0000      -0.426015       -11.5925
 235   2.0000      -0.422812       -11.5053
 236   2.0000      -0.419107       -11.4045
 237   2.0000      -0.417305       -11.3554
 238   2.0000      -0.413868       -11.2619
 239   2.0000      -0.413136       -11.2420
 240   2.0000      -0.412190       -11.2163
 241   2.0000      -0.411340       -11.1931
 242   2.0000      -0.410574       -11.1723
 243   2.0000      -0.392910       -10.6916
 244   2.0000      -0.390334       -10.6215
 245   2.0000      -0.367735       -10.0066
 246   2.0000      -0.365044        -9.9334
 247   2.0000      -0.358272        -9.7491
 248   2.0000      -0.353672        -9.6239
 249   2.0000      -0.353331        -9.6146
 250   2.0000      -0.351548        -9.5661
 251   2.0000      -0.342399        -9.3172
 252   2.0000      -0.340569        -9.2674
 253   2.0000      -0.340144        -9.2558
 254   2.0000      -0.339264        -9.2319
 255   2.0000      -0.335829        -9.1384
 256   2.0000      -0.331528        -9.0213
 257   2.0000      -0.326663        -8.8890
 258   2.0000      -0.320013        -8.7080
 259   2.0000      -0.303896        -8.2694
 260   2.0000      -0.298454        -8.1213
 261   2.0000      -0.268011        -7.2930
 262   2.0000      -0.254208        -6.9174
 263   2.0000      -0.235787        -6.4161
 264   0.0000      -0.125422        -3.4129
 265   0.0000      -0.099448        -2.7061
 266   0.0000      -0.069314        -1.8861
 267   0.0000      -0.054619        -1.4863
 268   0.0000      -0.045159        -1.2288

MULLIKEN ATOMIC CHARGES
-----------------------
   0 C :    0.042150
   1 N :   -0.253838
   2 C :    0.109520
   3 C :   -0.002231
   4 C :    0.179319
   5 O :   -0.221431
   6 C :   -0.107539
   7 C :    0.001196
   8 C :    0.164939
   9 O :   -0.181148
  10 N :   -0.270791
  11 C :    0.092612
  12 C :   -0.000456
  13 C :    0.151231
  14 C :   -0.032321
  15 C :    0.070229
  16 C :   -0.110929
  17 S :    0.217305
  18 C :   -0.184823
  19 C :    0.127954
  20 C :    0.126274
  21 C :   -0.068144
  22 C :   -0.052061
  23 C :   -0.183328
  24 N :    0.179179
  25 C :   -0.079613
  26 C :   -0.176979
  27 N :    0.175325
  28 C :    0.007814
  29 C :    0.128087
  30 N :   -0.260355
  31 C :    0.094488
  32 C :   -0.001374
  33 C :    0.150135
  34 O :   -0.193980
  35 C :   -0.051442
  36 C :   -0.062195
  37 C :    0.128024
  38 O :   -0.193016
  39 N :   -0.265028
  40 C :    0.092553
  41 C :   -0.004620
  42 C :    0.138438
  43 C :   -0.055461
  44 C :    0.016209
  45 C :   -0.078932
  46 S :    0.188395
  47 C :   -0.184796
  48 C :    0.142589
  49 C :    0.121903
  50 C :   -0.067251
  51 C :   -0.052963
  52 C :   -0.181902
  53 N :    0.175302
  54 C :   -0.080355
  55 C :   -0.175568
  56 N :    0.172734
  57 C :    0.005715
  58 C :    0.113777
  59 N :   -0.258512
  60 C :    0.086513
  61 C :   -0.000988
  62 C :    0.164757
  63 O :   -0.202446
  64 C :   -0.083754
  65 C :   -0.055388
  66 C :    0.132508
  67 O :   -0.188488
  68 N :   -0.258323
  69 C :    0.092686
  70 C :    0.001341
  71 C :    0.124978
  72 C :   -0.035924
  73 C :    0.018944
  74 H :    0.017914
  75 H :    0.021651
  76 H :    0.041583
  77 H :    0.016462
  78 H :    0.025711
  79 H :    0.030084
  80 H :    0.046827
  81 H :    0.026299
  82 H :    0.033107
  83 H :    0.033118
  84 H :    0.011939
  85 H :   -0.030063
  86 H :    0.006940
  87 H :   -0.013710
  88 H :    0.002533
  89 H :    0.040110
  90 H :    0.027691
  91 H :    0.038396
  92 H :    0.028447
  93 H :    0.019535
  94 H :    0.025868
  95 H :    0.053125
  96 H :    0.020072
  97 H :    0.031166
  98 H :    0.035042
  99 H :    0.012755
 100 H :   -0.016591
 101 H :   -0.006003
 102 H :    0.001749
 103 H :    0.032658
 104 H :    0.050492
 105 H :    0.021506
 106 H :    0.029045
 107 H :    0.028789
 108 H :    0.027608
 109 H :    0.049461
 110 H :    0.016297
 111 H :    0.028493
 112 H :    0.035970
 113 H :   -0.014524
 114 H :    0.060406
 115 H :    0.035614
Sum of atomic charges:   -0.0000000

LOEWDIN ATOMIC CHARGES
----------------------
   0 C :    0.090825
   1 N :    0.003560
   2 C :    0.038563
   3 C :   -0.060381
   4 C :    0.076437
   5 O :   -0.210241
   6 C :   -0.129366
   7 C :   -0.126355
   8 C :    0.082338
   9 O :   -0.185904
  10 N :   -0.008534
  11 C :    0.034951
  12 C :   -0.061194
  13 C :    0.082924
  14 C :   -0.044008
  15 C :    0.000369
  16 C :   -0.159346
  17 S :    0.547507
  18 C :   -0.187563
  19 C :   -0.023270
  20 C :   -0.035501
  21 C :    0.022021
  22 C :   -0.042704
  23 C :   -0.031418
  24 N :   -0.033447
  25 C :   -0.048052
  26 C :   -0.027649
  27 N :   -0.036427
  28 C :    0.056452
  29 C :    0.052765
  30 N :   -0.001456
  31 C :    0.029912
  32 C :   -0.063452
  33 C :    0.078295
  34 O :   -0.196474
  35 C :   -0.111175
  36 C :   -0.125207
  37 C :    0.076998
  38 O :   -0.188253
  39 N :   -0.002786
  40 C :    0.034176
  41 C :   -0.063142
  42 C :    0.071495
  43 C :   -0.035633
  44 C :   -0.021957
  45 C :   -0.162705
  46 S :    0.524366
  47 C :   -0.176672
  48 C :   -0.028198
  49 C :   -0.034522
  50 C :    0.022966
  51 C :   -0.043947
  52 C :   -0.031658
  53 N :   -0.032947
  54 C :   -0.049838
  55 C :   -0.027768
  56 N :   -0.037970
  57 C :    0.057160
  58 C :    0.043233
  59 N :   -0.003314
  60 C :    0.028353
  61 C :   -0.062571
  62 C :    0.081157
  63 O :   -0.197063
  64 C :   -0.131223
  65 C :   -0.114353
  66 C :    0.076804
  67 O :   -0.184864
  68 N :    0.002940
  69 C :    0.036361
  70 C :   -0.060228
  71 C :    0.091615
  72 C :   -0.055133
  73 C :    0.036095
  74 H :    0.033881
  75 H :    0.025986
  76 H :    0.036083
  77 H :    0.023238
  78 H :    0.030962
  79 H :    0.031339
  80 H :    0.039536
  81 H :    0.022593
  82 H :    0.033978
  83 H :    0.034293
  84 H :    0.019005
  85 H :    0.027028
  86 H :    0.037513
  87 H :    0.039519
  88 H :    0.045190
  89 H :    0.037718
  90 H :    0.017586
  91 H :    0.033864
  92 H :    0.033110
  93 H :    0.013304
  94 H :    0.020081
  95 H :    0.041277
  96 H :    0.020737
  97 H :    0.034297
  98 H :    0.035789
  99 H :    0.038215
 100 H :    0.034881
 101 H :    0.040569
 102 H :    0.044935
 103 H :    0.012381
 104 H :    0.040368
 105 H :    0.018941
 106 H :    0.033622
 107 H :    0.031798
 108 H :    0.024265
 109 H :    0.039557
 110 H :    0.022404
 111 H :    0.033057
 112 H :    0.034471
 113 H :    0.031534
 114 H :    0.034150
 115 H :    0.032176

  Mayer bond orders larger than 0.100000
B(  0-C ,  1-N ) :   1.1891 B(  0-C ,  7-C ) :   1.4539 B(  0-C , 74-H ) :   0.9908
B(  1-N ,  2-C ) :   0.9413 B(  1-N ,  4-C ) :   1.0676 B(  2-C ,  3-C ) :   1.1193
B(  2-C , 75-H ) :   0.9536 B(  2-C , 76-H ) :   0.9353 B(  3-C , 77-H ) :   0.9691
B(  3-C , 78-H ) :   0.9689 B(  3-C , 79-H ) :   0.9674 B(  4-C ,  5-O ) :   1.9931
B(  4-C ,  6-C ) :   1.0084 B(  5-O , 86-H ) :   0.1295 B(  6-C ,  7-C ) :   1.2126
B(  6-C , 13-C ) :   1.3620 B(  7-C ,  8-C ) :   0.9475 B(  8-C ,  9-O ) :   2.1813
B(  8-C , 10-N ) :   1.0166 B( 10-N , 11-C ) :   0.9437 B( 10-N , 13-C ) :   1.1563
B( 11-C , 12-C ) :   1.1191 B( 11-C , 80-H ) :   0.9270 B( 11-C , 81-H ) :   0.9497
B( 12-C , 82-H ) :   0.9630 B( 12-C , 83-H ) :   0.9682 B( 12-C , 84-H ) :   0.9683
B( 13-C , 14-C ) :   1.1789 B( 14-C , 15-C ) :   1.5824 B( 14-C , 85-H ) :   0.9608
B( 15-C , 16-C ) :   1.1805 B( 15-C , 86-H ) :   0.9138 B( 16-C , 17-S ) :   1.1751
B( 16-C , 18-C ) :   0.1112 B( 16-C , 20-C ) :   1.2691 B( 17-S , 18-C ) :   1.1603
B( 18-C , 19-C ) :   1.3036 B( 18-C , 29-C ) :   1.1245 B( 19-C , 20-C ) :   1.2241
B( 19-C , 28-C ) :   1.2223 B( 20-C , 21-C ) :   1.1939 B( 21-C , 22-C ) :   1.5572
B( 21-C , 87-H ) :   0.9952 B( 22-C , 23-C ) :   1.0794 B( 22-C , 25-C ) :   1.2556
B( 23-C , 24-N ) :   3.0449 B( 25-C , 26-C ) :   1.0878 B( 25-C , 28-C ) :   1.5486
B( 26-C , 27-N ) :   3.0427 B( 28-C , 88-H ) :   0.9829 B( 29-C , 30-N ) :   1.2032
B( 29-C , 36-C ) :   1.3638 B( 30-N , 31-C ) :   0.9400 B( 30-N , 33-C ) :   1.0251
B( 31-C , 32-C ) :   1.1148 B( 31-C , 89-H ) :   0.9301 B( 31-C , 90-H ) :   0.9479
B( 32-C , 91-H ) :   0.9646 B( 32-C , 92-H ) :   0.9672 B( 32-C , 93-H ) :   0.9639
B( 33-C , 34-O ) :   2.1194 B( 33-C , 35-C ) :   0.9907 B( 35-C , 36-C ) :   1.2325
B( 35-C , 42-C ) :   1.3291 B( 36-C , 37-C ) :   0.9735 B( 37-C , 38-O ) :   2.1015
B( 37-C , 39-N ) :   1.0491 B( 39-N , 40-C ) :   0.9405 B( 39-N , 42-C ) :   1.1589
B( 40-C , 41-C ) :   1.1138 B( 40-C , 94-H ) :   0.9505 B( 40-C , 95-H ) :   0.9217
B( 41-C , 96-H ) :   0.9682 B( 41-C , 97-H ) :   0.9683 B( 41-C , 98-H ) :   0.9618
B( 42-C , 43-C ) :   1.2216 B( 43-C , 44-C ) :   1.5130 B( 43-C , 99-H ) :   0.9431
B( 44-C , 45-C ) :   1.2239 B( 44-C ,100-H ) :   0.9705 B( 45-C , 46-S ) :   1.1305
B( 45-C , 47-C ) :   0.1100 B( 45-C , 49-C ) :   1.2746 B( 46-S , 47-C ) :   1.1610
B( 47-C , 48-C ) :   1.3219 B( 47-C , 58-C ) :   1.1093 B( 48-C , 49-C ) :   1.2091
B( 48-C , 57-C ) :   1.2140 B( 49-C , 50-C ) :   1.2007 B( 50-C , 51-C ) :   1.5614
B( 50-C ,101-H ) :   0.9932 B( 51-C , 52-C ) :   1.0785 B( 51-C , 54-C ) :   1.2474
B( 52-C , 53-N ) :   3.0439 B( 54-C , 55-C ) :   1.0858 B( 54-C , 57-C ) :   1.5577
B( 55-C , 56-N ) :   3.0431 B( 57-C ,102-H ) :   0.9818 B( 58-C , 59-N ) :   1.1941
B( 58-C , 65-C ) :   1.3999 B( 59-N , 60-C ) :   0.9433 B( 59-N , 62-C ) :   1.0414
B( 60-C , 61-C ) :   1.1139 B( 60-C ,103-H ) :   0.9471 B( 60-C ,104-H ) :   0.9233
B( 61-C ,105-H ) :   0.9678 B( 61-C ,106-H ) :   0.9670 B( 61-C ,107-H ) :   0.9644
B( 62-C , 63-O ) :   2.0522 B( 62-C , 64-C ) :   0.9957 B( 64-C , 65-C ) :   1.2205
B( 64-C , 71-C ) :   1.3618 B( 65-C , 66-C ) :   0.9663 B( 66-C , 67-O ) :   2.1116
B( 66-C , 68-N ) :   1.0421 B( 68-N , 69-C ) :   0.9387 B( 68-N , 71-C ) :   1.1770
B( 69-C , 70-C ) :   1.1206 B( 69-C ,108-H ) :   0.9505 B( 69-C ,109-H ) :   0.9280
B( 70-C ,110-H ) :   0.9688 B( 70-C ,111-H ) :   0.9679 B( 70-C ,112-H ) :   0.9640
B( 71-C , 72-C ) :   1.1303 B( 72-C , 73-C ) :   1.8798 B( 72-C ,113-H ) :   0.9546
B( 73-C ,114-H ) :   0.9276 B( 73-C ,115-H ) :   0.9452

-----------------------------------------------------------------------------
         ABSORPTION SPECTRUM VIA TRANSITION ELECTRIC DIPOLE MOMENTS
-----------------------------------------------------------------------------
State   Energy  Wavelength   fosc         T2         TX        TY        TZ
        (cm-1)    (nm)                  (au**2)     (au)      (au)      (au)
-----------------------------------------------------------------------------
   0   10428.6    958.9   1.299973400  41.03793   0.43795   5.02737  -3.94610
   1   14865.1    672.7   0.245859370   5.44495  -0.20326  -1.33393  -1.90375
   2   16302.3    613.4   0.021919075   0.44264   0.43668   0.48369   0.13415
   3   16863.5    593.0   0.027914840   0.54496  -0.33077   0.54898   0.36629
   4   21425.0    466.7   0.048180179   0.74033  -0.25774   0.75694  -0.31772
   5   22426.1    445.9   0.114761363   1.68468  -0.61316  -1.06611   0.41489
   6   23138.4    432.2   0.259672935   3.69461  -0.62083  -1.20670   1.36127
   7   23606.1    423.6   0.193744621   2.70197  -0.47083  -0.96017  -1.24834
   8   24218.9    412.9   0.077963281   1.05977   0.09682  -0.93097  -0.42860
   9   25414.9    393.5   0.028777995   0.37278   0.32096  -0.42238  -0.30225
  10   25842.9    387.0   0.006876753   0.08760   0.09422   0.08104   0.26862
  11   26278.5    380.5   0.062071741   0.77762   0.64580   0.18246   0.57208
  12   26523.8    377.0   0.017047659   0.21159   0.17297   0.29541   0.30726
  13   26636.3    375.4   0.039785098   0.49172   0.49053   0.19864   0.46005
  14   27404.6    364.9   0.016200364   0.19462   0.29304   0.28860  -0.15954
  15   28082.6    356.1   0.009916268   0.11625   0.05130   0.23642  -0.24025
  16   28290.4    353.5   0.002754455   0.03205  -0.11047  -0.03851  -0.13553
  17   28701.4    348.4   0.016302122   0.18699  -0.39291   0.17008   0.06067
  18   29368.5    340.5   0.078171842   0.87628   0.21246   0.79307  -0.44964
  19   30002.2    333.3   0.054938386   0.60284  -0.69541   0.33280  -0.09210
  20   30241.9    330.7   0.065139396   0.70910  -0.14581   0.06936  -0.82646
  21   30674.5    326.0   0.013596980   0.14593  -0.23379  -0.22785  -0.19837
  22   30984.8    322.7   0.051923569   0.55168  -0.24061   0.68071   0.17445
  23   31022.0    322.4   0.039410530   0.41823  -0.10147   0.13021  -0.62528
  24   31741.2    315.0   0.186604971   1.93542   0.76977   0.19282   1.14267
  25   31783.0    314.6   0.215233204   2.22941  -0.67259   0.49954  -1.23592
  26   32527.0    307.4   0.032204487   0.32595  -0.03400   0.54525   0.16583
  27   32782.7    305.0   0.000179606   0.00180   0.01935   0.00550  -0.03740
  28   33274.1    300.5   0.047817773   0.47311   0.21046  -0.63478  -0.16082
  29   33880.5    295.2   0.140519096   1.36540  -0.78462  -0.04417  -0.86477
  30   34428.0    290.5   0.057628205   0.55106   0.61580   0.18228   0.37232
  31   34590.5    289.1   0.016960146   0.16142   0.03290   0.39404   0.07116
  32   35154.5    284.5   0.079141481   0.74114   0.14348  -0.12937   0.83894
  33   35493.8    281.7   0.004671459   0.04333   0.04351  -0.07582  -0.18891
  34   35526.6    281.5   0.029748598   0.27567   0.03284   0.27186  -0.44797
  35   35670.2    280.3   0.076004510   0.70147  -0.71078  -0.01694  -0.44270
  36   35843.4    279.0   0.036877055   0.33871   0.19708   0.36399   0.40912
  37   36321.7    275.3   0.124294041   1.12657   0.23160  -0.44634   0.93473
  38   36635.0    273.0   0.018344388   0.16485  -0.11887   0.19250  -0.33714
  39   36884.8    271.1   0.002862987   0.02555  -0.10175   0.02325  -0.12108
  40   37329.2    267.9   0.071978441   0.63479  -0.17780  -0.67077   0.39146
  41   37689.4    265.3   0.201982092   1.76429  -0.34912  -1.26628   0.19732
  42   37848.7    264.2   0.018399789   0.16004   0.04799   0.38093  -0.11239
  43   38444.3    260.1   0.168524486   1.44313   0.18018   1.10486  -0.43584
  44   38830.3    257.5   0.116159559   0.98483  -0.52700  -0.18615  -0.82003
  45   39067.3    256.0   0.039663333   0.33423   0.17321   0.55119  -0.02059
  46   39121.0    255.6   0.062106582   0.52264   0.06271  -0.71611  -0.07679
  47   39171.0    255.3   0.003591565   0.03019  -0.14422  -0.08531  -0.04593
  48   39681.5    252.0   0.011471602   0.09517   0.14246   0.01474  -0.27324
  49   39741.8    251.6   0.184474654   1.52815   0.32744   1.11165  -0.43030
  50   40066.7    249.6   0.049156971   0.40390  -0.47246  -0.17233  -0.38857

FINAL SINGLE POINT ENERGY     -3950.293377475961

DIPOLE MOMENT
-------------
                                X             Y             Z
Electronic contribution:    -13.08527     -12.49761     -27.72607
Nuclear contribution   :     15.68242      14.74629      31.83434
                        -----------------------------------------
Total Dipole Moment    :      2.59715       2.24868       4.10826
                        -----------------------------------------
Magnitude (a.u.)       :      5.35533
Magnitude (Debye)      :     13.61218

Rotational constants in cm-1:     0.001678     0.000274     0.000249
Rotational constants in MHz :    50.293153     8.210463     7.453466

                             ****ORCA TERMINATED NORMALLY****
TOTAL RUN TIME: 0 days 0 hours 11 minutes 30 seconds 609 msec
