                         Program Version 4.2.0 -  RELEASE  -
|  1> # ORCA input file
|  2> # SCF done       -175.178482146686          0.000443477765
|  3> ! CAM-B3LYP def2-SVP def2/J RIJCOSX Grid4 TightSCF
|  4> %maxcore 5000
|  5> %tddft
|  6>     Mode sTDDFT
|  7>     Ethresh 5.0
|  8>     maxcore 5000
|  9> end
| 10>
| 11> %pal
| 12>   nprocs 6
| 13>   end
| 14> * xyz 0 1
| 15>    C        1.31929         1.98660        -6.46711
| 16>    N        0.21545         1.31115        -6.05517
| 17>    C       -0.30376         0.10218        -6.64231
| 18>    C        0.52866        -1.11489        -6.24729
| 19>    C       -0.36210         1.91004        -4.90456
| 20>    O       -1.37305         1.49737        -4.37968
| 21>    C        0.51043         3.02760        -4.63067
| 22>    C        1.53212         3.04833        -5.63339
| 23>    C        2.37428         4.19507        -5.37461
| 24>    O        3.36799         4.61890        -5.92224
| 25>    N        1.78262         4.81842        -4.25116
| 26>    C        2.46037         5.92659        -3.62062
| 27>    C        3.00572         5.56400        -2.24288
| 28>    C        0.68143         4.11994        -3.79899
| 29>    C       -0.17696         4.42523        -2.70014
| 30>    C       -0.43878         5.64469        -2.17859
| 31>    C       -1.35874         5.86770        -1.11735
| 32>    S       -1.90599         7.51063        -0.81124
| 33>    C       -1.97934         5.01270        -0.23386
| 34>    C       -1.96595         3.57996         0.10710
| 35>    O       -1.32975         2.66768        -0.36109
| 36>    N       -2.87350         3.45184         1.15223
| 37>    C       -3.14305         2.18895         1.80445
| 38>    C       -2.15916         1.93162         2.94062
| 39>    C       -3.45767         4.65182         1.54696
| 40>    O       -4.25691         4.77107         2.44326
| 41>    C       -2.87513         5.65719         0.65110
| 42>    C       -2.98907         7.01666         0.47695
| 43>    C       -3.87016         7.91487         1.12947
| 44>    C       -3.99002         9.20450         0.74759
| 45>    C       -4.91042        10.17005         1.25959
| 46>    C       -5.25755        11.26685         0.52735
| 47>    C       -6.09587        12.36830         1.12375
| 48>    C       -5.84441        12.48152         2.59045
| 49>    C       -5.84868        13.60319         3.35302
| 50>    S       -5.49204        13.25904         5.00259
| 51>    C       -5.32353        11.58106         4.65209
| 52>    C       -5.54115        11.31310         3.34025
| 53>    C       -5.46683         9.99081         2.64870
| 54>    C       -4.88331        11.40699        -0.85152
| 55>    S       -4.43093        12.97369        -1.51574
| 56>    C       -4.79195        10.45885        -1.84311
| 57>    C       -5.14665         9.04167        -2.03242
| 58>    O       -5.63813         8.24800        -1.26517
| 59>    N       -4.83005         8.76711        -3.35696
| 60>    C       -5.03999         7.47133        -3.96742
| 61>    C       -4.03078         6.44287        -3.47141
| 62>    C       -4.34042         9.86687        -4.06244
| 63>    O       -4.01649         9.84815        -5.22471
| 64>    C       -4.34690        10.96270        -3.09037
| 65>    C       -4.08873        12.31360        -3.10764
| 66>    C       -3.63201        13.09727        -4.19431
| 67>    C       -3.40663        14.42970        -4.12314
| 68>    C       -2.94156        15.21885        -5.20434
| 69>    O       -2.75142        16.55206        -5.02148
| 70>    C       -2.30753        17.08951        -6.17792
| 71>    C       -2.20380        16.09083        -7.13480
| 72>    C       -2.61033        14.88769        -6.51488
| 73>    O       -2.67198        13.65975        -7.05583
| 74>    S       -1.68520        16.18758        -8.81363
| 75>    C       -2.02600        18.49356        -6.25750
| 76>    C       -2.17664        19.34225        -5.24125
| 77>    H        1.87048         1.66926        -7.33337
| 78>    H       -0.32805         0.21154        -7.73079
| 79>    H       -1.32545        -0.00783        -6.26866
| 80>    H        1.55487        -1.00701        -6.59199
| 81>    H        0.10422        -2.01245        -6.68820
| 82>    H        0.53453        -1.22630        -5.16587
| 83>    H        1.80074         6.79633        -3.56303
| 84>    H        3.28860         6.17311        -4.29297
| 85>    H        2.20261         5.28657        -1.56423
| 86>    H        3.53902         6.41379        -1.82549
| 87>    H        3.69505         4.72713        -2.32473
| 88>    H       -0.70883         3.56386        -2.31629
| 89>    H       -0.00283         6.54004        -2.59762
| 90>    H       -3.06184         1.40524         1.04739
| 91>    H       -4.16521         2.23349         2.18773
| 92>    H       -1.14261         1.89973         2.55518
| 93>    H       -2.38394         0.98015         3.41405
| 94>    H       -2.23177         2.72018         3.68633
| 95>    H       -4.50392         7.46976         1.88266
| 96>    H       -3.34583         9.54186        -0.05713
| 97>    H       -7.15357        12.12691         0.95517
| 98>    H       -5.89352        13.31514         0.61863
| 99>    H       -6.03928        14.61442         3.05397
|100>    H       -5.07508        10.90010         5.44126
|101>    H       -6.47540         9.56844         2.56493
|102>    H       -4.85830         9.29356         3.22365
|103>    H       -4.94492         7.61768        -5.04595
|104>    H       -6.05474         7.14075        -3.72759
|105>    H       -3.01566         6.78178        -3.66664
|106>    H       -4.18569         5.49617        -3.98096
|107>    H       -4.15789         6.28661        -2.40300
|108>    H       -3.46235        12.55911        -5.11598
|109>    H       -3.57885        14.96475        -3.19793
|110>    H       -2.38764        13.69089        -7.97891
|111>    H       -1.40978        17.48616        -8.80013
|112>    H       -1.67285        18.84507        -7.21825
|113>    H       -2.52729        19.00246        -4.28268
|114>    H       -1.95311        20.38850        -5.34445
|115> *
|116>
|117>                          ****END OF INPUT****

CARTESIAN COORDINATES (ANGSTROEM)
---------------------------------
  C      1.319290    1.986600   -6.467110
  N      0.215450    1.311150   -6.055170
  C     -0.303760    0.102180   -6.642310
  C      0.528660   -1.114890   -6.247290
  C     -0.362100    1.910040   -4.904560
  O     -1.373050    1.497370   -4.379680
  C      0.510430    3.027600   -4.630670
  C      1.532120    3.048330   -5.633390
  C      2.374280    4.195070   -5.374610
  O      3.367990    4.618900   -5.922240
  N      1.782620    4.818420   -4.251160
  C      2.460370    5.926590   -3.620620
  C      3.005720    5.564000   -2.242880
  C      0.681430    4.119940   -3.798990
  C     -0.176960    4.425230   -2.700140
  C     -0.438780    5.644690   -2.178590
  C     -1.358740    5.867700   -1.117350
  S     -1.905990    7.510630   -0.811240
  C     -1.979340    5.012700   -0.233860
  C     -1.965950    3.579960    0.107100
  O     -1.329750    2.667680   -0.361090
  N     -2.873500    3.451840    1.152230
  C     -3.143050    2.188950    1.804450
  C     -2.159160    1.931620    2.940620
  C     -3.457670    4.651820    1.546960
  O     -4.256910    4.771070    2.443260
  C     -2.875130    5.657190    0.651100
  C     -2.989070    7.016660    0.476950
  C     -3.870160    7.914870    1.129470
  C     -3.990020    9.204500    0.747590
  C     -4.910420   10.170050    1.259590
  C     -5.257550   11.266850    0.527350
  C     -6.095870   12.368300    1.123750
  C     -5.844410   12.481520    2.590450
  C     -5.848680   13.603190    3.353020
  S     -5.492040   13.259040    5.002590
  C     -5.323530   11.581060    4.652090
  C     -5.541150   11.313100    3.340250
  C     -5.466830    9.990810    2.648700
  C     -4.883310   11.406990   -0.851520
  S     -4.430930   12.973690   -1.515740
  C     -4.791950   10.458850   -1.843110
  C     -5.146650    9.041670   -2.032420
  O     -5.638130    8.248000   -1.265170
  N     -4.830050    8.767110   -3.356960
  C     -5.039990    7.471330   -3.967420
  C     -4.030780    6.442870   -3.471410
  C     -4.340420    9.866870   -4.062440
  O     -4.016490    9.848150   -5.224710
  C     -4.346900   10.962700   -3.090370
  C     -4.088730   12.313600   -3.107640
  C     -3.632010   13.097270   -4.194310
  C     -3.406630   14.429700   -4.123140
  C     -2.941560   15.218850   -5.204340
  O     -2.751420   16.552060   -5.021480
  C     -2.307530   17.089510   -6.177920
  C     -2.203800   16.090830   -7.134800
  C     -2.610330   14.887690   -6.514880
  O     -2.671980   13.659750   -7.055830
  S     -1.685200   16.187580   -8.813630
  C     -2.026000   18.493560   -6.257500
  C     -2.176640   19.342250   -5.241250
  H      1.870480    1.669260   -7.333370
  H     -0.328050    0.211540   -7.730790
  H     -1.325450   -0.007830   -6.268660
  H      1.554870   -1.007010   -6.591990
  H      0.104220   -2.012450   -6.688200
  H      0.534530   -1.226300   -5.165870
  H      1.800740    6.796330   -3.563030
  H      3.288600    6.173110   -4.292970
  H      2.202610    5.286570   -1.564230
  H      3.539020    6.413790   -1.825490
  H      3.695050    4.727130   -2.324730
  H     -0.708830    3.563860   -2.316290
  H     -0.002830    6.540040   -2.597620
  H     -3.061840    1.405240    1.047390
  H     -4.165210    2.233490    2.187730
  H     -1.142610    1.899730    2.555180
  H     -2.383940    0.980150    3.414050
  H     -2.231770    2.720180    3.686330
  H     -4.503920    7.469760    1.882660
  H     -3.345830    9.541860   -0.057130
  H     -7.153570   12.126910    0.955170
  H     -5.893520   13.315140    0.618630
  H     -6.039280   14.614420    3.053970
  H     -5.075080   10.900100    5.441260
  H     -6.475400    9.568440    2.564930
  H     -4.858300    9.293560    3.223650
  H     -4.944920    7.617680   -5.045950
  H     -6.054740    7.140750   -3.727590
  H     -3.015660    6.781780   -3.666640
  H     -4.185690    5.496170   -3.980960
  H     -4.157890    6.286610   -2.403000
  H     -3.462350   12.559110   -5.115980
  H     -3.578850   14.964750   -3.197930
  H     -2.387640   13.690890   -7.978910
  H     -1.409780   17.486160   -8.800130
  H     -1.672850   18.845070   -7.218250
  H     -2.527290   19.002460   -4.282680
  H     -1.953110   20.388500   -5.344450

 Total Charge           Charge          ....    0
 Multiplicity           Mult            ....    1
 Number of Electrons    NEL             ....  470
 Basis Dimension        Dim             .... 1074

ORBITAL ENERGIES
----------------

  NO   OCC          E(Eh)            E(eV)
   0   2.0000     -88.966862     -2420.9114
   1   2.0000     -88.965656     -2420.8786
   2   2.0000     -88.952036     -2420.5080
   3   2.0000     -88.943213     -2420.2679
   4   2.0000     -19.292116      -524.9652
   5   2.0000     -19.267412      -524.2929
   6   2.0000     -19.202490      -522.5263
   7   2.0000     -19.200210      -522.4643
   8   2.0000     -19.199578      -522.4471
   9   2.0000     -19.198713      -522.4235
  10   2.0000     -19.180710      -521.9337
  11   2.0000     -19.177649      -521.8504
  12   2.0000     -14.445394      -393.0791
  13   2.0000     -14.443989      -393.0409
  14   2.0000     -14.442550      -393.0018
  15   2.0000     -14.442513      -393.0008
  16   2.0000     -10.385219      -282.5962
  17   2.0000     -10.382654      -282.5264
  18   2.0000     -10.382205      -282.5142
  19   2.0000     -10.381634      -282.4986
  20   2.0000     -10.364202      -282.0243
  21   2.0000     -10.363852      -282.0147
  22   2.0000     -10.345091      -281.5042
  23   2.0000     -10.340092      -281.3682
  24   2.0000     -10.330845      -281.1166
  25   2.0000     -10.329388      -281.0769
  26   2.0000     -10.325819      -280.9798
  27   2.0000     -10.322532      -280.8904
  28   2.0000     -10.321743      -280.8689
  29   2.0000     -10.321472      -280.8615
  30   2.0000     -10.320287      -280.8293
  31   2.0000     -10.309985      -280.5489
  32   2.0000     -10.302525      -280.3460
  33   2.0000     -10.297804      -280.2175
  34   2.0000     -10.296149      -280.1725
  35   2.0000     -10.295810      -280.1632
  36   2.0000     -10.294429      -280.1257
  37   2.0000     -10.292085      -280.0619
  38   2.0000     -10.291892      -280.0566
  39   2.0000     -10.291286      -280.0401
  40   2.0000     -10.287539      -279.9382
  41   2.0000     -10.285414      -279.8803
  42   2.0000     -10.284959      -279.8680
  43   2.0000     -10.284951      -279.8677
  44   2.0000     -10.282948      -279.8132
  45   2.0000     -10.281476      -279.7732
  46   2.0000     -10.280720      -279.7526
  47   2.0000     -10.280342      -279.7423
  48   2.0000     -10.279872      -279.7295
  49   2.0000     -10.279289      -279.7137
  50   2.0000     -10.278698      -279.6976
  51   2.0000     -10.278048      -279.6799
  52   2.0000     -10.276318      -279.6328
  53   2.0000     -10.275380      -279.6073
  54   2.0000     -10.268173      -279.4112
  55   2.0000     -10.267912      -279.4041
  56   2.0000     -10.259284      -279.1693
  57   2.0000     -10.254450      -279.0378
  58   2.0000     -10.252608      -278.9877
  59   2.0000     -10.251367      -278.9539
  60   2.0000     -10.250876      -278.9405
  61   2.0000     -10.246849      -278.8309
  62   2.0000      -8.061584      -219.3668
  63   2.0000      -8.060706      -219.3430
  64   2.0000      -8.047155      -218.9742
  65   2.0000      -8.039342      -218.7616
  66   2.0000      -6.030933      -164.1100
  67   2.0000      -6.030051      -164.0860
  68   2.0000      -6.026807      -163.9978
  69   2.0000      -6.025909      -163.9733
  70   2.0000      -6.023671      -163.9124
  71   2.0000      -6.022765      -163.8878
  72   2.0000      -6.017574      -163.7465
  73   2.0000      -6.013660      -163.6400
  74   2.0000      -6.008725      -163.5057
  75   2.0000      -6.006924      -163.4567
  76   2.0000      -6.004222      -163.3832
  77   2.0000      -6.001642      -163.3130
  78   2.0000      -1.212325       -32.9890
  79   2.0000      -1.161170       -31.5971
  80   2.0000      -1.147683       -31.2300
  81   2.0000      -1.145506       -31.1708
  82   2.0000      -1.123849       -30.5815
  83   2.0000      -1.122533       -30.5457
  84   2.0000      -1.121739       -30.5241
  85   2.0000      -1.115782       -30.3620
  86   2.0000      -1.053381       -28.6639
  87   2.0000      -1.043792       -28.4030
  88   2.0000      -1.039441       -28.2846
  89   2.0000      -1.037279       -28.2258
  90   2.0000      -0.995211       -27.0811
  91   2.0000      -0.992685       -27.0123
  92   2.0000      -0.978434       -26.6245
  93   2.0000      -0.940566       -25.5941
  94   2.0000      -0.931490       -25.3471
  95   2.0000      -0.918998       -25.0072
  96   2.0000      -0.916826       -24.9481
  97   2.0000      -0.911806       -24.8115
  98   2.0000      -0.897452       -24.4209
  99   2.0000      -0.892695       -24.2915
 100   2.0000      -0.884796       -24.0765
 101   2.0000      -0.875594       -23.8261
 102   2.0000      -0.866092       -23.5676
 103   2.0000      -0.859887       -23.3987
 104   2.0000      -0.851199       -23.1623
 105   2.0000      -0.841168       -22.8893
 106   2.0000      -0.830554       -22.6005
 107   2.0000      -0.820484       -22.3265
 108   2.0000      -0.817435       -22.2435
 109   2.0000      -0.813302       -22.1311
 110   2.0000      -0.812262       -22.1028
 111   2.0000      -0.798730       -21.7345
 112   2.0000      -0.789068       -21.4716
 113   2.0000      -0.778858       -21.1938
 114   2.0000      -0.768410       -20.9095
 115   2.0000      -0.752959       -20.4891
 116   2.0000      -0.749258       -20.3883
 117   2.0000      -0.742277       -20.1984
 118   2.0000      -0.740727       -20.1562
 119   2.0000      -0.733823       -19.9683
 120   2.0000      -0.728036       -19.8109
 121   2.0000      -0.719980       -19.5917
 122   2.0000      -0.713137       -19.4054
 123   2.0000      -0.706172       -19.2159
 124   2.0000      -0.700580       -19.0638
 125   2.0000      -0.692772       -18.8513
 126   2.0000      -0.679190       -18.4817
 127   2.0000      -0.670907       -18.2563
 128   2.0000      -0.668902       -18.2017
 129   2.0000      -0.657280       -17.8855
 130   2.0000      -0.653196       -17.7744
 131   2.0000      -0.651788       -17.7361
 132   2.0000      -0.645681       -17.5699
 133   2.0000      -0.642275       -17.4772
 134   2.0000      -0.636112       -17.3095
 135   2.0000      -0.624764       -17.0007
 136   2.0000      -0.616369       -16.7723
 137   2.0000      -0.608230       -16.5508
 138   2.0000      -0.599455       -16.3120
 139   2.0000      -0.595662       -16.2088
 140   2.0000      -0.595158       -16.1951
 141   2.0000      -0.587534       -15.9876
 142   2.0000      -0.579008       -15.7556
 143   2.0000      -0.574453       -15.6317
 144   2.0000      -0.570612       -15.5271
 145   2.0000      -0.570206       -15.5161
 146   2.0000      -0.567603       -15.4453
 147   2.0000      -0.567271       -15.4362
 148   2.0000      -0.565126       -15.3779
 149   2.0000      -0.559410       -15.2223
 150   2.0000      -0.555402       -15.1133
 151   2.0000      -0.549219       -14.9450
 152   2.0000      -0.546920       -14.8825
 153   2.0000      -0.544270       -14.8103
 154   2.0000      -0.539018       -14.6674
 155   2.0000      -0.536929       -14.6106
 156   2.0000      -0.535516       -14.5721
 157   2.0000      -0.534068       -14.5327
 158   2.0000      -0.529878       -14.4187
 159   2.0000      -0.526548       -14.3281
 160   2.0000      -0.525058       -14.2876
 161   2.0000      -0.523408       -14.2426
 162   2.0000      -0.518833       -14.1182
 163   2.0000      -0.514236       -13.9931
 164   2.0000      -0.510062       -13.8795
 165   2.0000      -0.506669       -13.7872
 166   2.0000      -0.503940       -13.7129
 167   2.0000      -0.500329       -13.6147
 168   2.0000      -0.499278       -13.5861
 169   2.0000      -0.498080       -13.5534
 170   2.0000      -0.496820       -13.5192
 171   2.0000      -0.496244       -13.5035
 172   2.0000      -0.495377       -13.4799
 173   2.0000      -0.491419       -13.3722
 174   2.0000      -0.490903       -13.3582
 175   2.0000      -0.489256       -13.3133
 176   2.0000      -0.487284       -13.2597
 177   2.0000      -0.484380       -13.1806
 178   2.0000      -0.483452       -13.1554
 179   2.0000      -0.479679       -13.0527
 180   2.0000      -0.476226       -12.9588
 181   2.0000      -0.473658       -12.8889
 182   2.0000      -0.471234       -12.8229
 183   2.0000      -0.469003       -12.7622
 184   2.0000      -0.467561       -12.7230
 185   2.0000      -0.466038       -12.6815
 186   2.0000      -0.460202       -12.5227
 187   2.0000      -0.459226       -12.4962
 188   2.0000      -0.457109       -12.4386
 189   2.0000      -0.455589       -12.3972
 190   2.0000      -0.453814       -12.3489
 191   2.0000      -0.452805       -12.3214
 192   2.0000      -0.450177       -12.2499
 193   2.0000      -0.444862       -12.1053
 194   2.0000      -0.444137       -12.0856
 195   2.0000      -0.443492       -12.0680
 196   2.0000      -0.441934       -12.0256
 197   2.0000      -0.440312       -11.9815
 198   2.0000      -0.436704       -11.8833
 199   2.0000      -0.434070       -11.8116
 200   2.0000      -0.431571       -11.7436
 201   2.0000      -0.430001       -11.7009
 202   2.0000      -0.427039       -11.6203
 203   2.0000      -0.425160       -11.5692
 204   2.0000      -0.422068       -11.4850
 205   2.0000      -0.417958       -11.3732
 206   2.0000      -0.417499       -11.3607
 207   2.0000      -0.416567       -11.3354
 208   2.0000      -0.414014       -11.2659
 209   2.0000      -0.408075       -11.1043
 210   2.0000      -0.406602       -11.0642
 211   2.0000      -0.397959       -10.8290
 212   2.0000      -0.396297       -10.7838
 213   2.0000      -0.391096       -10.6423
 214   2.0000      -0.375112       -10.2073
 215   2.0000      -0.364586        -9.9209
 216   2.0000      -0.351997        -9.5783
 217   2.0000      -0.348319        -9.4783
 218   2.0000      -0.345185        -9.3930
 219   2.0000      -0.342750        -9.3267
 220   2.0000      -0.336595        -9.1592
 221   2.0000      -0.335439        -9.1277
 222   2.0000      -0.332518        -9.0483
 223   2.0000      -0.329927        -8.9778
 224   2.0000      -0.322670        -8.7803
 225   2.0000      -0.320545        -8.7225
 226   2.0000      -0.320364        -8.7176
 227   2.0000      -0.308955        -8.4071
 228   2.0000      -0.305770        -8.3204
 229   2.0000      -0.300023        -8.1640
 230   2.0000      -0.295450        -8.0396
 231   2.0000      -0.293328        -7.9819
 232   2.0000      -0.266120        -7.2415
 233   2.0000      -0.243006        -6.6125
 234   2.0000      -0.233528        -6.3546
 235   0.0000      -0.074613        -2.0303
 236   0.0000      -0.058616        -1.5950
 237   0.0000      -0.040988        -1.1153
 238   0.0000      -0.016859        -0.4588
 239   0.0000      -0.010652        -0.2899

MULLIKEN ATOMIC CHARGES
-----------------------
   0 C :    0.051870
   1 N :   -0.267914
   2 C :    0.111348
   3 C :   -0.002716
   4 C :    0.157504
   5 O :   -0.182740
   6 C :   -0.056232
   7 C :   -0.005831
   8 C :    0.164512
   9 O :   -0.190036
  10 N :   -0.276004
  11 C :    0.098993
  12 C :   -0.005402
  13 C :    0.111852
  14 C :   -0.032822
  15 C :    0.058057
  16 C :   -0.173341
  17 S :    0.115531
  18 C :    0.045212
  19 C :    0.190837
  20 O :   -0.168557
  21 N :   -0.307283
  22 C :    0.135424
  23 C :   -0.007841
  24 C :    0.179027
  25 O :   -0.170781
  26 C :    0.015074
  27 C :   -0.123180
  28 C :    0.022296
  29 C :   -0.035817
  30 C :   -0.065168
  31 C :   -0.107133
  32 C :    0.274438
  33 C :   -0.037990
  34 C :   -0.159454
  35 S :    0.096871
  36 C :   -0.151610
  37 C :   -0.068227
  38 C :    0.291520
  39 C :   -0.188341
  40 S :    0.116788
  41 C :    0.026334
  42 C :    0.169259
  43 O :   -0.169518
  44 N :   -0.306242
  45 C :    0.140092
  46 C :   -0.012740
  47 C :    0.177383
  48 O :   -0.167617
  49 C :    0.000181
  50 C :   -0.103867
  51 C :   -0.031627
  52 C :   -0.004389
  53 C :    0.126099
  54 O :   -0.204519
  55 C :    0.102090
  56 C :   -0.092367
  57 C :    0.056807
  58 O :   -0.162655
  59 S :    0.021852
  60 C :   -0.054292
  61 C :    0.004217
  62 H :    0.014443
  63 H :    0.017503
  64 H :    0.042256
  65 H :    0.013287
  66 H :    0.021676
  67 H :    0.033273
  68 H :    0.020321
  69 H :    0.044861
  70 H :    0.029488
  71 H :    0.019830
  72 H :    0.025595
  73 H :    0.039101
  74 H :   -0.026138
  75 H :    0.033880
  76 H :    0.030314
  77 H :    0.027323
  78 H :    0.019592
  79 H :    0.024777
  80 H :    0.014348
  81 H :    0.019334
  82 H :    0.036347
  83 H :    0.004860
  84 H :    0.009163
  85 H :    0.011863
  86 H :    0.035561
  87 H :    0.005459
  88 H :    0.035433
  89 H :    0.022146
  90 H :    0.010775
  91 H :    0.024097
  92 H :    0.038492
  93 H :    0.025743
  94 H :   -0.004101
  95 H :    0.196283
  96 H :    0.077355
  97 H :   -0.016858
  98 H :    0.029947
  99 H :    0.025160
Sum of atomic charges:   -0.0000000

LOEWDIN ATOMIC CHARGES
----------------------
   0 C :    0.097833
   1 N :   -0.005224
   2 C :    0.037489
   3 C :   -0.060967
   4 C :    0.078826
   5 O :   -0.186887
   6 C :   -0.115062
   7 C :   -0.133687
   8 C :    0.082466
   9 O :   -0.192711
  10 N :   -0.013885
  11 C :    0.034266
  12 C :   -0.063613
  13 C :    0.075730
  14 C :   -0.003148
  15 C :   -0.034696
  16 C :   -0.134152
  17 S :    0.446154
  18 C :   -0.088548
  19 C :    0.091389
  20 O :   -0.158975
  21 N :   -0.032010
  22 C :    0.043446
  23 C :   -0.060381
  24 C :    0.089168
  25 O :   -0.170423
  26 C :   -0.097881
  27 C :   -0.117491
  28 C :   -0.035003
  29 C :    0.000724
  30 C :   -0.002986
  31 C :   -0.041522
  32 C :   -0.015982
  33 C :   -0.066786
  34 C :   -0.197004
  35 S :    0.425110
  36 C :   -0.194941
  37 C :   -0.062536
  38 C :   -0.009373
  39 C :   -0.130335
  40 S :    0.433938
  41 C :   -0.096286
  42 C :    0.083219
  43 O :   -0.163330
  44 N :   -0.033413
  45 C :    0.043901
  46 C :   -0.063407
  47 C :    0.086974
  48 O :   -0.169801
  49 C :   -0.104620
  50 C :   -0.121263
  51 C :   -0.048461
  52 C :   -0.017499
  53 C :   -0.010562
  54 O :    0.012501
  55 C :    0.010747
  56 C :   -0.232415
  57 C :    0.006862
  58 O :   -0.028738
  59 S :    0.219601
  60 C :   -0.048510
  61 C :   -0.026310
  62 H :    0.032646
  63 H :    0.023785
  64 H :    0.036308
  65 H :    0.021731
  66 H :    0.029467
  67 H :    0.032560
  68 H :    0.016850
  69 H :    0.036930
  70 H :    0.023769
  71 H :    0.029789
  72 H :    0.030545
  73 H :    0.049231
  74 H :    0.027129
  75 H :    0.033112
  76 H :    0.031945
  77 H :    0.028040
  78 H :    0.029122
  79 H :    0.027312
  80 H :    0.040757
  81 H :    0.022469
  82 H :    0.050810
  83 H :    0.026516
  84 H :    0.019472
  85 H :    0.020977
  86 H :    0.050537
  87 H :    0.036976
  88 H :    0.032027
  89 H :    0.029212
  90 H :    0.019032
  91 H :    0.031802
  92 H :    0.025013
  93 H :    0.043627
  94 H :    0.031193
  95 H :    0.099707
  96 H :   -0.014802
  97 H :    0.028920
  98 H :    0.027989
  99 H :    0.027972

  Mayer bond orders larger than 0.100000
B(  0-C ,  1-N ) :   1.1990 B(  0-C ,  7-C ) :   1.4548 B(  0-C , 62-H ) :   0.9893
B(  1-N ,  2-C ) :   0.9439 B(  1-N ,  4-C ) :   1.0206 B(  2-C ,  3-C ) :   1.1172
B(  2-C , 63-H ) :   0.9541 B(  2-C , 64-H ) :   0.9340 B(  3-C , 65-H ) :   0.9693
B(  3-C , 66-H ) :   0.9691 B(  3-C , 67-H ) :   0.9677 B(  4-C ,  5-O ) :   2.1436
B(  4-C ,  6-C ) :   0.9828 B(  6-C ,  7-C ) :   1.1871 B(  6-C , 13-C ) :   1.4167
B(  7-C ,  8-C ) :   0.9596 B(  8-C ,  9-O ) :   2.1636 B(  8-C , 10-N ) :   1.0189
B( 10-N , 11-C ) :   0.9474 B( 10-N , 13-C ) :   1.1644 B( 11-C , 12-C ) :   1.1168
B( 11-C , 68-H ) :   0.9509 B( 11-C , 69-H ) :   0.9236 B( 12-C , 70-H ) :   0.9653
B( 12-C , 71-H ) :   0.9666 B( 12-C , 72-H ) :   0.9636 B( 13-C , 14-C ) :   1.1524
B( 14-C , 15-C ) :   1.6380 B( 14-C , 73-H ) :   0.9337 B( 15-C , 16-C ) :   1.1283
B( 15-C , 74-H ) :   0.9585 B( 16-C , 17-S ) :   1.1151 B( 16-C , 18-C ) :   1.5048
B( 17-S , 27-C ) :   1.1008 B( 18-C , 19-C ) :   0.8909 B( 18-C , 26-C ) :   1.2524
B( 19-C , 20-O ) :   2.1281 B( 19-C , 21-N ) :   1.0857 B( 21-N , 22-C ) :   0.9221
B( 21-N , 24-C ) :   1.0670 B( 22-C , 23-C ) :   1.1254 B( 22-C , 75-H ) :   0.9419
B( 22-C , 76-H ) :   0.9405 B( 23-C , 77-H ) :   0.9689 B( 23-C , 78-H ) :   0.9706
B( 23-C , 79-H ) :   0.9688 B( 24-C , 25-O ) :   2.1802 B( 24-C , 26-C ) :   0.9014
B( 26-C , 27-C ) :   1.4957 B( 27-C , 28-C ) :   1.1727 B( 28-C , 29-C ) :   1.6416
B( 28-C , 80-H ) :   0.9669 B( 29-C , 30-C ) :   1.1504 B( 29-C , 81-H ) :   0.9556
B( 30-C , 31-C ) :   1.6951 B( 30-C , 38-C ) :   1.0302 B( 31-C , 32-C ) :   1.0198
B( 31-C , 39-C ) :   1.1077 B( 32-C , 33-C ) :   1.0348 B( 32-C , 82-H ) :   0.8642
B( 32-C , 83-H ) :   0.9061 B( 33-C , 34-C ) :   1.5831 B( 33-C , 37-C ) :   1.2841
B( 34-C , 35-S ) :   1.1664 B( 34-C , 84-H ) :   0.9714 B( 35-S , 36-C ) :   1.1633
B( 36-C , 37-C ) :   1.5954 B( 36-C , 85-H ) :   0.9693 B( 37-C , 38-C ) :   1.0334
B( 38-C , 86-H ) :   0.8679 B( 38-C , 87-H ) :   0.9062 B( 39-C , 40-S ) :   1.1105
B( 39-C , 41-C ) :   1.5393 B( 40-S , 50-C ) :   1.0955 B( 41-C , 42-C ) :   0.9011
B( 41-C , 49-C ) :   1.2208 B( 42-C , 43-O ) :   2.1522 B( 42-C , 44-N ) :   1.0751
B( 44-N , 45-C ) :   0.9197 B( 44-N , 47-C ) :   1.0627 B( 45-C , 46-C ) :   1.1247
B( 45-C , 88-H ) :   0.9381 B( 45-C , 89-H ) :   0.9443 B( 46-C , 90-H ) :   0.9645
B( 46-C , 91-H ) :   0.9658 B( 46-C , 92-H ) :   0.9691 B( 47-C , 48-O ) :   2.1794
B( 47-C , 49-C ) :   0.9104 B( 49-C , 50-C ) :   1.5062 B( 50-C , 51-C ) :   1.1808
B( 51-C , 52-C ) :   1.5964 B( 51-C , 93-H ) :   0.9671 B( 52-C , 53-C ) :   1.1603
B( 52-C , 94-H ) :   0.9590 B( 53-C , 54-O ) :   1.1012 B( 53-C , 55-C ) :   0.1071
B( 53-C , 57-C ) :   1.4309 B( 54-O , 55-C ) :   1.1576 B( 55-C , 56-C ) :   1.4592
B( 55-C , 60-C ) :   1.1310 B( 56-C , 57-C ) :   1.2697 B( 56-C , 59-S ) :   0.9998
B( 57-C , 58-O ) :   1.2532 B( 58-O , 95-H ) :   0.9452 B( 59-S , 96-H ) :   0.9505
B( 60-C , 61-C ) :   1.9249 B( 60-C , 97-H ) :   0.9532 B( 61-C , 98-H ) :   0.9590
B( 61-C , 99-H ) :   0.9436

-----------------------------------------------------------------------------
         ABSORPTION SPECTRUM VIA TRANSITION ELECTRIC DIPOLE MOMENTS
-----------------------------------------------------------------------------
State   Energy  Wavelength   fosc         T2         TX        TY        TZ
        (cm-1)    (nm)                  (au**2)     (au)      (au)      (au)
-----------------------------------------------------------------------------
   0   19323.3    517.5   0.872602906  14.86657   0.90122  -3.62924  -0.93967
   1   22228.8    449.9   0.697502518  10.33013   0.12628   1.91204  -2.58037
   2   24473.3    408.6   0.382932326   5.15117  -0.83638  -1.50189   1.48188
   3   26111.8    383.0   0.304519147   3.83931   1.60635   0.71786  -0.86234
   4   26944.8    371.1   0.096498513   1.17902   0.12929  -0.87369  -0.63164
   5   28342.5    352.8   0.069567532   0.80806   0.25658  -0.78830   0.34758
   6   28815.7    347.0   0.005563292   0.06356   0.20815   0.14036   0.02305
   7   29998.4    333.4   0.075726249   0.83104  -0.05765  -0.84816  -0.32916
   8   30131.3    331.9   0.016031084   0.17515   0.12915   0.39315   0.06251
   9   30699.6    325.7   0.098074381   1.05172  -0.49089   0.38158   0.81556
  10   31487.3    317.6   0.150356936   1.57204   0.13670  -1.24484   0.06095
  11   32057.5    311.9   0.174231651   1.78926   1.18548   0.60099  -0.15069
  12   33557.1    298.0   0.025097752   0.24622   0.15350  -0.29734  -0.36640
  13   33908.7    294.9   0.095821933   0.93031  -0.49413   0.70632   0.43274
  14   34146.1    292.9   0.018531702   0.17867  -0.09328  -0.10601   0.39841
  15   34234.6    292.1   0.068735674   0.66099   0.18735   0.38524  -0.69099
  16   34802.9    287.3   0.031319383   0.29626  -0.24962  -0.25263   0.41246
  17   34943.8    286.2   0.024600769   0.23177   0.32060  -0.04713  -0.35604
  18   35440.3    282.2   0.150095899   1.39427  -0.57049  -0.46254   0.92459
  19   35639.6    280.6   0.064235393   0.59336   0.52060  -0.10878  -0.55723
  20   36271.1    275.7   0.083356567   0.75658  -0.43069  -0.14205   0.74223
  21   36836.0    271.5   0.164776338   1.47265  -0.10503   1.20396   0.11000
  22   37259.0    268.4   0.015436307   0.13639   0.25499   0.26715   0.00143
  23   37746.3    264.9   0.158637076   1.38358   0.20332  -1.03868  -0.51321
  24   38275.8    261.3   0.009601942   0.08259  -0.23062  -0.13419   0.10675
  25   38476.2    259.9   0.035585683   0.30448  -0.15787  -0.51229  -0.13082
  26   38706.8    258.4   0.016480068   0.14017   0.01713  -0.14920  -0.34295
  27   38900.2    257.1   0.060110961   0.50872  -0.20284   0.51553   0.44923
  28   39353.7    254.1   0.021258287   0.17784   0.13139   0.22267  -0.33315
  29   39495.6    253.2   0.039569084   0.32982   0.19734  -0.51801   0.15017
  30   39735.2    251.7   0.004084847   0.03384   0.07739  -0.14599  -0.08088
  31   39927.4    250.5   0.103978924   0.85733  -0.14892  -0.89463  -0.18651
  32   40092.4    249.4   0.007954110   0.06531  -0.14054  -0.20166  -0.06995

FINAL SINGLE POINT ENERGY     -4185.681235902565

DIPOLE MOMENT
-------------
                                X             Y             Z
Electronic contribution:    -17.09265      46.25549       2.50341
Nuclear contribution   :     17.20230     -43.91823      -3.44050
                        -----------------------------------------
Total Dipole Moment    :      0.10965       2.33726      -0.93708
                        -----------------------------------------
Magnitude (a.u.)       :      2.52050
Magnitude (Debye)      :      6.40661

Rotational constants in cm-1:     0.001104     0.000637     0.000441
Rotational constants in MHz :    33.097987    19.110113    13.221147

                             ****ORCA TERMINATED NORMALLY****
TOTAL RUN TIME: 0 days 0 hours 8 minutes 44 seconds 304 msec
