                         Program Version 4.2.0 -  RELEASE  -
|  1> # ORCA input file
|  2> # SCF done       -134.285066521652          0.000892527735
|  3> ! CAM-B3LYP def2-SVP def2/J RIJCOSX Grid4 TightSCF
|  4> %maxcore 5000
|  5> %tddft
|  6>     Mode sTDDFT
|  7>     Ethresh 5.0
|  8>     maxcore 5000
|  9> end
| 10>
| 11> %pal
| 12>   nprocs 6
| 13>   end
| 14> * xyz 0 1
| 15>    C       -4.68769        -0.82121         3.82032
| 16>    N       -4.17962         0.13632         4.64142
| 17>    C       -3.70208        -0.06833         5.98486
| 18>    C       -2.32727        -0.73245         5.99721
| 19>    C       -4.10449         1.38969         3.99091
| 20>    O       -3.64695         2.38692         4.51726
| 21>    C       -4.64832         1.13229         2.68236
| 22>    C       -4.98557        -0.25846         2.61137
| 23>    C       -5.47117        -0.53158         1.27441
| 24>    O       -5.87059        -1.54245         0.73834
| 25>    N       -5.37582         0.70967         0.61624
| 26>    C       -5.83843         0.87594        -0.73853
| 27>    C       -7.19936         1.56598        -0.79663
| 28>    C       -4.90498         1.70658         1.44613
| 29>    C       -4.71338         3.05026         1.04062
| 30>    C       -4.49034         4.04250         1.94215
| 31>    C       -4.21125         5.38434         1.61273
| 32>    S       -3.72950         5.84558         0.00676
| 33>    C       -3.39032         7.47273         0.46677
| 34>    C       -3.70449         7.68374         1.81367
| 35>    C       -4.17542         6.49675         2.46311
| 36>    C       -4.59133         6.57623         3.81894
| 37>    C       -5.20772         5.50353         4.50284
| 38>    N       -5.78444         4.71658         5.10630
| 39>    C       -4.49132         7.77913         4.48791
| 40>    C       -4.03537         8.93516         3.83802
| 41>    C       -3.66903         8.90407         2.52131
| 42>    C       -2.81716         8.38119        -0.49462
| 43>    C       -3.15735         8.28747        -1.84981
| 44>    C       -2.60242         9.12949        -2.78364
| 45>    C       -1.66680        10.10366        -2.41315
| 46>    C       -1.31828        10.18205        -1.05865
| 47>    C       -1.87099         9.34236        -0.12003
| 48>    C       -1.03208        11.00552        -3.34664
| 49>    C       -1.15723        10.99131        -4.68500
| 50>    C       -0.48867        11.87374        -5.61427
| 51>    C        0.28288        12.97333        -5.22122
| 52>    C        0.91378        13.76335        -6.15319
| 53>    C        0.81844        13.50041        -7.52591
| 54>    C        0.03204        12.41186        -7.91977
| 55>    C       -0.60472        11.62563        -6.98814
| 56>    C        1.52838        14.35593        -8.45052
| 57>    C        1.64969        14.17164        -9.77565
| 58>    C        2.37755        15.01639       -10.69775
| 59>    C        2.99302        16.21801       -10.32899
| 60>    C        3.68333        16.97708       -11.24638
| 61>    C        3.79554        16.57643       -12.58052
| 62>    C        3.17103        15.38349       -12.95386
| 63>    C        2.48102        14.62306       -12.03689
| 64>    C        4.52348        17.33860       -13.58372
| 65>    C        5.26880        18.41839       -13.37524
| 66>    H       -4.80461        -1.83436         4.15828
| 67>    H       -4.42494        -0.67816         6.53496
| 68>    H       -3.64237         0.92189         6.44459
| 69>    H       -2.36730        -1.70836         5.51792
| 70>    H       -1.98606        -0.85924         7.02086
| 71>    H       -1.61037        -0.11242         5.46454
| 72>    H       -5.91889        -0.13294        -1.15333
| 73>    H       -5.09564         1.43591        -1.31522
| 74>    H       -7.93475         0.98003        -0.25105
| 75>    H       -7.52369         1.65801        -1.82959
| 76>    H       -7.15022         2.55809        -0.35303
| 77>    H       -4.75421         3.28269        -0.01533
| 78>    H       -4.50551         3.80184         2.99582
| 79>    H       -4.80727         7.83551         5.51909
| 80>    H       -4.00662         9.86458         4.38616
| 81>    H       -3.38398         9.80924         2.00927
| 82>    H       -3.88121         7.54526        -2.15590
| 83>    H       -2.90097         9.03380        -3.81586
| 84>    H       -0.58203        10.90965        -0.74712
| 85>    H       -1.53682         9.39315         0.90487
| 86>    H       -0.37971        11.73529        -2.88554
| 87>    H       -1.78817        10.24582        -5.15125
| 88>    H        0.38306        13.21609        -4.17448
| 89>    H        1.50439        14.60617        -5.82132
| 90>    H       -0.08444        12.18211        -8.96790
| 91>    H       -1.20397        10.78900        -7.32062
| 92>    H        2.01319        15.20546        -7.98760
| 93>    H        1.18670        13.30757       -10.23438
| 94>    H        2.92530        16.56602        -9.30961
| 95>    H        4.13953        17.90088       -10.92509
| 96>    H        3.23591        15.05251       -13.98126
| 97>    H        2.01150        13.70188       -12.35351
| 98>    H        4.43412        16.95286       -14.59234
| 99>    H        5.40846        18.85179       -12.39984
|100>    H        5.77236        18.91553       -14.18647
|101> *
|102>
|103>                          ****END OF INPUT****

CARTESIAN COORDINATES (ANGSTROEM)
---------------------------------
  C     -4.687690   -0.821210    3.820320
  N     -4.179620    0.136320    4.641420
  C     -3.702080   -0.068330    5.984860
  C     -2.327270   -0.732450    5.997210
  C     -4.104490    1.389690    3.990910
  O     -3.646950    2.386920    4.517260
  C     -4.648320    1.132290    2.682360
  C     -4.985570   -0.258460    2.611370
  C     -5.471170   -0.531580    1.274410
  O     -5.870590   -1.542450    0.738340
  N     -5.375820    0.709670    0.616240
  C     -5.838430    0.875940   -0.738530
  C     -7.199360    1.565980   -0.796630
  C     -4.904980    1.706580    1.446130
  C     -4.713380    3.050260    1.040620
  C     -4.490340    4.042500    1.942150
  C     -4.211250    5.384340    1.612730
  S     -3.729500    5.845580    0.006760
  C     -3.390320    7.472730    0.466770
  C     -3.704490    7.683740    1.813670
  C     -4.175420    6.496750    2.463110
  C     -4.591330    6.576230    3.818940
  C     -5.207720    5.503530    4.502840
  N     -5.784440    4.716580    5.106300
  C     -4.491320    7.779130    4.487910
  C     -4.035370    8.935160    3.838020
  C     -3.669030    8.904070    2.521310
  C     -2.817160    8.381190   -0.494620
  C     -3.157350    8.287470   -1.849810
  C     -2.602420    9.129490   -2.783640
  C     -1.666800   10.103660   -2.413150
  C     -1.318280   10.182050   -1.058650
  C     -1.870990    9.342360   -0.120030
  C     -1.032080   11.005520   -3.346640
  C     -1.157230   10.991310   -4.685000
  C     -0.488670   11.873740   -5.614270
  C      0.282880   12.973330   -5.221220
  C      0.913780   13.763350   -6.153190
  C      0.818440   13.500410   -7.525910
  C      0.032040   12.411860   -7.919770
  C     -0.604720   11.625630   -6.988140
  C      1.528380   14.355930   -8.450520
  C      1.649690   14.171640   -9.775650
  C      2.377550   15.016390  -10.697750
  C      2.993020   16.218010  -10.328990
  C      3.683330   16.977080  -11.246380
  C      3.795540   16.576430  -12.580520
  C      3.171030   15.383490  -12.953860
  C      2.481020   14.623060  -12.036890
  C      4.523480   17.338600  -13.583720
  C      5.268800   18.418390  -13.375240
  H     -4.804610   -1.834360    4.158280
  H     -4.424940   -0.678160    6.534960
  H     -3.642370    0.921890    6.444590
  H     -2.367300   -1.708360    5.517920
  H     -1.986060   -0.859240    7.020860
  H     -1.610370   -0.112420    5.464540
  H     -5.918890   -0.132940   -1.153330
  H     -5.095640    1.435910   -1.315220
  H     -7.934750    0.980030   -0.251050
  H     -7.523690    1.658010   -1.829590
  H     -7.150220    2.558090   -0.353030
  H     -4.754210    3.282690   -0.015330
  H     -4.505510    3.801840    2.995820
  H     -4.807270    7.835510    5.519090
  H     -4.006620    9.864580    4.386160
  H     -3.383980    9.809240    2.009270
  H     -3.881210    7.545260   -2.155900
  H     -2.900970    9.033800   -3.815860
  H     -0.582030   10.909650   -0.747120
  H     -1.536820    9.393150    0.904870
  H     -0.379710   11.735290   -2.885540
  H     -1.788170   10.245820   -5.151250
  H      0.383060   13.216090   -4.174480
  H      1.504390   14.606170   -5.821320
  H     -0.084440   12.182110   -8.967900
  H     -1.203970   10.789000   -7.320620
  H      2.013190   15.205460   -7.987600
  H      1.186700   13.307570  -10.234380
  H      2.925300   16.566020   -9.309610
  H      4.139530   17.900880  -10.925090
  H      3.235910   15.052510  -13.981260
  H      2.011500   13.701880  -12.353510
  H      4.434120   16.952860  -14.592340
  H      5.408460   18.851790  -12.399840
  H      5.772360   18.915530  -14.186470

 Total Charge           Charge          ....    0
 Multiplicity           Mult            ....    1
 Number of Electrons    NEL             ....  358
 Basis Dimension        Dim             ....  893

ORBITAL ENERGIES
----------------

  NO   OCC          E(Eh)            E(eV)
   0   2.0000     -88.975237     -2421.1393
   1   2.0000     -19.171283      -521.6771
   2   2.0000     -19.170436      -521.6541
   3   2.0000     -14.436533      -392.8380
   4   2.0000     -14.435966      -392.8226
   5   2.0000     -14.394161      -391.6850
   6   2.0000     -10.357794      -281.8499
   7   2.0000     -10.353086      -281.7218
   8   2.0000     -10.325171      -280.9622
   9   2.0000     -10.318682      -280.7856
  10   2.0000     -10.312983      -280.6305
  11   2.0000     -10.312221      -280.6098
  12   2.0000     -10.308111      -280.4980
  13   2.0000     -10.299566      -280.2654
  14   2.0000     -10.296665      -280.1865
  15   2.0000     -10.295501      -280.1548
  16   2.0000     -10.295239      -280.1477
  17   2.0000     -10.294713      -280.1334
  18   2.0000     -10.294109      -280.1169
  19   2.0000     -10.293512      -280.1007
  20   2.0000     -10.292098      -280.0622
  21   2.0000     -10.286674      -279.9146
  22   2.0000     -10.286579      -279.9121
  23   2.0000     -10.284424      -279.8534
  24   2.0000     -10.282311      -279.7959
  25   2.0000     -10.282056      -279.7890
  26   2.0000     -10.279130      -279.7094
  27   2.0000     -10.278579      -279.6943
  28   2.0000     -10.278043      -279.6798
  29   2.0000     -10.277967      -279.6777
  30   2.0000     -10.277654      -279.6692
  31   2.0000     -10.277452      -279.6637
  32   2.0000     -10.275443      -279.6090
  33   2.0000     -10.274425      -279.5813
  34   2.0000     -10.272318      -279.5240
  35   2.0000     -10.271299      -279.4963
  36   2.0000     -10.271131      -279.4917
  37   2.0000     -10.270753      -279.4814
  38   2.0000     -10.270249      -279.4677
  39   2.0000     -10.269919      -279.4587
  40   2.0000     -10.269523      -279.4479
  41   2.0000     -10.268550      -279.4215
  42   2.0000     -10.267269      -279.3866
  43   2.0000     -10.266568      -279.3675
  44   2.0000     -10.266510      -279.3659
  45   2.0000     -10.265866      -279.3484
  46   2.0000     -10.259850      -279.1847
  47   2.0000     -10.253919      -279.0233
  48   2.0000     -10.253275      -279.0058
  49   2.0000     -10.243241      -278.7328
  50   2.0000     -10.240748      -278.6649
  51   2.0000      -8.070080      -219.5980
  52   2.0000      -6.038910      -164.3271
  53   2.0000      -6.034883      -164.2175
  54   2.0000      -6.033165      -164.1708
  55   2.0000      -1.114495       -30.3269
  56   2.0000      -1.107087       -30.1254
  57   2.0000      -1.045429       -28.4476
  58   2.0000      -1.037020       -28.2188
  59   2.0000      -1.011092       -27.5132
  60   2.0000      -0.980811       -26.6892
  61   2.0000      -0.965517       -26.2731
  62   2.0000      -0.957867       -26.0649
  63   2.0000      -0.952018       -25.9057
  64   2.0000      -0.943663       -25.6784
  65   2.0000      -0.916468       -24.9384
  66   2.0000      -0.910536       -24.7769
  67   2.0000      -0.903064       -24.5736
  68   2.0000      -0.889972       -24.2174
  69   2.0000      -0.877681       -23.8829
  70   2.0000      -0.869288       -23.6545
  71   2.0000      -0.858910       -23.3721
  72   2.0000      -0.850672       -23.1480
  73   2.0000      -0.844912       -22.9912
  74   2.0000      -0.838412       -22.8144
  75   2.0000      -0.835447       -22.7337
  76   2.0000      -0.831006       -22.6128
  77   2.0000      -0.825323       -22.4582
  78   2.0000      -0.810297       -22.0493
  79   2.0000      -0.806862       -21.9558
  80   2.0000      -0.788856       -21.4659
  81   2.0000      -0.779060       -21.1993
  82   2.0000      -0.758326       -20.6351
  83   2.0000      -0.747931       -20.3523
  84   2.0000      -0.738200       -20.0874
  85   2.0000      -0.735598       -20.0166
  86   2.0000      -0.715168       -19.4607
  87   2.0000      -0.710830       -19.3427
  88   2.0000      -0.701599       -19.0915
  89   2.0000      -0.696719       -18.9587
  90   2.0000      -0.694609       -18.9013
  91   2.0000      -0.690217       -18.7818
  92   2.0000      -0.679763       -18.4973
  93   2.0000      -0.671288       -18.2667
  94   2.0000      -0.669837       -18.2272
  95   2.0000      -0.650113       -17.6905
  96   2.0000      -0.645483       -17.5645
  97   2.0000      -0.638358       -17.3706
  98   2.0000      -0.637024       -17.3343
  99   2.0000      -0.635644       -17.2968
 100   2.0000      -0.614307       -16.7161
 101   2.0000      -0.602101       -16.3840
 102   2.0000      -0.595514       -16.2048
 103   2.0000      -0.592447       -16.1213
 104   2.0000      -0.580848       -15.8057
 105   2.0000      -0.576374       -15.6839
 106   2.0000      -0.572349       -15.5744
 107   2.0000      -0.570708       -15.5297
 108   2.0000      -0.565937       -15.3999
 109   2.0000      -0.562029       -15.2936
 110   2.0000      -0.559716       -15.2306
 111   2.0000      -0.549533       -14.9536
 112   2.0000      -0.548106       -14.9147
 113   2.0000      -0.546267       -14.8647
 114   2.0000      -0.539725       -14.6867
 115   2.0000      -0.532288       -14.4843
 116   2.0000      -0.530194       -14.4273
 117   2.0000      -0.522382       -14.2147
 118   2.0000      -0.519207       -14.1283
 119   2.0000      -0.517830       -14.0909
 120   2.0000      -0.516977       -14.0677
 121   2.0000      -0.515242       -14.0205
 122   2.0000      -0.513895       -13.9838
 123   2.0000      -0.511974       -13.9315
 124   2.0000      -0.506368       -13.7790
 125   2.0000      -0.501315       -13.6415
 126   2.0000      -0.500902       -13.6302
 127   2.0000      -0.498005       -13.5514
 128   2.0000      -0.497299       -13.5322
 129   2.0000      -0.494583       -13.4583
 130   2.0000      -0.489040       -13.3074
 131   2.0000      -0.487563       -13.2673
 132   2.0000      -0.482427       -13.1275
 133   2.0000      -0.476927       -12.9778
 134   2.0000      -0.471731       -12.8365
 135   2.0000      -0.468516       -12.7490
 136   2.0000      -0.464371       -12.6362
 137   2.0000      -0.461900       -12.5689
 138   2.0000      -0.458863       -12.4863
 139   2.0000      -0.457901       -12.4601
 140   2.0000      -0.454890       -12.3782
 141   2.0000      -0.453447       -12.3389
 142   2.0000      -0.451188       -12.2774
 143   2.0000      -0.448232       -12.1970
 144   2.0000      -0.445941       -12.1347
 145   2.0000      -0.441147       -12.0042
 146   2.0000      -0.440358       -11.9827
 147   2.0000      -0.439286       -11.9536
 148   2.0000      -0.434522       -11.8240
 149   2.0000      -0.431003       -11.7282
 150   2.0000      -0.426858       -11.6154
 151   2.0000      -0.425707       -11.5841
 152   2.0000      -0.420404       -11.4398
 153   2.0000      -0.419509       -11.4154
 154   2.0000      -0.418532       -11.3888
 155   2.0000      -0.416812       -11.3420
 156   2.0000      -0.416277       -11.3275
 157   2.0000      -0.412976       -11.2377
 158   2.0000      -0.408732       -11.1222
 159   2.0000      -0.405260       -11.0277
 160   2.0000      -0.401452       -10.9241
 161   2.0000      -0.394930       -10.7466
 162   2.0000      -0.390521       -10.6266
 163   2.0000      -0.386280       -10.5112
 164   2.0000      -0.374883       -10.2011
 165   2.0000      -0.354358        -9.6426
 166   2.0000      -0.335006        -9.1160
 167   2.0000      -0.334129        -9.0921
 168   2.0000      -0.328519        -8.9394
 169   2.0000      -0.327602        -8.9145
 170   2.0000      -0.325114        -8.8468
 171   2.0000      -0.323625        -8.8063
 172   2.0000      -0.320928        -8.7329
 173   2.0000      -0.312555        -8.5050
 174   2.0000      -0.297458        -8.0942
 175   2.0000      -0.289310        -7.8725
 176   2.0000      -0.263381        -7.1670
 177   2.0000      -0.245788        -6.6882
 178   2.0000      -0.223988        -6.0950
 179   0.0000      -0.078949        -2.1483
 180   0.0000      -0.044484        -1.2105
 181   0.0000      -0.031577        -0.8593
 182   0.0000      -0.011056        -0.3008
 183   0.0000       0.015654         0.4260

MULLIKEN ATOMIC CHARGES
-----------------------
   0 C :    0.034868
   1 N :   -0.256917
   2 C :    0.115021
   3 C :   -0.002264
   4 C :    0.165918
   5 O :   -0.213007
   6 C :   -0.095819
   7 C :    0.003234
   8 C :    0.157737
   9 O :   -0.193318
  10 N :   -0.269564
  11 C :    0.102413
  12 C :    0.001651
  13 C :    0.155398
  14 C :   -0.054567
  15 C :   -0.000109
  16 C :   -0.144037
  17 S :    0.169822
  18 C :   -0.120108
  19 C :    0.098071
  20 C :    0.177007
  21 C :   -0.103523
  22 C :   -0.193961
  23 N :    0.116742
  24 C :    0.026131
  25 C :    0.018930
  26 C :   -0.015530
  27 C :    0.076712
  28 C :   -0.013963
  29 C :   -0.013858
  30 C :    0.121186
  31 C :   -0.031484
  32 C :   -0.009098
  33 C :    0.009826
  34 C :    0.016632
  35 C :    0.112645
  36 C :   -0.013334
  37 C :   -0.021761
  38 C :    0.117109
  39 C :   -0.013900
  40 C :   -0.019436
  41 C :    0.011529
  42 C :    0.015241
  43 C :    0.116108
  44 C :   -0.017353
  45 C :   -0.009788
  46 C :    0.097877
  47 C :   -0.016766
  48 C :   -0.023866
  49 C :    0.002514
  50 C :   -0.016841
  51 H :    0.009826
  52 H :    0.015803
  53 H :    0.044270
  54 H :    0.011500
  55 H :    0.019363
  56 H :    0.029356
  57 H :    0.041024
  58 H :    0.016816
  59 H :    0.029265
  60 H :    0.017711
  61 H :    0.015664
  62 H :   -0.026138
  63 H :    0.059738
  64 H :   -0.001022
  65 H :   -0.005771
  66 H :   -0.012311
  67 H :   -0.020880
  68 H :   -0.024208
  69 H :   -0.022093
  70 H :   -0.013973
  71 H :   -0.028349
  72 H :   -0.028034
  73 H :   -0.030027
  74 H :   -0.028511
  75 H :   -0.028870
  76 H :   -0.028959
  77 H :   -0.028974
  78 H :   -0.030207
  79 H :   -0.032435
  80 H :   -0.035027
  81 H :   -0.028153
  82 H :   -0.028733
  83 H :   -0.018111
  84 H :    0.012528
  85 H :    0.021775
Sum of atomic charges:    0.0000000

LOEWDIN ATOMIC CHARGES
----------------------
   0 C :    0.084401
   1 N :   -0.000005
   2 C :    0.038556
   3 C :   -0.061600
   4 C :    0.075685
   5 O :   -0.203670
   6 C :   -0.133197
   7 C :   -0.128893
   8 C :    0.081097
   9 O :   -0.198028
  10 N :   -0.012406
  11 C :    0.035135
  12 C :   -0.062214
  13 C :    0.082974
  14 C :   -0.068259
  15 C :    0.016921
  16 C :   -0.185817
  17 S :    0.499117
  18 C :   -0.151059
  19 C :   -0.049764
  20 C :   -0.019653
  21 C :   -0.060709
  22 C :   -0.030161
  23 N :   -0.048743
  24 C :    0.023244
  25 C :   -0.032374
  26 C :    0.006947
  27 C :   -0.048025
  28 C :   -0.018924
  29 C :   -0.008979
  30 C :   -0.017754
  31 C :   -0.015762
  32 C :   -0.015041
  33 C :   -0.023331
  34 C :   -0.009026
  35 C :   -0.028948
  36 C :   -0.012401
  37 C :   -0.016633
  38 C :   -0.021653
  39 C :   -0.013944
  40 C :   -0.014833
  41 C :   -0.020060
  42 C :   -0.013700
  43 C :   -0.026047
  44 C :   -0.011922
  45 C :   -0.009663
  46 C :   -0.027377
  47 C :   -0.018068
  48 C :   -0.018531
  49 C :   -0.019901
  50 C :   -0.044080
  51 H :    0.030321
  52 H :    0.023552
  53 H :    0.037339
  54 H :    0.021071
  55 H :    0.028250
  56 H :    0.031135
  57 H :    0.036440
  58 H :    0.019725
  59 H :    0.032073
  60 H :    0.027955
  61 H :    0.022051
  62 H :    0.019104
  63 H :    0.050620
  64 H :    0.041777
  65 H :    0.033763
  66 H :    0.033559
  67 H :    0.023190
  68 H :    0.028101
  69 H :    0.028615
  70 H :    0.030704
  71 H :    0.025042
  72 H :    0.024964
  73 H :    0.025387
  74 H :    0.026266
  75 H :    0.025963
  76 H :    0.026017
  77 H :    0.024326
  78 H :    0.024513
  79 H :    0.024960
  80 H :    0.025833
  81 H :    0.026381
  82 H :    0.025476
  83 H :    0.027800
  84 H :    0.019234
  85 H :    0.025573

  Mayer bond orders larger than 0.100000
B(  0-C ,  1-N ) :   1.1901 B(  0-C ,  7-C ) :   1.4564 B(  0-C , 51-H ) :   0.9907
B(  1-N ,  2-C ) :   0.9463 B(  1-N ,  4-C ) :   1.0469 B(  2-C ,  3-C ) :   1.1191
B(  2-C , 52-H ) :   0.9539 B(  2-C , 53-H ) :   0.9343 B(  3-C , 54-H ) :   0.9691
B(  3-C , 55-H ) :   0.9687 B(  3-C , 56-H ) :   0.9674 B(  4-C ,  5-O ) :   2.0433
B(  4-C ,  6-C ) :   1.0078 B(  6-C ,  7-C ) :   1.1982 B(  6-C , 13-C ) :   1.3834
B(  7-C ,  8-C ) :   0.9510 B(  8-C ,  9-O ) :   2.1696 B(  8-C , 10-N ) :   1.0225
B( 10-N , 11-C ) :   0.9543 B( 10-N , 13-C ) :   1.1454 B( 11-C , 12-C ) :   1.1198
B( 11-C , 57-H ) :   0.9282 B( 11-C , 58-H ) :   0.9498 B( 12-C , 59-H ) :   0.9644
B( 12-C , 60-H ) :   0.9674 B( 12-C , 61-H ) :   0.9679 B( 13-C , 14-C ) :   1.1599
B( 14-C , 15-C ) :   1.5823 B( 14-C , 62-H ) :   0.9619 B( 15-C , 16-C ) :   1.1811
B( 15-C , 63-H ) :   0.9435 B( 16-C , 17-S ) :   1.1159 B( 16-C , 18-C ) :   0.1135
B( 16-C , 20-C ) :   1.3414 B( 17-S , 18-C ) :   1.2039 B( 18-C , 19-C ) :   1.3604
B( 18-C , 27-C ) :   1.0431 B( 19-C , 20-C ) :   1.1903 B( 19-C , 26-C ) :   1.2027
B( 20-C , 21-C ) :   1.2170 B( 21-C , 22-C ) :   1.0795 B( 21-C , 24-C ) :   1.5566
B( 22-C , 23-N ) :   3.0058 B( 24-C , 25-C ) :   1.2066 B( 24-C , 64-H ) :   0.9928
B( 25-C , 26-C ) :   1.5255 B( 25-C , 65-H ) :   0.9856 B( 26-C , 66-H ) :   0.9921
B( 27-C , 28-C ) :   1.3220 B( 27-C , 32-C ) :   1.3528 B( 28-C , 29-C ) :   1.4279
B( 28-C , 67-H ) :   0.9872 B( 29-C , 30-C ) :   1.3305 B( 29-C , 68-H ) :   0.9901
B( 30-C , 31-C ) :   1.3270 B( 30-C , 33-C ) :   1.0784 B( 31-C , 32-C ) :   1.3933
B( 31-C , 69-H ) :   0.9984 B( 32-C , 70-H ) :   0.9901 B( 33-C , 34-C ) :   1.7028
B( 33-C , 71-H ) :   0.9776 B( 34-C , 35-C ) :   1.0768 B( 34-C , 72-H ) :   0.9773
B( 35-C , 36-C ) :   1.3390 B( 35-C , 40-C ) :   1.3197 B( 36-C , 37-C ) :   1.4113
B( 36-C , 73-H ) :   0.9892 B( 37-C , 38-C ) :   1.3201 B( 37-C , 74-H ) :   0.9941
B( 38-C , 39-C ) :   1.3415 B( 38-C , 41-C ) :   1.0753 B( 39-C , 40-C ) :   1.4100
B( 39-C , 75-H ) :   0.9894 B( 40-C , 76-H ) :   0.9940 B( 41-C , 42-C ) :   1.7071
B( 41-C , 77-H ) :   0.9767 B( 42-C , 43-C ) :   1.0758 B( 42-C , 78-H ) :   0.9775
B( 43-C , 44-C ) :   1.3267 B( 43-C , 48-C ) :   1.3386 B( 44-C , 45-C ) :   1.4365
B( 44-C , 79-H ) :   0.9886 B( 45-C , 46-C ) :   1.3347 B( 45-C , 80-H ) :   0.9874
B( 46-C , 47-C ) :   1.3509 B( 46-C , 49-C ) :   1.0697 B( 47-C , 48-C ) :   1.3787
B( 47-C , 81-H ) :   0.9954 B( 48-C , 82-H ) :   0.9975 B( 49-C , 50-C ) :   1.9497
B( 49-C , 83-H ) :   0.9689 B( 50-C , 84-H ) :   0.9493 B( 50-C , 85-H ) :   0.9497

-----------------------------------------------------------------------------
         ABSORPTION SPECTRUM VIA TRANSITION ELECTRIC DIPOLE MOMENTS
-----------------------------------------------------------------------------
State   Energy  Wavelength   fosc         T2         TX        TY        TZ
        (cm-1)    (nm)                  (au**2)     (au)      (au)      (au)
-----------------------------------------------------------------------------
   0   16338.0    612.1   0.807334542  16.26784  -0.79574  -3.29275   2.18917
   1   22436.0    445.7   0.767379730  11.26005   1.40565   2.45814  -1.80049
   2   24657.1    405.6   0.049644034   0.66283  -0.67606   0.45063  -0.05195
   3   26869.6    372.2   0.873891932  10.70710   1.23784   0.79518  -2.92276
   4   27659.7    361.5   0.257417020   3.06384   0.83513   1.10889  -1.06619
   5   28370.5    352.5   0.005894597   0.06840   0.09114   0.09995   0.22384
   6   29481.1    339.2   0.007306401   0.08159  -0.19452   0.04379   0.20454
   7   31159.3    320.9   0.593986336   6.27573   0.96087   1.18709  -1.98577
   8   32491.1    307.8   0.220306093   2.23222   0.24075   0.93864   1.13720
   9   34082.8    293.4   0.026200541   0.25308  -0.36530  -0.29472   0.18102
  10   34160.6    292.7   0.025276750   0.24360   0.20681   0.16461  -0.41681
  11   34502.5    289.8   0.036820114   0.35133  -0.42347  -0.39333  -0.13149
  12   35146.7    284.5   0.003152715   0.02953   0.14210  -0.08822  -0.03944
  13   35356.5    282.8   0.012840003   0.11956  -0.01549  -0.29379   0.18167
  14   36452.3    274.3   0.088870058   0.80261   0.30932   0.83935   0.04931
  15   37124.5    269.4   0.175773113   1.55872  -0.05197  -0.74194  -1.00276
  16   37791.0    264.6   0.084070832   0.73237  -0.17765  -0.75394  -0.36384
  17   38484.9    259.8   0.030057273   0.25712   0.28976   0.38633   0.15462
  18   38768.6    257.9   0.123274927   1.04682   0.09104   0.34690   0.95822
  19   39059.7    256.0   0.107103094   0.90271   0.37688  -0.16509  -0.85640
  20   39301.9    254.4   0.132616154   1.11086   0.09461  -0.54678  -0.89607
  21   40260.1    248.4   0.006192347   0.05064   0.05311   0.21842   0.01031

FINAL SINGLE POINT ENERGY     -2445.991409290465

DIPOLE MOMENT
-------------
                                X             Y             Z
Electronic contribution:    -19.78013     -19.59287      32.14492
Nuclear contribution   :     20.94648      22.06552     -33.37053
                        -----------------------------------------
Total Dipole Moment    :      1.16635       2.47265      -1.22561
                        -----------------------------------------
Magnitude (a.u.)       :      2.99608
Magnitude (Debye)      :      7.61542

Rotational constants in cm-1:     0.004221     0.000341     0.000325
Rotational constants in MHz :   126.545168    10.217132     9.745523

                             ****ORCA TERMINATED NORMALLY****
TOTAL RUN TIME: 0 days 0 hours 5 minutes 53 seconds 924 msec
