                         Program Version 4.2.0 -  RELEASE  -
|  1> # ORCA input file
|  2> # SCF done       -190.971448899832          0.000967075956
|  3> ! CAM-B3LYP def2-SVP def2/J RIJCOSX Grid4 TightSCF
|  4> %maxcore 5000
|  5> %tddft
|  6>     Mode sTDDFT
|  7>     Ethresh 5.0
|  8>     maxcore 5000
|  9> end
| 10>
| 11> %pal
| 12>   nprocs 6
| 13>   end
| 14> * xyz 0 1
| 15>    C       -2.53248        -1.90064        -2.84999
| 16>    N       -3.72304        -1.24089        -2.82335
| 17>    C       -4.95937        -1.70693        -3.39656
| 18>    C       -4.97491        -1.54107        -4.91416
| 19>    C       -3.60050         0.02053        -2.19965
| 20>    O       -4.53882         0.78802        -2.06436
| 21>    C       -2.21537         0.09051        -1.82224
| 22>    C       -1.58474        -1.12552        -2.24586
| 23>    C       -0.18996        -1.06099        -1.86526
| 24>    O        0.73597        -1.83004        -2.01172
| 25>    N       -0.06594         0.18968        -1.23282
| 26>    C        1.19254         0.61414        -0.67306
| 27>    C        1.24933         0.39581         0.83779
| 28>    C       -1.26127         0.88259        -1.19610
| 29>    C       -1.39987         2.16485        -0.61307
| 30>    C       -2.57615         2.84922        -0.63078
| 31>    C       -2.77613         4.12691        -0.06095
| 32>    C       -1.91952         4.91341         0.69800
| 33>    C       -2.46586         6.12821         1.09730
| 34>    C       -3.77885         6.27593         0.61835
| 35>    S       -4.31842         4.92557        -0.28892
| 36>    C       -4.41886         7.49242         0.95565
| 37>    C       -3.67147         8.37961         1.73987
| 38>   Si       -1.98551         7.64324         2.08799
| 39>    C       -1.68568         7.28199         3.90175
| 40>    C       -0.58222         8.61786         1.31826
| 41>    C       -4.38570         9.54805         2.00664
| 42>    C       -5.64350         9.56298         1.43431
| 43>    S       -5.97815         8.09850         0.54921
| 44>    C       -6.60705        10.60320         1.47913
| 45>    O       -7.75706        10.49519         0.76891
| 46>    C       -8.48406        11.61432         0.94485
| 47>    C       -7.79597        12.48366         1.80735
| 48>    C       -6.58357        11.82492         2.14720
| 49>    O       -5.55980        12.20751         2.93639
| 50>    C       -5.65907        13.46165         3.57718
| 51>    C       -8.23949        13.74112         2.22577
| 52>    N       -8.59961        14.77688         2.57181
| 53>    C       -9.71274        11.73153         0.25299
| 54>    C      -10.53088        12.81334         0.29166
| 55>    C      -11.72942        12.95071        -0.44564
| 56>    C      -12.55288        14.06631        -0.46646
| 57>    C      -13.64959        13.94691        -1.31522
| 58>    C      -13.66221        12.69817        -1.95368
| 59>    S      -12.33898        11.69845        -1.50675
| 60>    C      -14.72963        12.47447        -2.85717
| 61>    C      -15.62975        13.54490        -2.99437
| 62>   Si      -15.11270        14.96444        -1.88871
| 63>    C      -16.34121        15.34148        -0.52593
| 64>    C      -14.61858        16.49858        -2.84445
| 65>    C      -16.62543        13.24551        -3.91534
| 66>    C      -16.51436        11.98039        -4.47972
| 67>    S      -15.12331        11.12306        -3.83185
| 68>    C      -17.30769        11.30077        -5.43896
| 69>    N      -18.38691        11.79290        -6.14787
| 70>    C      -18.90669        13.13683        -6.18942
| 71>    C      -17.97713        14.08791        -6.93999
| 72>    C      -18.94019        10.81691        -7.00461
| 73>    O      -19.89764        11.03737        -7.72178
| 74>    C      -18.13809         9.64105        -6.78711
| 75>    C      -17.14249         9.97577        -5.82644
| 76>    C      -16.33429         8.81150        -5.59689
| 77>    O      -15.36769         8.61304        -4.88097
| 78>    N      -16.89183         7.83139        -6.43882
| 79>    C      -16.37344         6.48635        -6.45226
| 80>    C      -17.23504         5.53617        -5.62319
| 81>    C      -17.96635         8.31456        -7.15050
| 82>    C      -18.70717         7.52838        -8.09472
| 83>    C      -19.75555         8.00297        -8.77042
| 84>    H       -2.45098        -2.87754        -3.28923
| 85>    H       -5.75433        -1.10409        -2.94883
| 86>    H       -5.10775        -2.75702        -3.12633
| 87>    H       -4.85132        -0.49291        -5.17465
| 88>    H       -5.92201        -1.89108        -5.31521
| 89>    H       -4.16849        -2.11081        -5.37094
| 90>    H        1.37063         1.66449        -0.92271
| 91>    H        1.95927         0.00254        -1.15794
| 92>    H        0.46094         0.95063         1.34210
| 93>    H        2.21187         0.72185         1.22321
| 94>    H        1.12432        -0.66063         1.06167
| 95>    H       -0.52910         2.60535        -0.15076
| 96>    H       -3.43197         2.39888        -1.11636
| 97>    H       -0.92428         4.60040         0.95883
| 98>    H       -2.49641         6.70779         4.34587
| 99>    H       -1.58797         8.19774         4.48125
|100>    H       -0.77063         6.71288         4.05295
|101>    H       -0.75365         8.82026         0.26281
|102>    H        0.36481         8.08705         1.39216
|103>    H       -0.44516         9.57900         1.80952
|104>    H       -4.01590        10.37170         2.58810
|105>    H       -4.74542        13.56710         4.15943
|106>    H       -6.52473        13.50197         4.24373
|107>    H       -5.72733        14.27662         2.85163
|108>    H       -9.97217        10.87930        -0.36091
|109>    H      -10.26784        13.66188         0.90739
|110>    H      -12.34000        14.94002         0.12382
|111>    H      -16.63914        14.44726         0.01805
|112>    H      -17.24947        15.79604        -0.91640
|113>    H      -15.92886        16.03598         0.20314
|114>    H      -13.90596        16.27731        -3.63665
|115>    H      -14.15617        17.24170        -2.19815
|116>    H      -15.47737        16.97679        -3.31125
|117>    H      -17.40945        13.93905        -4.15052
|118>    H      -19.11218        13.49083        -5.17592
|119>    H      -19.85798        13.06148        -6.72613
|120>    H      -16.99320        14.12263        -6.47751
|121>    H      -18.39958        15.08940        -6.94526
|122>    H      -17.86329        13.75344        -7.96841
|123>    H      -15.37237         6.54736        -6.01517
|124>    H      -16.28651         6.13342        -7.48406
|125>    H      -17.27324         5.87810        -4.59180
|126>    H      -16.80749         4.53730        -5.64306
|127>    H      -18.25081         5.49192        -6.01036
|128>    H      -18.37591         6.51042        -8.24815
|129>    H      -20.10653         9.01118        -8.62904
|130>    H      -20.29124         7.38765        -9.47258
|131> *
|132>
|133>                          ****END OF INPUT****

CARTESIAN COORDINATES (ANGSTROEM)
---------------------------------
  C     -2.532480   -1.900640   -2.849990
  N     -3.723040   -1.240890   -2.823350
  C     -4.959370   -1.706930   -3.396560
  C     -4.974910   -1.541070   -4.914160
  C     -3.600500    0.020530   -2.199650
  O     -4.538820    0.788020   -2.064360
  C     -2.215370    0.090510   -1.822240
  C     -1.584740   -1.125520   -2.245860
  C     -0.189960   -1.060990   -1.865260
  O      0.735970   -1.830040   -2.011720
  N     -0.065940    0.189680   -1.232820
  C      1.192540    0.614140   -0.673060
  C      1.249330    0.395810    0.837790
  C     -1.261270    0.882590   -1.196100
  C     -1.399870    2.164850   -0.613070
  C     -2.576150    2.849220   -0.630780
  C     -2.776130    4.126910   -0.060950
  C     -1.919520    4.913410    0.698000
  C     -2.465860    6.128210    1.097300
  C     -3.778850    6.275930    0.618350
  S     -4.318420    4.925570   -0.288920
  C     -4.418860    7.492420    0.955650
  C     -3.671470    8.379610    1.739870
  Si    -1.985510    7.643240    2.087990
  C     -1.685680    7.281990    3.901750
  C     -0.582220    8.617860    1.318260
  C     -4.385700    9.548050    2.006640
  C     -5.643500    9.562980    1.434310
  S     -5.978150    8.098500    0.549210
  C     -6.607050   10.603200    1.479130
  O     -7.757060   10.495190    0.768910
  C     -8.484060   11.614320    0.944850
  C     -7.795970   12.483660    1.807350
  C     -6.583570   11.824920    2.147200
  O     -5.559800   12.207510    2.936390
  C     -5.659070   13.461650    3.577180
  C     -8.239490   13.741120    2.225770
  N     -8.599610   14.776880    2.571810
  C     -9.712740   11.731530    0.252990
  C    -10.530880   12.813340    0.291660
  C    -11.729420   12.950710   -0.445640
  C    -12.552880   14.066310   -0.466460
  C    -13.649590   13.946910   -1.315220
  C    -13.662210   12.698170   -1.953680
  S    -12.338980   11.698450   -1.506750
  C    -14.729630   12.474470   -2.857170
  C    -15.629750   13.544900   -2.994370
  Si   -15.112700   14.964440   -1.888710
  C    -16.341210   15.341480   -0.525930
  C    -14.618580   16.498580   -2.844450
  C    -16.625430   13.245510   -3.915340
  C    -16.514360   11.980390   -4.479720
  S    -15.123310   11.123060   -3.831850
  C    -17.307690   11.300770   -5.438960
  N    -18.386910   11.792900   -6.147870
  C    -18.906690   13.136830   -6.189420
  C    -17.977130   14.087910   -6.939990
  C    -18.940190   10.816910   -7.004610
  O    -19.897640   11.037370   -7.721780
  C    -18.138090    9.641050   -6.787110
  C    -17.142490    9.975770   -5.826440
  C    -16.334290    8.811500   -5.596890
  O    -15.367690    8.613040   -4.880970
  N    -16.891830    7.831390   -6.438820
  C    -16.373440    6.486350   -6.452260
  C    -17.235040    5.536170   -5.623190
  C    -17.966350    8.314560   -7.150500
  C    -18.707170    7.528380   -8.094720
  C    -19.755550    8.002970   -8.770420
  H     -2.450980   -2.877540   -3.289230
  H     -5.754330   -1.104090   -2.948830
  H     -5.107750   -2.757020   -3.126330
  H     -4.851320   -0.492910   -5.174650
  H     -5.922010   -1.891080   -5.315210
  H     -4.168490   -2.110810   -5.370940
  H      1.370630    1.664490   -0.922710
  H      1.959270    0.002540   -1.157940
  H      0.460940    0.950630    1.342100
  H      2.211870    0.721850    1.223210
  H      1.124320   -0.660630    1.061670
  H     -0.529100    2.605350   -0.150760
  H     -3.431970    2.398880   -1.116360
  H     -0.924280    4.600400    0.958830
  H     -2.496410    6.707790    4.345870
  H     -1.587970    8.197740    4.481250
  H     -0.770630    6.712880    4.052950
  H     -0.753650    8.820260    0.262810
  H      0.364810    8.087050    1.392160
  H     -0.445160    9.579000    1.809520
  H     -4.015900   10.371700    2.588100
  H     -4.745420   13.567100    4.159430
  H     -6.524730   13.501970    4.243730
  H     -5.727330   14.276620    2.851630
  H     -9.972170   10.879300   -0.360910
  H    -10.267840   13.661880    0.907390
  H    -12.340000   14.940020    0.123820
  H    -16.639140   14.447260    0.018050
  H    -17.249470   15.796040   -0.916400
  H    -15.928860   16.035980    0.203140
  H    -13.905960   16.277310   -3.636650
  H    -14.156170   17.241700   -2.198150
  H    -15.477370   16.976790   -3.311250
  H    -17.409450   13.939050   -4.150520
  H    -19.112180   13.490830   -5.175920
  H    -19.857980   13.061480   -6.726130
  H    -16.993200   14.122630   -6.477510
  H    -18.399580   15.089400   -6.945260
  H    -17.863290   13.753440   -7.968410
  H    -15.372370    6.547360   -6.015170
  H    -16.286510    6.133420   -7.484060
  H    -17.273240    5.878100   -4.591800
  H    -16.807490    4.537300   -5.643060
  H    -18.250810    5.491920   -6.010360
  H    -18.375910    6.510420   -8.248150
  H    -20.106530    9.011180   -8.629040
  H    -20.291240    7.387650   -9.472580

 Total Charge           Charge          ....    0
 Multiplicity           Mult            ....    1
 Number of Electrons    NEL             ....  534
 Basis Dimension        Dim             .... 1225

ORBITAL ENERGIES
----------------

  NO   OCC          E(Eh)            E(eV)
   0   2.0000     -88.960769     -2420.7456
   1   2.0000     -88.957957     -2420.6691
   2   2.0000     -88.957523     -2420.6573
   3   2.0000     -88.956464     -2420.6285
   4   2.0000     -66.195504     -1801.2712
   5   2.0000     -66.192188     -1801.1810
   6   2.0000     -19.305189      -525.3209
   7   2.0000     -19.264885      -524.2242
   8   2.0000     -19.182882      -521.9928
   9   2.0000     -19.178113      -521.8630
  10   2.0000     -19.171959      -521.6955
  11   2.0000     -19.169862      -521.6385
  12   2.0000     -14.447377      -393.1331
  13   2.0000     -14.444504      -393.0549
  14   2.0000     -14.436541      -392.8383
  15   2.0000     -14.436099      -392.8262
  16   2.0000     -14.409419      -392.1002
  17   2.0000     -10.365852      -282.0692
  18   2.0000     -10.361973      -281.9636
  19   2.0000     -10.357869      -281.8520
  20   2.0000     -10.357032      -281.8292
  21   2.0000     -10.352570      -281.7078
  22   2.0000     -10.350037      -281.6388
  23   2.0000     -10.337854      -281.3073
  24   2.0000     -10.335532      -281.2441
  25   2.0000     -10.329142      -281.0703
  26   2.0000     -10.327820      -281.0343
  27   2.0000     -10.325910      -280.9823
  28   2.0000     -10.314846      -280.6812
  29   2.0000     -10.310190      -280.5545
  30   2.0000     -10.309861      -280.5456
  31   2.0000     -10.309734      -280.5421
  32   2.0000     -10.307039      -280.4688
  33   2.0000     -10.306325      -280.4494
  34   2.0000     -10.305939      -280.4389
  35   2.0000     -10.304541      -280.4008
  36   2.0000     -10.301781      -280.3257
  37   2.0000     -10.301712      -280.3238
  38   2.0000     -10.301286      -280.3122
  39   2.0000     -10.299822      -280.2724
  40   2.0000     -10.296928      -280.1937
  41   2.0000     -10.296242      -280.1750
  42   2.0000     -10.293614      -280.1035
  43   2.0000     -10.292286      -280.0673
  44   2.0000     -10.285739      -279.8892
  45   2.0000     -10.283976      -279.8412
  46   2.0000     -10.283183      -279.8196
  47   2.0000     -10.280458      -279.7455
  48   2.0000     -10.279180      -279.7107
  49   2.0000     -10.276466      -279.6369
  50   2.0000     -10.271674      -279.5065
  51   2.0000     -10.271171      -279.4928
  52   2.0000     -10.269265      -279.4409
  53   2.0000     -10.259156      -279.1658
  54   2.0000     -10.258082      -279.1366
  55   2.0000     -10.256774      -279.1010
  56   2.0000     -10.255286      -279.0605
  57   2.0000     -10.255107      -279.0556
  58   2.0000     -10.254148      -279.0296
  59   2.0000     -10.252041      -278.9722
  60   2.0000     -10.251616      -278.9606
  61   2.0000     -10.251136      -278.9476
  62   2.0000     -10.251105      -278.9467
  63   2.0000     -10.249836      -278.9122
  64   2.0000     -10.249565      -278.9048
  65   2.0000     -10.248343      -278.8716
  66   2.0000     -10.248302      -278.8705
  67   2.0000     -10.242711      -278.7183
  68   2.0000     -10.238420      -278.6016
  69   2.0000      -8.056183      -219.2199
  70   2.0000      -8.053162      -219.1377
  71   2.0000      -8.051932      -219.1042
  72   2.0000      -8.051923      -219.1040
  73   2.0000      -6.025241      -163.9551
  74   2.0000      -6.022397      -163.8778
  75   2.0000      -6.021390      -163.8504
  76   2.0000      -6.021141      -163.8436
  77   2.0000      -6.020960      -163.8386
  78   2.0000      -6.018471      -163.7709
  79   2.0000      -6.018381      -163.7685
  80   2.0000      -6.017010      -163.7312
  81   2.0000      -6.016873      -163.7275
  82   2.0000      -6.015298      -163.6846
  83   2.0000      -6.014337      -163.6584
  84   2.0000      -6.014161      -163.6536
  85   2.0000      -5.361965      -145.9065
  86   2.0000      -5.358517      -145.8127
  87   2.0000      -3.725423      -101.3739
  88   2.0000      -3.723990      -101.3349
  89   2.0000      -3.723033      -101.3089
  90   2.0000      -3.721920      -101.2786
  91   2.0000      -3.720591      -101.2424
  92   2.0000      -3.719630      -101.2163
  93   2.0000      -1.225066       -33.3357
  94   2.0000      -1.166602       -31.7448
  95   2.0000      -1.124424       -30.5971
  96   2.0000      -1.116653       -30.3857
  97   2.0000      -1.114470       -30.3263
  98   2.0000      -1.106788       -30.1172
  99   2.0000      -1.053904       -28.6782
 100   2.0000      -1.046085       -28.4654
 101   2.0000      -1.044763       -28.4295
 102   2.0000      -1.036319       -28.1997
 103   2.0000      -0.997223       -27.1358
 104   2.0000      -0.995947       -27.1011
 105   2.0000      -0.992564       -27.0090
 106   2.0000      -0.971479       -26.4353
 107   2.0000      -0.968732       -26.3605
 108   2.0000      -0.926019       -25.1983
 109   2.0000      -0.920690       -25.0532
 110   2.0000      -0.913377       -24.8542
 111   2.0000      -0.911294       -24.7976
 112   2.0000      -0.898995       -24.4629
 113   2.0000      -0.888661       -24.1817
 114   2.0000      -0.883358       -24.0374
 115   2.0000      -0.868135       -23.6232
 116   2.0000      -0.863103       -23.4862
 117   2.0000      -0.858399       -23.3582
 118   2.0000      -0.845431       -23.0053
 119   2.0000      -0.841507       -22.8986
 120   2.0000      -0.835946       -22.7472
 121   2.0000      -0.822990       -22.3947
 122   2.0000      -0.821136       -22.3442
 123   2.0000      -0.818108       -22.2619
 124   2.0000      -0.813471       -22.1357
 125   2.0000      -0.809396       -22.0248
 126   2.0000      -0.807246       -21.9663
 127   2.0000      -0.799751       -21.7623
 128   2.0000      -0.793316       -21.5872
 129   2.0000      -0.790628       -21.5141
 130   2.0000      -0.780790       -21.2464
 131   2.0000      -0.773539       -21.0491
 132   2.0000      -0.769708       -20.9448
 133   2.0000      -0.766907       -20.8686
 134   2.0000      -0.761824       -20.7303
 135   2.0000      -0.754691       -20.5362
 136   2.0000      -0.748415       -20.3654
 137   2.0000      -0.743918       -20.2430
 138   2.0000      -0.735928       -20.0256
 139   2.0000      -0.712585       -19.3904
 140   2.0000      -0.703554       -19.1447
 141   2.0000      -0.698064       -18.9953
 142   2.0000      -0.695983       -18.9387
 143   2.0000      -0.685645       -18.6573
 144   2.0000      -0.680676       -18.5221
 145   2.0000      -0.675728       -18.3875
 146   2.0000      -0.669731       -18.2243
 147   2.0000      -0.665065       -18.0973
 148   2.0000      -0.656997       -17.8778
 149   2.0000      -0.649286       -17.6680
 150   2.0000      -0.642014       -17.4701
 151   2.0000      -0.637937       -17.3591
 152   2.0000      -0.635976       -17.3058
 153   2.0000      -0.624313       -16.9884
 154   2.0000      -0.618177       -16.8215
 155   2.0000      -0.610769       -16.6199
 156   2.0000      -0.605945       -16.4886
 157   2.0000      -0.603703       -16.4276
 158   2.0000      -0.601298       -16.3621
 159   2.0000      -0.595875       -16.2146
 160   2.0000      -0.588670       -16.0185
 161   2.0000      -0.583380       -15.8746
 162   2.0000      -0.582711       -15.8564
 163   2.0000      -0.578974       -15.7547
 164   2.0000      -0.577315       -15.7095
 165   2.0000      -0.572095       -15.5675
 166   2.0000      -0.568299       -15.4642
 167   2.0000      -0.565675       -15.3928
 168   2.0000      -0.562744       -15.3130
 169   2.0000      -0.558096       -15.1866
 170   2.0000      -0.556106       -15.1324
 171   2.0000      -0.551316       -15.0021
 172   2.0000      -0.548322       -14.9206
 173   2.0000      -0.546472       -14.8703
 174   2.0000      -0.538288       -14.6476
 175   2.0000      -0.531180       -14.4541
 176   2.0000      -0.528079       -14.3697
 177   2.0000      -0.524805       -14.2807
 178   2.0000      -0.522663       -14.2224
 179   2.0000      -0.521012       -14.1775
 180   2.0000      -0.517997       -14.0954
 181   2.0000      -0.517525       -14.0826
 182   2.0000      -0.513737       -13.9795
 183   2.0000      -0.513095       -13.9620
 184   2.0000      -0.510389       -13.8884
 185   2.0000      -0.508103       -13.8262
 186   2.0000      -0.507495       -13.8096
 187   2.0000      -0.502544       -13.6749
 188   2.0000      -0.501716       -13.6524
 189   2.0000      -0.498752       -13.5717
 190   2.0000      -0.497824       -13.5465
 191   2.0000      -0.497285       -13.5318
 192   2.0000      -0.492530       -13.4024
 193   2.0000      -0.491228       -13.3670
 194   2.0000      -0.490356       -13.3433
 195   2.0000      -0.488881       -13.3031
 196   2.0000      -0.486608       -13.2413
 197   2.0000      -0.486220       -13.2307
 198   2.0000      -0.484597       -13.1866
 199   2.0000      -0.482670       -13.1341
 200   2.0000      -0.476768       -12.9735
 201   2.0000      -0.474482       -12.9113
 202   2.0000      -0.471458       -12.8290
 203   2.0000      -0.470464       -12.8020
 204   2.0000      -0.468470       -12.7477
 205   2.0000      -0.467736       -12.7277
 206   2.0000      -0.467301       -12.7159
 207   2.0000      -0.466311       -12.6890
 208   2.0000      -0.463663       -12.6169
 209   2.0000      -0.463022       -12.5995
 210   2.0000      -0.461561       -12.5597
 211   2.0000      -0.458756       -12.4834
 212   2.0000      -0.456045       -12.4096
 213   2.0000      -0.455305       -12.3895
 214   2.0000      -0.454834       -12.3767
 215   2.0000      -0.453712       -12.3461
 216   2.0000      -0.452861       -12.3230
 217   2.0000      -0.450596       -12.2613
 218   2.0000      -0.447383       -12.1739
 219   2.0000      -0.446653       -12.1540
 220   2.0000      -0.443213       -12.0604
 221   2.0000      -0.442690       -12.0462
 222   2.0000      -0.441610       -12.0168
 223   2.0000      -0.438979       -11.9452
 224   2.0000      -0.437785       -11.9127
 225   2.0000      -0.434744       -11.8300
 226   2.0000      -0.434227       -11.8159
 227   2.0000      -0.431810       -11.7501
 228   2.0000      -0.428700       -11.6655
 229   2.0000      -0.427468       -11.6320
 230   2.0000      -0.423996       -11.5375
 231   2.0000      -0.423426       -11.5220
 232   2.0000      -0.421469       -11.4687
 233   2.0000      -0.419730       -11.4214
 234   2.0000      -0.417508       -11.3610
 235   2.0000      -0.415390       -11.3033
 236   2.0000      -0.413162       -11.2427
 237   2.0000      -0.411525       -11.1982
 238   2.0000      -0.397233       -10.8093
 239   2.0000      -0.394051       -10.7227
 240   2.0000      -0.392117       -10.6700
 241   2.0000      -0.391898       -10.6641
 242   2.0000      -0.387689       -10.5495
 243   2.0000      -0.385381       -10.4868
 244   2.0000      -0.381836       -10.3903
 245   2.0000      -0.377046       -10.2599
 246   2.0000      -0.375052       -10.2057
 247   2.0000      -0.372551       -10.1376
 248   2.0000      -0.351716        -9.5707
 249   2.0000      -0.341493        -9.2925
 250   2.0000      -0.335072        -9.1178
 251   2.0000      -0.334770        -9.1095
 252   2.0000      -0.329067        -8.9544
 253   2.0000      -0.326447        -8.8831
 254   2.0000      -0.323966        -8.8156
 255   2.0000      -0.322253        -8.7689
 256   2.0000      -0.320936        -8.7331
 257   2.0000      -0.319432        -8.6922
 258   2.0000      -0.318332        -8.6623
 259   2.0000      -0.312972        -8.5164
 260   2.0000      -0.306287        -8.3345
 261   2.0000      -0.297196        -8.0871
 262   2.0000      -0.290889        -7.9155
 263   2.0000      -0.265800        -7.2328
 264   2.0000      -0.240727        -6.5505
 265   2.0000      -0.226071        -6.1517
 266   2.0000      -0.211532        -5.7561
 267   0.0000      -0.076549        -2.0830
 268   0.0000      -0.062258        -1.6941
 269   0.0000      -0.042632        -1.1601
 270   0.0000      -0.017295        -0.4706
 271   0.0000      -0.003824        -0.1041

MULLIKEN ATOMIC CHARGES
-----------------------
   0 C :    0.026949
   1 N :   -0.258425
   2 C :    0.115409
   3 C :    0.001532
   4 C :    0.166570
   5 O :   -0.230379
   6 C :   -0.112509
   7 C :    0.011927
   8 C :    0.159406
   9 O :   -0.194853
  10 N :   -0.275028
  11 C :    0.103572
  12 C :    0.005835
  13 C :    0.169852
  14 C :   -0.050128
  15 C :    0.080536
  16 C :   -0.088790
  17 C :   -0.023277
  18 C :   -0.124344
  19 C :   -0.087698
  20 S :    0.176613
  21 C :   -0.081002
  22 C :   -0.113724
  23 Si:    0.517366
  24 C :   -0.194368
  25 C :   -0.197278
  26 C :   -0.054056
  27 C :   -0.120937
  28 S :    0.170141
  29 C :    0.160382
  30 O :   -0.192055
  31 C :    0.176790
  32 C :   -0.134140
  33 C :    0.130212
  34 O :   -0.303789
  35 C :    0.185216
  36 C :   -0.242433
  37 N :    0.131359
  38 C :   -0.043713
  39 C :    0.007135
  40 C :   -0.051354
  41 C :   -0.032674
  42 C :   -0.108383
  43 C :   -0.089122
  44 S :    0.151682
  45 C :   -0.053433
  46 C :   -0.124089
  47 Si:    0.521356
  48 C :   -0.198277
  49 C :   -0.199572
  50 C :   -0.061743
  51 C :   -0.141976
  52 S :    0.209471
  53 C :    0.222871
  54 N :   -0.276685
  55 C :    0.103496
  56 C :   -0.001563
  57 C :    0.157983
  58 O :   -0.212260
  59 C :   -0.053700
  60 C :   -0.111517
  61 C :    0.145584
  62 O :   -0.219241
  63 N :   -0.262033
  64 C :    0.102017
  65 C :    0.004890
  66 C :    0.108203
  67 C :   -0.034648
  68 C :    0.009323
  69 H :    0.006927
  70 H :    0.038941
  71 H :    0.013768
  72 H :    0.029036
  73 H :    0.017769
  74 H :    0.012676
  75 H :    0.017930
  76 H :    0.039604
  77 H :    0.012892
  78 H :    0.016460
  79 H :    0.028623
  80 H :   -0.038846
  81 H :    0.006676
  82 H :   -0.023599
  83 H :    0.054342
  84 H :    0.042041
  85 H :    0.039930
  86 H :    0.053985
  87 H :    0.039874
  88 H :    0.041153
  89 H :   -0.016421
  90 H :    0.036520
  91 H :    0.042072
  92 H :    0.042049
  93 H :    0.001068
  94 H :    0.008791
  95 H :   -0.011937
  96 H :    0.054469
  97 H :    0.041205
  98 H :    0.044492
  99 H :    0.055257
 100 H :    0.043976
 101 H :    0.040889
 102 H :   -0.031067
 103 H :    0.020308
 104 H :    0.043673
 105 H :    0.024523
 106 H :    0.017305
 107 H :    0.026029
 108 H :    0.042157
 109 H :    0.021247
 110 H :    0.028839
 111 H :    0.020671
 112 H :    0.014563
 113 H :   -0.020824
 114 H :    0.053999
 115 H :    0.027486
Sum of atomic charges:   -0.0000000

LOEWDIN ATOMIC CHARGES
----------------------
   0 C :    0.075808
   1 N :   -0.000302
   2 C :    0.037621
   3 C :   -0.060904
   4 C :    0.072174
   5 O :   -0.221498
   6 C :   -0.143894
   7 C :   -0.126705
   8 C :    0.081898
   9 O :   -0.198297
  10 N :   -0.012146
  11 C :    0.034897
  12 C :   -0.062225
  13 C :    0.090330
  14 C :   -0.072349
  15 C :    0.023046
  16 C :   -0.187669
  17 C :   -0.036379
  18 C :   -0.208269
  19 C :   -0.181473
  20 S :    0.460546
  21 C :   -0.201419
  22 C :   -0.197035
  23 Si:    0.664778
  24 C :   -0.242870
  25 C :   -0.243192
  26 C :   -0.055812
  27 C :   -0.180285
  28 S :    0.447911
  29 C :   -0.021625
  30 O :    0.024513
  31 C :    0.072452
  32 C :   -0.151499
  33 C :    0.034395
  34 O :   -0.089394
  35 C :    0.083242
  36 C :   -0.031941
  37 N :   -0.076037
  38 C :   -0.065789
  39 C :   -0.009688
  40 C :   -0.174684
  41 C :   -0.040360
  42 C :   -0.202231
  43 C :   -0.183412
  44 S :    0.445812
  45 C :   -0.188925
  46 C :   -0.206188
  47 Si:    0.663602
  48 C :   -0.243292
  49 C :   -0.243481
  50 C :   -0.046094
  51 C :   -0.187524
  52 S :    0.518493
  53 C :    0.060698
  54 N :   -0.005532
  55 C :    0.033552
  56 C :   -0.063819
  57 C :    0.084525
  58 O :   -0.202097
  59 C :   -0.126230
  60 C :   -0.139188
  61 C :    0.067125
  62 O :   -0.217592
  63 N :    0.000538
  64 C :    0.035855
  65 C :   -0.061244
  66 C :    0.075835
  67 C :   -0.053828
  68 C :    0.018005
  69 H :    0.029140
  70 H :    0.035009
  71 H :    0.022644
  72 H :    0.031164
  73 H :    0.027858
  74 H :    0.021579
  75 H :    0.020608
  76 H :    0.036290
  77 H :    0.020672
  78 H :    0.027551
  79 H :    0.031990
  80 H :    0.023093
  81 H :    0.036805
  82 H :    0.025906
  83 H :    0.041648
  84 H :    0.036160
  85 H :    0.035452
  86 H :    0.041466
  87 H :    0.035343
  88 H :    0.035880
  89 H :    0.027217
  90 H :    0.029990
  91 H :    0.024162
  92 H :    0.024026
  93 H :    0.033879
  94 H :    0.042978
  95 H :    0.031529
  96 H :    0.041834
  97 H :    0.035975
  98 H :    0.037339
  99 H :    0.041750
 100 H :    0.036996
 101 H :    0.035821
 102 H :    0.026624
 103 H :    0.018439
 104 H :    0.037204
 105 H :    0.022672
 106 H :    0.028697
 107 H :    0.031916
 108 H :    0.037126
 109 H :    0.021998
 110 H :    0.031998
 111 H :    0.029488
 112 H :    0.021829
 113 H :    0.028832
 114 H :    0.031978
 115 H :    0.028209

  Mayer bond orders larger than 0.100000
B(  0-C ,  1-N ) :   1.1819 B(  0-C ,  7-C ) :   1.4624 B(  0-C , 69-H ) :   0.9905
B(  1-N ,  2-C ) :   0.9489 B(  1-N ,  4-C ) :   1.0591 B(  2-C ,  3-C ) :   1.1186
B(  2-C , 70-H ) :   0.9337 B(  2-C , 71-H ) :   0.9536 B(  3-C , 72-H ) :   0.9672
B(  3-C , 73-H ) :   0.9689 B(  3-C , 74-H ) :   0.9692 B(  4-C ,  5-O ) :   1.9972
B(  4-C ,  6-C ) :   1.0232 B(  5-O , 81-H ) :   0.1179 B(  6-C ,  7-C ) :   1.2015
B(  6-C , 13-C ) :   1.3512 B(  7-C ,  8-C ) :   0.9487 B(  8-C ,  9-O ) :   2.1686
B(  8-C , 10-N ) :   1.0226 B( 10-N , 11-C ) :   0.9531 B( 10-N , 13-C ) :   1.1433
B( 11-C , 12-C ) :   1.1195 B( 11-C , 75-H ) :   0.9501 B( 11-C , 76-H ) :   0.9272
B( 12-C , 77-H ) :   0.9684 B( 12-C , 78-H ) :   0.9682 B( 12-C , 79-H ) :   0.9638
B( 13-C , 14-C ) :   1.1831 B( 14-C , 15-C ) :   1.5971 B( 14-C , 80-H ) :   0.9607
B( 15-C , 16-C ) :   1.1513 B( 15-C , 81-H ) :   0.9359 B( 16-C , 17-C ) :   1.4334
B( 16-C , 20-S ) :   1.0974 B( 17-C , 18-C ) :   1.3017 B( 17-C , 82-H ) :   0.9951
B( 18-C , 19-C ) :   1.4749 B( 18-C , 23-Si) :   0.8833 B( 19-C , 20-S ) :   1.1410
B( 19-C , 21-C ) :   1.1610 B( 21-C , 22-C ) :   1.5148 B( 21-C , 27-C ) :   0.1060
B( 21-C , 28-S ) :   1.0970 B( 22-C , 23-Si) :   0.8854 B( 22-C , 26-C ) :   1.2385
B( 23-Si, 24-C ) :   1.0552 B( 23-Si, 25-C ) :   1.0527 B( 24-C , 83-H ) :   0.9508
B( 24-C , 84-H ) :   0.9534 B( 24-C , 85-H ) :   0.9539 B( 25-C , 86-H ) :   0.9514
B( 25-C , 87-H ) :   0.9543 B( 25-C , 88-H ) :   0.9537 B( 26-C , 27-C ) :   1.5158
B( 26-C , 89-H ) :   0.9966 B( 27-C , 28-S ) :   1.0968 B( 27-C , 29-C ) :   1.0978
B( 29-C , 30-O ) :   1.1293 B( 29-C , 31-C ) :   0.1052 B( 29-C , 33-C ) :   1.4392
B( 30-O , 31-C ) :   1.1719 B( 31-C , 32-C ) :   1.3565 B( 31-C , 38-C ) :   1.2173
B( 32-C , 33-C ) :   1.2165 B( 32-C , 36-C ) :   1.1388 B( 33-C , 34-O ) :   1.1960
B( 34-O , 35-C ) :   0.9320 B( 35-C , 90-H ) :   0.9752 B( 35-C , 91-H ) :   0.9688
B( 35-C , 92-H ) :   0.9687 B( 36-C , 37-N ) :   2.9244 B( 38-C , 39-C ) :   1.5899
B( 38-C , 93-H ) :   0.9432 B( 39-C , 40-C ) :   1.1901 B( 39-C , 94-H ) :   0.9663
B( 40-C , 41-C ) :   1.4408 B( 40-C , 44-S ) :   1.0907 B( 41-C , 42-C ) :   1.2601
B( 41-C , 95-H ) :   1.0057 B( 42-C , 43-C ) :   1.4931 B( 42-C , 47-Si) :   0.8815
B( 43-C , 44-S ) :   1.1251 B( 43-C , 45-C ) :   1.1606 B( 45-C , 46-C ) :   1.4638
B( 45-C , 51-C ) :   0.1058 B( 45-C , 52-S ) :   1.1226 B( 46-C , 47-Si) :   0.8836
B( 46-C , 50-C ) :   1.2936 B( 47-Si, 48-C ) :   1.0547 B( 47-Si, 49-C ) :   1.0548
B( 48-C , 96-H ) :   0.9514 B( 48-C , 97-H ) :   0.9529 B( 48-C , 98-H ) :   0.9539
B( 49-C , 99-H ) :   0.9501 B( 49-C ,100-H ) :   0.9544 B( 49-C ,101-H ) :   0.9539
B( 50-C , 51-C ) :   1.3842 B( 50-C ,102-H ) :   1.0086 B( 51-C , 52-S ) :   1.1249
B( 51-C , 53-C ) :   1.1648 B( 53-C , 54-N ) :   1.1792 B( 53-C , 60-C ) :   1.3504
B( 54-N , 55-C ) :   0.9480 B( 54-N , 57-C ) :   1.0432 B( 55-C , 56-C ) :   1.1174
B( 55-C ,103-H ) :   0.9502 B( 55-C ,104-H ) :   0.9210 B( 56-C ,105-H ) :   0.9678
B( 56-C ,106-H ) :   0.9675 B( 56-C ,107-H ) :   0.9613 B( 57-C , 58-O ) :   2.0406
B( 57-C , 59-C ) :   0.9901 B( 59-C , 60-C ) :   1.2288 B( 59-C , 66-C ) :   1.3741
B( 60-C , 61-C ) :   0.9941 B( 61-C , 62-O ) :   2.0689 B( 61-C , 63-N ) :   1.0505
B( 63-N , 64-C ) :   0.9491 B( 63-N , 66-C ) :   1.1652 B( 64-C , 65-C ) :   1.1211
B( 64-C ,108-H ) :   0.9274 B( 64-C ,109-H ) :   0.9505 B( 65-C ,110-H ) :   0.9637
B( 65-C ,111-H ) :   0.9679 B( 65-C ,112-H ) :   0.9686 B( 66-C , 67-C ) :   1.1261
B( 67-C , 68-C ) :   1.8905 B( 67-C ,113-H ) :   0.9527 B( 68-C ,114-H ) :   0.9279
B( 68-C ,115-H ) :   0.9449

-----------------------------------------------------------------------------
         ABSORPTION SPECTRUM VIA TRANSITION ELECTRIC DIPOLE MOMENTS
-----------------------------------------------------------------------------
State   Energy  Wavelength   fosc         T2         TX        TY        TZ
        (cm-1)    (nm)                  (au**2)     (au)      (au)      (au)
-----------------------------------------------------------------------------
   0   15680.8    637.7   1.206757672  25.33542   4.30098  -2.07044   1.59695
   1   18631.6    536.7   1.676939152  29.63082   0.71832   4.60989   2.80423
   2   21210.8    471.5   0.130838162   2.03074   1.25477  -0.37648   0.56085
   3   22572.2    443.0   0.450462504   6.56992   2.02104  -1.56610   0.18071
   4   24171.8    413.7   0.029682862   0.40427   0.43714  -0.41216   0.20811
   5   25970.7    385.0   0.198142024   2.51170  -0.87240  -0.41620  -1.25595
   6   27191.9    367.8   0.034117102   0.41306   0.13468  -0.55135  -0.30155
   7   27396.9    365.0   0.060030780   0.72135  -0.83508   0.01692  -0.15398
   8   29233.0    342.1   0.007296666   0.08217   0.05565  -0.21524  -0.18096
   9   29402.3    340.1   0.118768175   1.32983   0.93504  -0.63097   0.23960
  10   29578.1    338.1   0.032300285   0.35951   0.50234  -0.30950   0.10666
  11   29960.3    333.8   0.042996082   0.47245  -0.14538  -0.47374  -0.47633
  12   30499.7    327.9   0.008033607   0.08671   0.01058   0.29421  -0.00635
  13   31178.0    320.7   0.043238461   0.45656   0.25091  -0.56249  -0.27786
  14   31263.9    319.9   0.010841043   0.11416  -0.30925  -0.02426  -0.13392
  15   31451.8    317.9   0.054356043   0.56895  -0.53321   0.53244  -0.03386
  16   33667.1    297.0   0.019079384   0.18657   0.00365   0.40440   0.15170
  17   34447.8    290.3   0.059213252   0.56589   0.69988  -0.27536  -0.01551
  18   35120.9    284.7   0.013191503   0.12365  -0.27605  -0.06085  -0.20916
  19   35282.0    283.4   0.001034982   0.00966   0.04464   0.05446   0.06855
  20   35904.6    278.5   0.020890286   0.19154   0.28721   0.18615   0.27277
  21   36174.2    276.4   0.005655112   0.05147  -0.14771   0.13268   0.10974
  22   37207.3    268.8   0.061239676   0.54185  -0.68143   0.27809  -0.01322
  23   37899.2    263.9   0.058824762   0.51098   0.25803  -0.63632  -0.19875
  24   37981.6    263.3   0.013487084   0.11690   0.25340  -0.22937   0.00897
  25   38173.2    262.0   0.006240299   0.05382   0.20347   0.02384   0.10884
  26   38950.3    256.7   0.016918955   0.14300   0.12902   0.33276   0.12499
  27   38986.6    256.5   0.077484326   0.65430   0.34410  -0.72275  -0.11632
  28   39457.0    253.4   0.091758004   0.76559  -0.60141   0.63270   0.05979
  29   39664.3    252.1   0.015396889   0.12779  -0.27684   0.22585  -0.01194

FINAL SINGLE POINT ENERGY     -4902.649338321622

DIPOLE MOMENT
-------------
                                X             Y             Z
Electronic contribution:     -0.43908      13.25111      13.07176
Nuclear contribution   :      0.12796     -11.21800     -12.30227
                        -----------------------------------------
Total Dipole Moment    :     -0.31113       2.03311       0.76949
                        -----------------------------------------
Magnitude (a.u.)       :      2.19600
Magnitude (Debye)      :      5.58180

Rotational constants in cm-1:     0.000896     0.000267     0.000208
Rotational constants in MHz :    26.848798     8.013179     6.237353

                             ****ORCA TERMINATED NORMALLY****
TOTAL RUN TIME: 0 days 0 hours 9 minutes 57 seconds 35 msec
