                         Program Version 4.2.0 -  RELEASE  -
|  1> # ORCA input file
|  2> # SCF done       -180.297033950360          0.000467011607
|  3> ! CAM-B3LYP def2-SVP def2/J RIJCOSX Grid4 TightSCF
|  4> %maxcore 5000
|  5> %tddft
|  6>     Mode sTDDFT
|  7>     Ethresh 5.0
|  8>     maxcore 5000
|  9> end
| 10>
| 11> %pal
| 12>   nprocs 6
| 13>   end
| 14> * xyz 0 1
| 15>    C       -1.67743        -2.37294        -1.50489
| 16>    N       -2.46009        -1.62497        -2.32669
| 17>    C       -3.39247        -2.13512        -3.30082
| 18>    C       -2.67602        -2.66183        -4.54126
| 19>    C       -2.20694        -0.24534        -2.16367
| 20>    O       -2.78935         0.61958        -2.79013
| 21>    C       -1.18683        -0.19493        -1.14424
| 22>    C       -0.88670        -1.54174        -0.76200
| 23>    C        0.13188        -1.49604         0.26875
| 24>    O        0.70407        -2.36093         0.89125
| 25>    N        0.38155        -0.11787         0.43895
| 26>    C        1.31739         0.35312         1.43112
| 27>    C        0.61088         0.83802         2.69473
| 28>    C       -0.39715         0.65874        -0.38754
| 29>    C       -0.34442         2.07992        -0.40868
| 30>    C       -1.11828         2.82559        -1.23193
| 31>    C       -1.07258         4.24644        -1.22035
| 32>    S       -2.04683         5.22328        -2.30610
| 33>    C       -1.32067         6.60558        -1.50001
| 34>    N       -0.48102         6.25567        -0.56684
| 35>    N       -0.34255         4.97370        -0.41546
| 36>    C       -1.65220         7.94621        -1.85832
| 37>    C       -1.20088         9.00711        -1.16674
| 38>    C       -1.52787        10.37682        -1.48223
| 39>    C       -1.83924        11.31792        -0.48055
| 40>    C       -1.87290        10.97677         0.95645
| 41>    O       -1.67066         9.91993         1.47266
| 42>    S       -2.30401        12.44424         1.89772
| 43>    C       -2.46985        13.45917         0.43073
| 44>    O       -2.76332        14.61707         0.48045
| 45>    C       -2.18746        12.63754        -0.76434
| 46>    C       -2.23609        13.15097        -2.07699
| 47>    C       -1.90660        12.21642        -3.07103
| 48>    C       -1.57150        10.89339        -2.78721
| 49>    C       -1.23887        10.24098        -4.08074
| 50>    O       -0.81683         9.15334        -4.31910
| 51>    O       -1.48432        11.16046        -5.06966
| 52>    C       -1.91437        12.35700        -4.55033
| 53>    O       -2.24198        13.26705        -5.24405
| 54>    C       -2.62261        14.51662        -2.33468
| 55>    C       -2.06088        15.33156        -3.24442
| 56>    C       -2.47221        16.68301        -3.42940
| 57>    S       -3.86704        17.39554        -2.62896
| 58>    C       -3.43890        18.87503        -3.49575
| 59>    N       -2.37986        18.71718        -4.24016
| 60>    N       -1.85790        17.52969        -4.20457
| 61>    C       -4.16546        20.08796        -3.38426
| 62>    C       -5.27255        20.21082        -2.61320
| 63>    C       -6.00910        21.41644        -2.48155
| 64>    N       -7.15488        21.52681        -1.72612
| 65>    C       -7.82821        20.46436        -1.01981
| 66>    C       -8.61885        19.56294        -1.96516
| 67>    C       -7.68010        22.83117        -1.74960
| 68>    O       -8.68514        23.15677        -1.14992
| 69>    C       -6.76195        23.56965        -2.58743
| 70>    C       -5.74982        22.67025        -3.02174
| 71>    C       -4.82804        23.40835        -3.85381
| 72>    O       -3.82403        23.08182        -4.45250
| 73>    N       -5.35078        24.71772        -3.87118
| 74>    C       -4.65911        25.77965        -4.56075
| 75>    C       -3.84045        26.63822        -3.59951
| 76>    C       -6.49418        24.82421        -3.12000
| 77>    C       -7.23492        26.04446        -2.97593
| 78>    C       -8.33480        26.13979        -2.22527
| 79>    H       -1.74573        -3.44515        -1.50108
| 80>    H       -4.04425        -1.30058        -3.57279
| 81>    H       -3.99310        -2.92597        -2.84200
| 82>    H       -2.09698        -1.86650        -5.00404
| 83>    H       -3.40359        -3.02677        -5.26061
| 84>    H       -2.00335        -3.47587        -4.28017
| 85>    H        1.93720         1.14581         1.00350
| 86>    H        1.95415        -0.50265         1.67299
| 87>    H       -0.05780         1.66724         2.47529
| 88>    H        1.34680         1.16627         3.42329
| 89>    H        0.02951         0.02804         3.12843
| 90>    H        0.33652         2.58693         0.25876
| 91>    H       -1.80791         2.35895        -1.92140
| 92>    H       -2.32027         8.05855        -2.69894
| 93>    H       -0.61293         8.82976        -0.27717
| 94>    H       -3.38507        14.91532        -1.67739
| 95>    H       -1.23386        15.02464        -3.86632
| 96>    H       -3.78165        20.92116        -3.95787
| 97>    H       -5.62292        19.35022        -2.05809
| 98>    H       -8.51378        20.95518        -0.32317
| 99>    H       -7.09994        19.88411        -0.44602
|100>    H       -9.36628        20.14746        -2.49589
|101>    H       -9.12391        18.78718        -1.39639
|102>    H       -7.96521        19.09215        -2.69622
|103>    H       -5.37813        26.38962        -5.11436
|104>    H       -3.99018        25.28969        -5.27397
|105>    H       -4.47826        27.10381        -2.85118
|106>    H       -3.32143        27.41658        -4.15183
|107>    H       -3.10275        26.02269        -3.09061
|108>    H       -6.86498        26.90643        -3.51373
|109>    H       -8.72176        25.29483        -1.68035
|110>    H       -8.87139        27.06898        -2.14033
|111> *
|112>
|113>                          ****END OF INPUT****

CARTESIAN COORDINATES (ANGSTROEM)
---------------------------------
  C     -1.677430   -2.372940   -1.504890
  N     -2.460090   -1.624970   -2.326690
  C     -3.392470   -2.135120   -3.300820
  C     -2.676020   -2.661830   -4.541260
  C     -2.206940   -0.245340   -2.163670
  O     -2.789350    0.619580   -2.790130
  C     -1.186830   -0.194930   -1.144240
  C     -0.886700   -1.541740   -0.762000
  C      0.131880   -1.496040    0.268750
  O      0.704070   -2.360930    0.891250
  N      0.381550   -0.117870    0.438950
  C      1.317390    0.353120    1.431120
  C      0.610880    0.838020    2.694730
  C     -0.397150    0.658740   -0.387540
  C     -0.344420    2.079920   -0.408680
  C     -1.118280    2.825590   -1.231930
  C     -1.072580    4.246440   -1.220350
  S     -2.046830    5.223280   -2.306100
  C     -1.320670    6.605580   -1.500010
  N     -0.481020    6.255670   -0.566840
  N     -0.342550    4.973700   -0.415460
  C     -1.652200    7.946210   -1.858320
  C     -1.200880    9.007110   -1.166740
  C     -1.527870   10.376820   -1.482230
  C     -1.839240   11.317920   -0.480550
  C     -1.872900   10.976770    0.956450
  O     -1.670660    9.919930    1.472660
  S     -2.304010   12.444240    1.897720
  C     -2.469850   13.459170    0.430730
  O     -2.763320   14.617070    0.480450
  C     -2.187460   12.637540   -0.764340
  C     -2.236090   13.150970   -2.076990
  C     -1.906600   12.216420   -3.071030
  C     -1.571500   10.893390   -2.787210
  C     -1.238870   10.240980   -4.080740
  O     -0.816830    9.153340   -4.319100
  O     -1.484320   11.160460   -5.069660
  C     -1.914370   12.357000   -4.550330
  O     -2.241980   13.267050   -5.244050
  C     -2.622610   14.516620   -2.334680
  C     -2.060880   15.331560   -3.244420
  C     -2.472210   16.683010   -3.429400
  S     -3.867040   17.395540   -2.628960
  C     -3.438900   18.875030   -3.495750
  N     -2.379860   18.717180   -4.240160
  N     -1.857900   17.529690   -4.204570
  C     -4.165460   20.087960   -3.384260
  C     -5.272550   20.210820   -2.613200
  C     -6.009100   21.416440   -2.481550
  N     -7.154880   21.526810   -1.726120
  C     -7.828210   20.464360   -1.019810
  C     -8.618850   19.562940   -1.965160
  C     -7.680100   22.831170   -1.749600
  O     -8.685140   23.156770   -1.149920
  C     -6.761950   23.569650   -2.587430
  C     -5.749820   22.670250   -3.021740
  C     -4.828040   23.408350   -3.853810
  O     -3.824030   23.081820   -4.452500
  N     -5.350780   24.717720   -3.871180
  C     -4.659110   25.779650   -4.560750
  C     -3.840450   26.638220   -3.599510
  C     -6.494180   24.824210   -3.120000
  C     -7.234920   26.044460   -2.975930
  C     -8.334800   26.139790   -2.225270
  H     -1.745730   -3.445150   -1.501080
  H     -4.044250   -1.300580   -3.572790
  H     -3.993100   -2.925970   -2.842000
  H     -2.096980   -1.866500   -5.004040
  H     -3.403590   -3.026770   -5.260610
  H     -2.003350   -3.475870   -4.280170
  H      1.937200    1.145810    1.003500
  H      1.954150   -0.502650    1.672990
  H     -0.057800    1.667240    2.475290
  H      1.346800    1.166270    3.423290
  H      0.029510    0.028040    3.128430
  H      0.336520    2.586930    0.258760
  H     -1.807910    2.358950   -1.921400
  H     -2.320270    8.058550   -2.698940
  H     -0.612930    8.829760   -0.277170
  H     -3.385070   14.915320   -1.677390
  H     -1.233860   15.024640   -3.866320
  H     -3.781650   20.921160   -3.957870
  H     -5.622920   19.350220   -2.058090
  H     -8.513780   20.955180   -0.323170
  H     -7.099940   19.884110   -0.446020
  H     -9.366280   20.147460   -2.495890
  H     -9.123910   18.787180   -1.396390
  H     -7.965210   19.092150   -2.696220
  H     -5.378130   26.389620   -5.114360
  H     -3.990180   25.289690   -5.273970
  H     -4.478260   27.103810   -2.851180
  H     -3.321430   27.416580   -4.151830
  H     -3.102750   26.022690   -3.090610
  H     -6.864980   26.906430   -3.513730
  H     -8.721760   25.294830   -1.680350
  H     -8.871390   27.068980   -2.140330

 Total Charge           Charge          ....    0
 Multiplicity           Mult            ....    1
 Number of Electrons    NEL             ....  472
 Basis Dimension        Dim             .... 1068

ORBITAL ENERGIES
----------------

  NO   OCC          E(Eh)            E(eV)
   0   2.0000     -88.978765     -2421.2353
   1   2.0000     -88.973046     -2421.0797
   2   2.0000     -88.962761     -2420.7998
   3   2.0000     -19.302527      -525.2485
   4   2.0000     -19.256434      -523.9942
   5   2.0000     -19.255359      -523.9649
   6   2.0000     -19.249273      -523.7994
   7   2.0000     -19.248946      -523.7904
   8   2.0000     -19.193974      -522.2946
   9   2.0000     -19.193366      -522.2780
  10   2.0000     -19.187692      -522.1236
  11   2.0000     -19.185613      -522.0671
  12   2.0000     -14.455061      -393.3422
  13   2.0000     -14.454625      -393.3303
  14   2.0000     -14.452592      -393.2750
  15   2.0000     -14.450731      -393.2244
  16   2.0000     -14.443578      -393.0297
  17   2.0000     -14.442815      -393.0090
  18   2.0000     -14.439849      -392.9283
  19   2.0000     -14.437084      -392.8530
  20   2.0000     -10.444625      -284.2127
  21   2.0000     -10.444000      -284.1957
  22   2.0000     -10.418639      -283.5056
  23   2.0000     -10.417355      -283.4706
  24   2.0000     -10.375079      -282.3203
  25   2.0000     -10.374547      -282.3058
  26   2.0000     -10.372057      -282.2380
  27   2.0000     -10.371801      -282.2311
  28   2.0000     -10.349444      -281.6227
  29   2.0000     -10.348506      -281.5972
  30   2.0000     -10.346418      -281.5404
  31   2.0000     -10.345751      -281.5222
  32   2.0000     -10.344510      -281.4884
  33   2.0000     -10.343944      -281.4730
  34   2.0000     -10.341999      -281.4201
  35   2.0000     -10.341884      -281.4170
  36   2.0000     -10.341499      -281.4065
  37   2.0000     -10.341368      -281.4029
  38   2.0000     -10.340920      -281.3908
  39   2.0000     -10.340229      -281.3719
  40   2.0000     -10.338306      -281.3196
  41   2.0000     -10.330842      -281.1165
  42   2.0000     -10.310424      -280.5609
  43   2.0000     -10.309538      -280.5368
  44   2.0000     -10.309473      -280.5350
  45   2.0000     -10.309140      -280.5260
  46   2.0000     -10.309054      -280.5236
  47   2.0000     -10.304971      -280.4125
  48   2.0000     -10.304716      -280.4056
  49   2.0000     -10.301293      -280.3124
  50   2.0000     -10.301145      -280.3084
  51   2.0000     -10.298973      -280.2493
  52   2.0000     -10.296615      -280.1851
  53   2.0000     -10.296553      -280.1834
  54   2.0000     -10.288924      -279.9759
  55   2.0000     -10.280887      -279.7572
  56   2.0000     -10.266068      -279.3539
  57   2.0000     -10.265754      -279.3454
  58   2.0000     -10.264300      -279.3058
  59   2.0000     -10.262560      -279.2585
  60   2.0000     -10.260580      -279.2046
  61   2.0000     -10.260149      -279.1929
  62   2.0000     -10.259915      -279.1865
  63   2.0000     -10.258534      -279.1489
  64   2.0000      -8.075048      -219.7332
  65   2.0000      -8.069110      -219.5716
  66   2.0000      -8.062013      -219.3785
  67   2.0000      -6.043602      -164.4548
  68   2.0000      -6.040265      -164.3640
  69   2.0000      -6.037701      -164.2942
  70   2.0000      -6.037608      -164.2917
  71   2.0000      -6.034574      -164.2091
  72   2.0000      -6.031435      -164.1237
  73   2.0000      -6.030890      -164.1089
  74   2.0000      -6.027587      -164.0190
  75   2.0000      -6.023055      -163.8957
  76   2.0000      -1.253181       -34.1008
  77   2.0000      -1.181497       -32.1502
  78   2.0000      -1.178295       -32.0630
  79   2.0000      -1.177371       -32.0379
  80   2.0000      -1.147872       -31.2352
  81   2.0000      -1.144247       -31.1365
  82   2.0000      -1.139900       -31.0182
  83   2.0000      -1.134268       -30.8650
  84   2.0000      -1.132846       -30.8263
  85   2.0000      -1.126532       -30.6545
  86   2.0000      -1.125247       -30.6195
  87   2.0000      -1.064238       -28.9594
  88   2.0000      -1.063310       -28.9341
  89   2.0000      -1.055624       -28.7250
  90   2.0000      -1.054321       -28.6895
  91   2.0000      -1.030209       -28.0334
  92   2.0000      -0.966109       -26.2892
  93   2.0000      -0.960991       -26.1499
  94   2.0000      -0.951192       -25.8832
  95   2.0000      -0.943025       -25.6610
  96   2.0000      -0.934697       -25.4344
  97   2.0000      -0.927825       -25.2474
  98   2.0000      -0.926001       -25.1978
  99   2.0000      -0.922810       -25.1109
 100   2.0000      -0.898900       -24.4603
 101   2.0000      -0.895658       -24.3721
 102   2.0000      -0.890438       -24.2300
 103   2.0000      -0.883508       -24.0415
 104   2.0000      -0.873699       -23.7746
 105   2.0000      -0.869555       -23.6618
 106   2.0000      -0.868275       -23.6270
 107   2.0000      -0.849045       -23.1037
 108   2.0000      -0.821219       -22.3465
 109   2.0000      -0.819819       -22.3084
 110   2.0000      -0.811828       -22.0910
 111   2.0000      -0.811155       -22.0727
 112   2.0000      -0.806859       -21.9558
 113   2.0000      -0.794878       -21.6297
 114   2.0000      -0.784515       -21.3477
 115   2.0000      -0.780597       -21.2411
 116   2.0000      -0.773233       -21.0407
 117   2.0000      -0.761610       -20.7245
 118   2.0000      -0.760274       -20.6881
 119   2.0000      -0.757182       -20.6040
 120   2.0000      -0.744244       -20.2519
 121   2.0000      -0.721053       -19.6209
 122   2.0000      -0.719164       -19.5695
 123   2.0000      -0.710472       -19.3329
 124   2.0000      -0.708980       -19.2923
 125   2.0000      -0.704373       -19.1670
 126   2.0000      -0.700348       -19.0574
 127   2.0000      -0.688997       -18.7486
 128   2.0000      -0.675541       -18.3824
 129   2.0000      -0.666995       -18.1499
 130   2.0000      -0.661959       -18.0128
 131   2.0000      -0.654836       -17.8190
 132   2.0000      -0.651156       -17.7188
 133   2.0000      -0.649063       -17.6619
 134   2.0000      -0.645980       -17.5780
 135   2.0000      -0.641415       -17.4538
 136   2.0000      -0.639490       -17.4014
 137   2.0000      -0.632429       -17.2093
 138   2.0000      -0.618083       -16.8189
 139   2.0000      -0.611954       -16.6521
 140   2.0000      -0.610206       -16.6045
 141   2.0000      -0.603534       -16.4230
 142   2.0000      -0.595390       -16.2014
 143   2.0000      -0.590862       -16.0782
 144   2.0000      -0.588380       -16.0106
 145   2.0000      -0.587081       -15.9753
 146   2.0000      -0.583050       -15.8656
 147   2.0000      -0.575007       -15.6467
 148   2.0000      -0.573291       -15.6000
 149   2.0000      -0.573226       -15.5983
 150   2.0000      -0.571112       -15.5407
 151   2.0000      -0.567500       -15.4425
 152   2.0000      -0.564396       -15.3580
 153   2.0000      -0.563493       -15.3334
 154   2.0000      -0.563293       -15.3280
 155   2.0000      -0.558972       -15.2104
 156   2.0000      -0.556557       -15.1447
 157   2.0000      -0.550377       -14.9765
 158   2.0000      -0.545745       -14.8505
 159   2.0000      -0.541825       -14.7438
 160   2.0000      -0.539870       -14.6906
 161   2.0000      -0.535401       -14.5690
 162   2.0000      -0.532528       -14.4908
 163   2.0000      -0.530632       -14.4392
 164   2.0000      -0.530443       -14.4341
 165   2.0000      -0.529492       -14.4082
 166   2.0000      -0.527680       -14.3589
 167   2.0000      -0.527064       -14.3421
 168   2.0000      -0.523555       -14.2467
 169   2.0000      -0.520576       -14.1656
 170   2.0000      -0.519264       -14.1299
 171   2.0000      -0.518722       -14.1152
 172   2.0000      -0.515383       -14.0243
 173   2.0000      -0.513429       -13.9711
 174   2.0000      -0.511876       -13.9289
 175   2.0000      -0.510749       -13.8982
 176   2.0000      -0.507272       -13.8036
 177   2.0000      -0.505303       -13.7500
 178   2.0000      -0.502790       -13.6816
 179   2.0000      -0.501101       -13.6357
 180   2.0000      -0.497166       -13.5286
 181   2.0000      -0.496762       -13.5176
 182   2.0000      -0.488810       -13.3012
 183   2.0000      -0.485451       -13.2098
 184   2.0000      -0.477316       -12.9884
 185   2.0000      -0.476747       -12.9730
 186   2.0000      -0.475379       -12.9357
 187   2.0000      -0.472999       -12.8710
 188   2.0000      -0.469622       -12.7791
 189   2.0000      -0.467886       -12.7318
 190   2.0000      -0.464631       -12.6433
 191   2.0000      -0.462821       -12.5940
 192   2.0000      -0.462652       -12.5894
 193   2.0000      -0.458238       -12.4693
 194   2.0000      -0.456721       -12.4280
 195   2.0000      -0.453727       -12.3466
 196   2.0000      -0.449283       -12.2256
 197   2.0000      -0.447651       -12.1812
 198   2.0000      -0.446687       -12.1550
 199   2.0000      -0.445624       -12.1260
 200   2.0000      -0.442079       -12.0296
 201   2.0000      -0.435400       -11.8478
 202   2.0000      -0.433397       -11.7933
 203   2.0000      -0.432486       -11.7686
 204   2.0000      -0.428465       -11.6591
 205   2.0000      -0.425064       -11.5666
 206   2.0000      -0.423830       -11.5330
 207   2.0000      -0.421704       -11.4751
 208   2.0000      -0.417403       -11.3581
 209   2.0000      -0.406676       -11.0662
 210   2.0000      -0.406270       -11.0552
 211   2.0000      -0.397302       -10.8111
 212   2.0000      -0.394805       -10.7432
 213   2.0000      -0.389570       -10.6007
 214   2.0000      -0.388354       -10.5677
 215   2.0000      -0.387220       -10.5368
 216   2.0000      -0.380026       -10.3410
 217   2.0000      -0.379008       -10.3133
 218   2.0000      -0.375999       -10.2315
 219   2.0000      -0.364689        -9.9237
 220   2.0000      -0.358276        -9.7492
 221   2.0000      -0.352171        -9.5831
 222   2.0000      -0.348152        -9.4737
 223   2.0000      -0.347646        -9.4599
 224   2.0000      -0.346094        -9.4177
 225   2.0000      -0.340493        -9.2653
 226   2.0000      -0.331149        -9.0110
 227   2.0000      -0.330036        -8.9807
 228   2.0000      -0.327885        -8.9222
 229   2.0000      -0.322670        -8.7803
 230   2.0000      -0.315325        -8.5804
 231   2.0000      -0.313752        -8.5376
 232   2.0000      -0.308292        -8.3890
 233   2.0000      -0.295097        -8.0300
 234   2.0000      -0.249453        -6.7880
 235   2.0000      -0.242168        -6.5897
 236   0.0000      -0.106769        -2.9053
 237   0.0000      -0.099237        -2.7004
 238   0.0000      -0.084412        -2.2970
 239   0.0000      -0.068528        -1.8647
 240   0.0000      -0.046868        -1.2754

MULLIKEN ATOMIC CHARGES
-----------------------
   0 C :    0.039692
   1 N :   -0.257394
   2 C :    0.112067
   3 C :   -0.002527
   4 C :    0.173975
   5 O :   -0.211594
   6 C :   -0.097898
   7 C :    0.003211
   8 C :    0.161403
   9 O :   -0.180848
  10 N :   -0.268660
  11 C :    0.097475
  12 C :    0.002172
  13 C :    0.155896
  14 C :   -0.026413
  15 C :    0.081619
  16 C :   -0.111824
  17 S :    0.135657
  18 C :   -0.128754
  19 N :   -0.034016
  20 N :   -0.044809
  21 C :    0.119466
  22 C :   -0.025284
  23 C :    0.027167
  24 C :    0.040779
  25 C :    0.034363
  26 O :   -0.112968
  27 S :    0.031608
  28 C :    0.036804
  29 O :   -0.126933
  30 C :    0.036757
  31 C :    0.040192
  32 C :   -0.074406
  33 C :   -0.074744
  34 C :    0.224745
  35 O :   -0.092903
  36 O :   -0.222287
  37 C :    0.227481
  38 O :   -0.088028
  39 C :   -0.070420
  40 C :    0.120977
  41 C :   -0.088138
  42 S :    0.063641
  43 C :   -0.077800
  44 N :   -0.030271
  45 N :   -0.033639
  46 C :    0.059879
  47 C :   -0.031885
  48 C :    0.136545
  49 N :   -0.261124
  50 C :    0.093588
  51 C :    0.005011
  52 C :    0.163054
  53 O :   -0.210330
  54 C :   -0.068220
  55 C :   -0.063250
  56 C :    0.161759
  57 O :   -0.195126
  58 N :   -0.261383
  59 C :    0.092851
  60 C :    0.005479
  61 C :    0.114549
  62 C :   -0.034898
  63 C :    0.015161
  64 H :    0.017962
  65 H :    0.042014
  66 H :    0.018979
  67 H :    0.031338
  68 H :    0.023946
  69 H :    0.016500
  70 H :    0.026655
  71 H :    0.043353
  72 H :    0.020474
  73 H :    0.024499
  74 H :    0.028287
  75 H :    0.005055
  76 H :    0.014396
  77 H :   -0.002300
  78 H :    0.051402
  79 H :    0.034332
  80 H :    0.019952
  81 H :    0.037865
  82 H :   -0.013964
  83 H :    0.045312
  84 H :    0.024053
  85 H :    0.030415
  86 H :    0.023437
  87 H :    0.014821
  88 H :    0.025550
  89 H :    0.047071
  90 H :    0.015746
  91 H :    0.024224
  92 H :    0.030644
  93 H :   -0.018223
  94 H :    0.058384
  95 H :    0.031575
Sum of atomic charges:   -0.0000000

LOEWDIN ATOMIC CHARGES
----------------------
   0 C :    0.091730
   1 N :    0.001063
   2 C :    0.038556
   3 C :   -0.060463
   4 C :    0.077862
   5 O :   -0.203415
   6 C :   -0.126992
   7 C :   -0.127748
   8 C :    0.081610
   9 O :   -0.187323
  10 N :   -0.006623
  11 C :    0.035964
  12 C :   -0.060829
  13 C :    0.081314
  14 C :   -0.011032
  15 C :   -0.006833
  16 C :   -0.149419
  17 S :    0.417523
  18 C :   -0.150576
  19 N :   -0.063724
  20 N :   -0.072101
  21 C :   -0.012301
  22 C :   -0.000719
  23 C :    0.028080
  24 C :   -0.048938
  25 C :   -0.043914
  26 O :   -0.096986
  27 S :    0.313834
  28 C :   -0.044704
  29 O :   -0.108916
  30 C :   -0.050140
  31 C :    0.027791
  32 C :   -0.042901
  33 C :   -0.043949
  34 C :    0.104529
  35 O :   -0.090999
  36 O :   -0.051492
  37 C :    0.104926
  38 O :   -0.085981
  39 C :   -0.032362
  40 C :    0.007614
  41 C :   -0.144166
  42 S :    0.381557
  43 C :   -0.138261
  44 N :   -0.062740
  45 N :   -0.061106
  46 C :    0.002462
  47 C :   -0.035383
  48 C :    0.067190
  49 N :   -0.001636
  50 C :    0.035245
  51 C :   -0.061104
  52 C :    0.079760
  53 O :   -0.202621
  54 C :   -0.127866
  55 C :   -0.113254
  56 C :    0.082131
  57 O :   -0.186567
  58 N :    0.000701
  59 C :    0.035968
  60 C :   -0.060698
  61 C :    0.085786
  62 C :   -0.055037
  63 C :    0.028952
  64 H :    0.033571
  65 H :    0.036219
  66 H :    0.024960
  67 H :    0.031952
  68 H :    0.030529
  69 H :    0.022902
  70 H :    0.024733
  71 H :    0.037674
  72 H :    0.023768
  73 H :    0.031519
  74 H :    0.031503
  75 H :    0.037949
  76 H :    0.038169
  77 H :    0.031241
  78 H :    0.046184
  79 H :    0.029832
  80 H :    0.045264
  81 H :    0.051895
  82 H :    0.022608
  83 H :    0.038356
  84 H :    0.022421
  85 H :    0.032796
  86 H :    0.030608
  87 H :    0.021460
  88 H :    0.023433
  89 H :    0.038673
  90 H :    0.022294
  91 H :    0.030953
  92 H :    0.032694
  93 H :    0.029928
  94 H :    0.033364
  95 H :    0.030223

  Mayer bond orders larger than 0.100000
B(  0-C ,  1-N ) :   1.1890 B(  0-C ,  7-C ) :   1.4583 B(  0-C , 64-H ) :   0.9900
B(  1-N ,  2-C ) :   0.9422 B(  1-N ,  4-C ) :   1.0585 B(  2-C ,  3-C ) :   1.1176
B(  2-C , 65-H ) :   0.9348 B(  2-C , 66-H ) :   0.9540 B(  3-C , 67-H ) :   0.9676
B(  3-C , 68-H ) :   0.9690 B(  3-C , 69-H ) :   0.9692 B(  4-C ,  5-O ) :   2.0218
B(  4-C ,  6-C ) :   1.0016 B(  5-O , 76-H ) :   0.1110 B(  6-C ,  7-C ) :   1.2052
B(  6-C , 13-C ) :   1.3855 B(  7-C ,  8-C ) :   0.9490 B(  8-C ,  9-O ) :   2.1815
B(  8-C , 10-N ) :   1.0168 B( 10-N , 11-C ) :   0.9448 B( 10-N , 13-C ) :   1.1613
B( 11-C , 12-C ) :   1.1197 B( 11-C , 70-H ) :   0.9506 B( 11-C , 71-H ) :   0.9283
B( 12-C , 72-H ) :   0.9688 B( 12-C , 73-H ) :   0.9678 B( 12-C , 74-H ) :   0.9642
B( 13-C , 14-C ) :   1.1220 B( 14-C , 15-C ) :   1.6720 B( 14-C , 75-H ) :   0.9728
B( 15-C , 16-C ) :   1.1025 B( 15-C , 76-H ) :   0.9246 B( 16-C , 17-S ) :   1.1125
B( 16-C , 20-N ) :   1.6544 B( 17-S , 18-C ) :   1.1020 B( 18-C , 19-N ) :   1.6730
B( 18-C , 21-C ) :   1.1186 B( 19-N , 20-N ) :   1.2419 B( 21-C , 22-C ) :   1.7634
B( 21-C , 77-H ) :   0.9382 B( 22-C , 23-C ) :   1.0775 B( 22-C , 78-H ) :   0.9401
B( 23-C , 24-C ) :   1.3663 B( 23-C , 33-C ) :   1.3327 B( 24-C , 25-C ) :   0.8451
B( 24-C , 30-C ) :   1.3130 B( 25-C , 26-O ) :   2.1775 B( 25-C , 27-S ) :   1.0285
B( 26-O , 27-S ) :   0.1062 B( 27-S , 28-C ) :   1.0392 B( 27-S , 29-O ) :   0.1066
B( 28-C , 29-O ) :   2.1569 B( 28-C , 30-C ) :   0.8492 B( 30-C , 31-C ) :   1.3676
B( 31-C , 32-C ) :   1.3352 B( 31-C , 39-C ) :   1.0940 B( 32-C , 33-C ) :   1.3663
B( 32-C , 37-C ) :   0.8968 B( 33-C , 34-C ) :   0.8962 B( 34-C , 35-O ) :   2.2633
B( 34-C , 36-O ) :   1.0558 B( 36-O , 37-C ) :   1.0520 B( 37-C , 38-O ) :   2.2660
B( 39-C , 40-C ) :   1.6928 B( 39-C , 79-H ) :   0.9366 B( 40-C , 41-C ) :   1.1387
B( 40-C , 80-H ) :   0.9701 B( 41-C , 42-S ) :   1.0954 B( 41-C , 45-N ) :   1.6607
B( 42-S , 43-C ) :   1.0821 B( 43-C , 44-N ) :   1.6658 B( 43-C , 46-C ) :   1.1198
B( 44-N , 45-N ) :   1.2325 B( 46-C , 47-C ) :   1.5855 B( 46-C , 81-H ) :   0.9640
B( 47-C , 48-C ) :   1.1558 B( 47-C , 82-H ) :   0.9558 B( 48-C , 49-N ) :   1.1548
B( 48-C , 55-C ) :   1.3721 B( 49-N , 50-C ) :   0.9478 B( 49-N , 52-C ) :   1.0534
B( 50-C , 51-C ) :   1.1205 B( 50-C , 83-H ) :   0.9274 B( 50-C , 84-H ) :   0.9499
B( 51-C , 85-H ) :   0.9634 B( 51-C , 86-H ) :   0.9678 B( 51-C , 87-H ) :   0.9683
B( 52-C , 53-O ) :   2.0448 B( 52-C , 54-C ) :   0.9863 B( 54-C , 55-C ) :   1.2412
B( 54-C , 61-C ) :   1.3637 B( 55-C , 56-C ) :   0.9801 B( 56-C , 57-O ) :   2.0570
B( 56-C , 58-N ) :   1.0449 B( 58-N , 59-C ) :   0.9448 B( 58-N , 61-C ) :   1.1753
B( 59-C , 60-C ) :   1.1205 B( 59-C , 88-H ) :   0.9506 B( 59-C , 89-H ) :   0.9287
B( 60-C , 90-H ) :   0.9685 B( 60-C , 91-H ) :   0.9679 B( 60-C , 92-H ) :   0.9638
B( 61-C , 62-C ) :   1.1282 B( 62-C , 63-C ) :   1.8853 B( 62-C , 93-H ) :   0.9533
B( 63-C , 94-H ) :   0.9263 B( 63-C , 95-H ) :   0.9448

-----------------------------------------------------------------------------
         ABSORPTION SPECTRUM VIA TRANSITION ELECTRIC DIPOLE MOMENTS
-----------------------------------------------------------------------------
State   Energy  Wavelength   fosc         T2         TX        TY        TZ
        (cm-1)    (nm)                  (au**2)     (au)      (au)      (au)
-----------------------------------------------------------------------------
   0   17281.4    578.7   0.982947431  18.72527  -0.91488   4.19973  -0.50056
   1   18898.7    529.1   0.029430506   0.51267   0.06905  -0.51050  -0.49729
   2   19291.8    518.4   0.439911610   7.50703   0.59497   2.62389   0.51793
   3   20365.0    491.0   0.007135064   0.11534   0.05205   0.03198  -0.33408
   4   23493.9    425.6   0.025760247   0.36097  -0.47815   0.36023  -0.05074
   5   24683.3    405.1   0.048241065   0.64341  -0.00481  -0.06012   0.79986
   6   24874.1    402.0   0.229541487   3.03802  -0.86066   1.35336  -0.68242
   7   25773.6    388.0   0.003803715   0.04859  -0.00731  -0.21513  -0.04745
   8   26348.8    379.5   0.012185119   0.15225   0.05839  -0.38575   0.00591
   9   27283.9    366.5   0.819394000   9.88695  -0.50958   3.08651  -0.31739
  10   27697.8    361.0   0.166213336   1.97559  -0.29972   1.37285  -0.03243
  11   27794.4    359.8   0.108016829   1.27941   0.22704  -1.10776   0.02712
  12   28090.1    356.0   0.039706025   0.46535   0.33220  -0.56298   0.19504
  13   28434.3    351.7   0.028779817   0.33321   0.43766  -0.34220  -0.15673
  14   29188.8    342.6   0.033199432   0.37445  -0.26268  -0.53928   0.12092
  15   29838.3    335.1   0.010982863   0.12118   0.14931   0.25499   0.18402
  16   29992.2    333.4   0.027973477   0.30705  -0.39791   0.11908  -0.36680
  17   30001.7    333.3   0.003418870   0.03752  -0.02458   0.12134  -0.14895
  18   30211.5    331.0   0.001074966   0.01171   0.05530   0.06214   0.06924
  19   31738.9    315.1   0.044274148   0.45923   0.61251  -0.24267  -0.15866
  20   31943.5    313.1   0.005282047   0.05444   0.22080   0.05923  -0.04664
  21   32300.8    309.6   0.014142995   0.14415   0.27679   0.19971  -0.16628
  22   32713.0    305.7   0.016503106   0.16608   0.15491   0.21339  -0.31073
  23   33234.6    300.9   0.058477713   0.57926   0.35505  -0.67007   0.06482
  24   33433.3    299.1   0.016689964   0.16434   0.13297  -0.26130   0.27998
  25   33587.4    297.7   0.046209797   0.45293   0.47375  -0.37898  -0.29132
  26   33929.2    294.7   0.159577738   1.54837   0.98593  -0.65301  -0.38715
  27   34205.3    292.4   0.002265077   0.02180  -0.09422  -0.02656  -0.11054
  28   34519.8    289.7   0.055695525   0.53116   0.23269  -0.45418   0.52033
  29   34552.5    289.4   0.002889535   0.02753   0.07568   0.01916  -0.14641
  30   35039.6    285.4   0.002076454   0.01951  -0.06859   0.00380   0.12161
  31   35071.1    285.1   0.011278785   0.10587  -0.29828   0.12334  -0.04109
  32   36063.6    277.3   0.118065475   1.07778   0.53784  -0.75752   0.46332
  33   36193.7    276.3   0.054410090   0.49490   0.23994  -0.31072   0.58377
  34   36554.0    273.6   0.000189510   0.00171  -0.02011   0.00545  -0.03568
  35   36709.8    272.4   0.000436962   0.00392   0.01529  -0.01275   0.05935
  36   36809.7    271.7   0.019242030   0.17209   0.18312  -0.02467  -0.37142
  37   37157.2    269.1   0.011017908   0.09762  -0.09281  -0.00945   0.29819
  38   37558.8    266.2   0.046112376   0.40419  -0.49339   0.19891   0.34811
  39   38259.6    261.4   0.082765726   0.71217   0.35678  -0.72789   0.23463
  40   38645.2    258.8   0.018445668   0.15714  -0.08437  -0.31692   0.22267
  41   38978.0    256.6   0.011999052   0.10135   0.01848  -0.22605   0.22340
  42   39114.3    255.7   0.029753780   0.25043  -0.31051   0.39146  -0.02771
  43   39140.6    255.5   0.009259723   0.07788  -0.17065   0.16992  -0.14102
  44   39447.9    253.5   0.011127688   0.09287  -0.28997   0.08931  -0.02843
  45   39972.2    250.2   0.046307830   0.38139  -0.21511   0.10413  -0.56945
  46   40188.9    248.8   0.000106036   0.00087  -0.00802   0.00475   0.02796
  47   40263.2    248.4   0.000150675   0.00123  -0.02556   0.01824  -0.01568

FINAL SINGLE POINT ENERGY     -4001.747597160656

DIPOLE MOMENT
-------------
                                X             Y             Z
Electronic contribution:     21.33705      -9.78373       0.95704
Nuclear contribution   :    -23.11739       9.89827      -0.63901
                        -----------------------------------------
Total Dipole Moment    :     -1.78034       0.11454       0.31803
                        -----------------------------------------
Magnitude (a.u.)       :      1.81215
Magnitude (Debye)      :      4.60611

Rotational constants in cm-1:     0.003433     0.000213     0.000211
Rotational constants in MHz :   102.927737     6.377154     6.319116

                             ****ORCA TERMINATED NORMALLY****
TOTAL RUN TIME: 0 days 0 hours 7 minutes 1 seconds 883 msec
