                         Program Version 4.2.0 -  RELEASE  -
|  1> # ORCA input file
|  2> # SCF done       -172.186302511310          0.000423755590
|  3> ! CAM-B3LYP def2-SVP def2/J RIJCOSX Grid4 TightSCF
|  4> %maxcore 5000
|  5> %tddft
|  6>     Mode sTDDFT
|  7>     Ethresh 5.0
|  8>     maxcore 5000
|  9> end
| 10>
| 11> %pal
| 12>   nprocs 6
| 13>   end
| 14> * xyz 0 1
| 15>    C        0.59130         2.65165        -4.74485
| 16>    N        1.14722         3.89497        -4.79073
| 17>    C        2.05839         4.37507        -5.79668
| 18>    C        1.35840         4.60547        -7.13350
| 19>    C        0.67794         4.70843        -3.73793
| 20>    O        1.02207         5.87067        -3.59314
| 21>    C       -0.21073         3.85252        -3.00437
| 22>    C       -0.24979         2.58488        -3.67293
| 23>    C       -1.17871         1.73359        -2.95849
| 24>    O       -1.55278         0.59617        -3.14282
| 25>    N       -1.64634         2.54455        -1.90664
| 26>    C       -2.55963         2.02579        -0.91886
| 27>    C       -1.85824         1.68633         0.39402
| 28>    C       -1.06551         3.79463        -1.91289
| 29>    C       -1.30220         4.77204        -0.91515
| 30>    C       -0.51478         5.87100        -0.79441
| 31>    C       -0.62286         6.81293         0.25401
| 32>    S       -2.12913         7.00590         1.10942
| 33>    C       -1.49496         8.22793         2.10460
| 34>    C       -0.16998         8.49546         1.83038
| 35>    C        0.35395         7.67061         0.77621
| 36>    C        1.72393         7.78821         0.41752
| 37>    C        2.44664         8.83085         0.98425
| 38>    C        1.91407         9.64576         2.00690
| 39>    C        0.64219         9.46817         2.45407
| 40>    O        3.70724         9.02198         0.53824
| 41>    C        2.41050         6.90712        -0.52066
| 42>    S        3.27329         7.60200        -1.84682
| 43>    C        3.69067         6.08492        -2.48191
| 44>    C        3.19831         5.05197        -1.71849
| 45>    C        2.50897         5.52342        -0.54926
| 46>    C        2.01791         4.56920         0.39884
| 47>    C        1.99304         3.24059         0.02000
| 48>    C        2.58269         2.80288        -1.19357
| 49>    C        3.23010         3.66889        -2.01194
| 50>    O        1.48130         2.25240         0.79848
| 51>    C        1.63503         5.01001         1.73240
| 52>    S        0.07044         4.61188         2.38872
| 53>    C        0.31767         5.56815         3.77695
| 54>    C        1.55188         6.16974         3.76663
| 55>    C        2.34378         5.80707         2.62234
| 56>    C        3.70096         6.27700         2.52176
| 57>    C        4.09890         7.28533         3.39741
| 58>    C        3.26799         7.65824         4.49527
| 59>    C        2.05872         7.09103         4.71479
| 60>    O        5.28995         7.89414         3.38233
| 61>    C        4.62638         5.67854         1.58869
| 62>    N        4.65377         4.32093         1.34716
| 63>    C        4.26358         3.28431         2.27438
| 64>    C        5.28084         3.16614         3.40741
| 65>    C        5.50535         3.99734         0.26939
| 66>    O        5.69658         2.85994        -0.10873
| 67>    C        6.04684         5.26494        -0.15561
| 68>    C        5.55200         6.26519         0.73948
| 69>    C        6.19145         7.49663         0.39381
| 70>    O        6.22204         8.57639         0.99038
| 71>    N        6.94651         7.21581        -0.73658
| 72>    C        7.65077         8.25859        -1.44036
| 73>    C        6.84819         8.76326        -2.63732
| 74>    C        6.86175         5.88031        -1.08540
| 75>    C        7.51814         5.32190        -2.23193
| 76>    C        7.42219         4.03346        -2.56489
| 77>    H        0.84171         1.90636        -5.47673
| 78>    H        2.87771         3.65821        -5.91595
| 79>    H        2.45833         5.31954        -5.41705
| 80>    H        0.93453         3.67737        -7.51039
| 81>    H        2.06769         4.98689        -7.86302
| 82>    H        0.55651         5.32975        -7.01362
| 83>    H       -2.98096         1.11558        -1.35553
| 84>    H       -3.36842         2.74409        -0.75213
| 85>    H       -1.02929         1.00839         0.20747
| 86>    H       -2.55914         1.20656         1.07183
| 87>    H       -1.46897         2.58298         0.87072
| 88>    H       -2.08474         4.59254        -0.19088
| 89>    H        0.27349         6.03077        -1.51450
| 90>    H       -2.11879         8.70730         2.83248
| 91>    H        2.55375        10.39884         2.44605
| 92>    H        0.23787        10.06226         3.25819
| 93>    H        4.19321         9.66309         1.07376
| 94>    H        4.23492         6.01302        -3.40199
| 95>    H        2.54548         1.74544        -1.39809
| 96>    H        3.74578         3.32767        -2.89553
| 97>    H        1.10848         2.61615         1.61256
| 98>    H       -0.45897         5.65828         4.50875
| 99>    H        3.67763         8.39353         5.17012
|100>    H        1.46209         7.34380         5.57738
|101>    H        5.66043         8.05673         2.47550
|102>    H        4.23069         2.35505         1.70037
|103>    H        3.27684         3.49057         2.68850
|104>    H        6.26521         2.93796         3.00558
|105>    H        4.98768         2.36886         4.08478
|106>    H        5.33768         4.09837         3.96668
|107>    H        8.63446         7.89582        -1.75054
|108>    H        7.78759         9.07059        -0.72045
|109>    H        6.68793         7.96681        -3.36034
|110>    H        7.37977         9.57674        -3.12330
|111>    H        5.87768         9.12419        -2.30497
|112>    H        8.10967         5.99806        -2.83387
|113>    H        6.84291         3.34290        -1.97585
|114>    H        7.92799         3.64233        -3.43084
|115> *
|116>
|117>                          ****END OF INPUT****

CARTESIAN COORDINATES (ANGSTROEM)
---------------------------------
  C      0.591300    2.651650   -4.744850
  N      1.147220    3.894970   -4.790730
  C      2.058390    4.375070   -5.796680
  C      1.358400    4.605470   -7.133500
  C      0.677940    4.708430   -3.737930
  O      1.022070    5.870670   -3.593140
  C     -0.210730    3.852520   -3.004370
  C     -0.249790    2.584880   -3.672930
  C     -1.178710    1.733590   -2.958490
  O     -1.552780    0.596170   -3.142820
  N     -1.646340    2.544550   -1.906640
  C     -2.559630    2.025790   -0.918860
  C     -1.858240    1.686330    0.394020
  C     -1.065510    3.794630   -1.912890
  C     -1.302200    4.772040   -0.915150
  C     -0.514780    5.871000   -0.794410
  C     -0.622860    6.812930    0.254010
  S     -2.129130    7.005900    1.109420
  C     -1.494960    8.227930    2.104600
  C     -0.169980    8.495460    1.830380
  C      0.353950    7.670610    0.776210
  C      1.723930    7.788210    0.417520
  C      2.446640    8.830850    0.984250
  C      1.914070    9.645760    2.006900
  C      0.642190    9.468170    2.454070
  O      3.707240    9.021980    0.538240
  C      2.410500    6.907120   -0.520660
  S      3.273290    7.602000   -1.846820
  C      3.690670    6.084920   -2.481910
  C      3.198310    5.051970   -1.718490
  C      2.508970    5.523420   -0.549260
  C      2.017910    4.569200    0.398840
  C      1.993040    3.240590    0.020000
  C      2.582690    2.802880   -1.193570
  C      3.230100    3.668890   -2.011940
  O      1.481300    2.252400    0.798480
  C      1.635030    5.010010    1.732400
  S      0.070440    4.611880    2.388720
  C      0.317670    5.568150    3.776950
  C      1.551880    6.169740    3.766630
  C      2.343780    5.807070    2.622340
  C      3.700960    6.277000    2.521760
  C      4.098900    7.285330    3.397410
  C      3.267990    7.658240    4.495270
  C      2.058720    7.091030    4.714790
  O      5.289950    7.894140    3.382330
  C      4.626380    5.678540    1.588690
  N      4.653770    4.320930    1.347160
  C      4.263580    3.284310    2.274380
  C      5.280840    3.166140    3.407410
  C      5.505350    3.997340    0.269390
  O      5.696580    2.859940   -0.108730
  C      6.046840    5.264940   -0.155610
  C      5.552000    6.265190    0.739480
  C      6.191450    7.496630    0.393810
  O      6.222040    8.576390    0.990380
  N      6.946510    7.215810   -0.736580
  C      7.650770    8.258590   -1.440360
  C      6.848190    8.763260   -2.637320
  C      6.861750    5.880310   -1.085400
  C      7.518140    5.321900   -2.231930
  C      7.422190    4.033460   -2.564890
  H      0.841710    1.906360   -5.476730
  H      2.877710    3.658210   -5.915950
  H      2.458330    5.319540   -5.417050
  H      0.934530    3.677370   -7.510390
  H      2.067690    4.986890   -7.863020
  H      0.556510    5.329750   -7.013620
  H     -2.980960    1.115580   -1.355530
  H     -3.368420    2.744090   -0.752130
  H     -1.029290    1.008390    0.207470
  H     -2.559140    1.206560    1.071830
  H     -1.468970    2.582980    0.870720
  H     -2.084740    4.592540   -0.190880
  H      0.273490    6.030770   -1.514500
  H     -2.118790    8.707300    2.832480
  H      2.553750   10.398840    2.446050
  H      0.237870   10.062260    3.258190
  H      4.193210    9.663090    1.073760
  H      4.234920    6.013020   -3.401990
  H      2.545480    1.745440   -1.398090
  H      3.745780    3.327670   -2.895530
  H      1.108480    2.616150    1.612560
  H     -0.458970    5.658280    4.508750
  H      3.677630    8.393530    5.170120
  H      1.462090    7.343800    5.577380
  H      5.660430    8.056730    2.475500
  H      4.230690    2.355050    1.700370
  H      3.276840    3.490570    2.688500
  H      6.265210    2.937960    3.005580
  H      4.987680    2.368860    4.084780
  H      5.337680    4.098370    3.966680
  H      8.634460    7.895820   -1.750540
  H      7.787590    9.070590   -0.720450
  H      6.687930    7.966810   -3.360340
  H      7.379770    9.576740   -3.123300
  H      5.877680    9.124190   -2.304970
  H      8.109670    5.998060   -2.833870
  H      6.842910    3.342900   -1.975850
  H      7.927990    3.642330   -3.430840

 Total Charge           Charge          ....    0
 Multiplicity           Mult            ....    1
 Number of Electrons    NEL             ....  458
 Basis Dimension        Dim             .... 1070

ORBITAL ENERGIES
----------------

  NO   OCC          E(Eh)            E(eV)
   0   2.0000     -88.967452     -2420.9274
   1   2.0000     -88.961275     -2420.7594
   2   2.0000     -88.943119     -2420.2653
   3   2.0000     -19.241301      -523.5824
   4   2.0000     -19.237556      -523.4805
   5   2.0000     -19.223405      -523.0954
   6   2.0000     -19.190408      -522.1976
   7   2.0000     -19.183274      -522.0034
   8   2.0000     -19.170752      -521.6627
   9   2.0000     -19.165447      -521.5183
  10   2.0000     -14.448718      -393.1696
  11   2.0000     -14.439255      -392.9121
  12   2.0000     -14.435332      -392.8054
  13   2.0000     -14.433268      -392.7492
  14   2.0000     -10.367973      -282.1269
  15   2.0000     -10.363249      -281.9983
  16   2.0000     -10.356270      -281.8084
  17   2.0000     -10.348784      -281.6047
  18   2.0000     -10.341781      -281.4142
  19   2.0000     -10.335156      -281.2339
  20   2.0000     -10.330710      -281.1129
  21   2.0000     -10.323206      -280.9087
  22   2.0000     -10.322292      -280.8839
  23   2.0000     -10.321843      -280.8716
  24   2.0000     -10.308173      -280.4996
  25   2.0000     -10.305197      -280.4187
  26   2.0000     -10.298245      -280.2295
  27   2.0000     -10.297879      -280.2195
  28   2.0000     -10.297708      -280.2149
  29   2.0000     -10.295798      -280.1629
  30   2.0000     -10.293152      -280.0909
  31   2.0000     -10.291275      -280.0398
  32   2.0000     -10.288634      -279.9680
  33   2.0000     -10.283777      -279.8358
  34   2.0000     -10.282788      -279.8089
  35   2.0000     -10.282171      -279.7921
  36   2.0000     -10.280241      -279.7396
  37   2.0000     -10.279545      -279.7206
  38   2.0000     -10.279290      -279.7137
  39   2.0000     -10.278491      -279.6920
  40   2.0000     -10.278167      -279.6831
  41   2.0000     -10.277606      -279.6679
  42   2.0000     -10.276837      -279.6469
  43   2.0000     -10.275510      -279.6108
  44   2.0000     -10.274156      -279.5740
  45   2.0000     -10.273509      -279.5564
  46   2.0000     -10.270194      -279.4662
  47   2.0000     -10.269167      -279.4382
  48   2.0000     -10.267210      -279.3850
  49   2.0000     -10.265643      -279.3424
  50   2.0000     -10.263867      -279.2940
  51   2.0000     -10.262697      -279.2622
  52   2.0000     -10.260214      -279.1946
  53   2.0000     -10.256335      -279.0891
  54   2.0000     -10.255965      -279.0790
  55   2.0000     -10.252396      -278.9819
  56   2.0000     -10.249297      -278.8975
  57   2.0000     -10.249282      -278.8971
  58   2.0000     -10.248588      -278.8783
  59   2.0000     -10.248007      -278.8625
  60   2.0000     -10.241139      -278.6755
  61   2.0000     -10.234432      -278.4931
  62   2.0000      -8.061031      -219.3518
  63   2.0000      -8.056408      -219.2260
  64   2.0000      -8.037313      -218.7064
  65   2.0000      -6.030050      -164.0860
  66   2.0000      -6.025732      -163.9685
  67   2.0000      -6.025311      -163.9570
  68   2.0000      -6.024304      -163.9297
  69   2.0000      -6.021183      -163.8447
  70   2.0000      -6.019428      -163.7970
  71   2.0000      -6.006323      -163.4404
  72   2.0000      -6.001955      -163.3215
  73   2.0000      -6.000489      -163.2816
  74   2.0000      -1.142254       -31.0823
  75   2.0000      -1.132990       -30.8302
  76   2.0000      -1.131963       -30.8023
  77   2.0000      -1.120982       -30.5035
  78   2.0000      -1.117896       -30.4195
  79   2.0000      -1.112717       -30.2786
  80   2.0000      -1.104315       -30.0499
  81   2.0000      -1.056546       -28.7501
  82   2.0000      -1.046181       -28.4680
  83   2.0000      -1.042807       -28.3762
  84   2.0000      -1.034393       -28.1473
  85   2.0000      -0.996770       -27.1235
  86   2.0000      -0.986724       -26.8501
  87   2.0000      -0.971924       -26.4474
  88   2.0000      -0.928362       -25.2620
  89   2.0000      -0.921428       -25.0733
  90   2.0000      -0.917922       -24.9779
  91   2.0000      -0.909816       -24.7573
  92   2.0000      -0.907442       -24.6928
  93   2.0000      -0.894484       -24.3401
  94   2.0000      -0.885390       -24.0927
  95   2.0000      -0.879661       -23.9368
  96   2.0000      -0.866138       -23.5688
  97   2.0000      -0.860689       -23.4205
  98   2.0000      -0.856623       -23.3099
  99   2.0000      -0.845197       -22.9990
 100   2.0000      -0.823275       -22.4024
 101   2.0000      -0.819051       -22.2875
 102   2.0000      -0.816596       -22.2207
 103   2.0000      -0.810377       -22.0515
 104   2.0000      -0.806008       -21.9326
 105   2.0000      -0.802976       -21.8501
 106   2.0000      -0.801834       -21.8190
 107   2.0000      -0.783110       -21.3095
 108   2.0000      -0.778359       -21.1802
 109   2.0000      -0.767655       -20.8890
 110   2.0000      -0.760129       -20.6842
 111   2.0000      -0.751796       -20.4574
 112   2.0000      -0.747274       -20.3343
 113   2.0000      -0.746532       -20.3142
 114   2.0000      -0.714576       -19.4446
 115   2.0000      -0.710505       -19.3338
 116   2.0000      -0.705448       -19.1962
 117   2.0000      -0.700147       -19.0520
 118   2.0000      -0.696394       -18.9498
 119   2.0000      -0.692314       -18.8388
 120   2.0000      -0.692036       -18.8313
 121   2.0000      -0.685137       -18.6435
 122   2.0000      -0.668266       -18.1844
 123   2.0000      -0.663576       -18.0568
 124   2.0000      -0.661567       -18.0022
 125   2.0000      -0.651205       -17.7202
 126   2.0000      -0.650147       -17.6914
 127   2.0000      -0.643470       -17.5097
 128   2.0000      -0.637226       -17.3398
 129   2.0000      -0.634787       -17.2734
 130   2.0000      -0.626824       -17.0567
 131   2.0000      -0.610767       -16.6198
 132   2.0000      -0.608070       -16.5464
 133   2.0000      -0.602526       -16.3956
 134   2.0000      -0.599114       -16.3027
 135   2.0000      -0.589092       -16.0300
 136   2.0000      -0.585174       -15.9234
 137   2.0000      -0.583595       -15.8804
 138   2.0000      -0.579570       -15.7709
 139   2.0000      -0.573103       -15.5949
 140   2.0000      -0.570550       -15.5254
 141   2.0000      -0.564665       -15.3653
 142   2.0000      -0.563902       -15.3445
 143   2.0000      -0.562065       -15.2946
 144   2.0000      -0.558127       -15.1874
 145   2.0000      -0.557732       -15.1767
 146   2.0000      -0.550099       -14.9690
 147   2.0000      -0.546267       -14.8647
 148   2.0000      -0.541477       -14.7343
 149   2.0000      -0.535219       -14.5641
 150   2.0000      -0.528363       -14.3775
 151   2.0000      -0.526470       -14.3260
 152   2.0000      -0.523922       -14.2566
 153   2.0000      -0.520767       -14.1708
 154   2.0000      -0.517427       -14.0799
 155   2.0000      -0.514734       -14.0066
 156   2.0000      -0.514609       -14.0032
 157   2.0000      -0.513431       -13.9712
 158   2.0000      -0.511860       -13.9284
 159   2.0000      -0.509075       -13.8526
 160   2.0000      -0.506815       -13.7911
 161   2.0000      -0.499358       -13.5882
 162   2.0000      -0.497021       -13.5246
 163   2.0000      -0.496553       -13.5119
 164   2.0000      -0.496184       -13.5018
 165   2.0000      -0.494890       -13.4666
 166   2.0000      -0.492126       -13.3914
 167   2.0000      -0.491051       -13.3622
 168   2.0000      -0.486754       -13.2452
 169   2.0000      -0.485216       -13.2034
 170   2.0000      -0.483172       -13.1478
 171   2.0000      -0.481828       -13.1112
 172   2.0000      -0.481028       -13.0894
 173   2.0000      -0.475219       -12.9314
 174   2.0000      -0.470206       -12.7950
 175   2.0000      -0.469388       -12.7727
 176   2.0000      -0.464488       -12.6394
 177   2.0000      -0.460880       -12.5412
 178   2.0000      -0.460765       -12.5381
 179   2.0000      -0.457909       -12.4603
 180   2.0000      -0.455248       -12.3879
 181   2.0000      -0.454214       -12.3598
 182   2.0000      -0.453278       -12.3343
 183   2.0000      -0.451814       -12.2945
 184   2.0000      -0.448938       -12.2162
 185   2.0000      -0.445014       -12.1094
 186   2.0000      -0.443056       -12.0562
 187   2.0000      -0.439546       -11.9607
 188   2.0000      -0.438982       -11.9453
 189   2.0000      -0.438160       -11.9229
 190   2.0000      -0.435714       -11.8564
 191   2.0000      -0.433516       -11.7966
 192   2.0000      -0.429128       -11.6772
 193   2.0000      -0.428860       -11.6699
 194   2.0000      -0.426986       -11.6189
 195   2.0000      -0.421540       -11.4707
 196   2.0000      -0.420835       -11.4515
 197   2.0000      -0.418711       -11.3937
 198   2.0000      -0.417676       -11.3655
 199   2.0000      -0.414767       -11.2864
 200   2.0000      -0.411042       -11.1850
 201   2.0000      -0.409192       -11.1347
 202   2.0000      -0.404860       -11.0168
 203   2.0000      -0.403977       -10.9928
 204   2.0000      -0.399521       -10.8715
 205   2.0000      -0.396441       -10.7877
 206   2.0000      -0.394650       -10.7390
 207   2.0000      -0.384434       -10.4610
 208   2.0000      -0.376418       -10.2429
 209   2.0000      -0.367378        -9.9969
 210   2.0000      -0.362629        -9.8676
 211   2.0000      -0.349199        -9.5022
 212   2.0000      -0.348631        -9.4867
 213   2.0000      -0.342041        -9.3074
 214   2.0000      -0.340052        -9.2533
 215   2.0000      -0.327133        -8.9017
 216   2.0000      -0.326255        -8.8779
 217   2.0000      -0.313880        -8.5411
 218   2.0000      -0.310585        -8.4514
 219   2.0000      -0.305876        -8.3233
 220   2.0000      -0.300014        -8.1638
 221   2.0000      -0.295049        -8.0287
 222   2.0000      -0.286171        -7.7871
 223   2.0000      -0.278139        -7.5686
 224   2.0000      -0.264793        -7.2054
 225   2.0000      -0.258982        -7.0472
 226   2.0000      -0.247122        -6.7245
 227   2.0000      -0.229063        -6.2331
 228   2.0000      -0.208237        -5.6664
 229   0.0000      -0.060364        -1.6426
 230   0.0000      -0.056816        -1.5460
 231   0.0000      -0.029103        -0.7919
 232   0.0000      -0.024019        -0.6536
 233   0.0000       0.002218         0.0604

MULLIKEN ATOMIC CHARGES
-----------------------
   0 C :    0.015957
   1 N :   -0.260672
   2 C :    0.109180
   3 C :    0.000077
   4 C :    0.173495
   5 O :   -0.226711
   6 C :   -0.090769
   7 C :    0.013313
   8 C :    0.159217
   9 O :   -0.189548
  10 N :   -0.273884
  11 C :    0.101851
  12 C :    0.009536
  13 C :    0.166745
  14 C :   -0.086961
  15 C :    0.063785
  16 C :   -0.253453
  17 S :    0.149209
  18 C :   -0.127867
  19 C :    0.090084
  20 C :    0.202003
  21 C :    0.012379
  22 C :    0.093635
  23 C :   -0.020658
  24 C :    0.003870
  25 O :   -0.172695
  26 C :   -0.321810
  27 S :    0.195840
  28 C :   -0.098261
  29 C :    0.061647
  30 C :    0.157465
  31 C :    0.078717
  32 C :    0.066564
  33 C :    0.005326
  34 C :    0.048471
  35 O :   -0.188693
  36 C :   -0.420865
  37 S :    0.123353
  38 C :   -0.105904
  39 C :    0.055858
  40 C :    0.235711
  41 C :   -0.013879
  42 C :    0.073906
  43 C :   -0.007188
  44 C :    0.036578
  45 O :   -0.205174
  46 C :    0.044593
  47 N :   -0.279198
  48 C :    0.100360
  49 C :    0.025945
  50 C :    0.180517
  51 O :   -0.199136
  52 C :   -0.050519
  53 C :   -0.006759
  54 C :    0.172674
  55 O :   -0.321794
  56 N :   -0.247965
  57 C :    0.102898
  58 C :    0.004323
  59 C :    0.098091
  60 C :   -0.038024
  61 C :    0.000883
  62 H :    0.005984
  63 H :    0.012621
  64 H :    0.035918
  65 H :    0.014404
  66 H :    0.017041
  67 H :    0.031140
  68 H :    0.038911
  69 H :    0.017489
  70 H :    0.035588
  71 H :    0.013186
  72 H :   -0.005290
  73 H :   -0.032047
  74 H :    0.067105
  75 H :    0.013086
  76 H :   -0.031871
  77 H :   -0.030124
  78 H :    0.187037
  79 H :   -0.002324
  80 H :   -0.022763
  81 H :   -0.036803
  82 H :    0.170115
  83 H :    0.009602
  84 H :   -0.016599
  85 H :   -0.028047
  86 H :    0.199675
  87 H :    0.047052
  88 H :    0.027330
  89 H :    0.023008
  90 H :    0.014725
  91 H :    0.023517
  92 H :    0.023076
  93 H :    0.038461
  94 H :    0.010121
  95 H :    0.019615
  96 H :    0.032082
  97 H :   -0.023828
  98 H :    0.052994
  99 H :    0.023143
Sum of atomic charges:   -0.0000000

LOEWDIN ATOMIC CHARGES
----------------------
   0 C :    0.071797
   1 N :    0.000870
   2 C :    0.035015
   3 C :   -0.060791
   4 C :    0.072633
   5 O :   -0.217119
   6 C :   -0.140742
   7 C :   -0.121924
   8 C :    0.083124
   9 O :   -0.194483
  10 N :   -0.009905
  11 C :    0.035521
  12 C :   -0.065708
  13 C :    0.093349
  14 C :   -0.087611
  15 C :    0.032353
  16 C :   -0.206186
  17 S :    0.477801
  18 C :   -0.184800
  19 C :   -0.060443
  20 C :   -0.015654
  21 C :   -0.079907
  22 C :    0.050612
  23 C :   -0.056042
  24 C :   -0.002113
  25 O :   -0.034650
  26 C :   -0.199004
  27 S :    0.527175
  28 C :   -0.177257
  29 C :   -0.068061
  30 C :   -0.036810
  31 C :   -0.116911
  32 C :    0.062498
  33 C :   -0.038325
  34 C :    0.008032
  35 O :   -0.043254
  36 C :   -0.189412
  37 S :    0.495047
  38 C :   -0.192953
  39 C :   -0.059995
  40 C :   -0.034247
  41 C :   -0.103804
  42 C :    0.082171
  43 C :   -0.043070
  44 C :    0.011224
  45 O :   -0.049057
  46 C :    0.105365
  47 N :    0.011816
  48 C :    0.033869
  49 C :   -0.059424
  50 C :    0.088274
  51 O :   -0.185400
  52 C :   -0.107636
  53 C :   -0.136709
  54 C :    0.085084
  55 O :   -0.233168
  56 N :    0.014394
  57 C :    0.037758
  58 C :   -0.063375
  59 C :    0.063082
  60 C :   -0.052309
  61 C :    0.005795
  62 H :    0.028195
  63 H :    0.019837
  64 H :    0.032410
  65 H :    0.021937
  66 H :    0.027623
  67 H :    0.032068
  68 H :    0.035670
  69 H :    0.020360
  70 H :    0.031900
  71 H :    0.026870
  72 H :    0.007040
  73 H :    0.014578
  74 H :    0.047375
  75 H :    0.022620
  76 H :    0.028435
  77 H :    0.029641
  78 H :    0.088116
  79 H :    0.015443
  80 H :    0.034498
  81 H :    0.027870
  82 H :    0.051220
  83 H :    0.021923
  84 H :    0.033902
  85 H :    0.031155
  86 H :    0.056576
  87 H :    0.034732
  88 H :    0.021253
  89 H :    0.027991
  90 H :    0.027874
  91 H :    0.025477
  92 H :    0.022958
  93 H :    0.035863
  94 H :    0.019912
  95 H :    0.028824
  96 H :    0.026305
  97 H :    0.027590
  98 H :    0.031127
  99 H :    0.026432

  Mayer bond orders larger than 0.100000
B(  0-C ,  1-N ) :   1.1702 B(  0-C ,  7-C ) :   1.4730 B(  0-C , 62-H ) :   0.9895
B(  1-N ,  2-C ) :   0.9522 B(  1-N ,  4-C ) :   1.0536 B(  2-C ,  3-C ) :   1.1187
B(  2-C , 63-H ) :   0.9521 B(  2-C , 64-H ) :   0.9330 B(  3-C , 65-H ) :   0.9694
B(  3-C , 66-H ) :   0.9679 B(  3-C , 67-H ) :   0.9666 B(  4-C ,  5-O ) :   1.9815
B(  4-C ,  6-C ) :   1.0348 B(  5-O , 74-H ) :   0.1093 B(  6-C ,  7-C ) :   1.1984
B(  6-C , 13-C ) :   1.3571 B(  7-C ,  8-C ) :   0.9419 B(  8-C ,  9-O ) :   2.1739
B(  8-C , 10-N ) :   1.0226 B( 10-N , 11-C ) :   0.9546 B( 10-N , 13-C ) :   1.1479
B( 11-C , 12-C ) :   1.1231 B( 11-C , 68-H ) :   0.9276 B( 11-C , 69-H ) :   0.9489
B( 12-C , 70-H ) :   0.9599 B( 12-C , 71-H ) :   0.9619 B( 12-C , 72-H ) :   0.9653
B( 13-C , 14-C ) :   1.1734 B( 14-C , 15-C ) :   1.5760 B( 14-C , 73-H ) :   0.9605
B( 15-C , 16-C ) :   1.1918 B( 15-C , 74-H ) :   0.9331 B( 16-C , 17-S ) :   1.1247
B( 16-C , 18-C ) :   0.1088 B( 16-C , 20-C ) :   1.3386 B( 17-S , 18-C ) :   1.2179
B( 18-C , 19-C ) :   1.3957 B( 18-C , 75-H ) :   0.9721 B( 19-C , 20-C ) :   1.1960
B( 19-C , 24-C ) :   1.1583 B( 20-C , 21-C ) :   1.2446 B( 21-C , 22-C ) :   1.4765
B( 21-C , 26-C ) :   0.9934 B( 22-C , 23-C ) :   1.1739 B( 22-C , 25-O ) :   1.2399
B( 23-C , 24-C ) :   1.5244 B( 23-C , 76-H ) :   0.9836 B( 24-C , 77-H ) :   1.0034
B( 25-O , 78-H ) :   0.9252 B( 26-C , 27-S ) :   1.1774 B( 26-C , 28-C ) :   0.1143
B( 26-C , 30-C ) :   1.4691 B( 27-S , 28-C ) :   1.2279 B( 28-C , 29-C ) :   1.4123
B( 28-C , 79-H ) :   0.9624 B( 29-C , 30-C ) :   1.2182 B( 29-C , 34-C ) :   1.1423
B( 30-C , 31-C ) :   1.1790 B( 31-C , 32-C ) :   1.4328 B( 31-C , 36-C ) :   0.9642
B( 32-C , 33-C ) :   1.1989 B( 32-C , 35-O ) :   1.2256 B( 33-C , 34-C ) :   1.5257
B( 33-C , 80-H ) :   0.9951 B( 34-C , 81-H ) :   1.0016 B( 35-O , 82-H ) :   0.9345
B( 36-C , 37-S ) :   1.1621 B( 36-C , 38-C ) :   0.1140 B( 36-C , 40-C ) :   1.4460
B( 37-S , 38-C ) :   1.1836 B( 38-C , 39-C ) :   1.4328 B( 38-C , 83-H ) :   0.9711
B( 39-C , 40-C ) :   1.1983 B( 39-C , 44-C ) :   1.1268 B( 40-C , 41-C ) :   1.1497
B( 41-C , 42-C ) :   1.3787 B( 41-C , 46-C ) :   1.0419 B( 42-C , 43-C ) :   1.1735
B( 42-C , 45-O ) :   1.3376 B( 43-C , 44-C ) :   1.5448 B( 43-C , 84-H ) :   0.9913
B( 44-C , 85-H ) :   1.0057 B( 45-O , 86-H ) :   0.8649 B( 46-C , 47-N ) :   1.2044
B( 46-C , 53-C ) :   1.3665 B( 47-N , 48-C ) :   0.9448 B( 47-N , 50-C ) :   1.0360
B( 48-C , 49-C ) :   1.1143 B( 48-C , 87-H ) :   0.9276 B( 48-C , 88-H ) :   0.9385
B( 49-C , 89-H ) :   0.9649 B( 49-C , 90-H ) :   0.9656 B( 49-C , 91-H ) :   0.9642
B( 50-C , 51-O ) :   2.0430 B( 50-C , 52-C ) :   0.9751 B( 52-C , 53-C ) :   1.2132
B( 52-C , 59-C ) :   1.4262 B( 53-C , 54-C ) :   1.0261 B( 54-C , 55-O ) :   1.7884
B( 54-C , 56-N ) :   1.1324 B( 55-O , 86-H ) :   0.1795 B( 56-N , 57-C ) :   0.9499
B( 56-N , 59-C ) :   1.1236 B( 57-C , 58-C ) :   1.1227 B( 57-C , 92-H ) :   0.9497
B( 57-C , 93-H ) :   0.9281 B( 58-C , 94-H ) :   0.9677 B( 58-C , 95-H ) :   0.9655
B( 58-C , 96-H ) :   0.9605 B( 59-C , 60-C ) :   1.1242 B( 60-C , 61-C ) :   1.8932
B( 60-C , 97-H ) :   0.9518 B( 61-C , 98-H ) :   0.9274 B( 61-C , 99-H ) :   0.9440

-----------------------------------------------------------------------------
         ABSORPTION SPECTRUM VIA TRANSITION ELECTRIC DIPOLE MOMENTS
-----------------------------------------------------------------------------
State   Energy  Wavelength   fosc         T2         TX        TY        TZ
        (cm-1)    (nm)                  (au**2)     (au)      (au)      (au)
-----------------------------------------------------------------------------
   0   14281.9    700.2   0.047876342   1.10360   0.96213   0.42165  -0.01031
   1   15018.7    665.8   0.095454197   2.09236  -0.46518   0.71759   1.16663
   2   19849.7    503.8   0.026973126   0.44735   0.48617   0.04315  -0.45731
   3   20373.5    490.8   0.087900852   1.42037   0.10774   0.44955   1.09849
   4   21083.5    474.3   0.104744002   1.63555   0.58673   0.09000  -1.13278
   5   21950.2    455.6   0.130193561   1.95266   0.30526  -0.92630  -1.00073
   6   23506.6    425.4   0.256543718   3.59292   1.12860  -0.19398  -1.51048
   7   24427.1    409.4   0.049199272   0.66308   0.35473   0.73293  -0.00750
   8   25070.3    398.9   0.034013384   0.44665  -0.25801   0.37744   0.48746
   9   25476.3    392.5   0.058583588   0.75703  -0.09602   0.42796   0.75144
  10   26051.4    383.9   0.080284368   1.01456  -0.46585  -0.69824  -0.55677
  11   26426.4    378.4   0.025279534   0.31493   0.36015  -0.38368  -0.19496
  12   26697.8    374.6   0.041015364   0.50576  -0.17821  -0.33033  -0.60406
  13   27428.1    364.6   0.082613553   0.99159   0.43084   0.86742   0.23141
  14   27762.6    360.2   0.069139444   0.81986  -0.31507   0.51265   0.67660
  15   27819.3    359.5   0.022071112   0.26119  -0.22870  -0.24096   0.38836
  16   29096.0    343.7   0.003790769   0.04289   0.09045   0.10740  -0.15223
  17   29492.4    339.1   0.041705925   0.46555  -0.34496   0.18920   0.55745
  18   29996.4    333.4   0.030204429   0.33150  -0.44805  -0.04188   0.35916
  19   30387.2    329.1   0.021564474   0.23363  -0.35958  -0.12436   0.29810
  20   30628.0    326.5   0.051350650   0.55195  -0.15719   0.72010  -0.09326
  21   30981.6    322.8   0.023440919   0.24908   0.24897  -0.13701  -0.41028
  22   31137.8    321.2   0.015139433   0.16007  -0.11924  -0.36415  -0.11506
  23   31465.2    317.8   0.090441886   0.94627   0.53869  -0.11573  -0.80168
  24   32180.3    310.7   0.035752729   0.36576   0.17266   0.40342   0.41617
  25   32250.8    310.1   0.015239053   0.15556  -0.26972  -0.12788  -0.25779
  26   32368.3    308.9   0.019191288   0.19519  -0.42024  -0.06185  -0.12150
  27   32561.3    307.1   0.027765353   0.28072   0.48922   0.04199  -0.19906
  28   32797.9    304.9   0.064350943   0.64593  -0.50333  -0.51360  -0.35890
  29   33276.4    300.5   0.006219350   0.06153  -0.08490  -0.12448   0.19705
  30   33385.8    299.5   0.057502764   0.56703   0.19495  -0.50820  -0.52034
  31   34087.9    293.4   0.028690345   0.27708  -0.00406   0.28814   0.44050
  32   35067.9    285.2   0.043520394   0.40856   0.32814  -0.08385   0.54208
  33   35331.9    283.0   0.053873042   0.50197  -0.00495   0.70759   0.03552
  34   35602.0    280.9   0.033591450   0.31062  -0.02363  -0.47265  -0.29439
  35   35678.9    280.3   0.018355944   0.16937   0.32858  -0.24718  -0.01759
  36   36164.6    276.5   0.124906139   1.13704  -0.76357  -0.68976  -0.27970
  37   36373.6    274.9   0.072088684   0.65246   0.49591  -0.00359  -0.63759
  38   36437.3    274.4   0.119489048   1.07959  -0.59309   0.69290   0.49771
  39   36913.3    270.9   0.046974386   0.41894   0.27016   0.41876  -0.41303
  40   37511.2    266.6   0.037876922   0.33242   0.52808   0.04709  -0.22657
  41   37773.6    264.7   0.024565716   0.21410   0.43937   0.13962   0.03950
  42   37942.4    263.6   0.024261926   0.21051   0.40619   0.09223  -0.19238
  43   38277.4    261.3   0.024126661   0.20751   0.16623   0.40646   0.12109
  44   38321.1    261.0   0.002692300   0.02313   0.05539  -0.13569   0.04060
  45   38518.8    259.6   0.011459299   0.09794   0.23234   0.19962  -0.06411
  46   39044.1    256.1   0.010630497   0.08963   0.17687   0.04285  -0.23773
  47   39107.0    255.7   0.044453408   0.37422   0.60938   0.03402   0.04138
  48   39453.8    253.5   0.064727784   0.54010   0.21253   0.65439   0.25828
  49   39855.9    250.9   0.056853758   0.46962   0.16705   0.66398  -0.02895
  50   40217.0    248.7   0.006325824   0.05178   0.11813   0.17171  -0.09134

FINAL SINGLE POINT ENERGY     -3788.560595359056

DIPOLE MOMENT
-------------
                                X             Y             Z
Electronic contribution:    -17.80368      12.89007      16.77525
Nuclear contribution   :     17.95535     -11.14634     -15.93743
                        -----------------------------------------
Total Dipole Moment    :      0.15168       1.74373       0.83782
                        -----------------------------------------
Magnitude (a.u.)       :      1.94050
Magnitude (Debye)      :      4.93235

Rotational constants in cm-1:     0.001910     0.001515     0.001180
Rotational constants in MHz :    57.265386    45.425523    35.388129

                             ****ORCA TERMINATED NORMALLY****
TOTAL RUN TIME: 0 days 0 hours 20 minutes 45 seconds 504 msec
