                         Program Version 4.2.0 -  RELEASE  -
|  1> # ORCA input file
|  2> # SCF done       -169.385310615640          0.000679177237
|  3> ! CAM-B3LYP def2-SVP def2/J RIJCOSX Grid4 TightSCF
|  4> %maxcore 5000
|  5> %tddft
|  6>     Mode sTDDFT
|  7>     Ethresh 5.0
|  8>     maxcore 5000
|  9> end
| 10>
| 11> %pal
| 12>   nprocs 6
| 13>   end
| 14> * xyz 0 1
| 15>    C       -1.58273        -1.79846         0.82133
| 16>    N       -1.93288        -1.04179         1.89619
| 17>    C       -2.05431        -1.51122         3.25341
| 18>    C       -0.68762        -1.73250         3.89625
| 19>    C       -2.11037         0.31150         1.53777
| 20>    O       -2.42471         1.17736         2.33451
| 21>    C       -1.84720         0.33632         0.12050
| 22>    C       -1.52126        -0.99954        -0.28439
| 23>    C       -1.25158        -0.98112        -1.70734
| 24>    O       -0.93388        -1.84633        -2.49172
| 25>    N       -1.42956         0.37021        -2.06979
| 26>    C       -1.28783         0.79413        -3.44118
| 27>    C       -2.63995         0.95558        -4.13240
| 28>    C       -1.78791         1.15585        -0.99661
| 29>    C       -2.02696         2.55600        -1.09779
| 30>    C       -2.38038         3.30751        -0.03089
| 31>    C       -2.63415         4.71934        -0.06148
| 32>    C       -2.75195         5.50448        -1.22422
| 33>    N       -2.97303         6.79278        -1.18830
| 34>    C       -3.09832         7.37888         0.00567
| 35>    N       -3.01985         6.73075         1.17396
| 36>    C       -2.79811         5.43841         1.13550
| 37>    C       -3.34814         8.79778        -0.02415
| 38>    N       -3.34983         9.63661         1.05948
| 39>    C       -3.02926         9.31171         2.42886
| 40>    C       -1.52354         9.17680         2.63448
| 41>    C       -3.62639        10.96769         0.68464
| 42>    O       -3.67643        11.89411         1.46711
| 43>    C       -3.82121        10.89602        -0.74417
| 44>    C       -3.64549         9.55045        -1.15326
| 45>    C       -3.87162         9.49950        -2.58485
| 46>    O       -3.84466         8.61063        -3.40204
| 47>    N       -4.16810        10.84484        -2.93847
| 48>    C       -4.44096        11.16460        -4.31766
| 49>    C       -5.93804        11.13489        -4.62152
| 50>    C       -4.14401        11.67842        -1.84775
| 51>    C       -4.35225        13.08394        -1.75350
| 52>    C       -4.83331        13.95081        -2.67156
| 53>    C       -4.97187        15.36531        -2.45552
| 54>    C       -4.40342        16.08570        -1.38654
| 55>    N       -4.53684        17.38068        -1.26019
| 56>    C       -5.24077        18.03697        -2.18588
| 57>    N       -5.84420        17.45500        -3.22780
| 58>    C       -5.70423        16.15628        -3.35536
| 59>    C       -5.29957        19.47040        -2.02778
| 60>    N       -6.22394        20.30378        -2.60301
| 61>    C       -7.38373        19.91911        -3.37121
| 62>    C       -8.47750        19.33878        -2.47943
| 63>    C       -5.99599        21.64750        -2.25665
| 64>    O       -6.69894        22.56449        -2.63710
| 65>    C       -4.81370        21.60910        -1.42752
| 66>    C       -4.41454        20.24670        -1.30168
| 67>    C       -3.19521        20.20799        -0.51874
| 68>    O       -2.45151        19.31945        -0.17805
| 69>    N       -2.95758        21.56992        -0.20026
| 70>    C       -1.84697        21.94466         0.63977
| 71>    C       -2.28584        22.19874         2.08013
| 72>    C       -3.90857        22.39962        -0.73444
| 73>    C       -3.88905        23.82733        -0.57937
| 74>    C       -4.82412        24.62461        -1.09965
| 75>    H       -1.41094        -2.85426         0.92078
| 76>    H       -2.63404        -2.43911         3.26160
| 77>    H       -2.60344        -0.73984         3.80000
| 78>    H       -0.11913        -2.47727         3.34360
| 79>    H       -0.81187        -2.07621         4.91922
| 80>    H       -0.12466        -0.80249         3.90665
| 81>    H       -0.71492         0.00726        -3.94022
| 82>    H       -0.71450         1.72485        -3.48183
| 83>    H       -3.17286         0.00801        -4.12765
| 84>    H       -2.49139         1.26574        -5.16304
| 85>    H       -3.25309         1.69891        -3.62744
| 86>    H       -1.90447         3.01080        -2.06964
| 87>    H       -2.47469         2.83399         0.93807
| 88>    H       -2.67773         5.07800        -2.21588
| 89>    H       -2.73718         4.93624         2.09355
| 90>    H       -3.53161         8.38382         2.70401
| 91>    H       -3.41271        10.14112         3.02981
| 92>    H       -1.13403         8.35216         2.04296
| 93>    H       -1.31319         8.98330         3.68230
| 94>    H       -1.01939        10.09431         2.33990
| 95>    H       -3.94448        10.39047        -4.91116
| 96>    H       -3.99638        12.13200        -4.56206
| 97>    H       -6.32001        10.12929        -4.46554
| 98>    H       -6.11241        11.41606        -5.65675
| 99>    H       -6.48732        11.81342        -3.97209
|100>    H       -4.10004        13.45665        -0.76888
|101>    H       -5.17585        13.61207        -3.63816
|102>    H       -3.81418        15.60209        -0.61940
|103>    H       -6.20255        15.71238        -4.21027
|104>    H       -7.08510        19.19091        -4.12646
|105>    H       -7.74131        20.83399        -3.85169
|106>    H       -8.12649        18.43445        -1.98796
|107>    H       -9.34920        19.09298        -3.07932
|108>    H       -8.76806        20.06094        -1.71986
|109>    H       -1.34707        22.82349         0.22267
|110>    H       -1.15316        21.09935         0.61307
|111>    H       -3.01063        23.00846         2.13087
|112>    H       -1.42391        22.46053         2.68772
|113>    H       -2.74122        21.30096         2.49047
|114>    H       -3.06681        24.24580        -0.01540
|115>    H       -5.65089        24.22892        -1.66577
|116>    H       -4.77916        25.69247        -0.97105
|117> *
|118>
|119>                          ****END OF INPUT****

CARTESIAN COORDINATES (ANGSTROEM)
---------------------------------
  C     -1.582730   -1.798460    0.821330
  N     -1.932880   -1.041790    1.896190
  C     -2.054310   -1.511220    3.253410
  C     -0.687620   -1.732500    3.896250
  C     -2.110370    0.311500    1.537770
  O     -2.424710    1.177360    2.334510
  C     -1.847200    0.336320    0.120500
  C     -1.521260   -0.999540   -0.284390
  C     -1.251580   -0.981120   -1.707340
  O     -0.933880   -1.846330   -2.491720
  N     -1.429560    0.370210   -2.069790
  C     -1.287830    0.794130   -3.441180
  C     -2.639950    0.955580   -4.132400
  C     -1.787910    1.155850   -0.996610
  C     -2.026960    2.556000   -1.097790
  C     -2.380380    3.307510   -0.030890
  C     -2.634150    4.719340   -0.061480
  C     -2.751950    5.504480   -1.224220
  N     -2.973030    6.792780   -1.188300
  C     -3.098320    7.378880    0.005670
  N     -3.019850    6.730750    1.173960
  C     -2.798110    5.438410    1.135500
  C     -3.348140    8.797780   -0.024150
  N     -3.349830    9.636610    1.059480
  C     -3.029260    9.311710    2.428860
  C     -1.523540    9.176800    2.634480
  C     -3.626390   10.967690    0.684640
  O     -3.676430   11.894110    1.467110
  C     -3.821210   10.896020   -0.744170
  C     -3.645490    9.550450   -1.153260
  C     -3.871620    9.499500   -2.584850
  O     -3.844660    8.610630   -3.402040
  N     -4.168100   10.844840   -2.938470
  C     -4.440960   11.164600   -4.317660
  C     -5.938040   11.134890   -4.621520
  C     -4.144010   11.678420   -1.847750
  C     -4.352250   13.083940   -1.753500
  C     -4.833310   13.950810   -2.671560
  C     -4.971870   15.365310   -2.455520
  C     -4.403420   16.085700   -1.386540
  N     -4.536840   17.380680   -1.260190
  C     -5.240770   18.036970   -2.185880
  N     -5.844200   17.455000   -3.227800
  C     -5.704230   16.156280   -3.355360
  C     -5.299570   19.470400   -2.027780
  N     -6.223940   20.303780   -2.603010
  C     -7.383730   19.919110   -3.371210
  C     -8.477500   19.338780   -2.479430
  C     -5.995990   21.647500   -2.256650
  O     -6.698940   22.564490   -2.637100
  C     -4.813700   21.609100   -1.427520
  C     -4.414540   20.246700   -1.301680
  C     -3.195210   20.207990   -0.518740
  O     -2.451510   19.319450   -0.178050
  N     -2.957580   21.569920   -0.200260
  C     -1.846970   21.944660    0.639770
  C     -2.285840   22.198740    2.080130
  C     -3.908570   22.399620   -0.734440
  C     -3.889050   23.827330   -0.579370
  C     -4.824120   24.624610   -1.099650
  H     -1.410940   -2.854260    0.920780
  H     -2.634040   -2.439110    3.261600
  H     -2.603440   -0.739840    3.800000
  H     -0.119130   -2.477270    3.343600
  H     -0.811870   -2.076210    4.919220
  H     -0.124660   -0.802490    3.906650
  H     -0.714920    0.007260   -3.940220
  H     -0.714500    1.724850   -3.481830
  H     -3.172860    0.008010   -4.127650
  H     -2.491390    1.265740   -5.163040
  H     -3.253090    1.698910   -3.627440
  H     -1.904470    3.010800   -2.069640
  H     -2.474690    2.833990    0.938070
  H     -2.677730    5.078000   -2.215880
  H     -2.737180    4.936240    2.093550
  H     -3.531610    8.383820    2.704010
  H     -3.412710   10.141120    3.029810
  H     -1.134030    8.352160    2.042960
  H     -1.313190    8.983300    3.682300
  H     -1.019390   10.094310    2.339900
  H     -3.944480   10.390470   -4.911160
  H     -3.996380   12.132000   -4.562060
  H     -6.320010   10.129290   -4.465540
  H     -6.112410   11.416060   -5.656750
  H     -6.487320   11.813420   -3.972090
  H     -4.100040   13.456650   -0.768880
  H     -5.175850   13.612070   -3.638160
  H     -3.814180   15.602090   -0.619400
  H     -6.202550   15.712380   -4.210270
  H     -7.085100   19.190910   -4.126460
  H     -7.741310   20.833990   -3.851690
  H     -8.126490   18.434450   -1.987960
  H     -9.349200   19.092980   -3.079320
  H     -8.768060   20.060940   -1.719860
  H     -1.347070   22.823490    0.222670
  H     -1.153160   21.099350    0.613070
  H     -3.010630   23.008460    2.130870
  H     -1.423910   22.460530    2.687720
  H     -2.741220   21.300960    2.490470
  H     -3.066810   24.245800   -0.015400
  H     -5.650890   24.228920   -1.665770
  H     -4.779160   25.692470   -0.971050

 Total Charge           Charge          ....    0
 Multiplicity           Mult            ....    1
 Number of Electrons    NEL             ....  424
 Basis Dimension        Dim             .... 1050

ORBITAL ENERGIES
----------------

  NO   OCC          E(Eh)            E(eV)
   0   2.0000     -19.191296      -522.2217
   1   2.0000     -19.186543      -522.0924
   2   2.0000     -19.186256      -522.0846
   3   2.0000     -19.182515      -521.9828
   4   2.0000     -19.182141      -521.9726
   5   2.0000     -19.176151      -521.8096
   6   2.0000     -14.454172      -393.3180
   7   2.0000     -14.451994      -393.2587
   8   2.0000     -14.450713      -393.2239
   9   2.0000     -14.446492      -393.1090
  10   2.0000     -14.445465      -393.0811
  11   2.0000     -14.440779      -392.9536
  12   2.0000     -14.424196      -392.5023
  13   2.0000     -14.421035      -392.4163
  14   2.0000     -14.418501      -392.3474
  15   2.0000     -14.413642      -392.2151
  16   2.0000     -10.373268      -282.2710
  17   2.0000     -10.372774      -282.2575
  18   2.0000     -10.370953      -282.2080
  19   2.0000     -10.366422      -282.0847
  20   2.0000     -10.365997      -282.0731
  21   2.0000     -10.360382      -281.9203
  22   2.0000     -10.357904      -281.8529
  23   2.0000     -10.353054      -281.7209
  24   2.0000     -10.343407      -281.4584
  25   2.0000     -10.340829      -281.3883
  26   2.0000     -10.336237      -281.2633
  27   2.0000     -10.332643      -281.1655
  28   2.0000     -10.331332      -281.1298
  29   2.0000     -10.331202      -281.1263
  30   2.0000     -10.329860      -281.0898
  31   2.0000     -10.329612      -281.0830
  32   2.0000     -10.326153      -280.9889
  33   2.0000     -10.322832      -280.8985
  34   2.0000     -10.309953      -280.5481
  35   2.0000     -10.308784      -280.5163
  36   2.0000     -10.307100      -280.4704
  37   2.0000     -10.303255      -280.3658
  38   2.0000     -10.302959      -280.3578
  39   2.0000     -10.302538      -280.3463
  40   2.0000     -10.300891      -280.3015
  41   2.0000     -10.298722      -280.2425
  42   2.0000     -10.296795      -280.1900
  43   2.0000     -10.296065      -280.1702
  44   2.0000     -10.286444      -279.9084
  45   2.0000     -10.284328      -279.8508
  46   2.0000     -10.283749      -279.8350
  47   2.0000     -10.277225      -279.6575
  48   2.0000     -10.266044      -279.3532
  49   2.0000     -10.264757      -279.3182
  50   2.0000     -10.264194      -279.3029
  51   2.0000     -10.262918      -279.2682
  52   2.0000     -10.259779      -279.1828
  53   2.0000     -10.259379      -279.1719
  54   2.0000     -10.259051      -279.1630
  55   2.0000     -10.257643      -279.1247
  56   2.0000     -10.257355      -279.1168
  57   2.0000     -10.249604      -278.9059
  58   2.0000     -10.248000      -278.8623
  59   2.0000     -10.247992      -278.8620
  60   2.0000      -1.131929       -30.8014
  61   2.0000      -1.128870       -30.7181
  62   2.0000      -1.125175       -30.6176
  63   2.0000      -1.124363       -30.5955
  64   2.0000      -1.120492       -30.4901
  65   2.0000      -1.115318       -30.3494
  66   2.0000      -1.096192       -29.8289
  67   2.0000      -1.092084       -29.7171
  68   2.0000      -1.062733       -28.9184
  69   2.0000      -1.057727       -28.7822
  70   2.0000      -1.054293       -28.6888
  71   2.0000      -1.054233       -28.6871
  72   2.0000      -1.047124       -28.4937
  73   2.0000      -1.042178       -28.3591
  74   2.0000      -0.990152       -26.9434
  75   2.0000      -0.986033       -26.8313
  76   2.0000      -0.937046       -25.4983
  77   2.0000      -0.934271       -25.4228
  78   2.0000      -0.925926       -25.1957
  79   2.0000      -0.922922       -25.1140
  80   2.0000      -0.917662       -24.9709
  81   2.0000      -0.890008       -24.2183
  82   2.0000      -0.888155       -24.1679
  83   2.0000      -0.881046       -23.9745
  84   2.0000      -0.871681       -23.7196
  85   2.0000      -0.865010       -23.5381
  86   2.0000      -0.859468       -23.3873
  87   2.0000      -0.832674       -22.6582
  88   2.0000      -0.823990       -22.4219
  89   2.0000      -0.820864       -22.3369
  90   2.0000      -0.813697       -22.1418
  91   2.0000      -0.809692       -22.0329
  92   2.0000      -0.800920       -21.7941
  93   2.0000      -0.786276       -21.3956
  94   2.0000      -0.773182       -21.0393
  95   2.0000      -0.761877       -20.7317
  96   2.0000      -0.761725       -20.7276
  97   2.0000      -0.758841       -20.6491
  98   2.0000      -0.755336       -20.5537
  99   2.0000      -0.753154       -20.4944
 100   2.0000      -0.749597       -20.3976
 101   2.0000      -0.733440       -19.9579
 102   2.0000      -0.723354       -19.6835
 103   2.0000      -0.710395       -19.3308
 104   2.0000      -0.703913       -19.1544
 105   2.0000      -0.698295       -19.0016
 106   2.0000      -0.696104       -18.9420
 107   2.0000      -0.686158       -18.6713
 108   2.0000      -0.683663       -18.6034
 109   2.0000      -0.672684       -18.3047
 110   2.0000      -0.660058       -17.9611
 111   2.0000      -0.652111       -17.7448
 112   2.0000      -0.651032       -17.7155
 113   2.0000      -0.648997       -17.6601
 114   2.0000      -0.642685       -17.4884
 115   2.0000      -0.636529       -17.3208
 116   2.0000      -0.630509       -17.1570
 117   2.0000      -0.622275       -16.9330
 118   2.0000      -0.620484       -16.8842
 119   2.0000      -0.604339       -16.4449
 120   2.0000      -0.593686       -16.1550
 121   2.0000      -0.593031       -16.1372
 122   2.0000      -0.584347       -15.9009
 123   2.0000      -0.578784       -15.7495
 124   2.0000      -0.576337       -15.6829
 125   2.0000      -0.572220       -15.5709
 126   2.0000      -0.571181       -15.5426
 127   2.0000      -0.567462       -15.4414
 128   2.0000      -0.564868       -15.3708
 129   2.0000      -0.563480       -15.3331
 130   2.0000      -0.562063       -15.2945
 131   2.0000      -0.559968       -15.2375
 132   2.0000      -0.549037       -14.9400
 133   2.0000      -0.542368       -14.7586
 134   2.0000      -0.537279       -14.6201
 135   2.0000      -0.535224       -14.5642
 136   2.0000      -0.531416       -14.4606
 137   2.0000      -0.531181       -14.4542
 138   2.0000      -0.529424       -14.4064
 139   2.0000      -0.528418       -14.3790
 140   2.0000      -0.525593       -14.3021
 141   2.0000      -0.524781       -14.2800
 142   2.0000      -0.522175       -14.2091
 143   2.0000      -0.520349       -14.1594
 144   2.0000      -0.519059       -14.1243
 145   2.0000      -0.514815       -14.0088
 146   2.0000      -0.512204       -13.9378
 147   2.0000      -0.511968       -13.9313
 148   2.0000      -0.511591       -13.9211
 149   2.0000      -0.506445       -13.7811
 150   2.0000      -0.505562       -13.7570
 151   2.0000      -0.502825       -13.6826
 152   2.0000      -0.502241       -13.6667
 153   2.0000      -0.500555       -13.6208
 154   2.0000      -0.496640       -13.5143
 155   2.0000      -0.494232       -13.4487
 156   2.0000      -0.491921       -13.3858
 157   2.0000      -0.491135       -13.3645
 158   2.0000      -0.487490       -13.2653
 159   2.0000      -0.476587       -12.9686
 160   2.0000      -0.469311       -12.7706
 161   2.0000      -0.468179       -12.7398
 162   2.0000      -0.466822       -12.7029
 163   2.0000      -0.466354       -12.6901
 164   2.0000      -0.466041       -12.6816
 165   2.0000      -0.459261       -12.4971
 166   2.0000      -0.458088       -12.4652
 167   2.0000      -0.456800       -12.4301
 168   2.0000      -0.455797       -12.4029
 169   2.0000      -0.455046       -12.3824
 170   2.0000      -0.451785       -12.2937
 171   2.0000      -0.451025       -12.2730
 172   2.0000      -0.448690       -12.2095
 173   2.0000      -0.448552       -12.2057
 174   2.0000      -0.444784       -12.1032
 175   2.0000      -0.441027       -12.0009
 176   2.0000      -0.440658       -11.9909
 177   2.0000      -0.437146       -11.8953
 178   2.0000      -0.434001       -11.8098
 179   2.0000      -0.433215       -11.7884
 180   2.0000      -0.429172       -11.6784
 181   2.0000      -0.428384       -11.6569
 182   2.0000      -0.425897       -11.5892
 183   2.0000      -0.419092       -11.4041
 184   2.0000      -0.418174       -11.3791
 185   2.0000      -0.416564       -11.3353
 186   2.0000      -0.412285       -11.2188
 187   2.0000      -0.407668       -11.0932
 188   2.0000      -0.405230       -11.0269
 189   2.0000      -0.401603       -10.9282
 190   2.0000      -0.399075       -10.8594
 191   2.0000      -0.387422       -10.5423
 192   2.0000      -0.385784       -10.4977
 193   2.0000      -0.381714       -10.3870
 194   2.0000      -0.378681       -10.3044
 195   2.0000      -0.347178        -9.4472
 196   2.0000      -0.343848        -9.3566
 197   2.0000      -0.342540        -9.3210
 198   2.0000      -0.337378        -9.1805
 199   2.0000      -0.330376        -8.9900
 200   2.0000      -0.329046        -8.9538
 201   2.0000      -0.325287        -8.8515
 202   2.0000      -0.323094        -8.7918
 203   2.0000      -0.321711        -8.7542
 204   2.0000      -0.318493        -8.6666
 205   2.0000      -0.315962        -8.5978
 206   2.0000      -0.313565        -8.5325
 207   2.0000      -0.309675        -8.4267
 208   2.0000      -0.304072        -8.2742
 209   2.0000      -0.255049        -6.9402
 210   2.0000      -0.244680        -6.6581
 211   2.0000      -0.232811        -6.3351
 212   0.0000      -0.097485        -2.6527
 213   0.0000      -0.071851        -1.9552
 214   0.0000      -0.051162        -1.3922
 215   0.0000      -0.017344        -0.4720
 216   0.0000      -0.007555        -0.2056

MULLIKEN ATOMIC CHARGES
-----------------------
   0 C :    0.037132
   1 N :   -0.258314
   2 C :    0.110826
   3 C :   -0.000880
   4 C :    0.177673
   5 O :   -0.219297
   6 C :   -0.106913
   7 C :    0.005103
   8 C :    0.165322
   9 O :   -0.184763
  10 N :   -0.272769
  11 C :    0.098195
  12 C :    0.004464
  13 C :    0.153510
  14 C :   -0.004859
  15 C :    0.015054
  16 C :    0.020381
  17 C :    0.036820
  18 N :    0.005233
  19 C :   -0.192299
  20 N :   -0.047102
  21 C :    0.041377
  22 C :    0.199674
  23 N :   -0.260312
  24 C :    0.134513
  25 C :    0.001128
  26 C :    0.146808
  27 O :   -0.194616
  28 C :   -0.053381
  29 C :   -0.044247
  30 C :    0.143001
  31 O :   -0.160393
  32 N :   -0.274200
  33 C :    0.104114
  34 C :    0.003966
  35 C :    0.117049
  36 C :   -0.016358
  37 C :    0.012124
  38 C :    0.020472
  39 C :    0.041321
  40 N :   -0.002014
  41 C :   -0.189880
  42 N :   -0.046714
  43 C :    0.034228
  44 C :    0.188077
  45 N :   -0.257031
  46 C :    0.131299
  47 C :   -0.001113
  48 C :    0.161746
  49 O :   -0.215415
  50 C :   -0.078962
  51 C :   -0.037836
  52 C :    0.146466
  53 O :   -0.159191
  54 N :   -0.272362
  55 C :    0.097298
  56 C :    0.004555
  57 C :    0.121390
  58 C :   -0.039269
  59 C :    0.019328
  60 H :    0.016140
  61 H :    0.019090
  62 H :    0.042334
  63 H :    0.015722
  64 H :    0.023694
  65 H :    0.030217
  66 H :    0.044463
  67 H :    0.022888
  68 H :    0.030879
  69 H :    0.024635
  70 H :    0.013266
  71 H :   -0.024688
  72 H :    0.018001
  73 H :    0.012181
  74 H :    0.020995
  75 H :    0.029878
  76 H :    0.031739
  77 H :    0.010964
  78 H :    0.016651
  79 H :    0.019365
  80 H :    0.039803
  81 H :    0.021263
  82 H :    0.031319
  83 H :    0.019829
  84 H :    0.017199
  85 H :    0.015329
  86 H :   -0.014973
  87 H :    0.026431
  88 H :    0.002423
  89 H :    0.028594
  90 H :    0.031025
  91 H :    0.011263
  92 H :    0.015088
  93 H :    0.021350
  94 H :    0.021612
  95 H :    0.044038
  96 H :    0.015003
  97 H :    0.021387
  98 H :    0.030928
  99 H :   -0.018083
 100 H :    0.060088
 101 H :    0.031510
Sum of atomic charges:   -0.0000000

LOEWDIN ATOMIC CHARGES
----------------------
   0 C :    0.089304
   1 N :    0.001168
   2 C :    0.038294
   3 C :   -0.060381
   4 C :    0.077480
   5 O :   -0.209330
   6 C :   -0.131984
   7 C :   -0.127236
   8 C :    0.082508
   9 O :   -0.189212
  10 N :   -0.008904
  11 C :    0.035127
  12 C :   -0.061160
  13 C :    0.085776
  14 C :   -0.043010
  15 C :    0.033050
  16 C :   -0.073128
  17 C :    0.063708
  18 N :   -0.041782
  19 C :    0.018080
  20 N :   -0.068040
  21 C :    0.060612
  22 C :    0.057196
  23 N :    0.007851
  24 C :    0.034038
  25 C :   -0.060788
  26 C :    0.075386
  27 O :   -0.198564
  28 C :   -0.117906
  29 C :   -0.099953
  30 C :    0.086106
  31 O :   -0.168086
  32 N :   -0.009392
  33 C :    0.034077
  34 C :   -0.063813
  35 C :    0.078940
  36 C :   -0.021888
  37 C :   -0.002598
  38 C :   -0.073161
  39 C :    0.068778
  40 N :   -0.043033
  41 C :    0.019017
  42 N :   -0.071117
  43 C :    0.049550
  44 C :    0.048410
  45 N :    0.009195
  46 C :    0.033193
  47 C :   -0.061064
  48 C :    0.077423
  49 O :   -0.207704
  50 C :   -0.132944
  51 C :   -0.093782
  52 C :    0.086140
  53 O :   -0.166316
  54 N :   -0.006720
  55 C :    0.034872
  56 C :   -0.061393
  57 C :    0.093279
  58 C :   -0.056249
  59 C :    0.032900
  60 H :    0.032966
  61 H :    0.024859
  62 H :    0.036147
  63 H :    0.022618
  64 H :    0.030456
  65 H :    0.031544
  66 H :    0.038413
  67 H :    0.022205
  68 H :    0.032887
  69 H :    0.031230
  70 H :    0.020790
  71 H :    0.027896
  72 H :    0.039473
  73 H :    0.027421
  74 H :    0.033138
  75 H :    0.023153
  76 H :    0.030469
  77 H :    0.018157
  78 H :    0.028798
  79 H :    0.026413
  80 H :    0.036575
  81 H :    0.021296
  82 H :    0.034151
  83 H :    0.029286
  84 H :    0.019707
  85 H :    0.046806
  86 H :    0.030641
  87 H :    0.033381
  88 H :    0.024989
  89 H :    0.021915
  90 H :    0.030318
  91 H :    0.018827
  92 H :    0.027966
  93 H :    0.027369
  94 H :    0.021794
  95 H :    0.037169
  96 H :    0.021700
  97 H :    0.029701
  98 H :    0.032821
  99 H :    0.029583
 100 H :    0.034063
 101 H :    0.030092

  Mayer bond orders larger than 0.100000
B(  0-C ,  1-N ) :   1.1866 B(  0-C ,  7-C ) :   1.4619 B(  0-C , 60-H ) :   0.9900
B(  1-N ,  2-C ) :   0.9423 B(  1-N ,  4-C ) :   1.0626 B(  2-C ,  3-C ) :   1.1187
B(  2-C , 61-H ) :   0.9539 B(  2-C , 62-H ) :   0.9346 B(  3-C , 63-H ) :   0.9690
B(  3-C , 64-H ) :   0.9687 B(  3-C , 65-H ) :   0.9673 B(  4-C ,  5-O ) :   2.0084
B(  4-C ,  6-C ) :   1.0049 B(  5-O , 72-H ) :   0.1166 B(  6-C ,  7-C ) :   1.2010
B(  6-C , 13-C ) :   1.3885 B(  7-C ,  8-C ) :   0.9493 B(  8-C ,  9-O ) :   2.1761
B(  8-C , 10-N ) :   1.0165 B( 10-N , 11-C ) :   0.9468 B( 10-N , 13-C ) :   1.1580
B( 11-C , 12-C ) :   1.1194 B( 11-C , 66-H ) :   0.9267 B( 11-C , 67-H ) :   0.9501
B( 12-C , 68-H ) :   0.9640 B( 12-C , 69-H ) :   0.9678 B( 12-C , 70-H ) :   0.9684
B( 13-C , 14-C ) :   1.1423 B( 14-C , 15-C ) :   1.6361 B( 14-C , 71-H ) :   0.9590
B( 15-C , 16-C ) :   1.0705 B( 15-C , 72-H ) :   0.9590 B( 16-C , 17-C ) :   1.2694
B( 16-C , 21-C ) :   1.3021 B( 17-C , 18-N ) :   1.6039 B( 17-C , 73-H ) :   0.9871
B( 18-N , 19-C ) :   1.6290 B( 18-N , 22-C ) :  -0.1261 B( 19-C , 20-N ) :   1.5019
B( 19-C , 22-C ) :   0.9858 B( 20-N , 21-C ) :   1.5515 B( 21-C , 74-H ) :   0.9884
B( 22-C , 23-N ) :   1.2115 B( 22-C , 29-C ) :   1.3908 B( 23-N , 24-C ) :   0.9371
B( 23-N , 26-C ) :   1.0395 B( 24-C , 25-C ) :   1.1231 B( 24-C , 75-H ) :   0.9342
B( 24-C , 76-H ) :   0.9270 B( 25-C , 77-H ) :   0.9671 B( 25-C , 78-H ) :   0.9686
B( 25-C , 79-H ) :   0.9667 B( 26-C , 27-O ) :   2.1232 B( 26-C , 28-C ) :   0.9794
B( 28-C , 29-C ) :   1.2302 B( 28-C , 35-C ) :   1.3421 B( 29-C , 30-C ) :   0.9488
B( 30-C , 31-O ) :   2.1755 B( 30-C , 32-N ) :   1.0118 B( 32-N , 33-C ) :   0.9483
B( 32-N , 35-C ) :   1.1819 B( 33-C , 34-C ) :   1.1155 B( 33-C , 80-H ) :   0.9251
B( 33-C , 81-H ) :   0.9510 B( 34-C , 82-H ) :   0.9605 B( 34-C , 83-H ) :   0.9692
B( 34-C , 84-H ) :   0.9666 B( 35-C , 36-C ) :   1.1696 B( 36-C , 37-C ) :   1.6227
B( 36-C , 85-H ) :   0.9413 B( 37-C , 38-C ) :   1.0719 B( 37-C , 86-H ) :   0.9818
B( 38-C , 39-C ) :   1.2779 B( 38-C , 43-C ) :   1.3014 B( 39-C , 40-N ) :   1.6011
B( 39-C , 87-H ) :   0.9843 B( 40-N , 41-C ) :   1.5927 B( 40-N , 44-C ) :  -0.1055
B( 41-C , 42-N ) :   1.5108 B( 41-C , 44-C ) :   0.9770 B( 42-N , 43-C ) :   1.5603
B( 43-C , 88-H ) :   0.9882 B( 44-C , 45-N ) :   1.1988 B( 44-C , 51-C ) :   1.4328
B( 45-N , 46-C ) :   0.9420 B( 45-N , 48-C ) :   1.0621 B( 46-C , 47-C ) :   1.1231
B( 46-C , 89-H ) :   0.9333 B( 46-C , 90-H ) :   0.9269 B( 47-C , 91-H ) :   0.9680
B( 47-C , 92-H ) :   0.9683 B( 47-C , 93-H ) :   0.9666 B( 48-C , 49-O ) :   2.0341
B( 48-C , 50-C ) :   0.9897 B( 50-C , 51-C ) :   1.2267 B( 50-C , 57-C ) :   1.3597
B( 51-C , 52-C ) :   0.9459 B( 52-C , 53-O ) :   2.1834 B( 52-C , 54-N ) :   1.0093
B( 54-N , 55-C ) :   0.9471 B( 54-N , 57-C ) :   1.1852 B( 55-C , 56-C ) :   1.1205
B( 55-C , 94-H ) :   0.9507 B( 55-C , 95-H ) :   0.9268 B( 56-C , 96-H ) :   0.9685
B( 56-C , 97-H ) :   0.9677 B( 56-C , 98-H ) :   0.9639 B( 57-C , 58-C ) :   1.1233
B( 58-C , 59-C ) :   1.8881 B( 58-C , 99-H ) :   0.9540 B( 59-C ,100-H ) :   0.9237
B( 59-C ,101-H ) :   0.9449

-----------------------------------------------------------------------------
         ABSORPTION SPECTRUM VIA TRANSITION ELECTRIC DIPOLE MOMENTS
-----------------------------------------------------------------------------
State   Energy  Wavelength   fosc         T2         TX        TY        TZ
        (cm-1)    (nm)                  (au**2)     (au)      (au)      (au)
-----------------------------------------------------------------------------
   0   15140.5    660.5   1.259814180  27.39310   0.52290  -5.04877   1.27654
   1   18628.9    536.8   0.205665410   3.63454  -1.06713  -0.34459  -1.54176
   2   20303.4    492.5   0.107824089   1.74833   0.24188   1.29170  -0.14607
   3   22407.8    446.3   0.012763470   0.18752   0.39716   0.09817   0.14194
   4   24759.6    403.9   0.107584356   1.43048   0.93152   0.22505   0.71562
   5   25356.7    394.4   0.002560927   0.03325   0.14836  -0.00478   0.10591
   6   26333.2    379.7   0.004352727   0.05442   0.16835  -0.14730  -0.06617
   7   26906.5    371.7   0.001193784   0.01461   0.02077  -0.11800  -0.01583
   8   27526.1    363.3   0.035990254   0.43044   0.04281  -0.53074   0.38330
   9   27665.5    361.5   0.004658420   0.05543  -0.01719   0.08698  -0.21811
  10   28287.3    353.5   0.082060406   0.95503  -0.15978   0.71508   0.64665
  11   28459.6    351.4   0.053520928   0.61911   0.04145   0.50011   0.60604
  12   28671.6    348.8   0.088995246   1.02186  -0.02062   0.36852   0.94108
  13   29818.0    335.4   0.007390642   0.08160   0.18450  -0.19911  -0.08895
  14   30403.5    328.9   0.016162219   0.17501  -0.17626   0.37756   0.03722
  15   30500.9    327.9   0.081514334   0.87983   0.28618  -0.82304  -0.34718
  16   31055.2    322.0   0.035598082   0.37737  -0.33060   0.44704  -0.26121
  17   31192.8    320.6   0.019856086   0.20956  -0.20996   0.37629   0.15454
  18   31296.0    319.5   0.007059889   0.07427  -0.09647   0.25469  -0.00941
  19   32450.6    308.2   0.380749181   3.86270  -0.39100   1.92427   0.08366
  20   32658.4    306.2   0.050701712   0.51110  -0.10066   0.70216   0.08907
  21   32925.5    303.7   0.576310761   5.76236  -0.42610   2.35698  -0.15951
  22   34276.3    291.7   0.264024372   2.53586   0.37394  -1.26943  -0.88576
  23   34745.5    287.8   0.000678096   0.00642  -0.01634   0.07412   0.02578
  24   34991.0    285.8   0.040014407   0.37647   0.02871  -0.47628   0.38576
  25   35885.9    278.7   0.003762388   0.03452  -0.00626   0.17277   0.06802
  26   36344.3    275.1   0.009610437   0.08705   0.17257   0.06283   0.23092
  27   36574.6    273.4   0.016658873   0.14995  -0.04379   0.26897   0.27510
  28   36667.8    272.7   0.006208722   0.05574  -0.01019  -0.08942  -0.21827
  29   37330.2    267.9   0.015118302   0.13333   0.07884  -0.21353   0.28551
  30   37597.4    266.0   0.003014081   0.02639   0.07682  -0.13374  -0.05105
  31   38323.4    260.9   0.014509111   0.12464   0.04352  -0.17094   0.30582
  32   38799.9    257.7   0.142616645   1.21008  -0.30441   0.88152   0.58339
  33   39652.4    252.2   0.102556602   0.85147  -0.25970   0.61161   0.64028
  34   39877.7    250.8   0.028425414   0.23467   0.00098   0.43495   0.21327
  35   40172.8    248.9   0.012795146   0.10485   0.01726   0.31560   0.07040
  36   40178.1    248.9   0.150704298   1.23484  -0.02322  -0.98495  -0.51399

FINAL SINGLE POINT ENERGY     -2697.531802624592

DIPOLE MOMENT
-------------
                                X             Y             Z
Electronic contribution:      0.59318       1.00962      -6.35986
Nuclear contribution   :     -0.24185      -2.04889       6.47851
                        -----------------------------------------
Total Dipole Moment    :      0.35132      -1.03927       0.11865
                        -----------------------------------------
Magnitude (a.u.)       :      1.10345
Magnitude (Debye)      :      2.80474

Rotational constants in cm-1:     0.003962     0.000293     0.000279
Rotational constants in MHz :   118.790416     8.771529     8.374924

                             ****ORCA TERMINATED NORMALLY****
TOTAL RUN TIME: 0 days 0 hours 8 minutes 7 seconds 312 msec
