                         Program Version 4.2.0 -  RELEASE  -
|  1> # ORCA input file
|  2> # SCF done       -154.442911850152          0.000328912169
|  3> ! CAM-B3LYP def2-SVP def2/J RIJCOSX Grid4 TightSCF
|  4> %maxcore 5000
|  5> %tddft
|  6>     Mode sTDDFT
|  7>     Ethresh 5.0
|  8>     maxcore 5000
|  9> end
| 10>
| 11> %pal
| 12>   nprocs 6
| 13>   end
| 14> * xyz 0 1
| 15>    C       -7.35763        -0.15958        -2.96899
| 16>    N       -6.15271         0.30155        -3.39749
| 17>    C       -5.11313        -0.48859        -4.00723
| 18>    C       -4.37413        -1.33635        -2.97503
| 19>    C       -5.99039         1.67825        -3.10318
| 20>    O       -4.99677         2.31257        -3.39205
| 21>    C       -7.22670         2.03430        -2.45218
| 22>    C       -8.05014         0.86653        -2.38951
| 23>    C       -9.28177         1.24277        -1.73074
| 24>    O      -10.27969         0.61946        -1.44568
| 25>    N       -9.11451         2.61587        -1.42644
| 26>    C      -10.20461         3.34026        -0.82060
| 27>    C      -10.92513         4.23670        -1.82475
| 28>    C       -7.89449         3.09114        -1.85769
| 29>    C       -7.31103         4.38934        -1.74237
| 30>    C       -7.75316         5.49289        -1.10693
| 31>    C       -7.00545         6.72517        -1.04462
| 32>    C       -5.96950         7.07876        -1.92380
| 33>    N       -5.26986         8.18091        -1.78402
| 34>    C       -5.58135         8.98997        -0.77651
| 35>    N       -6.59112         8.79995         0.06696
| 36>    C       -7.28616         7.69324        -0.06827
| 37>    C       -4.72164        10.16946        -0.57589
| 38>    N       -4.14334        10.69196        -1.65205
| 39>    C       -3.33416        11.71696        -1.44992
| 40>    C       -3.06343        12.21452        -0.18641
| 41>    C       -3.72095        11.59706         0.88514
| 42>    N       -4.56548        10.58967         0.66883
| 43>    C       -3.52886        11.97791         2.27464
| 44>    C       -2.42562        12.56343         2.75158
| 45>    C       -2.22969        12.85666         4.16283
| 46>    N       -3.27659        12.76566         4.98493
| 47>    C       -3.05491        13.03094         6.26016
| 48>    C       -1.80265        13.36364         6.74565
| 49>    C       -0.75579        13.41860         5.81400
| 50>    N       -0.99454        13.17948         4.52320
| 51>    C        0.60021        13.71561         6.22323
| 52>    C        1.61686        13.75134         5.35250
| 53>    C        3.01075        13.95087         5.69094
| 54>    C        3.57909        14.86367         6.65422
| 55>    C        2.92558        15.93513         7.29176
| 56>    O        1.62823        16.13063         6.94725
| 57>    C        0.93919        17.30897         7.31232
| 58>    C       -0.39745        17.28471         6.58601
| 59>    C        3.68166        16.68160         8.19051
| 60>    C        5.04864        16.40897         8.41817
| 61>    C        5.72719        15.39448         7.72394
| 62>    C        4.96871        14.64270         6.83696
| 63>    S        5.53607        13.37232         5.76573
| 64>    C        3.95833        13.15587         5.12591
| 65>    O        7.05098        15.29745         8.01037
| 66>    C        7.82468        14.21839         7.52335
| 67>    C        9.19555        14.31521         8.17497
| 68>    C        5.62947        17.28218         9.38583
| 69>    C        4.75430        18.17491         9.88169
| 70>    S        3.16936        18.01929         9.20541
| 71>    H       -7.63878        -1.18654        -3.11377
| 72>    H       -4.42098         0.21839        -4.47258
| 73>    H       -5.55170        -1.12552        -4.78113
| 74>    H       -3.92358        -0.69613        -2.22059
| 75>    H       -3.58865        -1.90854        -3.46059
| 76>    H       -5.05705        -2.02607        -2.48373
| 77>    H       -9.84156         3.91020         0.03868
| 78>    H      -10.89690         2.57401        -0.45720
| 79>    H      -10.24528         4.96295        -2.26460
| 80>    H      -11.73491         4.76690        -1.33081
| 81>    H      -11.34448         3.62997        -2.62359
| 82>    H       -6.34433         4.42747        -2.22908
| 83>    H       -8.68491         5.50222        -0.56169
| 84>    H       -5.70687         6.46084        -2.77263
| 85>    H       -8.09671         7.55492         0.63820
| 86>    H       -2.88674        12.14476        -2.33853
| 87>    H       -2.39629        13.04685        -0.03648
| 88>    H       -4.32030        11.69357         2.95267
| 89>    H       -1.57908        12.80206         2.12360
| 90>    H       -3.91861        12.96520         6.91094
| 91>    H       -1.63283        13.56526         7.79122
| 92>    H        0.75557        13.89084         7.27676
| 93>    H        1.40471        13.51068         4.31886
| 94>    H        1.51492        18.19461         7.01635
| 95>    H        0.77710        17.34135         8.39736
| 96>    H       -0.23488        17.22869         5.51318
| 97>    H       -0.95896        18.18451         6.81891
| 98>    H       -0.97252        16.41440         6.88994
| 99>    H        3.80408        12.39323         4.38736
|100>    H        7.92266        14.28043         6.43224
|101>    H        7.35010        13.26359         7.78166
|102>    H        9.66288        15.26161         7.91728
|103>    H        9.82404        13.50004         7.82896
|104>    H        9.09870        14.25849         9.25581
|105>    H        6.66190        17.21242         9.67274
|106>    H        4.91928        18.93727        10.61722
|107> *
|108>
|109>                          ****END OF INPUT****

CARTESIAN COORDINATES (ANGSTROEM)
---------------------------------
  C     -7.357630   -0.159580   -2.968990
  N     -6.152710    0.301550   -3.397490
  C     -5.113130   -0.488590   -4.007230
  C     -4.374130   -1.336350   -2.975030
  C     -5.990390    1.678250   -3.103180
  O     -4.996770    2.312570   -3.392050
  C     -7.226700    2.034300   -2.452180
  C     -8.050140    0.866530   -2.389510
  C     -9.281770    1.242770   -1.730740
  O    -10.279690    0.619460   -1.445680
  N     -9.114510    2.615870   -1.426440
  C    -10.204610    3.340260   -0.820600
  C    -10.925130    4.236700   -1.824750
  C     -7.894490    3.091140   -1.857690
  C     -7.311030    4.389340   -1.742370
  C     -7.753160    5.492890   -1.106930
  C     -7.005450    6.725170   -1.044620
  C     -5.969500    7.078760   -1.923800
  N     -5.269860    8.180910   -1.784020
  C     -5.581350    8.989970   -0.776510
  N     -6.591120    8.799950    0.066960
  C     -7.286160    7.693240   -0.068270
  C     -4.721640   10.169460   -0.575890
  N     -4.143340   10.691960   -1.652050
  C     -3.334160   11.716960   -1.449920
  C     -3.063430   12.214520   -0.186410
  C     -3.720950   11.597060    0.885140
  N     -4.565480   10.589670    0.668830
  C     -3.528860   11.977910    2.274640
  C     -2.425620   12.563430    2.751580
  C     -2.229690   12.856660    4.162830
  N     -3.276590   12.765660    4.984930
  C     -3.054910   13.030940    6.260160
  C     -1.802650   13.363640    6.745650
  C     -0.755790   13.418600    5.814000
  N     -0.994540   13.179480    4.523200
  C      0.600210   13.715610    6.223230
  C      1.616860   13.751340    5.352500
  C      3.010750   13.950870    5.690940
  C      3.579090   14.863670    6.654220
  C      2.925580   15.935130    7.291760
  O      1.628230   16.130630    6.947250
  C      0.939190   17.308970    7.312320
  C     -0.397450   17.284710    6.586010
  C      3.681660   16.681600    8.190510
  C      5.048640   16.408970    8.418170
  C      5.727190   15.394480    7.723940
  C      4.968710   14.642700    6.836960
  S      5.536070   13.372320    5.765730
  C      3.958330   13.155870    5.125910
  O      7.050980   15.297450    8.010370
  C      7.824680   14.218390    7.523350
  C      9.195550   14.315210    8.174970
  C      5.629470   17.282180    9.385830
  C      4.754300   18.174910    9.881690
  S      3.169360   18.019290    9.205410
  H     -7.638780   -1.186540   -3.113770
  H     -4.420980    0.218390   -4.472580
  H     -5.551700   -1.125520   -4.781130
  H     -3.923580   -0.696130   -2.220590
  H     -3.588650   -1.908540   -3.460590
  H     -5.057050   -2.026070   -2.483730
  H     -9.841560    3.910200    0.038680
  H    -10.896900    2.574010   -0.457200
  H    -10.245280    4.962950   -2.264600
  H    -11.734910    4.766900   -1.330810
  H    -11.344480    3.629970   -2.623590
  H     -6.344330    4.427470   -2.229080
  H     -8.684910    5.502220   -0.561690
  H     -5.706870    6.460840   -2.772630
  H     -8.096710    7.554920    0.638200
  H     -2.886740   12.144760   -2.338530
  H     -2.396290   13.046850   -0.036480
  H     -4.320300   11.693570    2.952670
  H     -1.579080   12.802060    2.123600
  H     -3.918610   12.965200    6.910940
  H     -1.632830   13.565260    7.791220
  H      0.755570   13.890840    7.276760
  H      1.404710   13.510680    4.318860
  H      1.514920   18.194610    7.016350
  H      0.777100   17.341350    8.397360
  H     -0.234880   17.228690    5.513180
  H     -0.958960   18.184510    6.818910
  H     -0.972520   16.414400    6.889940
  H      3.804080   12.393230    4.387360
  H      7.922660   14.280430    6.432240
  H      7.350100   13.263590    7.781660
  H      9.662880   15.261610    7.917280
  H      9.824040   13.500040    7.828960
  H      9.098700   14.258490    9.255810
  H      6.661900   17.212420    9.672740
  H      4.919280   18.937270   10.617220

 Total Charge           Charge          ....    0
 Multiplicity           Mult            ....    1
 Number of Electrons    NEL             ....  408
 Basis Dimension        Dim             ....  972

ORBITAL ENERGIES
----------------

  NO   OCC          E(Eh)            E(eV)
   0   2.0000     -88.946960     -2420.3698
   1   2.0000     -88.943262     -2420.2692
   2   2.0000     -19.241588      -523.5902
   3   2.0000     -19.238770      -523.5136
   4   2.0000     -19.186331      -522.0866
   5   2.0000     -19.182950      -521.9946
   6   2.0000     -14.450375      -393.2147
   7   2.0000     -14.448021      -393.1506
   8   2.0000     -14.404187      -391.9579
   9   2.0000     -14.403527      -391.9399
  10   2.0000     -14.397567      -391.7777
  11   2.0000     -14.396941      -391.7607
  12   2.0000     -14.396902      -391.7596
  13   2.0000     -14.396303      -391.7433
  14   2.0000     -10.369287      -282.1626
  15   2.0000     -10.369174      -282.1596
  16   2.0000     -10.337357      -281.2938
  17   2.0000     -10.332685      -281.1666
  18   2.0000     -10.332372      -281.1581
  19   2.0000     -10.332151      -281.1521
  20   2.0000     -10.330768      -281.1145
  21   2.0000     -10.330043      -281.0948
  22   2.0000     -10.328596      -281.0554
  23   2.0000     -10.322130      -280.8794
  24   2.0000     -10.320701      -280.8405
  25   2.0000     -10.317556      -280.7550
  26   2.0000     -10.317375      -280.7501
  27   2.0000     -10.316742      -280.7328
  28   2.0000     -10.316442      -280.7247
  29   2.0000     -10.311403      -280.5875
  30   2.0000     -10.309629      -280.5393
  31   2.0000     -10.306574      -280.4561
  32   2.0000     -10.303247      -280.3656
  33   2.0000     -10.297378      -280.2059
  34   2.0000     -10.297303      -280.2039
  35   2.0000     -10.295194      -280.1465
  36   2.0000     -10.291903      -280.0569
  37   2.0000     -10.291191      -280.0375
  38   2.0000     -10.290074      -280.0071
  39   2.0000     -10.287659      -279.9414
  40   2.0000     -10.277076      -279.6535
  41   2.0000     -10.276838      -279.6470
  42   2.0000     -10.276593      -279.6403
  43   2.0000     -10.273786      -279.5639
  44   2.0000     -10.271612      -279.5048
  45   2.0000     -10.270097      -279.4636
  46   2.0000     -10.269068      -279.4356
  47   2.0000     -10.268136      -279.4102
  48   2.0000     -10.264744      -279.3179
  49   2.0000     -10.262812      -279.2653
  50   2.0000     -10.260917      -279.2138
  51   2.0000     -10.260251      -279.1956
  52   2.0000     -10.257972      -279.1336
  53   2.0000     -10.257948      -279.1330
  54   2.0000     -10.256277      -279.0875
  55   2.0000     -10.255917      -279.0777
  56   2.0000      -8.042382      -218.8443
  57   2.0000      -8.038576      -218.7408
  58   2.0000      -6.012167      -163.5994
  59   2.0000      -6.008494      -163.4994
  60   2.0000      -6.007689      -163.4775
  61   2.0000      -6.003910      -163.3747
  62   2.0000      -6.003826      -163.3724
  63   2.0000      -5.999894      -163.2654
  64   2.0000      -1.147416       -31.2228
  65   2.0000      -1.146296       -31.1923
  66   2.0000      -1.127598       -30.6835
  67   2.0000      -1.120886       -30.5009
  68   2.0000      -1.086904       -29.5762
  69   2.0000      -1.071498       -29.1569
  70   2.0000      -1.063709       -28.9450
  71   2.0000      -1.058287       -28.7974
  72   2.0000      -1.048819       -28.5398
  73   2.0000      -0.987369       -26.8677
  74   2.0000      -0.976435       -26.5702
  75   2.0000      -0.970358       -26.4048
  76   2.0000      -0.966314       -26.2947
  77   2.0000      -0.965847       -26.2820
  78   2.0000      -0.928150       -25.2562
  79   2.0000      -0.923284       -25.1238
  80   2.0000      -0.908166       -24.7124
  81   2.0000      -0.899709       -24.4823
  82   2.0000      -0.891480       -24.2584
  83   2.0000      -0.882139       -24.0042
  84   2.0000      -0.874691       -23.8016
  85   2.0000      -0.867716       -23.6117
  86   2.0000      -0.858286       -23.3551
  87   2.0000      -0.843775       -22.9603
  88   2.0000      -0.837648       -22.7936
  89   2.0000      -0.824635       -22.4395
  90   2.0000      -0.817184       -22.2367
  91   2.0000      -0.812236       -22.1021
  92   2.0000      -0.808523       -22.0010
  93   2.0000      -0.801437       -21.8082
  94   2.0000      -0.784045       -21.3349
  95   2.0000      -0.770772       -20.9738
  96   2.0000      -0.764322       -20.7983
  97   2.0000      -0.757988       -20.6259
  98   2.0000      -0.750941       -20.4342
  99   2.0000      -0.739320       -20.1179
 100   2.0000      -0.735599       -20.0167
 101   2.0000      -0.726413       -19.7667
 102   2.0000      -0.714307       -19.4373
 103   2.0000      -0.707729       -19.2583
 104   2.0000      -0.706283       -19.2189
 105   2.0000      -0.700418       -19.0593
 106   2.0000      -0.697410       -18.9775
 107   2.0000      -0.680412       -18.5149
 108   2.0000      -0.674456       -18.3529
 109   2.0000      -0.669230       -18.2107
 110   2.0000      -0.654656       -17.8141
 111   2.0000      -0.650341       -17.6967
 112   2.0000      -0.647958       -17.6318
 113   2.0000      -0.639296       -17.3961
 114   2.0000      -0.625103       -17.0099
 115   2.0000      -0.621735       -16.9183
 116   2.0000      -0.613021       -16.6812
 117   2.0000      -0.605522       -16.4771
 118   2.0000      -0.603667       -16.4266
 119   2.0000      -0.602504       -16.3950
 120   2.0000      -0.594739       -16.1837
 121   2.0000      -0.591501       -16.0956
 122   2.0000      -0.586216       -15.9518
 123   2.0000      -0.576677       -15.6922
 124   2.0000      -0.574822       -15.6417
 125   2.0000      -0.571268       -15.5450
 126   2.0000      -0.569155       -15.4875
 127   2.0000      -0.567453       -15.4412
 128   2.0000      -0.563995       -15.3471
 129   2.0000      -0.560734       -15.2584
 130   2.0000      -0.556967       -15.1558
 131   2.0000      -0.546990       -14.8843
 132   2.0000      -0.533845       -14.5267
 133   2.0000      -0.530540       -14.4367
 134   2.0000      -0.527704       -14.3596
 135   2.0000      -0.527088       -14.3428
 136   2.0000      -0.525405       -14.2970
 137   2.0000      -0.523108       -14.2345
 138   2.0000      -0.516480       -14.0541
 139   2.0000      -0.516081       -14.0433
 140   2.0000      -0.514678       -14.0051
 141   2.0000      -0.511277       -13.9125
 142   2.0000      -0.510085       -13.8801
 143   2.0000      -0.506900       -13.7934
 144   2.0000      -0.503074       -13.6893
 145   2.0000      -0.502614       -13.6768
 146   2.0000      -0.498898       -13.5757
 147   2.0000      -0.497166       -13.5286
 148   2.0000      -0.495507       -13.4834
 149   2.0000      -0.491319       -13.3695
 150   2.0000      -0.490088       -13.3360
 151   2.0000      -0.483725       -13.1628
 152   2.0000      -0.478570       -13.0225
 153   2.0000      -0.474037       -12.8992
 154   2.0000      -0.469195       -12.7674
 155   2.0000      -0.469084       -12.7644
 156   2.0000      -0.467860       -12.7311
 157   2.0000      -0.465625       -12.6703
 158   2.0000      -0.464374       -12.6362
 159   2.0000      -0.463995       -12.6260
 160   2.0000      -0.463134       -12.6025
 161   2.0000      -0.459174       -12.4948
 162   2.0000      -0.453167       -12.3313
 163   2.0000      -0.452147       -12.3035
 164   2.0000      -0.449660       -12.2359
 165   2.0000      -0.448431       -12.2024
 166   2.0000      -0.446938       -12.1618
 167   2.0000      -0.443090       -12.0571
 168   2.0000      -0.436925       -11.8893
 169   2.0000      -0.436714       -11.8836
 170   2.0000      -0.433568       -11.7980
 171   2.0000      -0.429450       -11.6859
 172   2.0000      -0.426088       -11.5944
 173   2.0000      -0.419504       -11.4153
 174   2.0000      -0.418393       -11.3850
 175   2.0000      -0.411031       -11.1847
 176   2.0000      -0.406137       -11.0515
 177   2.0000      -0.404623       -11.0103
 178   2.0000      -0.401758       -10.9324
 179   2.0000      -0.401091       -10.9143
 180   2.0000      -0.393169       -10.6987
 181   2.0000      -0.391225       -10.6458
 182   2.0000      -0.387614       -10.5475
 183   2.0000      -0.387376       -10.5410
 184   2.0000      -0.374470       -10.1899
 185   2.0000      -0.370137       -10.0719
 186   2.0000      -0.366328        -9.9683
 187   2.0000      -0.363632        -9.8949
 188   2.0000      -0.352338        -9.5876
 189   2.0000      -0.348114        -9.4727
 190   2.0000      -0.342209        -9.3120
 191   2.0000      -0.339510        -9.2385
 192   2.0000      -0.325620        -8.8606
 193   2.0000      -0.322858        -8.7854
 194   2.0000      -0.322029        -8.7629
 195   2.0000      -0.313319        -8.5258
 196   2.0000      -0.311790        -8.4842
 197   2.0000      -0.309035        -8.4093
 198   2.0000      -0.300199        -8.1688
 199   2.0000      -0.297341        -8.0911
 200   2.0000      -0.291718        -7.9381
 201   2.0000      -0.280225        -7.6253
 202   2.0000      -0.245681        -6.6853
 203   2.0000      -0.227125        -6.1804
 204   0.0000      -0.070613        -1.9215
 205   0.0000      -0.036801        -1.0014
 206   0.0000      -0.022926        -0.6239
 207   0.0000      -0.013117        -0.3569
 208   0.0000       0.001849         0.0503

MULLIKEN ATOMIC CHARGES
-----------------------
   0 C :    0.047686
   1 N :   -0.265254
   2 C :    0.109161
   3 C :   -0.001130
   4 C :    0.159522
   5 O :   -0.194801
   6 C :   -0.076690
   7 C :    0.009150
   8 C :    0.160350
   9 O :   -0.188120
  10 N :   -0.277118
  11 C :    0.099772
  12 C :    0.000262
  13 C :    0.127793
  14 C :   -0.023822
  15 C :    0.025145
  16 C :    0.010264
  17 C :    0.033992
  18 N :   -0.025679
  19 C :   -0.051129
  20 N :   -0.022770
  21 C :    0.026618
  22 C :   -0.045709
  23 N :   -0.042134
  24 C :    0.075030
  25 C :   -0.039519
  26 C :    0.032241
  27 N :   -0.032148
  28 C :    0.064826
  29 C :    0.048744
  30 C :   -0.075893
  31 N :   -0.074641
  32 C :    0.073999
  33 C :   -0.043240
  34 C :    0.025814
  35 N :   -0.055777
  36 C :    0.040275
  37 C :    0.005801
  38 C :    0.077150
  39 C :    0.076343
  40 C :    0.086514
  41 O :   -0.314665
  42 C :    0.123153
  43 C :    0.024790
  44 C :   -0.140450
  45 C :    0.028185
  46 C :    0.120403
  47 C :   -0.160816
  48 S :    0.083650
  49 C :   -0.092401
  50 O :   -0.312949
  51 C :    0.123837
  52 C :    0.020974
  53 C :    0.021331
  54 C :   -0.039769
  55 S :    0.067362
  56 H :    0.016230
  57 H :    0.043702
  58 H :    0.018650
  59 H :    0.031068
  60 H :    0.023436
  61 H :    0.014199
  62 H :    0.021942
  63 H :    0.044609
  64 H :    0.021421
  65 H :    0.020876
  66 H :    0.026395
  67 H :    0.012081
  68 H :   -0.012492
  69 H :    0.017569
  70 H :    0.001887
  71 H :    0.004556
  72 H :   -0.001522
  73 H :    0.018558
  74 H :   -0.012959
  75 H :    0.003662
  76 H :   -0.009554
  77 H :   -0.025444
  78 H :    0.008753
  79 H :    0.025884
  80 H :    0.027101
  81 H :    0.030831
  82 H :    0.016019
  83 H :    0.018710
  84 H :    0.021992
  85 H :    0.030518
  86 H :    0.025687
  87 H :    0.025680
  88 H :    0.017692
  89 H :    0.026252
  90 H :   -0.013049
  91 H :    0.025553
Sum of atomic charges:   -0.0000000

LOEWDIN ATOMIC CHARGES
----------------------
   0 C :    0.097974
   1 N :   -0.003727
   2 C :    0.037728
   3 C :   -0.060533
   4 C :    0.077163
   5 O :   -0.197104
   6 C :   -0.120425
   7 C :   -0.132976
   8 C :    0.084155
   9 O :   -0.190040
  10 N :   -0.012526
  11 C :    0.033672
  12 C :   -0.063301
  13 C :    0.077522
  14 C :   -0.024924
  15 C :   -0.000509
  16 C :   -0.072619
  17 C :    0.057720
  18 N :   -0.054099
  19 C :    0.019990
  20 N :   -0.057645
  21 C :    0.048043
  22 C :    0.011414
  23 N :   -0.068412
  24 C :    0.045863
  25 C :   -0.052978
  26 C :    0.031908
  27 N :   -0.064123
  28 C :    0.007552
  29 C :   -0.020382
  30 C :    0.026446
  31 N :   -0.095081
  32 C :    0.048813
  33 C :   -0.074184
  34 C :    0.039965
  35 N :   -0.090639
  36 C :   -0.042069
  37 C :    0.023127
  38 C :   -0.056010
  39 C :   -0.060254
  40 C :    0.024447
  41 O :   -0.091348
  42 C :    0.069338
  43 C :   -0.058905
  44 C :   -0.185550
  45 C :   -0.064177
  46 C :    0.025451
  47 C :   -0.184653
  48 S :    0.408096
  49 C :   -0.163031
  50 O :   -0.104455
  51 C :    0.068946
  52 C :   -0.059322
  53 C :   -0.050833
  54 C :   -0.168814
  55 S :    0.392592
  56 H :    0.033142
  57 H :    0.036845
  58 H :    0.024430
  59 H :    0.031999
  60 H :    0.030220
  61 H :    0.022086
  62 H :    0.018985
  63 H :    0.037720
  64 H :    0.021744
  65 H :    0.030111
  66 H :    0.032113
  67 H :    0.046059
  68 H :    0.029870
  69 H :    0.028762
  70 H :    0.023975
  71 H :    0.025502
  72 H :    0.033257
  73 H :    0.041800
  74 H :    0.029278
  75 H :    0.025119
  76 H :    0.030955
  77 H :    0.023532
  78 H :    0.033223
  79 H :    0.011547
  80 H :    0.006000
  81 H :    0.032058
  82 H :    0.030218
  83 H :    0.026719
  84 H :    0.025711
  85 H :    0.008093
  86 H :    0.010175
  87 H :    0.029376
  88 H :    0.031153
  89 H :    0.029309
  90 H :    0.032481
  91 H :    0.024156

  Mayer bond orders larger than 0.100000
B(  0-C ,  1-N ) :   1.1968 B(  0-C ,  7-C ) :   1.4541 B(  0-C , 56-H ) :   0.9895
B(  1-N ,  2-C ) :   0.9410 B(  1-N ,  4-C ) :   1.0303 B(  2-C ,  3-C ) :   1.1193
B(  2-C , 57-H ) :   0.9346 B(  2-C , 58-H ) :   0.9541 B(  3-C , 59-H ) :   0.9674
B(  3-C , 60-H ) :   0.9687 B(  3-C , 61-H ) :   0.9691 B(  4-C ,  5-O ) :   2.1203
B(  4-C ,  6-C ) :   0.9914 B(  6-C ,  7-C ) :   1.1878 B(  6-C , 13-C ) :   1.4025
B(  7-C ,  8-C ) :   0.9545 B(  8-C ,  9-O ) :   2.1660 B(  8-C , 10-N ) :   1.0165
B( 10-N , 11-C ) :   0.9459 B( 10-N , 13-C ) :   1.1597 B( 11-C , 12-C ) :   1.1164
B( 11-C , 62-H ) :   0.9510 B( 11-C , 63-H ) :   0.9228 B( 12-C , 64-H ) :   0.9683
B( 12-C , 65-H ) :   0.9679 B( 12-C , 66-H ) :   0.9621 B( 13-C , 14-C ) :   1.1643
B( 14-C , 15-C ) :   1.6421 B( 14-C , 67-H ) :   0.9434 B( 15-C , 16-C ) :   1.0543
B( 15-C , 68-H ) :   0.9806 B( 16-C , 17-C ) :   1.3121 B( 16-C , 21-C ) :   1.3066
B( 17-C , 18-N ) :   1.5829 B( 17-C , 69-H ) :   0.9840 B( 18-N , 19-C ) :   1.5661
B( 19-C , 20-N ) :   1.5676 B( 19-C , 22-C ) :   0.9009 B( 20-N , 21-C ) :   1.5755
B( 21-C , 70-H ) :   0.9898 B( 22-C , 23-N ) :   1.5845 B( 22-C , 27-N ) :   1.5841
B( 23-N , 24-C ) :   1.5374 B( 24-C , 25-C ) :   1.3840 B( 24-C , 71-H ) :   0.9810
B( 25-C , 26-C ) :   1.3553 B( 25-C , 72-H ) :   0.9702 B( 26-C , 27-N ) :   1.5005
B( 26-C , 28-C ) :   1.0196 B( 28-C , 29-C ) :   1.7474 B( 28-C , 73-H ) :   0.9725
B( 29-C , 30-C ) :   1.0241 B( 29-C , 74-H ) :   0.9639 B( 30-C , 31-N ) :   1.5323
B( 30-C , 35-N ) :   1.5462 B( 31-N , 32-C ) :   1.5455 B( 32-C , 33-C ) :   1.3716
B( 32-C , 75-H ) :   0.9815 B( 33-C , 34-C ) :   1.3258 B( 33-C , 76-H ) :   0.9737
B( 34-C , 35-N ) :   1.5087 B( 34-C , 36-C ) :   1.0934 B( 36-C , 37-C ) :   1.7754
B( 36-C , 77-H ) :   0.9669 B( 37-C , 38-C ) :   1.0197 B( 37-C , 78-H ) :   0.9544
B( 38-C , 39-C ) :   1.1376 B( 38-C , 49-C ) :   1.6076 B( 39-C , 40-C ) :   1.3408
B( 39-C , 45-C ) :   0.1042 B( 39-C , 47-C ) :   1.3103 B( 40-C , 41-O ) :   1.1893
B( 40-C , 44-C ) :   1.3557 B( 41-O , 42-C ) :   0.9389 B( 42-C , 43-C ) :   1.0979
B( 42-C , 79-H ) :   0.9508 B( 42-C , 80-H ) :   0.9454 B( 43-C , 81-H ) :   0.9676
B( 43-C , 82-H ) :   0.9601 B( 43-C , 83-H ) :   0.9679 B( 44-C , 45-C ) :   1.3322
B( 44-C , 55-S ) :   1.0236 B( 45-C , 46-C ) :   1.3216 B( 45-C , 53-C ) :   1.1776
B( 46-C , 47-C ) :   1.3740 B( 46-C , 50-O ) :   1.2118 B( 47-C , 48-S ) :   1.0209
B( 48-S , 49-C ) :   1.1027 B( 49-C , 84-H ) :   0.9685 B( 50-O , 51-C ) :   0.9333
B( 51-C , 52-C ) :   1.0998 B( 51-C , 85-H ) :   0.9468 B( 51-C , 86-H ) :   0.9495
B( 52-C , 87-H ) :   0.9691 B( 52-C , 88-H ) :   0.9613 B( 52-C , 89-H ) :   0.9691
B( 53-C , 54-C ) :   1.6388 B( 53-C , 90-H ) :   1.0019 B( 54-C , 55-S ) :   1.0931
B( 54-C , 91-H ) :   0.9688

-----------------------------------------------------------------------------
         ABSORPTION SPECTRUM VIA TRANSITION ELECTRIC DIPOLE MOMENTS
-----------------------------------------------------------------------------
State   Energy  Wavelength   fosc         T2         TX        TY        TZ
        (cm-1)    (nm)                  (au**2)     (au)      (au)      (au)
-----------------------------------------------------------------------------
   0   22162.8    451.2   0.527339121   7.83323  -0.67905   2.43646   1.19825
   1   26432.9    378.3   0.242001946   3.01404   1.71908   0.16177   0.18064
   2   27831.4    359.3   0.005460902   0.06460  -0.24351   0.00461  -0.07264
   3   28684.5    348.6   0.001627586   0.01868  -0.09285  -0.09995  -0.00821
   4   29025.1    344.5   0.009563232   0.10847  -0.17794   0.22496   0.16186
   5   29914.3    334.3   0.018018119   0.19829   0.36465  -0.25431   0.02544
   6   30763.4    325.1   0.009461363   0.10125   0.01381  -0.30043  -0.10393
   7   30773.9    325.0   0.369139633   3.94897   0.06738  -1.60719  -1.16678
   8   32623.0    306.5   0.102412874   1.03349  -0.35140  -0.93230  -0.20206
   9   33443.0    299.0   0.218354828   2.14948   0.20301   1.35546   0.52056
  10   34007.7    294.1   0.008525054   0.08253  -0.18429   0.12725   0.17993
  11   34496.8    289.9   0.495845218   4.73199  -1.56892  -1.50507  -0.07223
  12   34729.4    287.9   0.002165316   0.02053   0.11930   0.07811   0.01382
  13   35019.7    285.6   0.326110763   3.06569  -0.89860  -1.50077  -0.07676
  14   35858.3    278.9   0.018896149   0.17348  -0.37622   0.09999  -0.14812
  15   35991.2    277.8   0.112718523   1.03104  -0.79734  -0.61693  -0.12122
  16   36752.7    272.1   0.182011303   1.63037  -0.47239  -0.79337  -0.88192
  17   37387.6    267.5   0.008685784   0.07648   0.05099  -0.26507   0.06017
  18   37658.1    265.5   0.088806794   0.77636  -0.70258  -0.48886   0.20918
  19   38611.4    259.0   0.138844982   1.18383   0.68465   0.52167   0.66554
  20   38887.1    257.2   0.403846305   3.41889  -1.81584  -0.23878  -0.25421
  21   39121.9    255.6   0.327026629   2.75194  -1.62903  -0.14665  -0.27694
  22   39765.5    251.5   0.037265933   0.30852  -0.25370   0.21641   0.44420
  23   40318.9    248.0   0.086928930   0.70979  -0.17811  -0.26618  -0.77924

FINAL SINGLE POINT ENERGY     -3154.228834598948

DIPOLE MOMENT
-------------
                                X             Y             Z
Electronic contribution:      3.04447      19.09980       3.40346
Nuclear contribution   :     -1.71382     -18.60550      -2.30215
                        -----------------------------------------
Total Dipole Moment    :      1.33066       0.49430       1.10131
                        -----------------------------------------
Magnitude (a.u.)       :      1.79662
Magnitude (Debye)      :      4.56666

Rotational constants in cm-1:     0.002801     0.000281     0.000266
Rotational constants in MHz :    83.962533     8.425111     7.985671

                             ****ORCA TERMINATED NORMALLY****
TOTAL RUN TIME: 0 days 0 hours 6 minutes 14 seconds 127 msec
