                         Program Version 4.2.0 -  RELEASE  -
|  1> # ORCA input file
|  2> # SCF done       -206.579343743471          0.000848213392
|  3> ! CAM-B3LYP def2-SVP def2/J RIJCOSX Grid4 TightSCF
|  4> %maxcore 5000
|  5> %tddft
|  6>     Mode sTDDFT
|  7>     Ethresh 5.0
|  8>     maxcore 5000
|  9> end
| 10>
| 11> %pal
| 12>   nprocs 6
| 13>   end
| 14> * xyz 0 1
| 15>    C        2.95772        13.44248         8.09413
| 16>    N        1.69383        13.00472         8.33488
| 17>    C        1.02256        13.01928         9.61008
| 18>    C        0.53261        14.42004         9.96840
| 19>    C        1.05419        12.59341         7.14318
| 20>    O       -0.08148        12.16139         7.11084
| 21>    C        2.04944        12.80892         6.12179
| 22>    C        3.22071        13.33574         6.75747
| 23>    C        4.22252        13.55512         5.73490
| 24>    O        5.35796        13.97270         5.77598
| 25>    N        3.58760        13.14697         4.54356
| 26>    C        4.25915        13.25426         3.27191
| 27>    C        3.83046        14.50256         2.50367
| 28>    C        2.29923        12.70961         4.76249
| 29>    C        1.43925        12.26052         3.72279
| 30>    C        0.18602        11.80079         3.94410
| 31>    C       -0.68596        11.39155         2.90333
| 32>    S       -0.29250        11.54380         1.17758
| 33>    C       -1.89553        10.87864         0.89221
| 34>    N       -2.53060        10.61110         1.99966
| 35>    N       -1.87081        10.89322         3.08597
| 36>    C       -2.42155        10.71082        -0.41754
| 37>    C       -3.65874        10.20923        -0.62320
| 38>    C       -4.32302        10.08375        -1.88092
| 39>    C       -5.50972         9.37795        -2.04210
| 40>    O       -6.17663         8.66592        -1.12420
| 41>    S       -6.18072         9.40656        -3.64172
| 42>    C       -4.86977        10.41938        -4.16272
| 43>    C       -3.96299        10.67696        -3.12731
| 44>    N       -2.97244        11.49599        -3.59160
| 45>    C       -3.24045        11.78026        -4.90514
| 46>    C       -4.42117        11.11586        -5.29003
| 47>    S       -4.83408        11.45498        -6.92598
| 48>    C       -3.41564        12.49115        -7.08371
| 49>    C       -2.67070        12.54762        -5.92354
| 50>    C       -3.14240        13.19693        -8.28449
| 51>    C       -3.95392        13.22618        -9.36487
| 52>    C       -3.70120        13.98283       -10.54417
| 53>    C       -2.59563        14.71367       -10.88954
| 54>    C       -2.70826        15.37966       -12.12872
| 55>    C       -1.75743        16.22176       -12.74616
| 56>    C       -0.44860        16.47779       -12.17908
| 57>    C        0.24685        17.65375       -12.16490
| 58>    C        1.52855        17.54118       -11.58988
| 59>    C        1.83003        16.28165       -11.17531
| 60>    S        0.51044        15.19870       -11.47991
| 61>    C        3.07759        15.78681       -10.53696
| 62>    C       -2.13484        16.79087       -13.95566
| 63>    C       -3.38139        16.52870       -14.58517
| 64>    C       -4.35737        15.72574       -13.94517
| 65>    C       -3.97633        15.16572       -12.73172
| 66>    S       -4.95356        14.09814       -11.76116
| 67>    C       -5.70550        15.59038       -14.45086
| 68>    C       -6.85946        15.59754       -13.71204
| 69>    C       -8.03024        15.54238       -14.48908
| 70>    C       -7.79502        15.47732       -15.82842
| 71>    S       -6.09332        15.47783       -16.14965
| 72>    C       -8.76782        15.47493       -16.94771
| 73>    C       -3.49884        17.20690       -15.80729
| 74>    C       -2.42496        18.00390       -16.12490
| 75>    S       -1.16587        17.87953       -14.90759
| 76>    C       -2.22460        18.80533       -17.26681
| 77>    C       -3.11163        19.17146       -18.24076
| 78>    C       -2.55030        19.63679       -19.54551
| 79>    O       -1.40925        19.96826       -19.76365
| 80>    C       -3.67712        19.54328       -20.48454
| 81>    C       -3.88923        19.71373       -21.81830
| 82>    S       -5.56082        19.39071       -22.22055
| 83>    C       -5.95349        19.04326       -20.57436
| 84>    C       -4.86184        19.16058       -19.77422
| 85>    C       -4.55033        19.06507       -18.35864
| 86>    C       -5.50330        19.08784       -17.36883
| 87>    C       -5.23364        19.32510       -16.00814
| 88>    N       -5.06543        19.55330       -14.89558
| 89>    C       -6.86742        18.89620       -17.65118
| 90>    N       -7.97627        18.67394       -17.85489
| 91>   Cl       -2.77212        20.17208       -23.00694
| 92>    H        3.58358        13.79360         8.89379
| 93>    H        1.70465        12.64451        10.37875
| 94>    H        0.17122        12.33909         9.52093
| 95>    H        1.36728        15.11515        10.03012
| 96>    H        0.02289        14.39950        10.92740
| 97>    H       -0.16225        14.77640         9.21189
| 98>    H        4.07778        12.35092         2.68243
| 99>    H        5.32705        13.31656         3.50053
|100>    H        2.76221        14.48929         2.29824
|101>    H        4.36802        14.55791         1.56105
|102>    H        4.05885        15.39102         3.08710
|103>    H        1.81686        12.29713         2.70921
|104>    H       -0.21967        11.73409         4.94493
|105>    H       -1.77844        11.00320        -1.23213
|106>    H       -4.20063         9.89836         0.26214
|107>    H       -5.73506         8.71208        -0.26456
|108>    H       -2.22689        11.89679        -3.05028
|109>    H       -1.77262        13.13074        -5.83164
|110>    H       -2.22312        13.76649        -8.28431
|111>    H       -4.88141        12.66923        -9.34179
|112>    H       -1.72411        14.77536       -10.26612
|113>    H       -0.15928        18.58298       -12.52056
|114>    H        2.20545        18.37102       -11.49082
|115>    H        3.78939        16.60225       -10.43414
|116>    H        3.53062        14.99816       -11.13732
|117>    H        2.86964        15.37452        -9.54965
|118>    H       -6.87209        15.69363       -12.64189
|119>    H       -9.01935        15.56074       -14.06786
|120>    H       -9.76430        15.24912       -16.57644
|121>    H       -8.49124        14.74404       -17.70562
|122>    H       -8.78679        16.45992       -17.42058
|123>    H       -4.32394        17.06930       -16.47740
|124>    H       -1.20235        19.12209       -17.45034
|125>    H       -6.95795        18.76837       -20.32093
|126> *
|127>
|128>                          ****END OF INPUT****

CARTESIAN COORDINATES (ANGSTROEM)
---------------------------------
  C      2.957720   13.442480    8.094130
  N      1.693830   13.004720    8.334880
  C      1.022560   13.019280    9.610080
  C      0.532610   14.420040    9.968400
  C      1.054190   12.593410    7.143180
  O     -0.081480   12.161390    7.110840
  C      2.049440   12.808920    6.121790
  C      3.220710   13.335740    6.757470
  C      4.222520   13.555120    5.734900
  O      5.357960   13.972700    5.775980
  N      3.587600   13.146970    4.543560
  C      4.259150   13.254260    3.271910
  C      3.830460   14.502560    2.503670
  C      2.299230   12.709610    4.762490
  C      1.439250   12.260520    3.722790
  C      0.186020   11.800790    3.944100
  C     -0.685960   11.391550    2.903330
  S     -0.292500   11.543800    1.177580
  C     -1.895530   10.878640    0.892210
  N     -2.530600   10.611100    1.999660
  N     -1.870810   10.893220    3.085970
  C     -2.421550   10.710820   -0.417540
  C     -3.658740   10.209230   -0.623200
  C     -4.323020   10.083750   -1.880920
  C     -5.509720    9.377950   -2.042100
  O     -6.176630    8.665920   -1.124200
  S     -6.180720    9.406560   -3.641720
  C     -4.869770   10.419380   -4.162720
  C     -3.962990   10.676960   -3.127310
  N     -2.972440   11.495990   -3.591600
  C     -3.240450   11.780260   -4.905140
  C     -4.421170   11.115860   -5.290030
  S     -4.834080   11.454980   -6.925980
  C     -3.415640   12.491150   -7.083710
  C     -2.670700   12.547620   -5.923540
  C     -3.142400   13.196930   -8.284490
  C     -3.953920   13.226180   -9.364870
  C     -3.701200   13.982830  -10.544170
  C     -2.595630   14.713670  -10.889540
  C     -2.708260   15.379660  -12.128720
  C     -1.757430   16.221760  -12.746160
  C     -0.448600   16.477790  -12.179080
  C      0.246850   17.653750  -12.164900
  C      1.528550   17.541180  -11.589880
  C      1.830030   16.281650  -11.175310
  S      0.510440   15.198700  -11.479910
  C      3.077590   15.786810  -10.536960
  C     -2.134840   16.790870  -13.955660
  C     -3.381390   16.528700  -14.585170
  C     -4.357370   15.725740  -13.945170
  C     -3.976330   15.165720  -12.731720
  S     -4.953560   14.098140  -11.761160
  C     -5.705500   15.590380  -14.450860
  C     -6.859460   15.597540  -13.712040
  C     -8.030240   15.542380  -14.489080
  C     -7.795020   15.477320  -15.828420
  S     -6.093320   15.477830  -16.149650
  C     -8.767820   15.474930  -16.947710
  C     -3.498840   17.206900  -15.807290
  C     -2.424960   18.003900  -16.124900
  S     -1.165870   17.879530  -14.907590
  C     -2.224600   18.805330  -17.266810
  C     -3.111630   19.171460  -18.240760
  C     -2.550300   19.636790  -19.545510
  O     -1.409250   19.968260  -19.763650
  C     -3.677120   19.543280  -20.484540
  C     -3.889230   19.713730  -21.818300
  S     -5.560820   19.390710  -22.220550
  C     -5.953490   19.043260  -20.574360
  C     -4.861840   19.160580  -19.774220
  C     -4.550330   19.065070  -18.358640
  C     -5.503300   19.087840  -17.368830
  C     -5.233640   19.325100  -16.008140
  N     -5.065430   19.553300  -14.895580
  C     -6.867420   18.896200  -17.651180
  N     -7.976270   18.673940  -17.854890
  Cl    -2.772120   20.172080  -23.006940
  H      3.583580   13.793600    8.893790
  H      1.704650   12.644510   10.378750
  H      0.171220   12.339090    9.520930
  H      1.367280   15.115150   10.030120
  H      0.022890   14.399500   10.927400
  H     -0.162250   14.776400    9.211890
  H      4.077780   12.350920    2.682430
  H      5.327050   13.316560    3.500530
  H      2.762210   14.489290    2.298240
  H      4.368020   14.557910    1.561050
  H      4.058850   15.391020    3.087100
  H      1.816860   12.297130    2.709210
  H     -0.219670   11.734090    4.944930
  H     -1.778440   11.003200   -1.232130
  H     -4.200630    9.898360    0.262140
  H     -5.735060    8.712080   -0.264560
  H     -2.226890   11.896790   -3.050280
  H     -1.772620   13.130740   -5.831640
  H     -2.223120   13.766490   -8.284310
  H     -4.881410   12.669230   -9.341790
  H     -1.724110   14.775360  -10.266120
  H     -0.159280   18.582980  -12.520560
  H      2.205450   18.371020  -11.490820
  H      3.789390   16.602250  -10.434140
  H      3.530620   14.998160  -11.137320
  H      2.869640   15.374520   -9.549650
  H     -6.872090   15.693630  -12.641890
  H     -9.019350   15.560740  -14.067860
  H     -9.764300   15.249120  -16.576440
  H     -8.491240   14.744040  -17.705620
  H     -8.786790   16.459920  -17.420580
  H     -4.323940   17.069300  -16.477400
  H     -1.202350   19.122090  -17.450340
  H     -6.957950   18.768370  -20.320930

 Total Charge           Charge          ....    0
 Multiplicity           Mult            ....    1
 Number of Electrons    NEL             ....  602
 Basis Dimension        Dim             .... 1284

ORBITAL ENERGIES
----------------

  NO   OCC          E(Eh)            E(eV)
   0   2.0000    -101.610795     -2764.9703
   1   2.0000     -88.985694     -2421.4238
   2   2.0000     -88.972523     -2421.0654
   3   2.0000     -88.968440     -2420.9543
   4   2.0000     -88.955390     -2420.5992
   5   2.0000     -88.949887     -2420.4495
   6   2.0000     -88.947959     -2420.3970
   7   2.0000     -88.947125     -2420.3743
   8   2.0000     -88.946919     -2420.3687
   9   2.0000     -19.281173      -524.6674
  10   2.0000     -19.209562      -522.7187
  11   2.0000     -19.189808      -522.1812
  12   2.0000     -19.185208      -522.0560
  13   2.0000     -14.473780      -393.8516
  14   2.0000     -14.452920      -393.2840
  15   2.0000     -14.451221      -393.2377
  16   2.0000     -14.440149      -392.9364
  17   2.0000     -14.434820      -392.7914
  18   2.0000     -14.417593      -392.3227
  19   2.0000     -14.411050      -392.1446
  20   2.0000     -10.379736      -282.4470
  21   2.0000     -10.371833      -282.2319
  22   2.0000     -10.371625      -282.2263
  23   2.0000     -10.368740      -282.1478
  24   2.0000     -10.366451      -282.0855
  25   2.0000     -10.347427      -281.5678
  26   2.0000     -10.342283      -281.4278
  27   2.0000     -10.341992      -281.4199
  28   2.0000     -10.340212      -281.3715
  29   2.0000     -10.338400      -281.3222
  30   2.0000     -10.329762      -281.0871
  31   2.0000     -10.322082      -280.8781
  32   2.0000     -10.321245      -280.8554
  33   2.0000     -10.319262      -280.8014
  34   2.0000     -10.316955      -280.7386
  35   2.0000     -10.311664      -280.5946
  36   2.0000     -10.309650      -280.5398
  37   2.0000     -10.309562      -280.5374
  38   2.0000     -10.309487      -280.5354
  39   2.0000     -10.308435      -280.5068
  40   2.0000     -10.306174      -280.4453
  41   2.0000     -10.306095      -280.4431
  42   2.0000     -10.305708      -280.4326
  43   2.0000     -10.304872      -280.4098
  44   2.0000     -10.302984      -280.3584
  45   2.0000     -10.301051      -280.3059
  46   2.0000     -10.299354      -280.2597
  47   2.0000     -10.298842      -280.2457
  48   2.0000     -10.298657      -280.2407
  49   2.0000     -10.298583      -280.2387
  50   2.0000     -10.296483      -280.1815
  51   2.0000     -10.295939      -280.1667
  52   2.0000     -10.294777      -280.1351
  53   2.0000     -10.294737      -280.1340
  54   2.0000     -10.294389      -280.1246
  55   2.0000     -10.294155      -280.1182
  56   2.0000     -10.293835      -280.1095
  57   2.0000     -10.293022      -280.0874
  58   2.0000     -10.292538      -280.0742
  59   2.0000     -10.290431      -280.0169
  60   2.0000     -10.288808      -279.9727
  61   2.0000     -10.287889      -279.9477
  62   2.0000     -10.287819      -279.9458
  63   2.0000     -10.285945      -279.8948
  64   2.0000     -10.285224      -279.8752
  65   2.0000     -10.280985      -279.7598
  66   2.0000     -10.274675      -279.5881
  67   2.0000     -10.267165      -279.3838
  68   2.0000     -10.266477      -279.3650
  69   2.0000     -10.266438      -279.3640
  70   2.0000     -10.265574      -279.3405
  71   2.0000     -10.264153      -279.3018
  72   2.0000     -10.262332      -279.2522
  73   2.0000     -10.261645      -279.2335
  74   2.0000     -10.259155      -279.1658
  75   2.0000     -10.258787      -279.1558
  76   2.0000     -10.258757      -279.1550
  77   2.0000      -9.565540      -260.2916
  78   2.0000      -8.081410      -219.9063
  79   2.0000      -8.068784      -219.5628
  80   2.0000      -8.064060      -219.4342
  81   2.0000      -8.050168      -219.0562
  82   2.0000      -8.045104      -218.9184
  83   2.0000      -8.043439      -218.8731
  84   2.0000      -8.042658      -218.8518
  85   2.0000      -8.042568      -218.8494
  86   2.0000      -7.336180      -199.6276
  87   2.0000      -7.325570      -199.3389
  88   2.0000      -7.325063      -199.3251
  89   2.0000      -6.050834      -164.6516
  90   2.0000      -6.046245      -164.5267
  91   2.0000      -6.043581      -164.4542
  92   2.0000      -6.037447      -164.2873
  93   2.0000      -6.034283      -164.2012
  94   2.0000      -6.033838      -164.1891
  95   2.0000      -6.031022      -164.1125
  96   2.0000      -6.029728      -164.0772
  97   2.0000      -6.025044      -163.9498
  98   2.0000      -6.019872      -163.8091
  99   2.0000      -6.015823      -163.6989
 100   2.0000      -6.014755      -163.6698
 101   2.0000      -6.012728      -163.6146
 102   2.0000      -6.012157      -163.5991
 103   2.0000      -6.011930      -163.5929
 104   2.0000      -6.011492      -163.5810
 105   2.0000      -6.010638      -163.5578
 106   2.0000      -6.008530      -163.5004
 107   2.0000      -6.008022      -163.4866
 108   2.0000      -6.007726      -163.4785
 109   2.0000      -6.006447      -163.4437
 110   2.0000      -6.005672      -163.4227
 111   2.0000      -6.004877      -163.4010
 112   2.0000      -6.004037      -163.3781
 113   2.0000      -1.179026       -32.0829
 114   2.0000      -1.141920       -31.0732
 115   2.0000      -1.130908       -30.7736
 116   2.0000      -1.126683       -30.6586
 117   2.0000      -1.124149       -30.5896
 118   2.0000      -1.091982       -29.7143
 119   2.0000      -1.061850       -28.8944
 120   2.0000      -1.053391       -28.6642
 121   2.0000      -1.030810       -28.0498
 122   2.0000      -1.012063       -27.5396
 123   2.0000      -1.006690       -27.3934
 124   2.0000      -0.992444       -27.0058
 125   2.0000      -0.982027       -26.7223
 126   2.0000      -0.978639       -26.6301
 127   2.0000      -0.977200       -26.5910
 128   2.0000      -0.976224       -26.5644
 129   2.0000      -0.971811       -26.4443
 130   2.0000      -0.970054       -26.3965
 131   2.0000      -0.951187       -25.8831
 132   2.0000      -0.946558       -25.7571
 133   2.0000      -0.933698       -25.4072
 134   2.0000      -0.925319       -25.1792
 135   2.0000      -0.922439       -25.1008
 136   2.0000      -0.902639       -24.5620
 137   2.0000      -0.899868       -24.4867
 138   2.0000      -0.898366       -24.4458
 139   2.0000      -0.888251       -24.1705
 140   2.0000      -0.885692       -24.1009
 141   2.0000      -0.871696       -23.7200
 142   2.0000      -0.870093       -23.6764
 143   2.0000      -0.857425       -23.3317
 144   2.0000      -0.850201       -23.1352
 145   2.0000      -0.839988       -22.8572
 146   2.0000      -0.835887       -22.7456
 147   2.0000      -0.832851       -22.6630
 148   2.0000      -0.825438       -22.4613
 149   2.0000      -0.822484       -22.3809
 150   2.0000      -0.820503       -22.3270
 151   2.0000      -0.817574       -22.2473
 152   2.0000      -0.815674       -22.1956
 153   2.0000      -0.814659       -22.1680
 154   2.0000      -0.809361       -22.0238
 155   2.0000      -0.794334       -21.6149
 156   2.0000      -0.791111       -21.5272
 157   2.0000      -0.783275       -21.3140
 158   2.0000      -0.770291       -20.9607
 159   2.0000      -0.767182       -20.8761
 160   2.0000      -0.761298       -20.7160
 161   2.0000      -0.746986       -20.3265
 162   2.0000      -0.743183       -20.2230
 163   2.0000      -0.740302       -20.1446
 164   2.0000      -0.731667       -19.9097
 165   2.0000      -0.721652       -19.6371
 166   2.0000      -0.710341       -19.3294
 167   2.0000      -0.706493       -19.2246
 168   2.0000      -0.694537       -18.8993
 169   2.0000      -0.690658       -18.7938
 170   2.0000      -0.689906       -18.7733
 171   2.0000      -0.680804       -18.5256
 172   2.0000      -0.677129       -18.4256
 173   2.0000      -0.667947       -18.1758
 174   2.0000      -0.667407       -18.1611
 175   2.0000      -0.664071       -18.0703
 176   2.0000      -0.654897       -17.8206
 177   2.0000      -0.650726       -17.7072
 178   2.0000      -0.642924       -17.4948
 179   2.0000      -0.639991       -17.4150
 180   2.0000      -0.632023       -17.1982
 181   2.0000      -0.627913       -17.0864
 182   2.0000      -0.622544       -16.9403
 183   2.0000      -0.618774       -16.8377
 184   2.0000      -0.616946       -16.7880
 185   2.0000      -0.611344       -16.6355
 186   2.0000      -0.608417       -16.5559
 187   2.0000      -0.606931       -16.5154
 188   2.0000      -0.606008       -16.4903
 189   2.0000      -0.598898       -16.2968
 190   2.0000      -0.597615       -16.2619
 191   2.0000      -0.590140       -16.0585
 192   2.0000      -0.581571       -15.8253
 193   2.0000      -0.581188       -15.8149
 194   2.0000      -0.579129       -15.7589
 195   2.0000      -0.577267       -15.7082
 196   2.0000      -0.575211       -15.6523
 197   2.0000      -0.570760       -15.5312
 198   2.0000      -0.563249       -15.3268
 199   2.0000      -0.561259       -15.2726
 200   2.0000      -0.548508       -14.9256
 201   2.0000      -0.548208       -14.9175
 202   2.0000      -0.547084       -14.8869
 203   2.0000      -0.545581       -14.8460
 204   2.0000      -0.540926       -14.7193
 205   2.0000      -0.540062       -14.6958
 206   2.0000      -0.538635       -14.6570
 207   2.0000      -0.532409       -14.4876
 208   2.0000      -0.530759       -14.4427
 209   2.0000      -0.528384       -14.3781
 210   2.0000      -0.527039       -14.3415
 211   2.0000      -0.523063       -14.2333
 212   2.0000      -0.520499       -14.1635
 213   2.0000      -0.516712       -14.0604
 214   2.0000      -0.516344       -14.0504
 215   2.0000      -0.514908       -14.0114
 216   2.0000      -0.514832       -14.0093
 217   2.0000      -0.511272       -13.9124
 218   2.0000      -0.508867       -13.8470
 219   2.0000      -0.507513       -13.8101
 220   2.0000      -0.506760       -13.7896
 221   2.0000      -0.504078       -13.7167
 222   2.0000      -0.501193       -13.6381
 223   2.0000      -0.500132       -13.6093
 224   2.0000      -0.496814       -13.5190
 225   2.0000      -0.494385       -13.4529
 226   2.0000      -0.492576       -13.4037
 227   2.0000      -0.491438       -13.3727
 228   2.0000      -0.486646       -13.2423
 229   2.0000      -0.486323       -13.2335
 230   2.0000      -0.482564       -13.1312
 231   2.0000      -0.481639       -13.1061
 232   2.0000      -0.478152       -13.0112
 233   2.0000      -0.476863       -12.9761
 234   2.0000      -0.473204       -12.8765
 235   2.0000      -0.470504       -12.8031
 236   2.0000      -0.468713       -12.7543
 237   2.0000      -0.466495       -12.6940
 238   2.0000      -0.464996       -12.6532
 239   2.0000      -0.462112       -12.5747
 240   2.0000      -0.461706       -12.5637
 241   2.0000      -0.459636       -12.5073
 242   2.0000      -0.458601       -12.4792
 243   2.0000      -0.456643       -12.4259
 244   2.0000      -0.456001       -12.4084
 245   2.0000      -0.455099       -12.3839
 246   2.0000      -0.453003       -12.3268
 247   2.0000      -0.452251       -12.3064
 248   2.0000      -0.449408       -12.2290
 249   2.0000      -0.448380       -12.2010
 250   2.0000      -0.447818       -12.1857
 251   2.0000      -0.445317       -12.1177
 252   2.0000      -0.443189       -12.0598
 253   2.0000      -0.442053       -12.0289
 254   2.0000      -0.438476       -11.9315
 255   2.0000      -0.437907       -11.9161
 256   2.0000      -0.435413       -11.8482
 257   2.0000      -0.433255       -11.7895
 258   2.0000      -0.431193       -11.7334
 259   2.0000      -0.430269       -11.7082
 260   2.0000      -0.427573       -11.6348
 261   2.0000      -0.425017       -11.5653
 262   2.0000      -0.423674       -11.5288
 263   2.0000      -0.423103       -11.5132
 264   2.0000      -0.417314       -11.3557
 265   2.0000      -0.417092       -11.3496
 266   2.0000      -0.414976       -11.2921
 267   2.0000      -0.411831       -11.2065
 268   2.0000      -0.407847       -11.0981
 269   2.0000      -0.407329       -11.0840
 270   2.0000      -0.404273       -11.0008
 271   2.0000      -0.404186       -10.9985
 272   2.0000      -0.399141       -10.8612
 273   2.0000      -0.397420       -10.8144
 274   2.0000      -0.395846       -10.7715
 275   2.0000      -0.389569       -10.6007
 276   2.0000      -0.386763       -10.5244
 277   2.0000      -0.377645       -10.2762
 278   2.0000      -0.374925       -10.2022
 279   2.0000      -0.365676        -9.9505
 280   2.0000      -0.347739        -9.4625
 281   2.0000      -0.345035        -9.3889
 282   2.0000      -0.335958        -9.1419
 283   2.0000      -0.333850        -9.0845
 284   2.0000      -0.332517        -9.0482
 285   2.0000      -0.328544        -8.9401
 286   2.0000      -0.325453        -8.8560
 287   2.0000      -0.324186        -8.8215
 288   2.0000      -0.315774        -8.5927
 289   2.0000      -0.314928        -8.5696
 290   2.0000      -0.312992        -8.5169
 291   2.0000      -0.312130        -8.4935
 292   2.0000      -0.306570        -8.3422
 293   2.0000      -0.299406        -8.1473
 294   2.0000      -0.296304        -8.0629
 295   2.0000      -0.287943        -7.8353
 296   2.0000      -0.280990        -7.6461
 297   2.0000      -0.274484        -7.4691
 298   2.0000      -0.248617        -6.7652
 299   2.0000      -0.242990        -6.6121
 300   2.0000      -0.226614        -6.1665
 301   0.0000      -0.093406        -2.5417
 302   0.0000      -0.080864        -2.2004
 303   0.0000      -0.052059        -1.4166
 304   0.0000      -0.037778        -1.0280
 305   0.0000      -0.035876        -0.9762

MULLIKEN ATOMIC CHARGES
-----------------------
   0 C :    0.041474
   1 N :   -0.258454
   2 C :    0.108789
   3 C :   -0.001084
   4 C :    0.169849
   5 O :   -0.202304
   6 C :   -0.100176
   7 C :    0.004062
   8 C :    0.160701
   9 O :   -0.185793
  10 N :   -0.270948
  11 C :    0.098284
  12 C :    0.005522
  13 C :    0.157096
  14 C :   -0.043880
  15 C :    0.071179
  16 C :   -0.099369
  17 S :    0.054471
  18 C :   -0.078143
  19 N :   -0.070811
  20 N :   -0.012643
  21 C :    0.025717
  22 C :   -0.017440
  23 C :    0.123576
  24 C :   -0.056776
  25 O :   -0.156541
  26 S :    0.165433
  27 C :   -0.134902
  28 C :    0.046036
  29 N :   -0.020914
  30 C :    0.121198
  31 C :   -0.123804
  32 S :    0.124787
  33 C :   -0.051086
  34 C :   -0.077146
  35 C :    0.029360
  36 C :    0.030490
  37 C :   -0.036989
  38 C :   -0.075657
  39 C :    0.105295
  40 C :    0.129770
  41 C :   -0.217119
  42 C :    0.025113
  43 C :    0.021175
  44 C :   -0.215011
  45 S :    0.115097
  46 C :    0.127300
  47 C :   -0.123240
  48 C :    0.060209
  49 C :    0.183892
  50 C :   -0.171339
  51 S :    0.123101
  52 C :   -0.212740
  53 C :    0.027614
  54 C :    0.022881
  55 C :   -0.195436
  56 S :    0.095333
  57 C :    0.119158
  58 C :   -0.036667
  59 C :   -0.068845
  60 S :    0.129004
  61 C :    0.093582
  62 C :   -0.149810
  63 C :    0.128275
  64 O :   -0.134802
  65 C :    0.093992
  66 C :   -0.174020
  67 S :    0.174816
  68 C :   -0.136058
  69 C :    0.019734
  70 C :    0.269348
  71 C :   -0.344566
  72 C :   -0.214540
  73 N :    0.188694
  74 C :   -0.133812
  75 N :    0.124682
  76 Cl:   -0.005651
  77 H :    0.015006
  78 H :    0.018793
  79 H :    0.044588
  80 H :    0.014944
  81 H :    0.023513
  82 H :    0.032288
  83 H :    0.021239
  84 H :    0.044429
  85 H :    0.011495
  86 H :    0.021194
  87 H :    0.030996
  88 H :   -0.018503
  89 H :    0.037971
  90 H :   -0.048857
  91 H :   -0.006269
  92 H :    0.197655
  93 H :    0.124275
  94 H :   -0.028506
  95 H :   -0.011177
  96 H :   -0.011004
  97 H :   -0.021226
  98 H :   -0.004687
  99 H :   -0.024620
 100 H :    0.020118
 101 H :    0.034888
 102 H :    0.027344
 103 H :   -0.003880
 104 H :   -0.023450
 105 H :    0.017087
 106 H :    0.019780
 107 H :    0.049369
 108 H :    0.019147
 109 H :    0.020155
 110 H :    0.048334
Sum of atomic charges:   -0.0000000

LOEWDIN ATOMIC CHARGES
----------------------
   0 C :    0.092182
   1 N :    0.000690
   2 C :    0.038258
   3 C :   -0.060699
   4 C :    0.077544
   5 O :   -0.195311
   6 C :   -0.127299
   7 C :   -0.129252
   8 C :    0.081296
   9 O :   -0.191719
  10 N :   -0.009854
  11 C :    0.035133
  12 C :   -0.061620
  13 C :    0.081369
  14 C :   -0.049314
  15 C :    0.014418
  16 C :   -0.152706
  17 S :    0.357687
  18 C :   -0.132905
  19 N :   -0.095417
  20 N :   -0.052430
  21 C :   -0.093958
  22 C :    0.029338
  23 C :   -0.144376
  24 C :   -0.067528
  25 O :   -0.033207
  26 S :    0.427286
  27 C :   -0.237161
  28 C :   -0.005490
  29 N :    0.067981
  30 C :   -0.032800
  31 C :   -0.212494
  32 S :    0.410037
  33 C :   -0.165326
  34 C :   -0.064536
  35 C :   -0.014404
  36 C :   -0.063102
  37 C :   -0.140851
  38 C :   -0.074735
  39 C :   -0.024412
  40 C :   -0.064154
  41 C :   -0.177563
  42 C :   -0.063364
  43 C :   -0.074704
  44 C :   -0.174634
  45 S :    0.426895
  46 C :   -0.059720
  47 C :   -0.128317
  48 C :   -0.049133
  49 C :   -0.031836
  50 C :   -0.148761
  51 S :    0.420389
  52 C :   -0.184953
  53 C :   -0.048545
  54 C :   -0.075151
  55 C :   -0.157838
  56 S :    0.431629
  57 C :   -0.064156
  58 C :   -0.001680
  59 C :   -0.182751
  60 S :    0.424061
  61 C :    0.059419
  62 C :   -0.097863
  63 C :    0.079235
  64 O :   -0.139298
  65 C :   -0.116562
  66 C :   -0.273279
  67 S :    0.464345
  68 C :   -0.156967
  69 C :   -0.055537
  70 C :    0.068169
  71 C :   -0.148767
  72 C :   -0.021551
  73 N :   -0.034440
  74 C :   -0.004705
  75 N :   -0.064108
  76 Cl:    0.187712
  77 H :    0.033037
  78 H :    0.024872
  79 H :    0.037168
  80 H :    0.022327
  81 H :    0.030314
  82 H :    0.032253
  83 H :    0.021787
  84 H :    0.038343
  85 H :    0.020117
  86 H :    0.029712
  87 H :    0.033075
  88 H :    0.021219
  89 H :    0.052389
  90 H :    0.018338
  91 H :    0.030219
  92 H :    0.106348
  93 H :    0.086484
  94 H :    0.030309
  95 H :    0.035681
  96 H :    0.022065
  97 H :    0.013569
  98 H :    0.023907
  99 H :    0.027253
 100 H :    0.038074
 101 H :    0.037458
 102 H :    0.034794
 103 H :    0.023339
 104 H :    0.028729
 105 H :    0.037236
 106 H :    0.032686
 107 H :    0.040228
 108 H :    0.013384
 109 H :    0.046304
 110 H :    0.035153

  Mayer bond orders larger than 0.100000
B(  0-C ,  1-N ) :   1.1936 B(  0-C ,  7-C ) :   1.4543 B(  0-C , 77-H ) :   0.9901
B(  1-N ,  2-C ) :   0.9429 B(  1-N ,  4-C ) :   1.0498 B(  2-C ,  3-C ) :   1.1193
B(  2-C , 78-H ) :   0.9537 B(  2-C , 79-H ) :   0.9346 B(  3-C , 80-H ) :   0.9687
B(  3-C , 81-H ) :   0.9689 B(  3-C , 82-H ) :   0.9672 B(  4-C ,  5-O ) :   2.0432
B(  4-C ,  6-C ) :   0.9977 B(  6-C ,  7-C ) :   1.2019 B(  6-C , 13-C ) :   1.3945
B(  7-C ,  8-C ) :   0.9508 B(  8-C ,  9-O ) :   2.1755 B(  8-C , 10-N ) :   1.0169
B( 10-N , 11-C ) :   0.9487 B( 10-N , 13-C ) :   1.1550 B( 11-C , 12-C ) :   1.1210
B( 11-C , 83-H ) :   0.9503 B( 11-C , 84-H ) :   0.9271 B( 12-C , 85-H ) :   0.9683
B( 12-C , 86-H ) :   0.9674 B( 12-C , 87-H ) :   0.9638 B( 13-C , 14-C ) :   1.1518
B( 14-C , 15-C ) :   1.5943 B( 14-C , 88-H ) :   0.9579 B( 15-C , 16-C ) :   1.1142
B( 15-C , 89-H ) :   0.9627 B( 16-C , 17-S ) :   1.0543 B( 16-C , 20-N ) :   1.6926
B( 17-S , 18-C ) :   1.0946 B( 18-C , 19-N ) :   1.6669 B( 18-C , 21-C ) :   1.1163
B( 19-N , 20-N ) :   1.2191 B( 21-C , 22-C ) :   1.7145 B( 21-C , 90-H ) :   0.9466
B( 22-C , 23-C ) :   1.0670 B( 22-C , 91-H ) :   0.9552 B( 23-C , 24-C ) :   1.3308
B( 23-C , 28-C ) :   1.1398 B( 24-C , 25-O ) :   1.2649 B( 24-C , 26-S ) :   1.1487
B( 25-O , 92-H ) :   0.9495 B( 26-S , 27-C ) :   0.9797 B( 27-C , 28-C ) :   1.4617
B( 27-C , 31-C ) :   1.4081 B( 28-C , 29-N ) :   1.2124 B( 29-N , 30-C ) :   1.1483
B( 29-N , 93-H ) :   0.9321 B( 30-C , 31-C ) :   1.4207 B( 30-C , 34-C ) :   1.2002
B( 31-C , 32-S ) :   1.0405 B( 32-S , 33-C ) :   1.0773 B( 33-C , 34-C ) :   1.4579
B( 33-C , 35-C ) :   1.1763 B( 34-C , 94-H ) :   1.0225 B( 35-C , 36-C ) :   1.6702
B( 35-C , 95-H ) :   0.9736 B( 36-C , 37-C ) :   1.1124 B( 36-C , 96-H ) :   0.9595
B( 37-C , 38-C ) :   1.5632 B( 37-C , 51-S ) :   1.0692 B( 38-C , 39-C ) :   1.2019
B( 38-C , 97-H ) :   0.9710 B( 39-C , 40-C ) :   1.2878 B( 39-C , 50-C ) :   1.2531
B( 40-C , 41-C ) :   0.9824 B( 40-C , 47-C ) :   1.4212 B( 41-C , 42-C ) :   1.5827
B( 41-C , 44-C ) :   0.1031 B( 41-C , 45-S ) :   1.1242 B( 42-C , 43-C ) :   1.2202
B( 42-C , 98-H ) :   0.9883 B( 43-C , 44-C ) :   1.6104 B( 43-C , 99-H ) :   0.9950
B( 44-C , 45-S ) :   1.1313 B( 44-C , 46-C ) :   1.0669 B( 46-C ,100-H ) :   0.9564
B( 46-C ,101-H ) :   0.9511 B( 46-C ,102-H ) :   0.9508 B( 47-C , 48-C ) :   1.2659
B( 47-C , 60-S ) :   1.0746 B( 48-C , 49-C ) :   1.2689 B( 48-C , 58-C ) :   1.2518
B( 49-C , 50-C ) :   1.4353 B( 49-C , 52-C ) :   1.0055 B( 50-C , 51-S ) :   1.0560
B( 52-C , 53-C ) :   1.5658 B( 52-C , 56-S ) :   1.1157 B( 53-C , 54-C ) :   1.2347
B( 53-C ,103-H ) :   0.9836 B( 54-C , 55-C ) :   1.6017 B( 54-C ,104-H ) :   0.9965
B( 55-C , 56-S ) :   1.1292 B( 55-C , 57-C ) :   1.0698 B( 57-C ,105-H ) :   0.9517
B( 57-C ,106-H ) :   0.9464 B( 57-C ,107-H ) :   0.9320 B( 58-C , 59-C ) :   1.4850
B( 58-C ,108-H ) :   0.9554 B( 59-C , 60-S ) :   1.0453 B( 59-C , 61-C ) :   1.1635
B( 61-C , 62-C ) :   1.6319 B( 61-C ,109-H ) :   0.9311 B( 62-C , 63-C ) :   0.9512
B( 62-C , 70-C ) :   1.0536 B( 63-C , 64-O ) :   2.2685 B( 63-C , 65-C ) :   0.9206
B( 65-C , 66-C ) :   1.4930 B( 65-C , 69-C ) :   1.2230 B( 66-C , 67-S ) :   1.1452
B( 66-C , 76-Cl) :   1.1232 B( 67-S , 68-C ) :   1.1518 B( 68-C , 69-C ) :   1.5564
B( 68-C ,110-H ) :   0.9560 B( 69-C , 70-C ) :   1.0151 B( 70-C , 71-C ) :   1.6275
B( 71-C , 72-C ) :   1.1699 B( 71-C , 74-C ) :   1.1482 B( 72-C , 73-N ) :   3.0032
B( 74-C , 75-N ) :   2.8994

-----------------------------------------------------------------------------
         ABSORPTION SPECTRUM VIA TRANSITION ELECTRIC DIPOLE MOMENTS
-----------------------------------------------------------------------------
State   Energy  Wavelength   fosc         T2         TX        TY        TZ
        (cm-1)    (nm)                  (au**2)     (au)      (au)      (au)
-----------------------------------------------------------------------------
   0   14534.2    688.0   0.571441281  12.94360  -0.25673  -2.03600   2.95506
   1   19110.9    523.3   1.377970022  23.73749   1.45249  -0.88091   4.56637
   2   19865.4    503.4   0.211379269   3.50301  -0.77643  -1.44940  -0.89410
   3   21505.3    465.0   0.030444744   0.46606   0.42439   0.07220  -0.52985
   4   23630.8    423.2   0.356162443   4.96186  -1.91021  -0.68856   0.91589
   5   24910.4    401.4   0.330312183   4.36535  -0.33296  -1.33663   1.57096
   6   26215.2    381.5   0.237178345   2.97850   0.22551  -0.36011   1.67271
   7   26843.8    372.5   0.441483765   5.41436   1.26379  -0.21548   1.94185
   8   27453.4    364.3   0.224670180   2.69417   1.37693   0.89334   0.01321
   9   28007.4    357.0   0.052330136   0.61511  -0.15420   0.52873  -0.55838
  10   28312.3    353.2   0.061028668   0.70963  -0.38366  -0.03566  -0.74911
  11   28426.4    351.8   0.022499635   0.26057  -0.49347  -0.11315  -0.06523
  12   28659.0    348.9   0.051518792   0.59181   0.30249   0.07750  -0.70307
  13   28700.1    348.4   0.011546527   0.13245  -0.05110  -0.10210  -0.34556
  14   28792.9    347.3   0.042766009   0.48898   0.57789   0.20453   0.33644
  15   29443.6    339.6   0.081804987   0.91467  -0.25777   0.20142  -0.89870
  16   29699.5    336.7   0.148268791   1.64352   0.66039  -0.20340   1.07983
  17   29868.3    334.8   0.283488439   3.12465   1.54352   0.31546   0.80168
  18   29951.7    333.9   0.074325879   0.81695   0.71861   0.54726   0.03262
  19   30048.4    332.8   0.024472335   0.26812  -0.42349  -0.22247  -0.19821
  20   30286.6    330.2   0.286595617   3.11526   0.87843  -0.53455   1.43453
  21   31417.1    318.3   0.048460390   0.50780   0.70114   0.08808  -0.09191
  22   31768.2    314.8   0.020823640   0.21579   0.27477   0.28603  -0.24183
  23   32010.6    312.4   0.119257633   1.22650   0.41684  -0.11955   1.01904
  24   32466.7    308.0   0.034249304   0.34729  -0.34482  -0.39437   0.26993
  25   32714.9    305.7   0.107147327   1.07823  -0.97286  -0.35508   0.07544
  26   33185.2    301.3   0.076178278   0.75572   0.26173   0.16049   0.81330
  27   33825.5    295.6   0.142220018   1.38418   0.17435   0.33044  -1.11561
  28   33932.5    294.7   0.009974040   0.09677   0.07609  -0.16980   0.24929
  29   34226.3    292.2   0.000246847   0.00237   0.01200   0.00327  -0.04711
  30   34900.1    286.5   0.030744623   0.29001   0.16738   0.06115  -0.50819
  31   35282.0    283.4   0.093896651   0.87614   0.91657   0.10087  -0.16080
  32   35640.3    280.6   0.215664346   1.99211   0.53490   0.48388  -1.21320
  33   35730.4    279.9   0.123362342   1.13663   0.55806  -0.01255   0.90832
  34   35946.7    278.2   0.052732909   0.48295   0.54977   0.42498  -0.00967
  35   36146.4    276.7   0.186165640   1.69555   0.93431  -0.05743   0.90516
  36   36489.7    274.0   0.015950161   0.14390  -0.20172   0.23709  -0.21679
  37   37075.0    269.7   0.019603566   0.17407  -0.23410  -0.17842  -0.29569
  38   37470.8    266.9   0.044841622   0.39397  -0.46246  -0.04583  -0.42191
  39   37723.9    265.1   0.080860290   0.70566  -0.12637   0.00028   0.83047
  40   37989.1    263.2   0.069295836   0.60051   0.72688   0.26828  -0.01379
  41   38402.3    260.4   0.014085950   0.12075  -0.19919  -0.04030   0.28188
  42   38523.0    259.6   0.290470488   2.48232   0.61508   0.08512  -1.44802
  43   38858.7    257.3   0.185850853   1.57453   0.19836  -0.00315   1.23902
  44   38868.6    257.3   0.013940220   0.11807   0.04268  -0.15082   0.30578
  45   39035.9    256.2   0.006084147   0.05131  -0.13594   0.09237  -0.15588
  46   39251.1    254.8   0.024015514   0.20143  -0.41356  -0.13391  -0.11164
  47   39500.3    253.2   0.030314820   0.25266  -0.21937   0.12047  -0.43591
  48   40238.5    248.5   0.043905300   0.35921  -0.54062  -0.15207   0.20931

FINAL SINGLE POINT ENERGY     -6517.621821441920

DIPOLE MOMENT
-------------
                                X             Y             Z
Electronic contribution:    -41.61374      17.67239    -142.18985
Nuclear contribution   :     42.57134     -18.60281     143.13044
                        -----------------------------------------
Total Dipole Moment    :      0.95760      -0.93042       0.94059
                        -----------------------------------------
Magnitude (a.u.)       :      1.63322
Magnitude (Debye)      :      4.15131

Rotational constants in cm-1:     0.001332     0.000142     0.000132
Rotational constants in MHz :    39.938562     4.259496     3.951380

                             ****ORCA TERMINATED NORMALLY****
TOTAL RUN TIME: 0 days 0 hours 11 minutes 32 seconds 713 msec
