                         Program Version 4.2.0 -  RELEASE  -
|  1> # ORCA input file
|  2> # SCF done       -176.854843474650          0.000561174002
|  3> ! CAM-B3LYP def2-SVP def2/J RIJCOSX Grid4 TightSCF
|  4> %maxcore 5000
|  5> %tddft
|  6>     Mode sTDDFT
|  7>     Ethresh 5.0
|  8>     maxcore 5000
|  9> end
| 10>
| 11> %pal
| 12>   nprocs 6
| 13>   end
| 14> * xyz 0 1
| 15>    C        1.80408        -0.13324         2.07302
| 16>    N        1.53407         0.66952         1.00987
| 17>    C        1.79870         0.35908        -0.37210
| 18>    C        3.27945         0.51685        -0.70879
| 19>    C        1.01757         1.92286         1.42462
| 20>    O        0.70263         2.80544         0.65200
| 21>    C        0.98152         1.81633         2.86087
| 22>    C        1.47582         0.52557         3.22531
| 23>    C        1.44393         0.44182         4.66905
| 24>    O        1.75334        -0.43561         5.44403
| 25>    N        0.94479         1.69911         5.08470
| 26>    C        0.71542         1.93711         6.48827
| 27>    C       -0.76766         1.87357         6.84570
| 28>    C        0.66484         2.52107         4.01237
| 29>    C        0.18893         3.85971         3.97750
| 30>    C       -0.04541         4.73849         4.98056
| 31>    C       -0.45469         6.08087         4.75708
| 32>    S       -0.78425         6.71339         3.16400
| 33>    C       -1.09250         8.30237         3.78977
| 34>    C       -0.96388         8.31434         5.18046
| 35>    C       -0.61112         7.06137         5.71179
| 36>    C       -1.18984         9.42775         6.00535
| 37>    N       -1.37316        10.30289         6.72568
| 38>    C       -1.38475         9.35260         2.88110
| 39>    C       -1.32980        10.67295         3.18043
| 40>    C       -1.55842        11.71466         2.23905
| 41>    S       -0.91165        13.28981         2.55879
| 42>    C       -1.42504        13.91526         1.00326
| 43>    C       -2.10868        12.92803         0.29735
| 44>    C       -2.17507        11.69059         0.99967
| 45>    O       -2.77961        10.59667         0.45085
| 46>    C       -4.04772        10.25393         1.00039
| 47>    C       -5.10624        11.31709         0.73868
| 48>    O       -2.75202        12.95463        -0.89035
| 49>    C       -2.44726        13.88255        -1.91195
| 50>    C       -1.01402        13.76516        -2.41691
| 51>    C       -1.06973        15.24944         0.66715
| 52>    C       -0.35052        16.05748         1.48375
| 53>    C        0.09794        17.36205         1.15044
| 54>    S        1.10923        18.21970         2.28266
| 55>    C        1.29627        19.57118         1.19912
| 56>    C        0.57380        19.34198         0.02581
| 57>    C       -0.09222        18.10670         0.00511
| 58>    C        0.50289        20.25113        -1.04476
| 59>    N        0.40268        20.95338        -1.94582
| 60>    C        2.10275        20.68854         1.50397
| 61>    C        2.75942        20.82885         2.68715
| 62>    C        3.61498        21.91498         2.98198
| 63>    N        4.25064        22.07794         4.19538
| 64>    C        4.08463        21.25766         5.36954
| 65>    C        2.76119        21.53603         6.07844
| 66>    C        5.07583        23.21462         4.21226
| 67>    O        5.72844        23.55074         5.18163
| 68>    C        4.93309        23.77993         2.88972
| 69>    C        4.02212        22.96278         2.16368
| 70>    C        3.89587        23.50932         0.83599
| 71>    O        3.24615        23.16674        -0.13318
| 72>    N        4.75238        24.62799         0.83941
| 73>    C        4.86187        25.47860        -0.32000
| 74>    C        4.03234        26.75206        -0.17207
| 75>    C        5.37121        24.79787         2.05468
| 76>    C        6.31155        25.84784         2.32273
| 77>    C        6.89344        26.01428         3.51242
| 78>    H        2.20590        -1.11985         1.93278
| 79>    H        1.20579         1.06014        -0.96582
| 80>    H        1.46620        -0.66192        -0.58149
| 81>    H        3.59664         1.53997        -0.52272
| 82>    H        3.44747         0.28494        -1.75669
| 83>    H        3.88508        -0.15160        -0.10062
| 84>    H        1.15887         2.89237         6.78188
| 85>    H        1.24847         1.13614         7.01047
| 86>    H       -1.34143         2.60340         6.27888
| 87>    H       -0.90050         2.06790         7.90660
| 88>    H       -1.15634         0.88285         6.62353
| 89>    H        0.03754         4.20620         2.96084
| 90>    H        0.09706         4.48005         6.01857
| 91>    H       -0.46822         6.89109         6.76472
| 92>    H       -1.59504         9.04966         1.86461
| 93>    H       -1.02531        10.99203         4.16769
| 94>    H       -3.95477        10.07009         2.07968
| 95>    H       -4.31101         9.31908         0.50061
| 96>    H       -4.87173        12.23089         1.28095
| 97>    H       -6.07684        10.95530         1.06630
| 98>    H       -5.14663        11.54555        -0.32296
| 99>    H       -2.68084        14.90513        -1.59079
|100>    H       -3.14454        13.61598        -2.71152
|101>    H       -0.29823        13.99663        -1.63114
|102>    H       -0.86187        14.45191        -3.24511
|103>    H       -0.83014        12.75031        -2.76106
|104>    H       -1.37108        15.62787        -0.29556
|105>    H       -0.05506        15.68864         2.45706
|106>    H       -0.68602        17.78175        -0.83038
|107>    H        2.19668        21.44525         0.73461
|108>    H        2.63758        20.06359         3.44284
|109>    H        4.91670        21.51198         6.03238
|110>    H        4.16349        20.20136         5.09535
|111>    H        2.71653        22.57880         6.38292
|112>    H        2.67874        20.91107         6.96343
|113>    H        1.91704        21.33030         5.42390
|114>    H        4.48132        24.89020        -1.16001
|115>    H        5.91336        25.71713        -0.50452
|116>    H        2.98457        26.49612        -0.03518
|117>    H        4.12746        27.35976        -1.06781
|118>    H        4.36138        27.33528         0.68541
|119>    H        6.54374        26.51532         1.50425
|120>    H        6.67750        25.36179         4.34176
|121>    H        7.59987        26.80883         3.68062
|122> *
|123>
|124>                          ****END OF INPUT****

CARTESIAN COORDINATES (ANGSTROEM)
---------------------------------
  C      1.804080   -0.133240    2.073020
  N      1.534070    0.669520    1.009870
  C      1.798700    0.359080   -0.372100
  C      3.279450    0.516850   -0.708790
  C      1.017570    1.922860    1.424620
  O      0.702630    2.805440    0.652000
  C      0.981520    1.816330    2.860870
  C      1.475820    0.525570    3.225310
  C      1.443930    0.441820    4.669050
  O      1.753340   -0.435610    5.444030
  N      0.944790    1.699110    5.084700
  C      0.715420    1.937110    6.488270
  C     -0.767660    1.873570    6.845700
  C      0.664840    2.521070    4.012370
  C      0.188930    3.859710    3.977500
  C     -0.045410    4.738490    4.980560
  C     -0.454690    6.080870    4.757080
  S     -0.784250    6.713390    3.164000
  C     -1.092500    8.302370    3.789770
  C     -0.963880    8.314340    5.180460
  C     -0.611120    7.061370    5.711790
  C     -1.189840    9.427750    6.005350
  N     -1.373160   10.302890    6.725680
  C     -1.384750    9.352600    2.881100
  C     -1.329800   10.672950    3.180430
  C     -1.558420   11.714660    2.239050
  S     -0.911650   13.289810    2.558790
  C     -1.425040   13.915260    1.003260
  C     -2.108680   12.928030    0.297350
  C     -2.175070   11.690590    0.999670
  O     -2.779610   10.596670    0.450850
  C     -4.047720   10.253930    1.000390
  C     -5.106240   11.317090    0.738680
  O     -2.752020   12.954630   -0.890350
  C     -2.447260   13.882550   -1.911950
  C     -1.014020   13.765160   -2.416910
  C     -1.069730   15.249440    0.667150
  C     -0.350520   16.057480    1.483750
  C      0.097940   17.362050    1.150440
  S      1.109230   18.219700    2.282660
  C      1.296270   19.571180    1.199120
  C      0.573800   19.341980    0.025810
  C     -0.092220   18.106700    0.005110
  C      0.502890   20.251130   -1.044760
  N      0.402680   20.953380   -1.945820
  C      2.102750   20.688540    1.503970
  C      2.759420   20.828850    2.687150
  C      3.614980   21.914980    2.981980
  N      4.250640   22.077940    4.195380
  C      4.084630   21.257660    5.369540
  C      2.761190   21.536030    6.078440
  C      5.075830   23.214620    4.212260
  O      5.728440   23.550740    5.181630
  C      4.933090   23.779930    2.889720
  C      4.022120   22.962780    2.163680
  C      3.895870   23.509320    0.835990
  O      3.246150   23.166740   -0.133180
  N      4.752380   24.627990    0.839410
  C      4.861870   25.478600   -0.320000
  C      4.032340   26.752060   -0.172070
  C      5.371210   24.797870    2.054680
  C      6.311550   25.847840    2.322730
  C      6.893440   26.014280    3.512420
  H      2.205900   -1.119850    1.932780
  H      1.205790    1.060140   -0.965820
  H      1.466200   -0.661920   -0.581490
  H      3.596640    1.539970   -0.522720
  H      3.447470    0.284940   -1.756690
  H      3.885080   -0.151600   -0.100620
  H      1.158870    2.892370    6.781880
  H      1.248470    1.136140    7.010470
  H     -1.341430    2.603400    6.278880
  H     -0.900500    2.067900    7.906600
  H     -1.156340    0.882850    6.623530
  H      0.037540    4.206200    2.960840
  H      0.097060    4.480050    6.018570
  H     -0.468220    6.891090    6.764720
  H     -1.595040    9.049660    1.864610
  H     -1.025310   10.992030    4.167690
  H     -3.954770   10.070090    2.079680
  H     -4.311010    9.319080    0.500610
  H     -4.871730   12.230890    1.280950
  H     -6.076840   10.955300    1.066300
  H     -5.146630   11.545550   -0.322960
  H     -2.680840   14.905130   -1.590790
  H     -3.144540   13.615980   -2.711520
  H     -0.298230   13.996630   -1.631140
  H     -0.861870   14.451910   -3.245110
  H     -0.830140   12.750310   -2.761060
  H     -1.371080   15.627870   -0.295560
  H     -0.055060   15.688640    2.457060
  H     -0.686020   17.781750   -0.830380
  H      2.196680   21.445250    0.734610
  H      2.637580   20.063590    3.442840
  H      4.916700   21.511980    6.032380
  H      4.163490   20.201360    5.095350
  H      2.716530   22.578800    6.382920
  H      2.678740   20.911070    6.963430
  H      1.917040   21.330300    5.423900
  H      4.481320   24.890200   -1.160010
  H      5.913360   25.717130   -0.504520
  H      2.984570   26.496120   -0.035180
  H      4.127460   27.359760   -1.067810
  H      4.361380   27.335280    0.685410
  H      6.543740   26.515320    1.504250
  H      6.677500   25.361790    4.341760
  H      7.599870   26.808830    3.680620

 Total Charge           Charge          ....    0
 Multiplicity           Mult            ....    1
 Number of Electrons    NEL             ....  470
 Basis Dimension        Dim             .... 1114

ORBITAL ENERGIES
----------------

  NO   OCC          E(Eh)            E(eV)
   0   2.0000     -88.974416     -2421.1170
   1   2.0000     -88.970331     -2421.0058
   2   2.0000     -88.958228     -2420.6765
   3   2.0000     -19.255193      -523.9604
   4   2.0000     -19.238387      -523.5031
   5   2.0000     -19.187296      -522.1129
   6   2.0000     -19.184487      -522.0364
   7   2.0000     -19.183741      -522.0161
   8   2.0000     -19.181272      -521.9489
   9   2.0000     -14.451780      -393.2529
  10   2.0000     -14.450002      -393.2045
  11   2.0000     -14.446393      -393.1063
  12   2.0000     -14.445187      -393.0735
  13   2.0000     -14.408445      -392.0737
  14   2.0000     -14.399384      -391.8272
  15   2.0000     -10.370909      -282.2068
  16   2.0000     -10.370323      -282.1908
  17   2.0000     -10.365252      -282.0529
  18   2.0000     -10.365216      -282.0519
  19   2.0000     -10.347509      -281.5700
  20   2.0000     -10.339821      -281.3608
  21   2.0000     -10.335558      -281.2448
  22   2.0000     -10.333987      -281.2021
  23   2.0000     -10.332217      -281.1539
  24   2.0000     -10.330929      -281.1189
  25   2.0000     -10.330918      -281.1186
  26   2.0000     -10.330771      -281.1146
  27   2.0000     -10.320976      -280.8480
  28   2.0000     -10.320950      -280.8473
  29   2.0000     -10.319867      -280.8179
  30   2.0000     -10.318489      -280.7804
  31   2.0000     -10.315203      -280.6910
  32   2.0000     -10.314796      -280.6799
  33   2.0000     -10.310437      -280.5613
  34   2.0000     -10.310035      -280.5503
  35   2.0000     -10.309147      -280.5262
  36   2.0000     -10.308307      -280.5033
  37   2.0000     -10.306196      -280.4458
  38   2.0000     -10.306136      -280.4442
  39   2.0000     -10.303067      -280.3607
  40   2.0000     -10.301846      -280.3275
  41   2.0000     -10.300745      -280.2975
  42   2.0000     -10.300063      -280.2790
  43   2.0000     -10.299796      -280.2717
  44   2.0000     -10.298978      -280.2494
  45   2.0000     -10.294458      -280.1264
  46   2.0000     -10.293557      -280.1019
  47   2.0000     -10.292799      -280.0813
  48   2.0000     -10.291857      -280.0557
  49   2.0000     -10.291511      -280.0462
  50   2.0000     -10.289313      -279.9864
  51   2.0000     -10.281893      -279.7845
  52   2.0000     -10.273159      -279.5469
  53   2.0000     -10.270644      -279.4784
  54   2.0000     -10.264349      -279.3071
  55   2.0000     -10.263529      -279.2848
  56   2.0000     -10.259798      -279.1833
  57   2.0000     -10.258089      -279.1368
  58   2.0000     -10.257849      -279.1303
  59   2.0000     -10.257462      -279.1197
  60   2.0000     -10.257398      -279.1180
  61   2.0000     -10.253051      -278.9997
  62   2.0000     -10.251173      -278.9486
  63   2.0000      -8.069873      -219.5924
  64   2.0000      -8.065775      -219.4809
  65   2.0000      -8.053794      -219.1549
  66   2.0000      -6.039010      -164.3298
  67   2.0000      -6.035012      -164.2210
  68   2.0000      -6.034894      -164.2178
  69   2.0000      -6.032107      -164.1420
  70   2.0000      -6.030986      -164.1115
  71   2.0000      -6.028038      -164.0312
  72   2.0000      -6.023172      -163.8989
  73   2.0000      -6.019451      -163.7976
  74   2.0000      -6.015257      -163.6835
  75   2.0000      -1.164134       -31.6777
  76   2.0000      -1.138045       -30.9678
  77   2.0000      -1.128936       -30.7199
  78   2.0000      -1.125280       -30.6204
  79   2.0000      -1.122229       -30.5374
  80   2.0000      -1.118485       -30.4355
  81   2.0000      -1.059629       -28.8340
  82   2.0000      -1.055547       -28.7229
  83   2.0000      -1.050532       -28.5864
  84   2.0000      -1.047470       -28.5031
  85   2.0000      -1.013064       -27.5669
  86   2.0000      -1.006961       -27.4008
  87   2.0000      -0.987941       -26.8832
  88   2.0000      -0.987358       -26.8674
  89   2.0000      -0.977845       -26.6085
  90   2.0000      -0.929036       -25.2804
  91   2.0000      -0.925868       -25.1941
  92   2.0000      -0.922862       -25.1124
  93   2.0000      -0.918899       -25.0045
  94   2.0000      -0.905686       -24.6450
  95   2.0000      -0.895456       -24.3666
  96   2.0000      -0.885344       -24.0914
  97   2.0000      -0.875482       -23.8231
  98   2.0000      -0.872067       -23.7301
  99   2.0000      -0.867496       -23.6058
 100   2.0000      -0.864317       -23.5193
 101   2.0000      -0.862592       -23.4723
 102   2.0000      -0.851208       -23.1625
 103   2.0000      -0.846001       -23.0209
 104   2.0000      -0.836280       -22.7563
 105   2.0000      -0.819219       -22.2921
 106   2.0000      -0.816281       -22.2121
 107   2.0000      -0.814206       -22.1557
 108   2.0000      -0.806305       -21.9407
 109   2.0000      -0.798406       -21.7257
 110   2.0000      -0.782705       -21.2985
 111   2.0000      -0.774093       -21.0641
 112   2.0000      -0.764002       -20.7896
 113   2.0000      -0.759827       -20.6759
 114   2.0000      -0.754980       -20.5440
 115   2.0000      -0.748641       -20.3716
 116   2.0000      -0.743073       -20.2201
 117   2.0000      -0.723107       -19.6767
 118   2.0000      -0.715252       -19.4630
 119   2.0000      -0.711717       -19.3668
 120   2.0000      -0.705083       -19.1863
 121   2.0000      -0.703434       -19.1414
 122   2.0000      -0.700688       -19.0667
 123   2.0000      -0.690476       -18.7888
 124   2.0000      -0.683787       -18.6068
 125   2.0000      -0.678221       -18.4553
 126   2.0000      -0.661274       -17.9942
 127   2.0000      -0.653236       -17.7755
 128   2.0000      -0.652512       -17.7558
 129   2.0000      -0.650648       -17.7050
 130   2.0000      -0.648526       -17.6473
 131   2.0000      -0.640452       -17.4276
 132   2.0000      -0.637107       -17.3366
 133   2.0000      -0.624472       -16.9927
 134   2.0000      -0.615894       -16.7593
 135   2.0000      -0.612731       -16.6733
 136   2.0000      -0.607053       -16.5187
 137   2.0000      -0.598726       -16.2922
 138   2.0000      -0.593234       -16.1427
 139   2.0000      -0.585092       -15.9212
 140   2.0000      -0.582952       -15.8629
 141   2.0000      -0.580392       -15.7933
 142   2.0000      -0.578050       -15.7295
 143   2.0000      -0.575079       -15.6487
 144   2.0000      -0.572743       -15.5851
 145   2.0000      -0.571094       -15.5403
 146   2.0000      -0.568810       -15.4781
 147   2.0000      -0.561755       -15.2861
 148   2.0000      -0.561269       -15.2729
 149   2.0000      -0.548914       -14.9367
 150   2.0000      -0.543912       -14.8006
 151   2.0000      -0.542448       -14.7608
 152   2.0000      -0.542028       -14.7493
 153   2.0000      -0.540296       -14.7022
 154   2.0000      -0.536174       -14.5900
 155   2.0000      -0.529951       -14.4207
 156   2.0000      -0.527081       -14.3426
 157   2.0000      -0.525258       -14.2930
 158   2.0000      -0.523568       -14.2470
 159   2.0000      -0.522304       -14.2126
 160   2.0000      -0.514949       -14.0125
 161   2.0000      -0.514272       -13.9940
 162   2.0000      -0.513805       -13.9814
 163   2.0000      -0.512258       -13.9392
 164   2.0000      -0.511606       -13.9215
 165   2.0000      -0.509614       -13.8673
 166   2.0000      -0.508476       -13.8363
 167   2.0000      -0.505627       -13.7588
 168   2.0000      -0.503936       -13.7128
 169   2.0000      -0.500778       -13.6269
 170   2.0000      -0.497757       -13.5447
 171   2.0000      -0.496327       -13.5057
 172   2.0000      -0.492990       -13.4149
 173   2.0000      -0.490264       -13.3408
 174   2.0000      -0.486211       -13.2305
 175   2.0000      -0.485905       -13.2221
 176   2.0000      -0.476503       -12.9663
 177   2.0000      -0.473739       -12.8911
 178   2.0000      -0.471004       -12.8167
 179   2.0000      -0.470795       -12.8110
 180   2.0000      -0.470521       -12.8035
 181   2.0000      -0.467558       -12.7229
 182   2.0000      -0.465617       -12.6701
 183   2.0000      -0.462330       -12.5806
 184   2.0000      -0.457010       -12.4359
 185   2.0000      -0.456264       -12.4156
 186   2.0000      -0.455924       -12.4063
 187   2.0000      -0.454502       -12.3676
 188   2.0000      -0.453846       -12.3498
 189   2.0000      -0.452558       -12.3147
 190   2.0000      -0.452048       -12.3008
 191   2.0000      -0.450983       -12.2719
 192   2.0000      -0.449942       -12.2436
 193   2.0000      -0.448696       -12.2096
 194   2.0000      -0.447086       -12.1658
 195   2.0000      -0.439758       -11.9664
 196   2.0000      -0.439244       -11.9524
 197   2.0000      -0.436021       -11.8647
 198   2.0000      -0.435336       -11.8461
 199   2.0000      -0.434573       -11.8253
 200   2.0000      -0.433585       -11.7984
 201   2.0000      -0.431158       -11.7324
 202   2.0000      -0.430823       -11.7233
 203   2.0000      -0.430412       -11.7121
 204   2.0000      -0.427379       -11.6296
 205   2.0000      -0.424654       -11.5554
 206   2.0000      -0.423466       -11.5231
 207   2.0000      -0.422575       -11.4988
 208   2.0000      -0.418197       -11.3797
 209   2.0000      -0.414870       -11.2892
 210   2.0000      -0.410709       -11.1760
 211   2.0000      -0.407336       -11.0842
 212   2.0000      -0.405919       -11.0456
 213   2.0000      -0.402874       -10.9628
 214   2.0000      -0.401476       -10.9247
 215   2.0000      -0.394816       -10.7435
 216   2.0000      -0.391779       -10.6609
 217   2.0000      -0.375385       -10.2148
 218   2.0000      -0.355167        -9.6646
 219   2.0000      -0.350223        -9.5300
 220   2.0000      -0.343643        -9.3510
 221   2.0000      -0.342789        -9.3278
 222   2.0000      -0.339401        -9.2356
 223   2.0000      -0.336510        -9.1569
 224   2.0000      -0.331389        -9.0176
 225   2.0000      -0.327233        -8.9045
 226   2.0000      -0.323632        -8.8065
 227   2.0000      -0.316351        -8.6083
 228   2.0000      -0.311983        -8.4895
 229   2.0000      -0.307409        -8.3650
 230   2.0000      -0.298137        -8.1127
 231   2.0000      -0.286728        -7.8023
 232   2.0000      -0.257323        -7.0021
 233   2.0000      -0.240502        -6.5444
 234   2.0000      -0.226397        -6.1606
 235   0.0000      -0.089075        -2.4239
 236   0.0000      -0.076248        -2.0748
 237   0.0000      -0.051399        -1.3986
 238   0.0000      -0.025742        -0.7005
 239   0.0000      -0.005951        -0.1619

MULLIKEN ATOMIC CHARGES
-----------------------
   0 C :    0.051732
   1 N :   -0.265201
   2 C :    0.110452
   3 C :   -0.001586
   4 C :    0.161102
   5 O :   -0.199201
   6 C :   -0.080291
   7 C :    0.001682
   8 C :    0.164093
   9 O :   -0.189053
  10 N :   -0.278272
  11 C :    0.098960
  12 C :   -0.001683
  13 C :    0.140177
  14 C :   -0.057916
  15 C :    0.046769
  16 C :   -0.048821
  17 S :    0.156230
  18 C :   -0.056167
  19 C :   -0.059580
  20 C :    0.007582
  21 C :   -0.188421
  22 N :    0.115145
  23 C :    0.023456
  24 C :    0.025841
  25 C :   -0.123351
  26 S :    0.113210
  27 C :   -0.180280
  28 C :    0.223594
  29 C :    0.125103
  30 O :   -0.327879
  31 C :    0.168705
  32 C :   -0.012782
  33 O :   -0.299873
  34 C :    0.167342
  35 C :   -0.037575
  36 C :    0.024813
  37 C :    0.040971
  38 C :   -0.053102
  39 S :    0.124393
  40 C :   -0.046629
  41 C :   -0.057451
  42 C :   -0.001068
  43 C :   -0.181473
  44 N :    0.140792
  45 C :   -0.000893
  46 C :   -0.043895
  47 C :    0.145406
  48 N :   -0.263051
  49 C :    0.098131
  50 C :    0.004426
  51 C :    0.161718
  52 O :   -0.212778
  53 C :   -0.064636
  54 C :   -0.066902
  55 C :    0.157086
  56 O :   -0.201573
  57 N :   -0.260987
  58 C :    0.099570
  59 C :    0.001793
  60 C :    0.109702
  61 C :   -0.037924
  62 C :    0.012473
  63 H :    0.014652
  64 H :    0.041824
  65 H :    0.017609
  66 H :    0.030803
  67 H :    0.023235
  68 H :    0.015153
  69 H :    0.020764
  70 H :    0.044990
  71 H :    0.020332
  72 H :    0.021407
  73 H :    0.027772
  74 H :    0.015125
  75 H :   -0.011153
  76 H :   -0.004398
  77 H :    0.014968
  78 H :    0.005994
  79 H :    0.020307
  80 H :    0.020470
  81 H :    0.026732
  82 H :    0.017571
  83 H :    0.030798
  84 H :    0.016789
  85 H :    0.026666
  86 H :    0.036144
  87 H :    0.029624
  88 H :    0.037069
  89 H :   -0.024173
  90 H :   -0.002292
  91 H :   -0.010620
  92 H :    0.040698
  93 H :   -0.021443
  94 H :    0.043807
  95 H :    0.021773
  96 H :    0.028735
  97 H :    0.022150
  98 H :    0.014507
  99 H :    0.046048
 100 H :    0.022237
 101 H :    0.031759
 102 H :    0.022387
 103 H :    0.014686
 104 H :   -0.018922
 105 H :    0.056432
 106 H :    0.028829
Sum of atomic charges:   -0.0000000

LOEWDIN ATOMIC CHARGES
----------------------
   0 C :    0.096801
   1 N :   -0.003192
   2 C :    0.037807
   3 C :   -0.060682
   4 C :    0.076324
   5 O :   -0.200787
   6 C :   -0.121292
   7 C :   -0.133160
   8 C :    0.084146
   9 O :   -0.190978
  10 N :   -0.013315
  11 C :    0.033490
  12 C :   -0.063719
  13 C :    0.077433
  14 C :   -0.042191
  15 C :   -0.016161
  16 C :   -0.171720
  17 S :    0.472546
  18 C :   -0.127712
  19 C :   -0.116684
  20 C :   -0.017264
  21 C :   -0.030726
  22 N :   -0.063314
  23 C :   -0.049939
  24 C :   -0.013607
  25 C :   -0.190136
  26 S :    0.436010
  27 C :   -0.211666
  28 C :    0.016286
  29 C :   -0.000894
  30 O :   -0.118827
  31 C :    0.084593
  32 C :   -0.070223
  33 O :   -0.086145
  34 C :    0.081463
  35 C :   -0.072348
  36 C :   -0.025141
  37 C :   -0.063428
  38 C :   -0.151201
  39 S :    0.449244
  40 C :   -0.148984
  41 C :   -0.088929
  42 C :   -0.039234
  43 C :   -0.032263
  44 N :   -0.044295
  45 C :    0.007764
  46 C :   -0.051850
  47 C :    0.070980
  48 N :   -0.003522
  49 C :    0.035304
  50 C :   -0.061399
  51 C :    0.080386
  52 O :   -0.205187
  53 C :   -0.126072
  54 C :   -0.119424
  55 C :    0.078746
  56 O :   -0.194161
  57 N :    0.000466
  58 C :    0.035953
  59 C :   -0.061361
  60 C :    0.080009
  61 C :   -0.054655
  62 C :    0.022577
  63 H :    0.032852
  64 H :    0.036315
  65 H :    0.024304
  66 H :    0.031800
  67 H :    0.030061
  68 H :    0.022325
  69 H :    0.018382
  70 H :    0.037970
  71 H :    0.021301
  72 H :    0.030073
  73 H :    0.032583
  74 H :    0.038470
  75 H :    0.035806
  76 H :    0.039431
  77 H :    0.035194
  78 H :    0.037707
  79 H :    0.011246
  80 H :    0.023071
  81 H :    0.027447
  82 H :    0.030859
  83 H :    0.029542
  84 H :    0.009502
  85 H :    0.030262
  86 H :    0.028774
  87 H :    0.036008
  88 H :    0.035388
  89 H :    0.030060
  90 H :    0.020833
  91 H :    0.034463
  92 H :    0.047502
  93 H :    0.020619
  94 H :    0.037578
  95 H :    0.021643
  96 H :    0.032091
  97 H :    0.030011
  98 H :    0.021607
  99 H :    0.038571
 100 H :    0.022275
 101 H :    0.032887
 102 H :    0.030172
 103 H :    0.021698
 104 H :    0.029355
 105 H :    0.032602
 106 H :    0.028820

  Mayer bond orders larger than 0.100000
B(  0-C ,  1-N ) :   1.1968 B(  0-C ,  7-C ) :   1.4537 B(  0-C , 63-H ) :   0.9892
B(  1-N ,  2-C ) :   0.9446 B(  1-N ,  4-C ) :   1.0298 B(  2-C ,  3-C ) :   1.1181
B(  2-C , 64-H ) :   0.9343 B(  2-C , 65-H ) :   0.9542 B(  3-C , 66-H ) :   0.9675
B(  3-C , 67-H ) :   0.9691 B(  3-C , 68-H ) :   0.9689 B(  4-C ,  5-O ) :   2.1157
B(  4-C ,  6-C ) :   0.9941 B(  6-C ,  7-C ) :   1.1913 B(  6-C , 13-C ) :   1.3915
B(  7-C ,  8-C ) :   0.9543 B(  8-C ,  9-O ) :   2.1649 B(  8-C , 10-N ) :   1.0175
B( 10-N , 11-C ) :   0.9496 B( 10-N , 13-C ) :   1.1549 B( 11-C , 12-C ) :   1.1140
B( 11-C , 69-H ) :   0.9511 B( 11-C , 70-H ) :   0.9225 B( 12-C , 71-H ) :   0.9685
B( 12-C , 72-H ) :   0.9682 B( 12-C , 73-H ) :   0.9626 B( 13-C , 14-C ) :   1.1907
B( 14-C , 15-C ) :   1.5755 B( 14-C , 74-H ) :   0.9425 B( 15-C , 16-C ) :   1.1571
B( 15-C , 75-H ) :   0.9800 B( 16-C , 17-S ) :   1.0990 B( 16-C , 20-C ) :   1.4610
B( 17-S , 18-C ) :   1.1468 B( 18-C , 19-C ) :   1.4439 B( 18-C , 23-C ) :   1.1488
B( 19-C , 20-C ) :   1.2736 B( 19-C , 21-C ) :   1.1109 B( 20-C , 76-H ) :   1.0101
B( 21-C , 22-N ) :   2.9856 B( 23-C , 24-C ) :   1.6757 B( 23-C , 77-H ) :   0.9460
B( 24-C , 25-C ) :   1.1375 B( 24-C , 78-H ) :   0.9442 B( 25-C , 26-S ) :   1.0982
B( 25-C , 27-C ) :   0.1117 B( 25-C , 29-C ) :   1.4849 B( 26-S , 27-C ) :   1.0770
B( 27-C , 28-C ) :   1.4094 B( 27-C , 36-C ) :   1.1572 B( 28-C , 29-C ) :   1.2387
B( 28-C , 33-O ) :   1.2019 B( 29-C , 30-O ) :   1.1568 B( 30-O , 31-C ) :   0.9236
B( 31-C , 32-C ) :   1.1133 B( 31-C , 79-H ) :   0.9504 B( 31-C , 80-H ) :   0.9605
B( 32-C , 81-H ) :   0.9657 B( 32-C , 82-H ) :   0.9603 B( 32-C , 83-H ) :   0.9625
B( 33-O , 34-C ) :   0.9444 B( 34-C , 35-C ) :   1.1031 B( 34-C , 84-H ) :   0.9536
B( 34-C , 85-H ) :   0.9528 B( 35-C , 86-H ) :   0.9672 B( 35-C , 87-H ) :   0.9618
B( 35-C , 88-H ) :   0.9622 B( 36-C , 37-C ) :   1.6798 B( 36-C , 89-H ) :   0.9755
B( 37-C , 38-C ) :   1.1179 B( 37-C , 90-H ) :   0.9551 B( 38-C , 39-S ) :   1.1245
B( 38-C , 42-C ) :   1.4803 B( 39-S , 40-C ) :   1.1046 B( 40-C , 41-C ) :   1.4328
B( 40-C , 45-C ) :   1.1953 B( 41-C , 42-C ) :   1.2968 B( 41-C , 43-C ) :   1.1022
B( 42-C , 91-H ) :   0.9984 B( 43-C , 44-N ) :   3.0253 B( 45-C , 46-C ) :   1.5735
B( 45-C , 92-H ) :   0.9444 B( 46-C , 47-C ) :   1.1674 B( 46-C , 93-H ) :   0.9574
B( 47-C , 48-N ) :   1.1478 B( 47-C , 54-C ) :   1.3588 B( 48-N , 49-C ) :   0.9491
B( 48-N , 51-C ) :   1.0582 B( 49-C , 50-C ) :   1.1217 B( 49-C , 94-H ) :   0.9272
B( 49-C , 95-H ) :   0.9493 B( 50-C , 96-H ) :   0.9637 B( 50-C , 97-H ) :   0.9675
B( 50-C , 98-H ) :   0.9683 B( 51-C , 52-O ) :   2.0429 B( 51-C , 53-C ) :   0.9842
B( 53-C , 54-C ) :   1.2353 B( 53-C , 60-C ) :   1.3709 B( 54-C , 55-C ) :   0.9897
B( 55-C , 56-O ) :   2.0384 B( 55-C , 57-N ) :   1.0524 B( 56-O , 92-H ) :   0.1032
B( 57-N , 58-C ) :   0.9483 B( 57-N , 60-C ) :   1.1692 B( 58-C , 59-C ) :   1.1176
B( 58-C , 99-H ) :   0.9282 B( 58-C ,100-H ) :   0.9506 B( 59-C ,101-H ) :   0.9642
B( 59-C ,102-H ) :   0.9684 B( 59-C ,103-H ) :   0.9691 B( 60-C , 61-C ) :   1.1251
B( 61-C , 62-C ) :   1.8901 B( 61-C ,104-H ) :   0.9530 B( 62-C ,105-H ) :   0.9260
B( 62-C ,106-H ) :   0.9446

-----------------------------------------------------------------------------
         ABSORPTION SPECTRUM VIA TRANSITION ELECTRIC DIPOLE MOMENTS
-----------------------------------------------------------------------------
State   Energy  Wavelength   fosc         T2         TX        TY        TZ
        (cm-1)    (nm)                  (au**2)     (au)      (au)      (au)
-----------------------------------------------------------------------------
   0   15909.4    628.6   1.678843128  34.74023   1.94643   5.56197  -0.12720
   1   19068.6    524.4   0.578516232   9.98784   1.32851  -2.84396  -0.36717
   2   22195.8    450.5   0.164806919   2.44444  -0.45011  -0.83000   1.24617
   3   22453.2    445.4   0.129927126   1.90501   1.02826   0.91932  -0.05052
   4   25421.7    393.4   0.052610854   0.68131  -0.36978   0.61892   0.40188
   5   26827.1    372.8   0.397060576   4.87257   0.91669  -0.71157   1.87775
   6   27583.7    362.5   0.199023377   2.37534   0.41249  -0.01266   1.48494
   7   27963.9    357.6   0.074599094   0.87824   0.53909   0.67830   0.35711
   8   28321.1    353.1   0.089348855   1.03862   0.18970  -0.03825  -1.00058
   9   28925.3    345.7   0.022215491   0.25284   0.16287   0.03734   0.47426
  10   29584.0    338.0   0.005980753   0.06655   0.01892   0.02043   0.25647
  11   29656.9    337.2   0.057842597   0.64209   0.26305   0.02265   0.75656
  12   30932.7    323.3   0.001496971   0.01593  -0.05797   0.11030  -0.02014
  13   30958.8    323.0   0.004847104   0.05154   0.11814  -0.18671  -0.05221
  14   31543.6    317.0   0.143033531   1.49280   0.20237  -1.19753   0.13332
  15   31995.1    312.5   0.118537555   1.21969   0.46518   0.49996   0.86794
  16   33431.1    299.1   0.111730446   1.10026   0.69192   0.60944   0.50009
  17   34407.1    290.6   0.059745267   0.57165   0.23778   0.48365   0.53028
  18   34769.0    287.6   0.002222765   0.02105  -0.03056   0.13998  -0.02274
  19   35123.7    284.7   0.004677003   0.04384  -0.06217  -0.16858  -0.10749
  20   36469.7    274.2   0.014341551   0.12946   0.17919  -0.15488   0.27086
  21   37207.6    268.8   0.103166548   0.91281  -0.02625   0.85430  -0.42695
  22   37413.5    267.3   0.012170936   0.10710  -0.18030   0.21157   0.17270
  23   37677.5    265.4   0.019585242   0.17113  -0.10421  -0.16700   0.36384
  24   37863.5    264.1   0.047339094   0.41160  -0.05314  -0.25348   0.58696
  25   38074.6    262.6   0.030332235   0.26227  -0.25546   0.41638  -0.15372
  26   38903.7    257.0   0.154458584   1.30706   0.10514   0.94671   0.63226
  27   39577.9    252.7   0.025279633   0.21028   0.06391   0.19637  -0.40943
  28   39838.2    251.0   0.018510271   0.15296  -0.26959  -0.28260  -0.02051
  29   40027.4    249.8   0.033635411   0.27664   0.12945   0.38243   0.33709
  30   40170.6    248.9   0.176104533   1.44324  -0.41773   0.26695  -1.09429

FINAL SINGLE POINT ENERGY     -3826.306409387326

DIPOLE MOMENT
-------------
                                X             Y             Z
Electronic contribution:     -1.09000      -4.57641      11.37560
Nuclear contribution   :      0.72060       3.26088     -12.03917
                        -----------------------------------------
Total Dipole Moment    :     -0.36940      -1.31553      -0.66357
                        -----------------------------------------
Magnitude (a.u.)       :      1.51901
Magnitude (Debye)      :      3.86102

Rotational constants in cm-1:     0.001876     0.000243     0.000234
Rotational constants in MHz :    56.248206     7.294635     7.020082

                             ****ORCA TERMINATED NORMALLY****
TOTAL RUN TIME: 0 days 0 hours 8 minutes 29 seconds 646 msec
