                         Program Version 4.2.0 -  RELEASE  -
|  1> # ORCA input file
|  2> # SCF done       -190.381282436227          0.000776829421
|  3> ! CAM-B3LYP def2-SVP def2/J RIJCOSX Grid4 TightSCF
|  4> %maxcore 5000
|  5> %tddft
|  6>     Mode sTDDFT
|  7>     Ethresh 5.0
|  8>     maxcore 5000
|  9> end
| 10>
| 11> %pal
| 12>   nprocs 6
| 13>   end
| 14> * xyz 0 1
| 15>    C       -1.98915        -1.73098         1.72158
| 16>    N       -3.04750        -1.01157         2.17572
| 17>    C       -4.40134        -1.48978         2.30618
| 18>    C       -4.56625        -2.36644         3.54479
| 19>    C       -2.65106         0.27769         2.59393
| 20>    O       -3.43236         1.10997         3.02204
| 21>    C       -1.22878         0.30119         2.35986
| 22>    C       -0.85907        -0.96333         1.80922
| 23>    C        0.57203        -0.94375         1.56312
| 24>    O        1.33025        -1.77103         1.11351
| 25>    N        0.97399         0.33627         1.99532
| 26>    C        2.34722         0.76845         1.87393
| 27>    C        2.54258         1.76496         0.73438
| 28>    C       -0.07758         1.08188         2.46830
| 29>    C        0.06947         2.39177         2.98710
| 30>    C       -0.99703         3.09241         3.45852
| 31>    C       -0.99951         4.40129         4.00403
| 32>    C       -0.25483         5.54732         3.71845
| 33>    N        0.79082         5.74640         2.80554
| 34>    O        1.10961         6.90123         2.56902
| 35>    O        1.33143         4.78202         2.28120
| 36>    C       -0.81486         6.66374         4.43360
| 37>    C       -1.90055         6.24690         5.12972
| 38>    C       -2.06610         4.83441         4.91881
| 39>    C       -2.94231         3.99822         5.58382
| 40>    C       -2.72410         2.62924         5.92697
| 41>    C       -3.67488         2.24338         6.82205
| 42>    C       -4.58804         3.33003         7.03285
| 43>    N       -5.72655         3.22076         7.84101
| 44>    O       -5.90755         2.16028         8.41798
| 45>    O       -6.47718         4.18240         7.93498
| 46>    C       -4.18755         4.41670         6.26297
| 47>    C       -4.89199         5.62259         6.05209
| 48>    C       -4.83666         6.35489         4.90759
| 49>    C       -5.48268         7.62316         4.72098
| 50>    C       -5.84250         8.08447         3.42406
| 51>    N       -5.66096         7.32543         2.31949
| 52>    C       -6.41746         9.35845         3.29673
| 53>    C       -6.63644        10.15589         4.38892
| 54>    C       -6.27851         9.72395         5.68082
| 55>    C       -5.72071         8.45757         5.81343
| 56>    C       -6.43598        10.58087         6.82957
| 57>    C       -5.78332        10.47006         8.03371
| 58>    C       -6.18708        11.53003         8.89435
| 59>    C       -7.17676        12.31160         8.13453
| 60>    C       -7.30498        11.74182         6.90473
| 61>    C       -7.87167        13.44210         8.57136
| 62>    N       -8.45866        14.37570         8.89626
| 63>    C       -5.72965        11.79724        10.16563
| 64>    C       -6.10840        12.85696        11.02805
| 65>    C       -5.39619        12.76929        12.20912
| 66>    C       -4.52429        11.60518        12.11218
| 67>    C       -4.71115        11.01881        10.90229
| 68>    C       -4.02456         9.88698        10.45060
| 69>    N       -3.42864         8.96641        10.10597
| 70>    C       -5.48369        13.66408        13.29942
| 71>    C       -4.73073        13.58138        14.43067
| 72>    C       -4.80919        14.47283        15.51946
| 73>    S       -6.08109        15.65533        15.63142
| 74>    C       -5.58848        16.16107        17.17578
| 75>    C       -4.47434        15.47787        17.62706
| 76>    C       -3.99989        14.52370        16.66683
| 77>    C       -2.83123        13.78657        16.96853
| 78>    C       -2.16772        12.89387        15.97161
| 79>    O       -2.05029        11.70124        16.07540
| 80>    O       -1.67041        13.62508        14.96510
| 81>    C       -0.98527        12.94170        13.92197
| 82>    C       -2.24096        13.93474        18.19913
| 83>    C       -2.73988        14.84416        19.15174
| 84>    C       -3.82236        15.62472        18.87204
| 85>    H       -2.11407        -2.73541         1.36177
| 86>    H       -4.67222        -2.04636         1.40447
| 87>    H       -5.03834        -0.60524         2.38919
| 88>    H       -3.91481        -3.23588         3.48961
| 89>    H       -5.59535        -2.70493         3.62324
| 90>    H       -4.31753        -1.79998         4.43884
| 91>    H        2.92421        -0.13947         1.67558
| 92>    H        2.68161         1.19857         2.82227
| 93>    H        2.16781         1.34495        -0.19608
| 94>    H        3.60203         1.97475         0.61729
| 95>    H        2.02724         2.70120         0.93307
| 96>    H        1.05966         2.81372         3.01937
| 97>    H       -1.96473         2.60534         3.45425
| 98>    H       -0.39862         7.65230         4.39812
| 99>    H       -2.48048         6.83458         5.81324
|100>    H       -1.87437         2.04974         5.62482
|101>    H       -3.76243         1.29373         7.31530
|102>    H       -5.59750         5.89543         6.82604
|103>    H       -4.27695         5.95417         4.07142
|104>    H       -5.35786         6.37134         2.38683
|105>    H       -5.99190         7.65797         1.43151
|106>    H       -6.68820         9.70565         2.30985
|107>    H       -7.06621        11.13557         4.25064
|108>    H       -5.43907         8.10979         6.79400
|109>    H       -5.05274         9.73225         8.29637
|110>    H       -7.96658        12.07797         6.12791
|111>    H       -6.83551        13.60901        10.79214
|112>    H       -3.85068        11.26212        12.87570
|113>    H       -6.19228        14.47693        13.19719
|114>    H       -4.02817        12.76880        14.53543
|115>    H       -6.13697        16.92480        17.69069
|116>    H       -1.57191        13.02666        13.00566
|117>    H       -0.85176        11.89096        14.18751
|118>    H       -0.01760        13.42235        13.78631
|119>    H       -1.35950        13.35685        18.43254
|120>    H       -2.23639        14.92955        20.10232
|121>    H       -4.19600        16.34861        19.57981
|122> *
|123>
|124>                          ****END OF INPUT****

CARTESIAN COORDINATES (ANGSTROEM)
---------------------------------
  C     -1.989150   -1.730980    1.721580
  N     -3.047500   -1.011570    2.175720
  C     -4.401340   -1.489780    2.306180
  C     -4.566250   -2.366440    3.544790
  C     -2.651060    0.277690    2.593930
  O     -3.432360    1.109970    3.022040
  C     -1.228780    0.301190    2.359860
  C     -0.859070   -0.963330    1.809220
  C      0.572030   -0.943750    1.563120
  O      1.330250   -1.771030    1.113510
  N      0.973990    0.336270    1.995320
  C      2.347220    0.768450    1.873930
  C      2.542580    1.764960    0.734380
  C     -0.077580    1.081880    2.468300
  C      0.069470    2.391770    2.987100
  C     -0.997030    3.092410    3.458520
  C     -0.999510    4.401290    4.004030
  C     -0.254830    5.547320    3.718450
  N      0.790820    5.746400    2.805540
  O      1.109610    6.901230    2.569020
  O      1.331430    4.782020    2.281200
  C     -0.814860    6.663740    4.433600
  C     -1.900550    6.246900    5.129720
  C     -2.066100    4.834410    4.918810
  C     -2.942310    3.998220    5.583820
  C     -2.724100    2.629240    5.926970
  C     -3.674880    2.243380    6.822050
  C     -4.588040    3.330030    7.032850
  N     -5.726550    3.220760    7.841010
  O     -5.907550    2.160280    8.417980
  O     -6.477180    4.182400    7.934980
  C     -4.187550    4.416700    6.262970
  C     -4.891990    5.622590    6.052090
  C     -4.836660    6.354890    4.907590
  C     -5.482680    7.623160    4.720980
  C     -5.842500    8.084470    3.424060
  N     -5.660960    7.325430    2.319490
  C     -6.417460    9.358450    3.296730
  C     -6.636440   10.155890    4.388920
  C     -6.278510    9.723950    5.680820
  C     -5.720710    8.457570    5.813430
  C     -6.435980   10.580870    6.829570
  C     -5.783320   10.470060    8.033710
  C     -6.187080   11.530030    8.894350
  C     -7.176760   12.311600    8.134530
  C     -7.304980   11.741820    6.904730
  C     -7.871670   13.442100    8.571360
  N     -8.458660   14.375700    8.896260
  C     -5.729650   11.797240   10.165630
  C     -6.108400   12.856960   11.028050
  C     -5.396190   12.769290   12.209120
  C     -4.524290   11.605180   12.112180
  C     -4.711150   11.018810   10.902290
  C     -4.024560    9.886980   10.450600
  N     -3.428640    8.966410   10.105970
  C     -5.483690   13.664080   13.299420
  C     -4.730730   13.581380   14.430670
  C     -4.809190   14.472830   15.519460
  S     -6.081090   15.655330   15.631420
  C     -5.588480   16.161070   17.175780
  C     -4.474340   15.477870   17.627060
  C     -3.999890   14.523700   16.666830
  C     -2.831230   13.786570   16.968530
  C     -2.167720   12.893870   15.971610
  O     -2.050290   11.701240   16.075400
  O     -1.670410   13.625080   14.965100
  C     -0.985270   12.941700   13.921970
  C     -2.240960   13.934740   18.199130
  C     -2.739880   14.844160   19.151740
  C     -3.822360   15.624720   18.872040
  H     -2.114070   -2.735410    1.361770
  H     -4.672220   -2.046360    1.404470
  H     -5.038340   -0.605240    2.389190
  H     -3.914810   -3.235880    3.489610
  H     -5.595350   -2.704930    3.623240
  H     -4.317530   -1.799980    4.438840
  H      2.924210   -0.139470    1.675580
  H      2.681610    1.198570    2.822270
  H      2.167810    1.344950   -0.196080
  H      3.602030    1.974750    0.617290
  H      2.027240    2.701200    0.933070
  H      1.059660    2.813720    3.019370
  H     -1.964730    2.605340    3.454250
  H     -0.398620    7.652300    4.398120
  H     -2.480480    6.834580    5.813240
  H     -1.874370    2.049740    5.624820
  H     -3.762430    1.293730    7.315300
  H     -5.597500    5.895430    6.826040
  H     -4.276950    5.954170    4.071420
  H     -5.357860    6.371340    2.386830
  H     -5.991900    7.657970    1.431510
  H     -6.688200    9.705650    2.309850
  H     -7.066210   11.135570    4.250640
  H     -5.439070    8.109790    6.794000
  H     -5.052740    9.732250    8.296370
  H     -7.966580   12.077970    6.127910
  H     -6.835510   13.609010   10.792140
  H     -3.850680   11.262120   12.875700
  H     -6.192280   14.476930   13.197190
  H     -4.028170   12.768800   14.535430
  H     -6.136970   16.924800   17.690690
  H     -1.571910   13.026660   13.005660
  H     -0.851760   11.890960   14.187510
  H     -0.017600   13.422350   13.786310
  H     -1.359500   13.356850   18.432540
  H     -2.236390   14.929550   20.102320
  H     -4.196000   16.348610   19.579810

 Total Charge           Charge          ....    0
 Multiplicity           Mult            ....    1
 Number of Electrons    NEL             ....  490
 Basis Dimension        Dim             .... 1169

ORBITAL ENERGIES
----------------

  NO   OCC          E(Eh)            E(eV)
   0   2.0000     -88.976225     -2421.1662
   1   2.0000     -19.263637      -524.1902
   2   2.0000     -19.238817      -523.5148
   3   2.0000     -19.237873      -523.4892
   4   2.0000     -19.225260      -523.1459
   5   2.0000     -19.224793      -523.1332
   6   2.0000     -19.210830      -522.7533
   7   2.0000     -19.196475      -522.3626
   8   2.0000     -19.187127      -522.1083
   9   2.0000     -14.647100      -398.5678
  10   2.0000     -14.634609      -398.2280
  11   2.0000     -14.458226      -393.4283
  12   2.0000     -14.451914      -393.2566
  13   2.0000     -14.444336      -393.0504
  14   2.0000     -14.403854      -391.9488
  15   2.0000     -14.399215      -391.8226
  16   2.0000     -10.406155      -283.1659
  17   2.0000     -10.377458      -282.3850
  18   2.0000     -10.373566      -282.2791
  19   2.0000     -10.343295      -281.4554
  20   2.0000     -10.339361      -281.3483
  21   2.0000     -10.333207      -281.1808
  22   2.0000     -10.331463      -281.1334
  23   2.0000     -10.326099      -280.9874
  24   2.0000     -10.323189      -280.9083
  25   2.0000     -10.322106      -280.8788
  26   2.0000     -10.317924      -280.7650
  27   2.0000     -10.316522      -280.7268
  28   2.0000     -10.316078      -280.7148
  29   2.0000     -10.312802      -280.6256
  30   2.0000     -10.310548      -280.5643
  31   2.0000     -10.310037      -280.5504
  32   2.0000     -10.309217      -280.5281
  33   2.0000     -10.307897      -280.4921
  34   2.0000     -10.307621      -280.4846
  35   2.0000     -10.306356      -280.4502
  36   2.0000     -10.304099      -280.3888
  37   2.0000     -10.303754      -280.3794
  38   2.0000     -10.302824      -280.3541
  39   2.0000     -10.301794      -280.3261
  40   2.0000     -10.301456      -280.3169
  41   2.0000     -10.297515      -280.2096
  42   2.0000     -10.297321      -280.2043
  43   2.0000     -10.297003      -280.1957
  44   2.0000     -10.294938      -280.1395
  45   2.0000     -10.294827      -280.1365
  46   2.0000     -10.293916      -280.1117
  47   2.0000     -10.293431      -280.0985
  48   2.0000     -10.293221      -280.0928
  49   2.0000     -10.290049      -280.0065
  50   2.0000     -10.289838      -280.0007
  51   2.0000     -10.289768      -279.9988
  52   2.0000     -10.288847      -279.9737
  53   2.0000     -10.288652      -279.9684
  54   2.0000     -10.288422      -279.9622
  55   2.0000     -10.286443      -279.9084
  56   2.0000     -10.285434      -279.8809
  57   2.0000     -10.284835      -279.8646
  58   2.0000     -10.284819      -279.8642
  59   2.0000     -10.283196      -279.8200
  60   2.0000     -10.281538      -279.7749
  61   2.0000     -10.280174      -279.7377
  62   2.0000     -10.279631      -279.7230
  63   2.0000     -10.277794      -279.6730
  64   2.0000     -10.269173      -279.4384
  65   2.0000     -10.267388      -279.3898
  66   2.0000     -10.266326      -279.3609
  67   2.0000     -10.264209      -279.3033
  68   2.0000     -10.262501      -279.2569
  69   2.0000     -10.253837      -279.0211
  70   2.0000      -8.071347      -219.6325
  71   2.0000      -6.040153      -164.3609
  72   2.0000      -6.035955      -164.2467
  73   2.0000      -6.034644      -164.2110
  74   2.0000      -1.316362       -35.8200
  75   2.0000      -1.303239       -35.4629
  76   2.0000      -1.195254       -32.5245
  77   2.0000      -1.135056       -30.8864
  78   2.0000      -1.132257       -30.8103
  79   2.0000      -1.126950       -30.6659
  80   2.0000      -1.120020       -30.4773
  81   2.0000      -1.103325       -30.0230
  82   2.0000      -1.065668       -28.9983
  83   2.0000      -1.056356       -28.7449
  84   2.0000      -1.037862       -28.2417
  85   2.0000      -1.013614       -27.5818
  86   2.0000      -1.006237       -27.3811
  87   2.0000      -1.004072       -27.3222
  88   2.0000      -0.992300       -27.0019
  89   2.0000      -0.992044       -26.9949
  90   2.0000      -0.977864       -26.6090
  91   2.0000      -0.973227       -26.4828
  92   2.0000      -0.950711       -25.8702
  93   2.0000      -0.941836       -25.6287
  94   2.0000      -0.928752       -25.2726
  95   2.0000      -0.914508       -24.8850
  96   2.0000      -0.911479       -24.8026
  97   2.0000      -0.908684       -24.7266
  98   2.0000      -0.905550       -24.6413
  99   2.0000      -0.879388       -23.9294
 100   2.0000      -0.877205       -23.8700
 101   2.0000      -0.872528       -23.7427
 102   2.0000      -0.866024       -23.5657
 103   2.0000      -0.855854       -23.2890
 104   2.0000      -0.848019       -23.0758
 105   2.0000      -0.843134       -22.9429
 106   2.0000      -0.841106       -22.8876
 107   2.0000      -0.837477       -22.7889
 108   2.0000      -0.821065       -22.3423
 109   2.0000      -0.819661       -22.3041
 110   2.0000      -0.814460       -22.1626
 111   2.0000      -0.812603       -22.1120
 112   2.0000      -0.799901       -21.7664
 113   2.0000      -0.793356       -21.5883
 114   2.0000      -0.784522       -21.3479
 115   2.0000      -0.761829       -20.7304
 116   2.0000      -0.759880       -20.6774
 117   2.0000      -0.759513       -20.6674
 118   2.0000      -0.735118       -20.0036
 119   2.0000      -0.731507       -19.9053
 120   2.0000      -0.724899       -19.7255
 121   2.0000      -0.723730       -19.6937
 122   2.0000      -0.718035       -19.5387
 123   2.0000      -0.709286       -19.3007
 124   2.0000      -0.705681       -19.2026
 125   2.0000      -0.703604       -19.1460
 126   2.0000      -0.687908       -18.7189
 127   2.0000      -0.684004       -18.6127
 128   2.0000      -0.675986       -18.3945
 129   2.0000      -0.668555       -18.1923
 130   2.0000      -0.666517       -18.1368
 131   2.0000      -0.662296       -18.0220
 132   2.0000      -0.655559       -17.8387
 133   2.0000      -0.650955       -17.7134
 134   2.0000      -0.646977       -17.6051
 135   2.0000      -0.641905       -17.4671
 136   2.0000      -0.635090       -17.2817
 137   2.0000      -0.634228       -17.2582
 138   2.0000      -0.628077       -17.0909
 139   2.0000      -0.626610       -17.0509
 140   2.0000      -0.624515       -16.9939
 141   2.0000      -0.617876       -16.8133
 142   2.0000      -0.616319       -16.7709
 143   2.0000      -0.614788       -16.7292
 144   2.0000      -0.613061       -16.6822
 145   2.0000      -0.607493       -16.5307
 146   2.0000      -0.605266       -16.4701
 147   2.0000      -0.599625       -16.3166
 148   2.0000      -0.590168       -16.0593
 149   2.0000      -0.585302       -15.9269
 150   2.0000      -0.584446       -15.9036
 151   2.0000      -0.577452       -15.7133
 152   2.0000      -0.575333       -15.6556
 153   2.0000      -0.573047       -15.5934
 154   2.0000      -0.568682       -15.4746
 155   2.0000      -0.564915       -15.3721
 156   2.0000      -0.562396       -15.3036
 157   2.0000      -0.557404       -15.1677
 158   2.0000      -0.556539       -15.1442
 159   2.0000      -0.553012       -15.0482
 160   2.0000      -0.551363       -15.0034
 161   2.0000      -0.544670       -14.8212
 162   2.0000      -0.538554       -14.6548
 163   2.0000      -0.535525       -14.5724
 164   2.0000      -0.531647       -14.4668
 165   2.0000      -0.530225       -14.4281
 166   2.0000      -0.528245       -14.3743
 167   2.0000      -0.526249       -14.3200
 168   2.0000      -0.524763       -14.2795
 169   2.0000      -0.522828       -14.2269
 170   2.0000      -0.519355       -14.1324
 171   2.0000      -0.518017       -14.0960
 172   2.0000      -0.512947       -13.9580
 173   2.0000      -0.510611       -13.8944
 174   2.0000      -0.509417       -13.8619
 175   2.0000      -0.508761       -13.8441
 176   2.0000      -0.506094       -13.7715
 177   2.0000      -0.504008       -13.7147
 178   2.0000      -0.502849       -13.6832
 179   2.0000      -0.502047       -13.6614
 180   2.0000      -0.499467       -13.5912
 181   2.0000      -0.499017       -13.5789
 182   2.0000      -0.493596       -13.4314
 183   2.0000      -0.491813       -13.3829
 184   2.0000      -0.489395       -13.3171
 185   2.0000      -0.485546       -13.2124
 186   2.0000      -0.482527       -13.1302
 187   2.0000      -0.479554       -13.0493
 188   2.0000      -0.477430       -12.9915
 189   2.0000      -0.476496       -12.9661
 190   2.0000      -0.474425       -12.9098
 191   2.0000      -0.472907       -12.8684
 192   2.0000      -0.466289       -12.6884
 193   2.0000      -0.463693       -12.6177
 194   2.0000      -0.462656       -12.5895
 195   2.0000      -0.459875       -12.5138
 196   2.0000      -0.458361       -12.4726
 197   2.0000      -0.455592       -12.3973
 198   2.0000      -0.454325       -12.3628
 199   2.0000      -0.451112       -12.2754
 200   2.0000      -0.448812       -12.2128
 201   2.0000      -0.443014       -12.0550
 202   2.0000      -0.442445       -12.0395
 203   2.0000      -0.441481       -12.0133
 204   2.0000      -0.438331       -11.9276
 205   2.0000      -0.435116       -11.8401
 206   2.0000      -0.434940       -11.8353
 207   2.0000      -0.434240       -11.8163
 208   2.0000      -0.431434       -11.7399
 209   2.0000      -0.429427       -11.6853
 210   2.0000      -0.427069       -11.6211
 211   2.0000      -0.426421       -11.6035
 212   2.0000      -0.425272       -11.5722
 213   2.0000      -0.420006       -11.4289
 214   2.0000      -0.418530       -11.3888
 215   2.0000      -0.409168       -11.1340
 216   2.0000      -0.408658       -11.1201
 217   2.0000      -0.408162       -11.1067
 218   2.0000      -0.397710       -10.8222
 219   2.0000      -0.391380       -10.6500
 220   2.0000      -0.388292       -10.5660
 221   2.0000      -0.388226       -10.5642
 222   2.0000      -0.380699       -10.3593
 223   2.0000      -0.379891       -10.3374
 224   2.0000      -0.372943       -10.1483
 225   2.0000      -0.367448        -9.9988
 226   2.0000      -0.366368        -9.9694
 227   2.0000      -0.365152        -9.9363
 228   2.0000      -0.359475        -9.7818
 229   2.0000      -0.352341        -9.5877
 230   2.0000      -0.350503        -9.5377
 231   2.0000      -0.349381        -9.5072
 232   2.0000      -0.340424        -9.2634
 233   2.0000      -0.331611        -9.0236
 234   2.0000      -0.331119        -9.0102
 235   2.0000      -0.326268        -8.8782
 236   2.0000      -0.323632        -8.8065
 237   2.0000      -0.316052        -8.6002
 238   2.0000      -0.310779        -8.4567
 239   2.0000      -0.301948        -8.2164
 240   2.0000      -0.301475        -8.2036
 241   2.0000      -0.280507        -7.6330
 242   2.0000      -0.260552        -7.0900
 243   2.0000      -0.247603        -6.7376
 244   2.0000      -0.237336        -6.4582
 245   0.0000      -0.130527        -3.5518
 246   0.0000      -0.111083        -3.0227
 247   0.0000      -0.073501        -2.0001
 248   0.0000      -0.051535        -1.4023
 249   0.0000      -0.042220        -1.1489

MULLIKEN ATOMIC CHARGES
-----------------------
   0 C :    0.043236
   1 N :   -0.253139
   2 C :    0.110741
   3 C :    0.000057
   4 C :    0.173687
   5 O :   -0.217986
   6 C :   -0.101148
   7 C :    0.000493
   8 C :    0.163910
   9 O :   -0.179754
  10 N :   -0.264658
  11 C :    0.097610
  12 C :   -0.004537
  13 C :    0.144311
  14 C :    0.014479
  15 C :   -0.096564
  16 C :    0.075625
  17 C :    0.074469
  18 N :    0.279357
  19 O :   -0.244449
  20 O :   -0.261630
  21 C :    0.005326
  22 C :    0.018514
  23 C :   -0.004926
  24 C :    0.043365
  25 C :    0.011120
  26 C :    0.026566
  27 C :    0.080077
  28 N :    0.274954
  29 O :   -0.257411
  30 O :   -0.259642
  31 C :    0.043695
  32 C :   -0.045060
  33 C :   -0.055216
  34 C :    0.092125
  35 C :    0.033626
  36 N :   -0.029973
  37 C :   -0.031525
  38 C :   -0.014986
  39 C :    0.125603
  40 C :   -0.093396
  41 C :    0.110281
  42 C :   -0.141487
  43 C :    0.116610
  44 C :   -0.098550
  45 C :   -0.023771
  46 C :   -0.176611
  47 N :    0.124556
  48 C :    0.122843
  49 C :   -0.125779
  50 C :    0.122895
  51 C :   -0.023746
  52 C :   -0.102671
  53 C :   -0.160869
  54 N :    0.121457
  55 C :   -0.021783
  56 C :    0.005572
  57 C :   -0.155273
  58 S :    0.170315
  59 C :   -0.111669
  60 C :    0.071873
  61 C :    0.173429
  62 C :    0.007224
  63 C :    0.122907
  64 O :   -0.202172
  65 O :   -0.297056
  66 C :    0.152691
  67 C :    0.000978
  68 C :    0.022619
  69 C :    0.011939
  70 H :    0.016565
  71 H :    0.019976
  72 H :    0.041245
  73 H :    0.016454
  74 H :    0.025847
  75 H :    0.029450
  76 H :    0.042227
  77 H :    0.024246
  78 H :    0.020181
  79 H :    0.023741
  80 H :    0.033730
  81 H :    0.000039
  82 H :    0.041884
  83 H :    0.002354
  84 H :    0.012372
  85 H :   -0.005018
  86 H :    0.002748
  87 H :    0.035843
  88 H :    0.013273
  89 H :    0.120973
  90 H :    0.120276
  91 H :   -0.040159
  92 H :   -0.021507
  93 H :   -0.014315
  94 H :   -0.010059
  95 H :   -0.007301
  96 H :   -0.004138
  97 H :    0.002722
  98 H :   -0.006171
  99 H :    0.006439
 100 H :    0.025462
 101 H :    0.037539
 102 H :    0.053904
 103 H :    0.042344
 104 H :   -0.008179
 105 H :   -0.007695
 106 H :   -0.020993
Sum of atomic charges:   -0.0000000

LOEWDIN ATOMIC CHARGES
----------------------
   0 C :    0.091915
   1 N :    0.003324
   2 C :    0.038682
   3 C :   -0.059719
   4 C :    0.076363
   5 O :   -0.206148
   6 C :   -0.127296
   7 C :   -0.126740
   8 C :    0.081849
   9 O :   -0.184614
  10 N :   -0.004153
  11 C :    0.036223
  12 C :   -0.062288
  13 C :    0.081818
  14 C :   -0.014518
  15 C :    0.010063
  16 C :    0.000175
  17 C :   -0.039023
  18 N :    0.287885
  19 O :   -0.209956
  20 O :   -0.217939
  21 C :   -0.005228
  22 C :   -0.030140
  23 C :    0.026746
  24 C :    0.055455
  25 C :   -0.044444
  26 C :    0.035801
  27 C :   -0.062913
  28 N :    0.286881
  29 O :   -0.221462
  30 O :   -0.223127
  31 C :    0.023610
  32 C :   -0.023057
  33 C :    0.022107
  34 C :   -0.073458
  35 C :    0.060242
  36 N :    0.011327
  37 C :   -0.065513
  38 C :    0.015161
  39 C :   -0.056049
  40 C :    0.028690
  41 C :   -0.005126
  42 C :   -0.044850
  43 C :    0.030567
  44 C :   -0.082163
  45 C :    0.042552
  46 C :   -0.029787
  47 N :   -0.072653
  48 C :    0.033334
  49 C :   -0.041519
  50 C :   -0.011445
  51 C :    0.046182
  52 C :   -0.075593
  53 C :   -0.026891
  54 N :   -0.071219
  55 C :   -0.032802
  56 C :   -0.016449
  57 C :   -0.185820
  58 S :    0.504642
  59 C :   -0.180638
  60 C :   -0.052220
  61 C :   -0.028085
  62 C :   -0.044078
  63 C :    0.079874
  64 O :   -0.164776
  65 O :   -0.088833
  66 C :    0.076814
  67 C :    0.001780
  68 C :   -0.027493
  69 C :   -0.001954
  70 H :    0.033687
  71 H :    0.025461
  72 H :    0.035909
  73 H :    0.023117
  74 H :    0.031374
  75 H :    0.031358
  76 H :    0.036662
  77 H :    0.023752
  78 H :    0.028740
  79 H :    0.032119
  80 H :    0.026266
  81 H :    0.029875
  82 H :    0.040311
  83 H :    0.037089
  84 H :    0.035249
  85 H :    0.030922
  86 H :    0.038433
  87 H :    0.041705
  88 H :    0.025427
  89 H :    0.076723
  90 H :    0.081805
  91 H :    0.026206
  92 H :    0.030631
  93 H :    0.034633
  94 H :    0.028677
  95 H :    0.032460
  96 H :    0.033284
  97 H :    0.034683
  98 H :    0.027990
  99 H :    0.034578
 100 H :    0.027287
 101 H :    0.023116
 102 H :    0.024433
 103 H :    0.028500
 104 H :    0.035417
 105 H :    0.032266
 106 H :    0.031974

  Mayer bond orders larger than 0.100000
B(  0-C ,  1-N ) :   1.1928 B(  0-C ,  7-C ) :   1.4503 B(  0-C , 70-H ) :   0.9902
B(  1-N ,  2-C ) :   0.9414 B(  1-N ,  4-C ) :   1.0634 B(  2-C ,  3-C ) :   1.1202
B(  2-C , 71-H ) :   0.9535 B(  2-C , 72-H ) :   0.9344 B(  3-C , 73-H ) :   0.9688
B(  3-C , 74-H ) :   0.9688 B(  3-C , 75-H ) :   0.9674 B(  4-C ,  5-O ) :   1.9963
B(  4-C ,  6-C ) :   1.0053 B(  5-O , 82-H ) :   0.1149 B(  6-C ,  7-C ) :   1.2161
B(  6-C , 13-C ) :   1.3469 B(  7-C ,  8-C ) :   0.9455 B(  8-C ,  9-O ) :   2.1821
B(  8-C , 10-N ) :   1.0192 B( 10-N , 11-C ) :   0.9395 B( 10-N , 13-C ) :   1.1677
B( 11-C , 12-C ) :   1.1216 B( 11-C , 76-H ) :   0.9277 B( 11-C , 77-H ) :   0.9495
B( 12-C , 78-H ) :   0.9621 B( 12-C , 79-H ) :   0.9659 B( 12-C , 80-H ) :   0.9649
B( 13-C , 14-C ) :   1.1517 B( 14-C , 15-C ) :   1.6046 B( 14-C , 81-H ) :   0.9580
B( 15-C , 16-C ) :   1.1176 B( 15-C , 82-H ) :   0.9251 B( 16-C , 17-C ) :   1.4868
B( 16-C , 23-C ) :   1.0480 B( 17-C , 18-N ) :   0.9594 B( 17-C , 21-C ) :   1.1357
B( 18-N , 19-O ) :   1.5372 B( 18-N , 20-O ) :   1.4616 B( 19-O , 20-O ) :   0.2535
B( 21-C , 22-C ) :   1.5803 B( 21-C , 83-H ) :   1.0100 B( 22-C , 23-C ) :   1.1208
B( 22-C , 84-H ) :   0.9969 B( 23-C , 24-C ) :   1.4777 B( 24-C , 25-C ) :   1.1649
B( 24-C , 31-C ) :   1.0027 B( 25-C , 26-C ) :   1.5451 B( 25-C , 85-H ) :   1.0027
B( 26-C , 27-C ) :   1.1340 B( 26-C , 86-H ) :   1.0099 B( 27-C , 28-N ) :   0.9605
B( 27-C , 31-C ) :   1.4915 B( 28-N , 29-O ) :   1.5251 B( 28-N , 30-O ) :   1.4893
B( 29-O , 30-O ) :   0.2545 B( 31-C , 32-C ) :   1.2020 B( 32-C , 33-C ) :   1.5973
B( 32-C , 87-H ) :   0.9477 B( 33-C , 34-C ) :   1.0773 B( 33-C , 88-H ) :   0.9558
B( 34-C , 35-C ) :   1.2477 B( 34-C , 40-C ) :   1.3379 B( 35-C , 36-N ) :   1.3370
B( 35-C , 37-C ) :   1.2778 B( 36-N , 89-H ) :   0.9418 B( 36-N , 90-H ) :   0.9398
B( 37-C , 38-C ) :   1.4387 B( 37-C , 91-H ) :   0.9904 B( 38-C , 39-C ) :   1.2804
B( 38-C , 92-H ) :   0.9912 B( 39-C , 40-C ) :   1.3565 B( 39-C , 41-C ) :   1.0085
B( 40-C , 93-H ) :   0.9949 B( 41-C , 42-C ) :   1.5721 B( 41-C , 45-C ) :   1.0662
B( 42-C , 43-C ) :   1.1262 B( 42-C , 94-H ) :   0.9961 B( 43-C , 44-C ) :   1.1137
B( 43-C , 48-C ) :   1.3868 B( 44-C , 45-C ) :   1.6535 B( 44-C , 46-C ) :   1.0880
B( 45-C , 95-H ) :   1.0145 B( 46-C , 47-N ) :   2.9638 B( 48-C , 49-C ) :   1.1362
B( 48-C , 52-C ) :   1.0999 B( 49-C , 50-C ) :   1.4880 B( 49-C , 96-H ) :   1.0114
B( 50-C , 51-C ) :   1.0409 B( 50-C , 55-C ) :   1.1500 B( 51-C , 52-C ) :   1.6835
B( 51-C , 97-H ) :   1.0128 B( 52-C , 53-C ) :   1.0889 B( 53-C , 54-N ) :   2.9595
B( 55-C , 56-C ) :   1.5941 B( 55-C , 98-H ) :   0.9776 B( 56-C , 57-C ) :   1.1866
B( 56-C , 99-H ) :   0.9525 B( 57-C , 58-S ) :   1.1482 B( 57-C , 59-C ) :   0.1058
B( 57-C , 61-C ) :   1.3355 B( 58-S , 59-C ) :   1.2256 B( 59-C , 60-C ) :   1.3975
B( 59-C ,100-H ) :   0.9688 B( 60-C , 61-C ) :   1.2022 B( 60-C , 69-C ) :   1.1775
B( 61-C , 62-C ) :   1.2477 B( 62-C , 63-C ) :   0.8731 B( 62-C , 67-C ) :   1.5908
B( 63-C , 64-O ) :   2.1111 B( 63-C , 65-O ) :   1.2084 B( 65-O , 66-C ) :   0.9143
B( 66-C ,101-H ) :   0.9789 B( 66-C ,102-H ) :   0.9597 B( 66-C ,103-H ) :   0.9812
B( 67-C , 68-C ) :   1.1986 B( 67-C ,104-H ) :   0.9891 B( 68-C , 69-C ) :   1.5514
B( 68-C ,105-H ) :   0.9883 B( 69-C ,106-H ) :   1.0015

-----------------------------------------------------------------------------
         ABSORPTION SPECTRUM VIA TRANSITION ELECTRIC DIPOLE MOMENTS
-----------------------------------------------------------------------------
State   Energy  Wavelength   fosc         T2         TX        TY        TZ
        (cm-1)    (nm)                  (au**2)     (au)      (au)      (au)
-----------------------------------------------------------------------------
   0    8044.1   1243.2   0.216631997   8.86589   0.81706  -2.52992  -1.34083
   1   10582.1    945.0   0.035310937   1.09853   0.60562  -0.57358  -0.63464
   2   12587.1    794.5   0.706123691  18.46840   1.23568   1.40640   3.86827
   3   14228.8    702.8   0.012308024   0.28477  -0.29171  -0.10645   0.43399
   4   16456.1    607.7   0.008339234   0.16683  -0.16049   0.18843  -0.32491
   5   17851.4    560.2   0.007585182   0.13988   0.31486   0.15983  -0.12331
   6   18385.5    543.9   0.007670777   0.13735  -0.20461   0.18345  -0.24867
   7   20383.3    490.6   0.019644817   0.31729  -0.55198   0.10693  -0.03421
   8   21025.1    475.6   0.160034566   2.50583   0.89959   0.98856   0.84812
   9   22771.4    439.1   0.168113081   2.43045   0.03014  -1.23408  -0.95215
  10   23254.0    430.0   0.240095022   3.39908  -0.17510  -0.74485  -1.67738
  11   23560.9    424.4   0.005056577   0.07065  -0.10858   0.17942  -0.16332
  12   24049.3    415.8   0.082878943   1.13453   0.11992   0.67123  -0.81830
  13   24680.3    405.2   0.037219917   0.49648  -0.27157   0.63848  -0.12278
  14   25014.3    399.8   0.093425587   1.22957  -0.09024  -1.09478   0.15126
  15   25396.3    393.8   0.417582851   5.41312  -0.07163  -1.02660  -2.08664
  16   25952.1    385.3   0.067714282   0.85898   0.76105   0.27166  -0.45386
  17   26486.4    377.6   0.010036866   0.12475   0.18748  -0.05647  -0.29396
  18   26982.1    370.6   0.059977206   0.73179   0.05736  -0.17440  -0.83551
  19   27092.2    369.1   0.054312761   0.65998   0.78734   0.14893   0.13379
  20   27754.2    360.3   0.086950285   1.03138   0.44446  -0.90479   0.12322
  21   27792.1    359.8   0.009764156   0.11566   0.29545  -0.04294  -0.16288
  22   27980.3    357.4   0.022502611   0.26476  -0.38772   0.32847   0.08088
  23   29212.2    342.3   0.343290746   3.86878  -1.61789  -0.28850   1.08074
  24   29861.6    334.9   0.015230312   0.16791   0.40209  -0.04533  -0.06464
  25   29999.3    333.3   0.115623501   1.26885   0.11151   0.50815  -0.99910
  26   30793.2    324.7   0.068279365   0.72998   0.14491  -0.79999   0.26267
  27   31012.0    322.5   0.108573735   1.15258   0.38966   0.84969   0.52798
  28   31121.1    321.3   0.008408704   0.08895   0.02761  -0.10140   0.27912
  29   31470.0    317.8   0.007750780   0.08108  -0.07681   0.25624   0.09758
  30   31489.3    317.6   0.061996838   0.64816  -0.05059   0.71732  -0.36200
  31   31609.6    316.4   0.011799571   0.12289  -0.02210  -0.24217  -0.25250
  32   31817.8    314.3   0.187602504   1.94108  -1.06844  -0.34979   0.82291
  33   31883.6    313.6   0.047456305   0.49001   0.37780  -0.45831   0.37045
  34   32350.3    309.1   0.343987268   3.50058  -0.79213  -1.59798   0.56531
  35   32438.4    308.3   0.024651330   0.25018   0.28908  -0.40433  -0.05595
  36   32590.3    306.8   0.033470498   0.33810  -0.00893   0.58116  -0.01680
  37   33114.5    302.0   0.069618883   0.69212  -0.18574  -0.80716   0.07822
  38   33643.1    297.2   0.118085759   1.15552   0.40395   0.71207  -0.69663
  39   33782.6    296.0   0.009853613   0.09602  -0.11082  -0.27561   0.08821
  40   33922.2    294.8   0.214842949   2.08503  -0.54508  -1.22841   0.52813
  41   34628.9    288.8   0.105612952   1.00405  -0.47897  -0.35007  -0.80752
  42   34905.8    286.5   0.283784421   2.67649   0.57765   0.23144   1.51303
  43   35251.0    283.7   0.012129710   0.11328  -0.26433  -0.07126   0.19578
  44   35656.7    280.5   0.007712799   0.07121  -0.15490  -0.02150  -0.21623
  45   35828.5    279.1   0.001719663   0.01580  -0.12343  -0.00625   0.02298
  46   36448.2    274.4   0.080410630   0.72629  -0.61050   0.54264  -0.24316
  47   36632.3    273.0   0.023145548   0.20801   0.30636   0.19057   0.27900
  48   36771.9    271.9   0.001093048   0.00979   0.00249  -0.05805   0.08006
  49   37171.3    269.0   0.012510899   0.11080  -0.04032   0.32858  -0.03484
  50   37312.9    268.0   0.010959882   0.09670  -0.26046   0.15202  -0.07583
  51   37365.4    267.6   0.014058298   0.12386   0.13828   0.05276  -0.31931
  52   37570.4    266.2   0.000257836   0.00226  -0.00850   0.00653   0.04631
  53   37815.3    264.4   0.021605862   0.18810  -0.05751  -0.23187   0.36197
  54   37918.5    263.7   0.156873522   1.36199   0.60686  -0.97417   0.21145
  55   38193.0    261.8   0.058366004   0.50310   0.20108   0.59996   0.32048
  56   38277.1    261.3   0.104222736   0.89639   0.34055  -0.07385   0.88032
  57   38543.2    259.4   0.002596293   0.02218   0.10875   0.09984   0.01956
  58   38601.2    259.1   0.000721699   0.00616  -0.04570  -0.00614  -0.06348
  59   38790.0    257.8   0.116952134   0.99258  -0.63910   0.35565   0.67649
  60   39281.1    254.6   0.025600116   0.21455   0.07005   0.44904   0.08946
  61   39463.3    253.4   0.009517066   0.07939  -0.20792  -0.18164   0.05630
  62   39607.6    252.5   0.057712430   0.47970   0.53889  -0.04540  -0.43271
  63   39915.3    250.5   0.044273560   0.36516  -0.04648  -0.06957   0.59846
  64   39996.1    250.0   0.142776555   1.17521   0.31846  -0.85481  -0.58574
  65   40064.9    249.6   0.046886329   0.38526   0.61903  -0.04547  -0.00037

FINAL SINGLE POINT ENERGY     -3458.988858803115

DIPOLE MOMENT
-------------
                                X             Y             Z
Electronic contribution:    -15.22144      30.92628      23.92856
Nuclear contribution   :     14.91713     -29.83543     -24.37361
                        -----------------------------------------
Total Dipole Moment    :     -0.30431       1.09085      -0.44505
                        -----------------------------------------
Magnitude (a.u.)       :      1.21681
Magnitude (Debye)      :      3.09288

Rotational constants in cm-1:     0.001707     0.000294     0.000281
Rotational constants in MHz :    51.164807     8.825886     8.438160

                             ****ORCA TERMINATED NORMALLY****
TOTAL RUN TIME: 0 days 0 hours 11 minutes 10 seconds 351 msec
