                         Program Version 4.2.0 -  RELEASE  -
|  1> # ORCA input file
|  2> # SCF done       -184.460165239221          0.000891105460
|  3> ! CAM-B3LYP def2-SVP def2/J RIJCOSX Grid4 TightSCF
|  4> %maxcore 5000
|  5> %tddft
|  6>     Mode sTDDFT
|  7>     Ethresh 5.0
|  8>     maxcore 5000
|  9> end
| 10>
| 11> %pal
| 12>   nprocs 6
| 13>   end
| 14> * xyz 0 1
| 15>    C        3.45340         0.93874         4.61391
| 16>    N        3.51215         2.14398         5.24254
| 17>    C        4.39395         2.48574         6.32930
| 18>    C        3.94741         1.84640         7.64143
| 19>    C        2.54421         3.04354         4.73110
| 20>    O        2.40619         4.17958         5.13917
| 21>    C        1.87501         2.27865         3.71072
| 22>    C        2.46786         0.97570         3.66941
| 23>    C        1.79501         0.22783         2.63143
| 24>    O        1.91973        -0.90898         2.23134
| 25>    N        0.85757         1.13969         2.08936
| 26>    C       -0.08830         0.67109         1.10543
| 27>    C       -1.51073         0.60920         1.65403
| 28>    C        0.90317         2.36145         2.72933
| 29>    C        0.15838         3.55325         2.47394
| 30>    C       -0.54240         3.89528         1.37499
| 31>    C       -1.21508         5.16059         1.18405
| 32>    C       -1.56296         6.00598         2.24322
| 33>    C       -2.19741         7.20542         2.00760
| 34>    C       -2.47394         7.62581         0.70586
| 35>    C       -2.14781         6.77787        -0.35302
| 36>    C       -1.54667         5.56273        -0.11541
| 37>    C       -3.13168         8.91747         0.46460
| 38>    C       -4.30781         9.19426         1.30402
| 39>    C       -5.24885         8.19203         1.53425
| 40>    C       -6.35697         8.43725         2.32288
| 41>    C       -6.53468         9.68091         2.90588
| 42>    C       -5.59310        10.67646         2.70162
| 43>    C       -4.48727        10.43717         1.90868
| 44>    C       -2.67343         9.78997        -0.46346
| 45>    C       -1.38351         9.60093        -1.14834
| 46>    C       -1.28300         9.82134        -2.52089
| 47>    C       -0.07527         9.65453        -3.17185
| 48>    C        1.05248         9.27818        -2.46145
| 49>    C        0.96712         9.07619        -1.09368
| 50>    C       -0.23959         9.23730        -0.44035
| 51>    C       -3.41963        10.99451        -0.84885
| 52>    C       -2.75516        12.21526        -0.99041
| 53>    C       -3.43921        13.35268        -1.35443
| 54>    C       -4.81308        13.29537        -1.61116
| 55>    C       -5.47495        12.07068        -1.49952
| 56>    C       -4.78787        10.93908        -1.12143
| 57>    C       -5.51158        14.49734        -1.98192
| 58>    S       -7.22073        14.53799        -2.39516
| 59>    C       -6.99047        16.27113        -2.61683
| 60>    N       -5.76577        16.64072        -2.38698
| 61>    N       -4.96068        15.67249        -2.04242
| 62>    C       -8.06049        17.13165        -2.99443
| 63>    C       -7.90808        18.46708        -3.10269
| 64>    C       -8.97976        19.33105        -3.46455
| 65>    S       -8.78476        21.07992        -3.52179
| 66>    C      -10.48626        21.11926        -3.98697
| 67>    N      -11.00501        19.92750        -4.05737
| 68>    N      -10.18828        18.95538        -3.77053
| 69>    C      -11.21478        22.31217        -4.24656
| 70>    C      -10.70201        23.54684        -4.07577
| 71>    C      -11.38018        24.79333        -4.27819
| 72>    C      -12.48264        25.04858        -5.05945
| 73>    C      -13.12934        26.38868        -5.15331
| 74>    C      -12.67783        27.50981        -4.43043
| 75>    C      -11.58373        27.47163        -3.64082
| 76>    S      -10.60902        26.07815        -3.38064
| 77>    N      -14.14240        26.40678        -5.98877
| 78>    C      -14.22878        25.14965        -6.50781
| 79>    C      -13.24945        24.28678        -5.96501
| 80>    S      -13.35304        22.71687        -6.66866
| 81>    C      -14.69855        23.22281        -7.67277
| 82>    C      -15.04455        24.53774        -7.46704
| 83>    C      -15.27101        22.25305        -8.56589
| 84>    C      -16.27890        22.48333        -9.40495
| 85>    H        4.12726         0.14475         4.87843
| 86>    H        4.36569         3.57536         6.41644
| 87>    H        5.41223         2.17139         6.07997
| 88>    H        2.94351         2.17755         7.89512
| 89>    H        4.62269         2.13527         8.44183
| 90>    H        3.94587         0.76167         7.55959
| 91>    H        0.24860        -0.33717         0.84330
| 92>    H       -0.03940         1.28955         0.20492
| 93>    H       -1.54325        -0.04172         2.52446
| 94>    H       -2.17889         0.20865         0.89639
| 95>    H       -1.86293         1.59602         1.94524
| 96>    H        0.27269         4.27549         3.27186
| 97>    H       -0.58554         3.23074         0.52448
| 98>    H       -1.34977         5.71024         3.25874
| 99>    H       -2.46688         7.84491         2.83617
|100>    H       -2.38472         7.07592        -1.36371
|101>    H       -1.30787         4.91457        -0.94677
|102>    H       -5.11271         7.22213         1.07661
|103>    H       -7.08424         7.65502         2.48444
|104>    H       -7.40039         9.87180         3.52242
|105>    H       -5.71970        11.64363         3.16545
|106>    H       -3.74772        11.21117         1.76484
|107>    H       -2.16302        10.11189        -3.07736
|108>    H       -0.01294         9.82054        -4.23739
|109>    H        1.99595         9.14913        -2.97065
|110>    H        1.84568         8.79506        -0.53196
|111>    H       -0.29696         9.09510         0.62865
|112>    H       -1.69406        12.26413        -0.79272
|113>    H       -2.93502        14.30133        -1.44841
|114>    H       -6.53319        12.01461        -1.71161
|115>    H       -5.30716         9.99555        -1.04471
|116>    H       -9.02230        16.68103        -3.18814
|117>    H       -6.94739        18.91720        -2.90175
|118>    H      -12.23549        22.15419        -4.55628
|119>    H       -9.69375        23.63886        -3.68580
|120>    H      -13.23215        28.42914        -4.54299
|121>    H      -11.22394        28.33045        -3.09900
|122>    H      -15.84289        25.03678        -7.98245
|123>    H      -14.81845        21.27058        -8.52335
|124>    H      -16.75462        23.44561        -9.47873
|125>    H      -16.65868        21.70803       -10.04645
|126> *
|127>
|128>                          ****END OF INPUT****

CARTESIAN COORDINATES (ANGSTROEM)
---------------------------------
  C      3.453400    0.938740    4.613910
  N      3.512150    2.143980    5.242540
  C      4.393950    2.485740    6.329300
  C      3.947410    1.846400    7.641430
  C      2.544210    3.043540    4.731100
  O      2.406190    4.179580    5.139170
  C      1.875010    2.278650    3.710720
  C      2.467860    0.975700    3.669410
  C      1.795010    0.227830    2.631430
  O      1.919730   -0.908980    2.231340
  N      0.857570    1.139690    2.089360
  C     -0.088300    0.671090    1.105430
  C     -1.510730    0.609200    1.654030
  C      0.903170    2.361450    2.729330
  C      0.158380    3.553250    2.473940
  C     -0.542400    3.895280    1.374990
  C     -1.215080    5.160590    1.184050
  C     -1.562960    6.005980    2.243220
  C     -2.197410    7.205420    2.007600
  C     -2.473940    7.625810    0.705860
  C     -2.147810    6.777870   -0.353020
  C     -1.546670    5.562730   -0.115410
  C     -3.131680    8.917470    0.464600
  C     -4.307810    9.194260    1.304020
  C     -5.248850    8.192030    1.534250
  C     -6.356970    8.437250    2.322880
  C     -6.534680    9.680910    2.905880
  C     -5.593100   10.676460    2.701620
  C     -4.487270   10.437170    1.908680
  C     -2.673430    9.789970   -0.463460
  C     -1.383510    9.600930   -1.148340
  C     -1.283000    9.821340   -2.520890
  C     -0.075270    9.654530   -3.171850
  C      1.052480    9.278180   -2.461450
  C      0.967120    9.076190   -1.093680
  C     -0.239590    9.237300   -0.440350
  C     -3.419630   10.994510   -0.848850
  C     -2.755160   12.215260   -0.990410
  C     -3.439210   13.352680   -1.354430
  C     -4.813080   13.295370   -1.611160
  C     -5.474950   12.070680   -1.499520
  C     -4.787870   10.939080   -1.121430
  C     -5.511580   14.497340   -1.981920
  S     -7.220730   14.537990   -2.395160
  C     -6.990470   16.271130   -2.616830
  N     -5.765770   16.640720   -2.386980
  N     -4.960680   15.672490   -2.042420
  C     -8.060490   17.131650   -2.994430
  C     -7.908080   18.467080   -3.102690
  C     -8.979760   19.331050   -3.464550
  S     -8.784760   21.079920   -3.521790
  C    -10.486260   21.119260   -3.986970
  N    -11.005010   19.927500   -4.057370
  N    -10.188280   18.955380   -3.770530
  C    -11.214780   22.312170   -4.246560
  C    -10.702010   23.546840   -4.075770
  C    -11.380180   24.793330   -4.278190
  C    -12.482640   25.048580   -5.059450
  C    -13.129340   26.388680   -5.153310
  C    -12.677830   27.509810   -4.430430
  C    -11.583730   27.471630   -3.640820
  S    -10.609020   26.078150   -3.380640
  N    -14.142400   26.406780   -5.988770
  C    -14.228780   25.149650   -6.507810
  C    -13.249450   24.286780   -5.965010
  S    -13.353040   22.716870   -6.668660
  C    -14.698550   23.222810   -7.672770
  C    -15.044550   24.537740   -7.467040
  C    -15.271010   22.253050   -8.565890
  C    -16.278900   22.483330   -9.404950
  H      4.127260    0.144750    4.878430
  H      4.365690    3.575360    6.416440
  H      5.412230    2.171390    6.079970
  H      2.943510    2.177550    7.895120
  H      4.622690    2.135270    8.441830
  H      3.945870    0.761670    7.559590
  H      0.248600   -0.337170    0.843300
  H     -0.039400    1.289550    0.204920
  H     -1.543250   -0.041720    2.524460
  H     -2.178890    0.208650    0.896390
  H     -1.862930    1.596020    1.945240
  H      0.272690    4.275490    3.271860
  H     -0.585540    3.230740    0.524480
  H     -1.349770    5.710240    3.258740
  H     -2.466880    7.844910    2.836170
  H     -2.384720    7.075920   -1.363710
  H     -1.307870    4.914570   -0.946770
  H     -5.112710    7.222130    1.076610
  H     -7.084240    7.655020    2.484440
  H     -7.400390    9.871800    3.522420
  H     -5.719700   11.643630    3.165450
  H     -3.747720   11.211170    1.764840
  H     -2.163020   10.111890   -3.077360
  H     -0.012940    9.820540   -4.237390
  H      1.995950    9.149130   -2.970650
  H      1.845680    8.795060   -0.531960
  H     -0.296960    9.095100    0.628650
  H     -1.694060   12.264130   -0.792720
  H     -2.935020   14.301330   -1.448410
  H     -6.533190   12.014610   -1.711610
  H     -5.307160    9.995550   -1.044710
  H     -9.022300   16.681030   -3.188140
  H     -6.947390   18.917200   -2.901750
  H    -12.235490   22.154190   -4.556280
  H     -9.693750   23.638860   -3.685800
  H    -13.232150   28.429140   -4.542990
  H    -11.223940   28.330450   -3.099000
  H    -15.842890   25.036780   -7.982450
  H    -14.818450   21.270580   -8.523350
  H    -16.754620   23.445610   -9.478730
  H    -16.658680   21.708030  -10.046450

 Total Charge           Charge          ....    0
 Multiplicity           Mult            ....    1
 Number of Electrons    NEL             ....  512
 Basis Dimension        Dim             .... 1201

ORBITAL ENERGIES
----------------

  NO   OCC          E(Eh)            E(eV)
   0   2.0000     -88.974476     -2421.1186
   1   2.0000     -88.974115     -2421.1088
   2   2.0000     -88.970848     -2421.0198
   3   2.0000     -88.949339     -2420.4346
   4   2.0000     -19.180754      -521.9348
   5   2.0000     -19.180453      -521.9267
   6   2.0000     -14.446191      -393.1008
   7   2.0000     -14.444576      -393.0569
   8   2.0000     -14.439951      -392.9310
   9   2.0000     -14.437527      -392.8651
  10   2.0000     -14.435552      -392.8113
  11   2.0000     -14.433125      -392.7453
  12   2.0000     -14.376130      -391.1944
  13   2.0000     -10.366386      -282.0837
  14   2.0000     -10.364583      -282.0347
  15   2.0000     -10.345348      -281.5112
  16   2.0000     -10.343728      -281.4672
  17   2.0000     -10.340312      -281.3742
  18   2.0000     -10.339774      -281.3596
  19   2.0000     -10.336282      -281.2645
  20   2.0000     -10.333576      -281.1909
  21   2.0000     -10.325206      -280.9631
  22   2.0000     -10.314476      -280.6712
  23   2.0000     -10.306896      -280.4649
  24   2.0000     -10.304134      -280.3898
  25   2.0000     -10.303980      -280.3855
  26   2.0000     -10.303194      -280.3642
  27   2.0000     -10.300235      -280.2836
  28   2.0000     -10.299834      -280.2727
  29   2.0000     -10.297803      -280.2175
  30   2.0000     -10.295641      -280.1586
  31   2.0000     -10.295005      -280.1413
  32   2.0000     -10.289505      -279.9917
  33   2.0000     -10.288870      -279.9744
  34   2.0000     -10.286624      -279.9133
  35   2.0000     -10.284222      -279.8479
  36   2.0000     -10.283115      -279.8178
  37   2.0000     -10.282593      -279.8036
  38   2.0000     -10.281223      -279.7663
  39   2.0000     -10.280799      -279.7548
  40   2.0000     -10.280240      -279.7396
  41   2.0000     -10.280071      -279.7349
  42   2.0000     -10.279874      -279.7296
  43   2.0000     -10.277054      -279.6529
  44   2.0000     -10.275231      -279.6033
  45   2.0000     -10.275227      -279.6031
  46   2.0000     -10.274044      -279.5710
  47   2.0000     -10.274016      -279.5702
  48   2.0000     -10.273918      -279.5675
  49   2.0000     -10.273510      -279.5564
  50   2.0000     -10.273045      -279.5438
  51   2.0000     -10.271917      -279.5131
  52   2.0000     -10.270851      -279.4841
  53   2.0000     -10.270700      -279.4799
  54   2.0000     -10.267527      -279.3936
  55   2.0000     -10.267116      -279.3824
  56   2.0000     -10.266783      -279.3734
  57   2.0000     -10.266505      -279.3658
  58   2.0000     -10.266115      -279.3552
  59   2.0000     -10.266094      -279.3546
  60   2.0000     -10.265705      -279.3440
  61   2.0000     -10.265478      -279.3379
  62   2.0000     -10.264910      -279.3224
  63   2.0000     -10.264493      -279.3111
  64   2.0000     -10.262194      -279.2485
  65   2.0000     -10.262120      -279.2465
  66   2.0000     -10.261497      -279.2295
  67   2.0000     -10.257788      -279.1286
  68   2.0000     -10.252457      -278.9836
  69   2.0000     -10.251045      -278.9451
  70   2.0000      -8.070406      -219.6069
  71   2.0000      -8.070079      -219.5980
  72   2.0000      -8.067067      -219.5160
  73   2.0000      -8.043832      -218.8838
  74   2.0000      -6.039537      -164.3442
  75   2.0000      -6.039051      -164.3309
  76   2.0000      -6.035769      -164.2416
  77   2.0000      -6.035739      -164.2408
  78   2.0000      -6.034970      -164.2199
  79   2.0000      -6.032736      -164.1591
  80   2.0000      -6.032378      -164.1494
  81   2.0000      -6.032176      -164.1439
  82   2.0000      -6.029446      -164.0696
  83   2.0000      -6.013264      -163.6292
  84   2.0000      -6.009245      -163.5199
  85   2.0000      -6.005739      -163.4245
  86   2.0000      -1.143531       -31.1171
  87   2.0000      -1.138767       -30.9874
  88   2.0000      -1.123562       -30.5737
  89   2.0000      -1.116752       -30.3884
  90   2.0000      -1.053970       -28.6800
  91   2.0000      -1.044970       -28.4351
  92   2.0000      -1.044034       -28.4096
  93   2.0000      -0.977337       -26.5947
  94   2.0000      -0.975098       -26.5338
  95   2.0000      -0.964465       -26.2444
  96   2.0000      -0.957188       -26.0464
  97   2.0000      -0.953210       -25.9382
  98   2.0000      -0.949019       -25.8241
  99   2.0000      -0.947164       -25.7736
 100   2.0000      -0.936601       -25.4862
 101   2.0000      -0.923368       -25.1261
 102   2.0000      -0.920437       -25.0464
 103   2.0000      -0.916223       -24.9317
 104   2.0000      -0.908533       -24.7224
 105   2.0000      -0.900264       -24.4974
 106   2.0000      -0.890410       -24.2293
 107   2.0000      -0.869636       -23.6640
 108   2.0000      -0.868747       -23.6398
 109   2.0000      -0.861863       -23.4525
 110   2.0000      -0.856650       -23.3106
 111   2.0000      -0.851888       -23.1810
 112   2.0000      -0.845739       -23.0137
 113   2.0000      -0.840392       -22.8682
 114   2.0000      -0.838528       -22.8175
 115   2.0000      -0.834551       -22.7093
 116   2.0000      -0.829592       -22.5743
 117   2.0000      -0.829057       -22.5598
 118   2.0000      -0.826314       -22.4852
 119   2.0000      -0.814557       -22.1652
 120   2.0000      -0.802998       -21.8507
 121   2.0000      -0.802773       -21.8446
 122   2.0000      -0.791643       -21.5417
 123   2.0000      -0.789800       -21.4916
 124   2.0000      -0.767878       -20.8950
 125   2.0000      -0.762895       -20.7594
 126   2.0000      -0.755127       -20.5480
 127   2.0000      -0.746676       -20.3181
 128   2.0000      -0.735963       -20.0266
 129   2.0000      -0.715317       -19.4648
 130   2.0000      -0.714094       -19.4315
 131   2.0000      -0.708773       -19.2867
 132   2.0000      -0.704355       -19.1665
 133   2.0000      -0.699736       -19.0408
 134   2.0000      -0.695230       -18.9182
 135   2.0000      -0.692059       -18.8319
 136   2.0000      -0.687027       -18.6949
 137   2.0000      -0.683004       -18.5855
 138   2.0000      -0.682073       -18.5602
 139   2.0000      -0.677004       -18.4222
 140   2.0000      -0.672810       -18.3081
 141   2.0000      -0.663766       -18.0620
 142   2.0000      -0.659098       -17.9350
 143   2.0000      -0.654667       -17.8144
 144   2.0000      -0.650040       -17.6885
 145   2.0000      -0.643384       -17.5074
 146   2.0000      -0.634371       -17.2621
 147   2.0000      -0.629053       -17.1174
 148   2.0000      -0.621920       -16.9233
 149   2.0000      -0.611481       -16.6392
 150   2.0000      -0.606567       -16.5055
 151   2.0000      -0.599795       -16.3212
 152   2.0000      -0.597114       -16.2483
 153   2.0000      -0.594337       -16.1727
 154   2.0000      -0.592444       -16.1212
 155   2.0000      -0.591701       -16.1010
 156   2.0000      -0.585162       -15.9231
 157   2.0000      -0.578637       -15.7455
 158   2.0000      -0.572646       -15.5825
 159   2.0000      -0.572049       -15.5662
 160   2.0000      -0.569570       -15.4988
 161   2.0000      -0.558240       -15.1905
 162   2.0000      -0.556136       -15.1332
 163   2.0000      -0.551749       -15.0139
 164   2.0000      -0.545988       -14.8571
 165   2.0000      -0.544245       -14.8097
 166   2.0000      -0.541869       -14.7450
 167   2.0000      -0.540263       -14.7013
 168   2.0000      -0.538610       -14.6563
 169   2.0000      -0.538338       -14.6489
 170   2.0000      -0.536135       -14.5890
 171   2.0000      -0.534262       -14.5380
 172   2.0000      -0.530533       -14.4365
 173   2.0000      -0.529532       -14.4093
 174   2.0000      -0.528173       -14.3723
 175   2.0000      -0.526083       -14.3154
 176   2.0000      -0.522243       -14.2110
 177   2.0000      -0.521246       -14.1838
 178   2.0000      -0.514853       -14.0099
 179   2.0000      -0.513312       -13.9679
 180   2.0000      -0.512355       -13.9419
 181   2.0000      -0.510052       -13.8792
 182   2.0000      -0.507820       -13.8185
 183   2.0000      -0.505975       -13.7683
 184   2.0000      -0.502194       -13.6654
 185   2.0000      -0.501985       -13.6597
 186   2.0000      -0.499423       -13.5900
 187   2.0000      -0.498637       -13.5686
 188   2.0000      -0.496204       -13.5024
 189   2.0000      -0.495531       -13.4841
 190   2.0000      -0.495300       -13.4778
 191   2.0000      -0.492361       -13.3978
 192   2.0000      -0.489900       -13.3308
 193   2.0000      -0.483339       -13.1523
 194   2.0000      -0.478860       -13.0304
 195   2.0000      -0.477001       -12.9799
 196   2.0000      -0.473718       -12.8905
 197   2.0000      -0.470609       -12.8059
 198   2.0000      -0.468101       -12.7377
 199   2.0000      -0.466657       -12.6984
 200   2.0000      -0.466067       -12.6823
 201   2.0000      -0.460941       -12.5428
 202   2.0000      -0.457739       -12.4557
 203   2.0000      -0.456231       -12.4147
 204   2.0000      -0.452638       -12.3169
 205   2.0000      -0.451998       -12.2995
 206   2.0000      -0.449025       -12.2186
 207   2.0000      -0.446716       -12.1558
 208   2.0000      -0.446258       -12.1433
 209   2.0000      -0.442941       -12.0530
 210   2.0000      -0.441698       -12.0192
 211   2.0000      -0.435121       -11.8402
 212   2.0000      -0.433715       -11.8020
 213   2.0000      -0.428004       -11.6466
 214   2.0000      -0.427663       -11.6373
 215   2.0000      -0.427243       -11.6259
 216   2.0000      -0.425971       -11.5913
 217   2.0000      -0.424170       -11.5423
 218   2.0000      -0.423625       -11.5274
 219   2.0000      -0.422754       -11.5037
 220   2.0000      -0.418645       -11.3919
 221   2.0000      -0.414750       -11.2859
 222   2.0000      -0.412482       -11.2242
 223   2.0000      -0.410877       -11.1805
 224   2.0000      -0.409080       -11.1316
 225   2.0000      -0.408082       -11.1045
 226   2.0000      -0.401955       -10.9378
 227   2.0000      -0.397621       -10.8198
 228   2.0000      -0.390292       -10.6204
 229   2.0000      -0.389938       -10.6108
 230   2.0000      -0.385054       -10.4779
 231   2.0000      -0.379457       -10.3255
 232   2.0000      -0.375101       -10.2070
 233   2.0000      -0.372316       -10.1312
 234   2.0000      -0.359197        -9.7742
 235   2.0000      -0.354820        -9.6551
 236   2.0000      -0.339568        -9.2401
 237   2.0000      -0.338192        -9.2027
 238   2.0000      -0.334069        -9.0905
 239   2.0000      -0.332736        -9.0542
 240   2.0000      -0.331779        -9.0282
 241   2.0000      -0.326572        -8.8865
 242   2.0000      -0.325826        -8.8662
 243   2.0000      -0.322135        -8.7657
 244   2.0000      -0.321649        -8.7525
 245   2.0000      -0.319979        -8.7071
 246   2.0000      -0.317881        -8.6500
 247   2.0000      -0.314163        -8.5488
 248   2.0000      -0.313120        -8.5204
 249   2.0000      -0.307165        -8.3584
 250   2.0000      -0.303092        -8.2475
 251   2.0000      -0.283072        -7.7028
 252   2.0000      -0.267394        -7.2762
 253   2.0000      -0.258269        -7.0279
 254   2.0000      -0.248609        -6.7650
 255   2.0000      -0.239043        -6.5047
 256   0.0000      -0.084243        -2.2924
 257   0.0000      -0.064120        -1.7448
 258   0.0000      -0.052532        -1.4295
 259   0.0000      -0.025301        -0.6885
 260   0.0000      -0.009318        -0.2535

MULLIKEN ATOMIC CHARGES
-----------------------
   0 C :    0.049610
   1 N :   -0.268598
   2 C :    0.109529
   3 C :   -0.001835
   4 C :    0.158822
   5 O :   -0.201178
   6 C :   -0.079490
   7 C :    0.000830
   8 C :    0.164168
   9 O :   -0.189070
  10 N :   -0.280885
  11 C :    0.100420
  12 C :   -0.002212
  13 C :    0.128264
  14 C :   -0.027347
  15 C :    0.021884
  16 C :    0.100118
  17 C :   -0.022599
  18 C :    0.031149
  19 C :   -0.050096
  20 C :    0.059266
  21 C :   -0.029098
  22 C :    0.053027
  23 C :   -0.044317
  24 C :    0.012342
  25 C :    0.016713
  26 C :    0.026033
  27 C :    0.014518
  28 C :    0.041028
  29 C :    0.055342
  30 C :   -0.040123
  31 C :    0.010016
  32 C :    0.015713
  33 C :    0.027798
  34 C :    0.014338
  35 C :    0.042917
  36 C :   -0.036888
  37 C :    0.027759
  38 C :   -0.018915
  39 C :    0.128949
  40 C :   -0.040609
  41 C :    0.052650
  42 C :   -0.102254
  43 S :    0.089068
  44 C :   -0.089417
  45 N :   -0.044232
  46 N :   -0.045330
  47 C :    0.066666
  48 C :    0.063465
  49 C :   -0.086082
  50 S :    0.090728
  51 C :   -0.095036
  52 N :   -0.033189
  53 N :   -0.053076
  54 C :    0.060130
  55 C :    0.024940
  56 C :   -0.156581
  57 C :    0.078844
  58 C :   -0.030925
  59 C :    0.060000
  60 C :   -0.088043
  61 S :    0.140451
  62 N :   -0.067215
  63 C :    0.081187
  64 C :   -0.145215
  65 S :    0.123625
  66 C :   -0.077145
  67 C :   -0.053207
  68 C :    0.043778
  69 C :   -0.017391
  70 H :    0.013962
  71 H :    0.042572
  72 H :    0.017189
  73 H :    0.028853
  74 H :    0.022551
  75 H :    0.014970
  76 H :    0.043403
  77 H :    0.022685
  78 H :    0.023588
  79 H :    0.019676
  80 H :    0.023946
  81 H :    0.010589
  82 H :   -0.025453
  83 H :   -0.014204
  84 H :   -0.012616
  85 H :   -0.016810
  86 H :   -0.026890
  87 H :   -0.016708
  88 H :   -0.015888
  89 H :   -0.014629
  90 H :   -0.016194
  91 H :   -0.013453
  92 H :   -0.016800
  93 H :   -0.015749
  94 H :   -0.015346
  95 H :   -0.015115
  96 H :   -0.015669
  97 H :   -0.007191
  98 H :   -0.000792
  99 H :   -0.015454
 100 H :   -0.012953
 101 H :    0.020318
 102 H :    0.019108
 103 H :    0.026343
 104 H :    0.005793
 105 H :   -0.000965
 106 H :    0.051432
 107 H :   -0.024616
 108 H :   -0.008534
 109 H :    0.019896
 110 H :    0.026666
Sum of atomic charges:   -0.0000000

LOEWDIN ATOMIC CHARGES
----------------------
   0 C :    0.093105
   1 N :   -0.005208
   2 C :    0.037237
   3 C :   -0.061058
   4 C :    0.075890
   5 O :   -0.204385
   6 C :   -0.126040
   7 C :   -0.132264
   8 C :    0.084368
   9 O :   -0.191310
  10 N :   -0.014420
  11 C :    0.033922
  12 C :   -0.063478
  13 C :    0.082233
  14 C :   -0.036371
  15 C :    0.009325
  16 C :   -0.031918
  17 C :   -0.007514
  18 C :   -0.011154
  19 C :   -0.017137
  20 C :   -0.007010
  21 C :   -0.013618
  22 C :   -0.009905
  23 C :   -0.027946
  24 C :   -0.017614
  25 C :   -0.025070
  26 C :   -0.023520
  27 C :   -0.023572
  28 C :   -0.010259
  29 C :   -0.012407
  30 C :   -0.027368
  31 C :   -0.018329
  32 C :   -0.025061
  33 C :   -0.023323
  34 C :   -0.022936
  35 C :   -0.009546
  36 C :   -0.012857
  37 C :   -0.011490
  38 C :    0.008938
  39 C :   -0.059221
  40 C :   -0.018243
  41 C :   -0.005514
  42 C :   -0.131388
  43 S :    0.390009
  44 C :   -0.152614
  45 N :   -0.073776
  46 N :   -0.077416
  47 C :   -0.012579
  48 C :   -0.024099
  49 C :   -0.141691
  50 S :    0.385750
  51 C :   -0.148118
  52 N :   -0.064273
  53 N :   -0.078161
  54 C :   -0.021272
  55 C :   -0.041745
  56 C :   -0.138184
  57 C :   -0.063272
  58 C :    0.007601
  59 C :   -0.033466
  60 C :   -0.178194
  61 S :    0.460714
  62 N :   -0.121226
  63 C :   -0.022958
  64 C :   -0.235190
  65 S :    0.431827
  66 C :   -0.153886
  67 C :   -0.055916
  68 C :   -0.042462
  69 C :   -0.034609
  70 H :    0.031989
  71 H :    0.036177
  72 H :    0.023648
  73 H :    0.031194
  74 H :    0.029739
  75 H :    0.022044
  76 H :    0.036725
  77 H :    0.017380
  78 H :    0.030295
  79 H :    0.029734
  80 H :    0.022426
  81 H :    0.043737
  82 H :    0.027736
  83 H :    0.031052
  84 H :    0.032678
  85 H :    0.032188
  86 H :    0.027206
  87 H :    0.028907
  88 H :    0.028002
  89 H :    0.027458
  90 H :    0.028628
  91 H :    0.030912
  92 H :    0.028554
  93 H :    0.028015
  94 H :    0.027276
  95 H :    0.029087
  96 H :    0.030999
  97 H :    0.033963
  98 H :    0.036229
  99 H :    0.022309
 100 H :    0.033721
 101 H :    0.041508
 102 H :    0.040983
 103 H :    0.033928
 104 H :    0.022358
 105 H :    0.047027
 106 H :    0.034308
 107 H :    0.033155
 108 H :    0.029038
 109 H :    0.023096
 110 H :    0.027236

  Mayer bond orders larger than 0.100000
B(  0-C ,  1-N ) :   1.1899 B(  0-C ,  7-C ) :   1.4636 B(  0-C , 70-H ) :   0.9892
B(  1-N ,  2-C ) :   0.9431 B(  1-N ,  4-C ) :   1.0301 B(  2-C ,  3-C ) :   1.1195
B(  2-C , 71-H ) :   0.9342 B(  2-C , 72-H ) :   0.9543 B(  3-C , 73-H ) :   0.9673
B(  3-C , 74-H ) :   0.9685 B(  3-C , 75-H ) :   0.9691 B(  4-C ,  5-O ) :   2.1201
B(  4-C ,  6-C ) :   0.9954 B(  6-C ,  7-C ) :   1.1856 B(  6-C , 13-C ) :   1.4030
B(  7-C ,  8-C ) :   0.9564 B(  8-C ,  9-O ) :   2.1646 B(  8-C , 10-N ) :   1.0162
B( 10-N , 11-C ) :   0.9488 B( 10-N , 13-C ) :   1.1600 B( 11-C , 12-C ) :   1.1155
B( 11-C , 76-H ) :   0.9221 B( 11-C , 77-H ) :   0.9505 B( 12-C , 78-H ) :   0.9631
B( 12-C , 79-H ) :   0.9671 B( 12-C , 80-H ) :   0.9666 B( 13-C , 14-C ) :   1.1609
B( 14-C , 15-C ) :   1.6366 B( 14-C , 81-H ) :   0.9437 B( 15-C , 16-C ) :   1.0657
B( 15-C , 82-H ) :   0.9853 B( 16-C , 17-C ) :   1.3384 B( 16-C , 21-C ) :   1.3175
B( 17-C , 18-C ) :   1.3949 B( 17-C , 83-H ) :   0.9930 B( 18-C , 19-C ) :   1.3643
B( 18-C , 84-H ) :   0.9921 B( 19-C , 20-C ) :   1.3711 B( 19-C , 22-C ) :   0.9756
B( 20-C , 21-C ) :   1.3852 B( 20-C , 85-H ) :   0.9915 B( 21-C , 86-H ) :   1.0009
B( 22-C , 23-C ) :   0.9793 B( 22-C , 29-C ) :   1.7970 B( 23-C , 24-C ) :   1.3858
B( 23-C , 28-C ) :   1.3832 B( 24-C , 25-C ) :   1.3821 B( 24-C , 87-H ) :   0.9918
B( 25-C , 26-C ) :   1.3838 B( 25-C , 88-H ) :   0.9905 B( 26-C , 27-C ) :   1.3780
B( 26-C , 89-H ) :   0.9934 B( 27-C , 28-C ) :   1.3902 B( 27-C , 90-H ) :   0.9915
B( 28-C , 91-H ) :   0.9899 B( 29-C , 30-C ) :   0.9777 B( 29-C , 36-C ) :   0.9780
B( 30-C , 31-C ) :   1.3851 B( 30-C , 35-C ) :   1.3824 B( 31-C , 32-C ) :   1.3821
B( 31-C , 92-H ) :   0.9924 B( 32-C , 33-C ) :   1.3843 B( 32-C , 93-H ) :   0.9911
B( 33-C , 34-C ) :   1.3771 B( 33-C , 94-H ) :   0.9937 B( 34-C , 35-C ) :   1.3895
B( 34-C , 95-H ) :   0.9920 B( 35-C , 96-H ) :   0.9904 B( 36-C , 37-C ) :   1.3618
B( 36-C , 41-C ) :   1.3682 B( 37-C , 38-C ) :   1.3618 B( 37-C , 97-H ) :   0.9954
B( 38-C , 39-C ) :   1.3649 B( 38-C , 98-H ) :   1.0005 B( 39-C , 40-C ) :   1.3176
B( 39-C , 42-C ) :   1.0383 B( 40-C , 41-C ) :   1.4072 B( 40-C , 99-H ) :   0.9886
B( 41-C ,100-H ) :   0.9897 B( 42-C , 43-S ) :   1.1049 B( 42-C , 46-N ) :   1.7292
B( 43-S , 44-C ) :   1.0826 B( 44-C , 45-N ) :   1.7034 B( 44-C , 47-C ) :   1.0802
B( 45-N , 46-N ) :   1.2102 B( 47-C , 48-C ) :   1.7661 B( 47-C ,101-H ) :   0.9548
B( 48-C , 49-C ) :   1.0844 B( 48-C ,102-H ) :   0.9538 B( 49-C , 50-S ) :   1.0948
B( 49-C , 53-N ) :   1.6889 B( 50-S , 51-C ) :   1.0865 B( 51-C , 52-N ) :   1.6700
B( 51-C , 54-C ) :   1.1314 B( 52-N , 53-N ) :   1.2255 B( 54-C , 55-C ) :   1.6800
B( 54-C ,103-H ) :   0.9596 B( 55-C , 56-C ) :   1.1081 B( 55-C ,104-H ) :   0.9469
B( 56-C , 57-C ) :   1.4838 B( 56-C , 61-S ) :   1.1135 B( 57-C , 58-C ) :   1.0132
B( 57-C , 64-C ) :   1.2578 B( 58-C , 59-C ) :   1.2022 B( 58-C , 62-N ) :   1.6638
B( 59-C , 60-C ) :   1.6166 B( 59-C ,105-H ) :   0.9754 B( 60-C , 61-S ) :   1.1172
B( 60-C ,106-H ) :   0.9427 B( 62-N , 63-C ) :   1.3071 B( 63-C , 64-C ) :   1.3641
B( 63-C , 67-C ) :   1.2277 B( 64-C , 65-S ) :   1.0396 B( 65-S , 66-C ) :   1.1058
B( 66-C , 67-C ) :   1.4945 B( 66-C , 68-C ) :   1.0922 B( 67-C ,107-H ) :   1.0141
B( 68-C , 69-C ) :   1.9485 B( 68-C ,108-H ) :   0.9548 B( 69-C ,109-H ) :   0.9538
B( 69-C ,110-H ) :   0.9497

-----------------------------------------------------------------------------
         ABSORPTION SPECTRUM VIA TRANSITION ELECTRIC DIPOLE MOMENTS
-----------------------------------------------------------------------------
State   Energy  Wavelength   fosc         T2         TX        TY        TZ
        (cm-1)    (nm)                  (au**2)     (au)      (au)      (au)
-----------------------------------------------------------------------------
   0   18989.1    526.6   0.460113699   7.97695  -1.61467   2.08779  -1.00543
   1   22404.5    446.3   1.347886361  19.80588   2.70334  -2.32630   2.66199
   2   22933.2    436.0   0.111107359   1.59497  -0.94981   0.66108  -0.50577
   3   25228.7    396.4   0.705919679   9.21163  -0.57385   2.97767  -0.12563
   4   27790.3    359.8   0.104394450   1.23669   0.21540   1.03719  -0.33842
   5   28350.0    352.7   0.131555264   1.52768   0.64363  -1.04300   0.15994
   6   28408.5    352.0   0.223864025   2.59424  -0.84055   1.35197  -0.24472
   7   29387.9    340.3   0.007459806   0.08357  -0.17076  -0.10110  -0.21021
   8   29733.4    336.3   0.007944332   0.08796  -0.17110  -0.21050  -0.11989
   9   30043.1    332.9   0.003629698   0.03977   0.05478  -0.18120   0.06278
  10   30478.9    328.1   0.062079180   0.67054   0.40924  -0.67598  -0.21474
  11   31430.1    318.2   0.002881945   0.03019   0.00250  -0.13079   0.11434
  12   31546.4    317.0   0.008079683   0.08432  -0.12839  -0.22319   0.13424
  13   31693.5    315.5   0.219594159   2.28100   0.02865  -1.42032   0.51272
  14   32623.0    306.5   0.033853216   0.34163   0.47330   0.31108   0.14437
  15   33870.6    295.2   0.102903444   1.00019  -0.53106   0.75790   0.37915
  16   34630.7    288.8   0.144285785   1.37163   1.15113  -0.17884   0.12064
  17   34963.4    286.0   0.297309745   2.79944   0.14713   1.14014   1.21568
  18   35347.7    282.9   0.020173466   0.18789   0.00818  -0.17396   0.39694
  19   35483.3    281.8   0.193901078   1.79900  -0.45966  -1.23649   0.24252
  20   35852.0    278.9   0.038906876   0.35726   0.21650   0.47057   0.29825
  21   36137.1    276.7   0.427058559   3.89054  -1.23995  -0.66479  -1.38243
  22   36764.1    272.0   0.222206016   1.98979  -0.12411  -1.12835  -0.83738
  23   37107.5    269.5   0.198587097   1.76184  -1.22045   0.12476  -0.50674
  24   37592.5    266.0   0.014958669   0.13100  -0.12290  -0.04278  -0.33773
  25   37855.9    264.2   0.173575666   1.50949  -0.50499   0.95771   0.58075
  26   38105.2    262.4   0.005191491   0.04485   0.08917  -0.12339  -0.14723
  27   38309.5    261.0   0.130704056   1.12320  -0.46015   0.86920  -0.39491
  28   39094.0    255.8   0.040211116   0.33862   0.41534   0.35769   0.19536
  29   39303.2    254.4   0.006648877   0.05569   0.16056   0.00256  -0.17293
  30   39539.6    252.9   0.095417038   0.79446  -0.72690   0.25781   0.44677
  31   39810.7    251.2   0.075141079   0.62137  -0.72733   0.27705   0.12495
  32   40105.4    249.3   0.088038988   0.72268   0.32775  -0.52412   0.58357
  33   40176.2    248.9   0.204407768   1.67496  -0.14528   1.28529  -0.04327
  34   40244.4    248.5   0.112387184   0.91936   0.80919  -0.51419   0.01337

FINAL SINGLE POINT ENERGY     -4319.176524003126

DIPOLE MOMENT
-------------
                                X             Y             Z
Electronic contribution:    -57.26478     111.70700     -40.18670
Nuclear contribution   :     57.95821    -111.99811      40.85650
                        -----------------------------------------
Total Dipole Moment    :      0.69344      -0.29111       0.66980
                        -----------------------------------------
Magnitude (a.u.)       :      1.00709
Magnitude (Debye)      :      2.55982

Rotational constants in cm-1:     0.003136     0.000147     0.000145
Rotational constants in MHz :    94.007589     4.403472     4.357249

                             ****ORCA TERMINATED NORMALLY****
TOTAL RUN TIME: 0 days 0 hours 9 minutes 9 seconds 525 msec
