                         Program Version 4.2.0 -  RELEASE  -
|  1> # ORCA input file
|  2> # SCF done       -205.460238763228          0.000673605024
|  3> ! CAM-B3LYP def2-SVP def2/J RIJCOSX Grid4 TightSCF
|  4> %maxcore 5000
|  5> %tddft
|  6>     Mode sTDDFT
|  7>     Ethresh 5.0
|  8>     maxcore 5000
|  9> end
| 10>
| 11> %pal
| 12>   nprocs 6
| 13>   end
| 14> * xyz 0 1
| 15>    C       -0.76239        -1.68881        -0.09332
| 16>    N       -1.89542        -1.27361        -0.71560
| 17>    C       -2.85152        -2.11813        -1.38524
| 18>    C       -2.34459        -2.56550        -2.75404
| 19>    C       -2.00934         0.13885        -0.69519
| 20>    O       -2.94368         0.73155        -1.19702
| 21>    C       -0.83195         0.57197         0.01707
| 22>    C       -0.08559        -0.59626         0.37343
| 23>    C        1.09136        -0.17204         1.10562
| 24>    O        2.00898        -0.78670         1.60259
| 25>    N        0.97187         1.22850         1.15532
| 26>    C        1.99387         2.04125         1.76859
| 27>    C        2.89664         2.70476         0.73091
| 28>    C       -0.16010         1.68468         0.51149
| 29>    C       -0.48876         3.06109         0.43843
| 30>    C       -1.56606         3.53179        -0.24285
| 31>    C       -1.92032         4.90414        -0.40407
| 32>    C       -3.16929         5.18892        -1.02299
| 33>    C       -3.67348         6.52226        -1.13765
| 34>    N       -4.93435         6.73056        -1.58362
| 35>    C       -5.63996         5.69643        -1.94933
| 36>    C       -5.10484         4.39182        -1.92926
| 37>    N       -3.90974         4.15665        -1.47007
| 38>    C       -2.89800         7.61416        -0.70361
| 39>    C       -1.61211         7.34962        -0.17523
| 40>    C       -1.13897         6.01280         0.01322
| 41>    N        0.06316         5.82325         0.59811
| 42>    C        0.74796         6.86255         0.98382
| 43>    C        0.31973         8.17466         0.69951
| 44>    N       -0.81704         8.40038         0.10909
| 45>    C       -3.36556         8.97165        -0.61783
| 46>    N       -4.03838         9.68881        -1.56265
| 47>    C       -4.29273         9.30355        -2.92935
| 48>    C       -2.99632         9.14903        -3.71854
| 49>    C       -4.30356        11.00643        -1.12416
| 50>    O       -4.88494        11.82882        -1.79890
| 51>    C       -3.75186        11.05832         0.21244
| 52>    C       -3.17571         9.79362         0.48855
| 53>    C       -2.71012         9.79444         1.85754
| 54>    O       -2.18064         8.95062         2.55177
| 55>    N       -3.02947        11.08550         2.32159
| 56>    C       -2.64645        11.51921         3.64176
| 57>    C       -1.41728        12.42474         3.60993
| 58>    C       -3.64108        11.85140         1.35128
| 59>    C       -4.07684        13.18117         1.56787
| 60>    C       -4.47406        13.99649         0.55366
| 61>    C       -4.93771        15.33240         0.64575
| 62>    N       -5.50634        15.97430         1.72668
| 63>    C       -5.84307        15.43125         3.02061
| 64>    C       -4.76405        15.73340         4.05950
| 65>    C       -5.86881        17.29864         1.41883
| 66>    O       -6.40698        18.04310         2.21367
| 67>    C       -5.46670        17.47570         0.04188
| 68>    C       -4.91061        16.25105        -0.40165
| 69>    C       -4.45559        16.42760        -1.76349
| 70>    O       -3.88278        15.69902        -2.54166
| 71>    N       -4.80003        17.76663        -2.06341
| 72>    C       -4.55831        18.31735        -3.37421
| 73>    C       -5.82860        18.34622        -4.22102
| 74>    C       -5.40117        18.39602        -1.00134
| 75>    C       -5.82653        19.75402        -1.03682
| 76>    C       -6.48020        20.33552        -0.00626
| 77>    C       -6.93321        21.70602         0.04919
| 78>    C       -7.87529        22.06837         1.02887
| 79>    F       -8.35144        21.13098         1.85357
| 80>    C       -8.34307        23.36811         1.15210
| 81>    F       -9.24635        23.66463         2.09425
| 82>    C       -7.89029        24.37126         0.31268
| 83>    C       -6.95839        24.03948        -0.65419
| 84>    C       -6.48926        22.74063        -0.78929
| 85>    F       -5.57054        22.50086        -1.73881
| 86>    F       -6.50048        24.99369        -1.47543
| 87>    H       -0.52101        -2.73312        -0.01818
| 88>    H       -3.76157        -1.52333        -1.50185
| 89>    H       -3.06646        -2.98648        -0.75537
| 90>    H       -2.15309        -1.69860        -3.38163
| 91>    H       -3.09025        -3.18938        -3.23888
| 92>    H       -1.42272        -3.13464        -2.65507
| 93>    H        2.58464         1.35973         2.38775
| 94>    H        1.52890         2.79220         2.41358
| 95>    H        3.36738         1.94637         0.10982
| 96>    H        3.67485         3.27372         1.23238
| 97>    H        2.32785         3.37596         0.09146
| 98>    H        0.15541         3.76194         0.94515
| 99>    H       -2.24458         2.83598        -0.72152
|100>    H       -6.64664         5.89478        -2.29234
|101>    H       -5.65898         3.54066        -2.29914
|102>    H        1.69318         6.66644         1.47237
|103>    H        0.94275         9.03311         0.90913
|104>    H       -4.90039        10.10628        -3.35597
|105>    H       -4.86167         8.37072        -2.93621
|106>    H       -2.43620        10.08144        -3.71129
|107>    H       -3.22248         8.88602        -4.74832
|108>    H       -2.37460         8.36655        -3.28735
|109>    H       -2.41735        10.60721         4.20050
|110>    H       -3.48855        12.02328         4.12620
|111>    H       -0.57580        11.88878         3.17829
|112>    H       -1.15556        12.73001         4.61949
|113>    H       -1.60203        13.31319         3.00976
|114>    H       -4.03385        13.54303         2.58285
|115>    H       -4.39450        13.63507        -0.46440
|116>    H       -6.02536        14.35918         2.92184
|117>    H       -6.77177        15.92011         3.33217
|118>    H       -3.78965        15.36796         3.74127
|119>    H       -5.02334        15.27147         5.00844
|120>    H       -4.69286        16.80824         4.20444
|121>    H       -3.82127        17.65885        -3.84295
|122>    H       -4.12835        19.31881        -3.28184
|123>    H       -6.22111        17.33866        -4.33429
|124>    H       -5.60383        18.74505        -5.20624
|125>    H       -6.59360        18.96625        -3.75856
|126>    H       -5.60997        20.30173        -1.94010
|127>    H       -6.71723        19.73966         0.86633
|128>    H       -8.25114        25.38118         0.41042
|129> *
|130>
|131>                          ****END OF INPUT****

CARTESIAN COORDINATES (ANGSTROEM)
---------------------------------
  C     -0.762390   -1.688810   -0.093320
  N     -1.895420   -1.273610   -0.715600
  C     -2.851520   -2.118130   -1.385240
  C     -2.344590   -2.565500   -2.754040
  C     -2.009340    0.138850   -0.695190
  O     -2.943680    0.731550   -1.197020
  C     -0.831950    0.571970    0.017070
  C     -0.085590   -0.596260    0.373430
  C      1.091360   -0.172040    1.105620
  O      2.008980   -0.786700    1.602590
  N      0.971870    1.228500    1.155320
  C      1.993870    2.041250    1.768590
  C      2.896640    2.704760    0.730910
  C     -0.160100    1.684680    0.511490
  C     -0.488760    3.061090    0.438430
  C     -1.566060    3.531790   -0.242850
  C     -1.920320    4.904140   -0.404070
  C     -3.169290    5.188920   -1.022990
  C     -3.673480    6.522260   -1.137650
  N     -4.934350    6.730560   -1.583620
  C     -5.639960    5.696430   -1.949330
  C     -5.104840    4.391820   -1.929260
  N     -3.909740    4.156650   -1.470070
  C     -2.898000    7.614160   -0.703610
  C     -1.612110    7.349620   -0.175230
  C     -1.138970    6.012800    0.013220
  N      0.063160    5.823250    0.598110
  C      0.747960    6.862550    0.983820
  C      0.319730    8.174660    0.699510
  N     -0.817040    8.400380    0.109090
  C     -3.365560    8.971650   -0.617830
  N     -4.038380    9.688810   -1.562650
  C     -4.292730    9.303550   -2.929350
  C     -2.996320    9.149030   -3.718540
  C     -4.303560   11.006430   -1.124160
  O     -4.884940   11.828820   -1.798900
  C     -3.751860   11.058320    0.212440
  C     -3.175710    9.793620    0.488550
  C     -2.710120    9.794440    1.857540
  O     -2.180640    8.950620    2.551770
  N     -3.029470   11.085500    2.321590
  C     -2.646450   11.519210    3.641760
  C     -1.417280   12.424740    3.609930
  C     -3.641080   11.851400    1.351280
  C     -4.076840   13.181170    1.567870
  C     -4.474060   13.996490    0.553660
  C     -4.937710   15.332400    0.645750
  N     -5.506340   15.974300    1.726680
  C     -5.843070   15.431250    3.020610
  C     -4.764050   15.733400    4.059500
  C     -5.868810   17.298640    1.418830
  O     -6.406980   18.043100    2.213670
  C     -5.466700   17.475700    0.041880
  C     -4.910610   16.251050   -0.401650
  C     -4.455590   16.427600   -1.763490
  O     -3.882780   15.699020   -2.541660
  N     -4.800030   17.766630   -2.063410
  C     -4.558310   18.317350   -3.374210
  C     -5.828600   18.346220   -4.221020
  C     -5.401170   18.396020   -1.001340
  C     -5.826530   19.754020   -1.036820
  C     -6.480200   20.335520   -0.006260
  C     -6.933210   21.706020    0.049190
  C     -7.875290   22.068370    1.028870
  F     -8.351440   21.130980    1.853570
  C     -8.343070   23.368110    1.152100
  F     -9.246350   23.664630    2.094250
  C     -7.890290   24.371260    0.312680
  C     -6.958390   24.039480   -0.654190
  C     -6.489260   22.740630   -0.789290
  F     -5.570540   22.500860   -1.738810
  F     -6.500480   24.993690   -1.475430
  H     -0.521010   -2.733120   -0.018180
  H     -3.761570   -1.523330   -1.501850
  H     -3.066460   -2.986480   -0.755370
  H     -2.153090   -1.698600   -3.381630
  H     -3.090250   -3.189380   -3.238880
  H     -1.422720   -3.134640   -2.655070
  H      2.584640    1.359730    2.387750
  H      1.528900    2.792200    2.413580
  H      3.367380    1.946370    0.109820
  H      3.674850    3.273720    1.232380
  H      2.327850    3.375960    0.091460
  H      0.155410    3.761940    0.945150
  H     -2.244580    2.835980   -0.721520
  H     -6.646640    5.894780   -2.292340
  H     -5.658980    3.540660   -2.299140
  H      1.693180    6.666440    1.472370
  H      0.942750    9.033110    0.909130
  H     -4.900390   10.106280   -3.355970
  H     -4.861670    8.370720   -2.936210
  H     -2.436200   10.081440   -3.711290
  H     -3.222480    8.886020   -4.748320
  H     -2.374600    8.366550   -3.287350
  H     -2.417350   10.607210    4.200500
  H     -3.488550   12.023280    4.126200
  H     -0.575800   11.888780    3.178290
  H     -1.155560   12.730010    4.619490
  H     -1.602030   13.313190    3.009760
  H     -4.033850   13.543030    2.582850
  H     -4.394500   13.635070   -0.464400
  H     -6.025360   14.359180    2.921840
  H     -6.771770   15.920110    3.332170
  H     -3.789650   15.367960    3.741270
  H     -5.023340   15.271470    5.008440
  H     -4.692860   16.808240    4.204440
  H     -3.821270   17.658850   -3.842950
  H     -4.128350   19.318810   -3.281840
  H     -6.221110   17.338660   -4.334290
  H     -5.603830   18.745050   -5.206240
  H     -6.593600   18.966250   -3.758560
  H     -5.609970   20.301730   -1.940100
  H     -6.717230   19.739660    0.866330
  H     -8.251140   25.381180    0.410420

 Total Charge           Charge          ....    0
 Multiplicity           Mult            ....    1
 Number of Electrons    NEL             ....  508
 Basis Dimension        Dim             .... 1218

ORBITAL ENERGIES
----------------

  NO   OCC          E(Eh)            E(eV)
   0   2.0000     -24.806285      -675.0133
   1   2.0000     -24.797763      -674.7814
   2   2.0000     -24.797375      -674.7709
   3   2.0000     -24.795891      -674.7305
   4   2.0000     -19.186721      -522.0972
   5   2.0000     -19.186092      -522.0801
   6   2.0000     -19.183604      -522.0124
   7   2.0000     -19.181747      -521.9619
   8   2.0000     -19.178790      -521.8814
   9   2.0000     -19.174576      -521.7667
  10   2.0000     -14.449910      -393.2020
  11   2.0000     -14.449824      -393.1997
  12   2.0000     -14.445987      -393.0953
  13   2.0000     -14.444009      -393.0415
  14   2.0000     -14.443289      -393.0219
  15   2.0000     -14.438616      -392.8947
  16   2.0000     -14.431503      -392.7012
  17   2.0000     -14.428691      -392.6246
  18   2.0000     -14.426113      -392.5545
  19   2.0000     -14.424164      -392.5015
  20   2.0000     -10.382339      -282.5178
  21   2.0000     -10.380423      -282.4657
  22   2.0000     -10.379869      -282.4506
  23   2.0000     -10.379406      -282.4380
  24   2.0000     -10.369607      -282.1713
  25   2.0000     -10.369263      -282.1620
  26   2.0000     -10.365228      -282.0522
  27   2.0000     -10.365040      -282.0471
  28   2.0000     -10.360936      -281.9354
  29   2.0000     -10.360883      -281.9340
  30   2.0000     -10.339915      -281.3634
  31   2.0000     -10.332470      -281.1608
  32   2.0000     -10.332371      -281.1581
  33   2.0000     -10.332044      -281.1492
  34   2.0000     -10.329156      -281.0706
  35   2.0000     -10.326817      -281.0070
  36   2.0000     -10.326630      -281.0019
  37   2.0000     -10.326240      -280.9913
  38   2.0000     -10.326012      -280.9851
  39   2.0000     -10.325623      -280.9745
  40   2.0000     -10.324929      -280.9556
  41   2.0000     -10.322462      -280.8885
  42   2.0000     -10.321093      -280.8512
  43   2.0000     -10.319672      -280.8125
  44   2.0000     -10.318039      -280.7681
  45   2.0000     -10.306258      -280.4475
  46   2.0000     -10.305800      -280.4351
  47   2.0000     -10.305715      -280.4328
  48   2.0000     -10.305018      -280.4138
  49   2.0000     -10.302268      -280.3390
  50   2.0000     -10.301219      -280.3104
  51   2.0000     -10.298816      -280.2450
  52   2.0000     -10.298139      -280.2266
  53   2.0000     -10.296661      -280.1864
  54   2.0000     -10.293233      -280.0931
  55   2.0000     -10.293074      -280.0888
  56   2.0000     -10.290949      -280.0310
  57   2.0000     -10.284874      -279.8657
  58   2.0000     -10.274394      -279.5805
  59   2.0000     -10.270408      -279.4720
  60   2.0000     -10.263525      -279.2847
  61   2.0000     -10.262523      -279.2575
  62   2.0000     -10.260925      -279.2140
  63   2.0000     -10.260312      -279.1973
  64   2.0000     -10.259334      -279.1707
  65   2.0000     -10.257478      -279.1202
  66   2.0000     -10.254949      -279.0513
  67   2.0000     -10.254301      -279.0337
  68   2.0000     -10.254273      -279.0329
  69   2.0000     -10.251397      -278.9547
  70   2.0000     -10.248576      -278.8779
  71   2.0000     -10.248161      -278.8667
  72   2.0000      -1.325762       -36.0758
  73   2.0000      -1.321167       -35.9508
  74   2.0000      -1.308143       -35.5964
  75   2.0000      -1.305387       -35.5214
  76   2.0000      -1.129696       -30.7406
  77   2.0000      -1.125417       -30.6242
  78   2.0000      -1.123055       -30.5599
  79   2.0000      -1.120020       -30.4773
  80   2.0000      -1.118534       -30.4369
  81   2.0000      -1.113211       -30.2920
  82   2.0000      -1.090096       -29.6630
  83   2.0000      -1.082181       -29.4477
  84   2.0000      -1.059773       -28.8379
  85   2.0000      -1.056007       -28.7354
  86   2.0000      -1.050823       -28.5944
  87   2.0000      -1.050763       -28.5927
  88   2.0000      -1.047558       -28.5055
  89   2.0000      -1.041969       -28.3534
  90   2.0000      -1.011254       -27.5176
  91   2.0000      -1.005660       -27.3654
  92   2.0000      -0.989425       -26.9236
  93   2.0000      -0.955078       -25.9890
  94   2.0000      -0.926800       -25.2195
  95   2.0000      -0.921180       -25.0666
  96   2.0000      -0.917474       -24.9657
  97   2.0000      -0.915978       -24.9250
  98   2.0000      -0.906017       -24.6540
  99   2.0000      -0.899669       -24.4812
 100   2.0000      -0.876441       -23.8492
 101   2.0000      -0.871756       -23.7217
 102   2.0000      -0.868370       -23.6295
 103   2.0000      -0.863849       -23.5065
 104   2.0000      -0.863135       -23.4871
 105   2.0000      -0.855425       -23.2773
 106   2.0000      -0.853523       -23.2255
 107   2.0000      -0.828464       -22.5437
 108   2.0000      -0.818173       -22.2636
 109   2.0000      -0.812680       -22.1141
 110   2.0000      -0.811234       -22.0748
 111   2.0000      -0.810101       -22.0440
 112   2.0000      -0.797086       -21.6898
 113   2.0000      -0.791861       -21.5476
 114   2.0000      -0.785261       -21.3680
 115   2.0000      -0.766717       -20.8634
 116   2.0000      -0.761743       -20.7281
 117   2.0000      -0.758086       -20.6286
 118   2.0000      -0.753399       -20.5010
 119   2.0000      -0.751841       -20.4586
 120   2.0000      -0.751748       -20.4561
 121   2.0000      -0.738121       -20.0853
 122   2.0000      -0.730119       -19.8675
 123   2.0000      -0.729069       -19.8390
 124   2.0000      -0.708710       -19.2850
 125   2.0000      -0.706530       -19.2256
 126   2.0000      -0.701237       -19.0816
 127   2.0000      -0.700087       -19.0503
 128   2.0000      -0.696893       -18.9634
 129   2.0000      -0.695775       -18.9330
 130   2.0000      -0.683058       -18.5869
 131   2.0000      -0.676141       -18.3987
 132   2.0000      -0.674361       -18.3503
 133   2.0000      -0.666711       -18.1421
 134   2.0000      -0.664082       -18.0706
 135   2.0000      -0.653839       -17.7919
 136   2.0000      -0.648362       -17.6428
 137   2.0000      -0.647051       -17.6072
 138   2.0000      -0.642723       -17.4894
 139   2.0000      -0.641363       -17.4524
 140   2.0000      -0.639205       -17.3936
 141   2.0000      -0.634994       -17.2791
 142   2.0000      -0.618657       -16.8345
 143   2.0000      -0.617602       -16.8058
 144   2.0000      -0.608229       -16.5508
 145   2.0000      -0.603273       -16.4159
 146   2.0000      -0.596969       -16.2444
 147   2.0000      -0.596042       -16.2191
 148   2.0000      -0.594424       -16.1751
 149   2.0000      -0.588418       -16.0117
 150   2.0000      -0.584602       -15.9078
 151   2.0000      -0.582855       -15.8603
 152   2.0000      -0.579719       -15.7750
 153   2.0000      -0.577001       -15.7010
 154   2.0000      -0.575850       -15.6697
 155   2.0000      -0.575124       -15.6499
 156   2.0000      -0.569404       -15.4943
 157   2.0000      -0.568301       -15.4643
 158   2.0000      -0.566068       -15.4035
 159   2.0000      -0.562430       -15.3045
 160   2.0000      -0.558554       -15.1990
 161   2.0000      -0.558029       -15.1847
 162   2.0000      -0.555593       -15.1185
 163   2.0000      -0.552555       -15.0358
 164   2.0000      -0.550502       -14.9799
 165   2.0000      -0.545760       -14.8509
 166   2.0000      -0.543945       -14.8015
 167   2.0000      -0.541020       -14.7219
 168   2.0000      -0.538950       -14.6656
 169   2.0000      -0.538268       -14.6470
 170   2.0000      -0.537207       -14.6181
 171   2.0000      -0.536272       -14.5927
 172   2.0000      -0.530660       -14.4400
 173   2.0000      -0.526004       -14.3133
 174   2.0000      -0.525302       -14.2942
 175   2.0000      -0.522925       -14.2295
 176   2.0000      -0.522122       -14.2077
 177   2.0000      -0.521319       -14.1858
 178   2.0000      -0.518108       -14.0984
 179   2.0000      -0.517198       -14.0737
 180   2.0000      -0.513027       -13.9602
 181   2.0000      -0.510948       -13.9036
 182   2.0000      -0.507143       -13.8001
 183   2.0000      -0.506240       -13.7755
 184   2.0000      -0.504039       -13.7156
 185   2.0000      -0.502485       -13.6733
 186   2.0000      -0.500795       -13.6273
 187   2.0000      -0.498796       -13.5729
 188   2.0000      -0.496669       -13.5150
 189   2.0000      -0.494021       -13.4430
 190   2.0000      -0.492479       -13.4010
 191   2.0000      -0.491728       -13.3806
 192   2.0000      -0.490240       -13.3401
 193   2.0000      -0.485184       -13.2025
 194   2.0000      -0.482430       -13.1276
 195   2.0000      -0.470842       -12.8123
 196   2.0000      -0.469198       -12.7675
 197   2.0000      -0.468468       -12.7477
 198   2.0000      -0.467640       -12.7251
 199   2.0000      -0.466280       -12.6881
 200   2.0000      -0.463689       -12.6176
 201   2.0000      -0.463484       -12.6120
 202   2.0000      -0.459652       -12.5078
 203   2.0000      -0.458917       -12.4878
 204   2.0000      -0.457449       -12.4478
 205   2.0000      -0.455979       -12.4078
 206   2.0000      -0.453789       -12.3482
 207   2.0000      -0.451533       -12.2868
 208   2.0000      -0.450675       -12.2635
 209   2.0000      -0.449743       -12.2381
 210   2.0000      -0.448678       -12.2092
 211   2.0000      -0.448565       -12.2061
 212   2.0000      -0.445035       -12.1100
 213   2.0000      -0.442402       -12.0384
 214   2.0000      -0.439930       -11.9711
 215   2.0000      -0.438598       -11.9348
 216   2.0000      -0.436513       -11.8781
 217   2.0000      -0.435369       -11.8470
 218   2.0000      -0.432387       -11.7659
 219   2.0000      -0.430303       -11.7091
 220   2.0000      -0.426147       -11.5961
 221   2.0000      -0.425570       -11.5804
 222   2.0000      -0.423584       -11.5263
 223   2.0000      -0.422516       -11.4972
 224   2.0000      -0.419557       -11.4167
 225   2.0000      -0.416558       -11.3351
 226   2.0000      -0.411548       -11.1988
 227   2.0000      -0.407453       -11.0874
 228   2.0000      -0.404083       -10.9956
 229   2.0000      -0.394639       -10.7387
 230   2.0000      -0.393070       -10.6960
 231   2.0000      -0.382958       -10.4208
 232   2.0000      -0.381674       -10.3859
 233   2.0000      -0.375947       -10.2300
 234   2.0000      -0.350694        -9.5429
 235   2.0000      -0.344420        -9.3722
 236   2.0000      -0.343055        -9.3350
 237   2.0000      -0.338963        -9.2236
 238   2.0000      -0.335561        -9.1311
 239   2.0000      -0.333466        -9.0741
 240   2.0000      -0.327320        -8.9068
 241   2.0000      -0.326938        -8.8964
 242   2.0000      -0.325801        -8.8655
 243   2.0000      -0.319647        -8.6980
 244   2.0000      -0.319535        -8.6950
 245   2.0000      -0.317340        -8.6353
 246   2.0000      -0.316507        -8.6126
 247   2.0000      -0.312501        -8.5036
 248   2.0000      -0.303375        -8.2553
 249   2.0000      -0.302502        -8.2315
 250   2.0000      -0.289832        -7.8867
 251   2.0000      -0.254932        -6.9370
 252   2.0000      -0.237929        -6.4744
 253   2.0000      -0.221283        -6.0214
 254   0.0000      -0.104668        -2.8482
 255   0.0000      -0.082948        -2.2571
 256   0.0000      -0.044186        -1.2024
 257   0.0000      -0.041904        -1.1403
 258   0.0000      -0.010142        -0.2760

MULLIKEN ATOMIC CHARGES
-----------------------
   0 C :    0.035469
   1 N :   -0.258726
   2 C :    0.112977
   3 C :   -0.001030
   4 C :    0.159021
   5 O :   -0.200638
   6 C :   -0.089382
   7 C :    0.002432
   8 C :    0.158469
   9 O :   -0.191703
  10 N :   -0.270647
  11 C :    0.102934
  12 C :    0.001321
  13 C :    0.161546
  14 C :    0.006646
  15 C :   -0.100312
  16 C :    0.106886
  17 C :   -0.068200
  18 C :   -0.013411
  19 N :   -0.027051
  20 C :    0.042742
  21 C :    0.030545
  22 N :    0.007190
  23 C :    0.018183
  24 C :   -0.031462
  25 C :   -0.044000
  26 N :   -0.033969
  27 C :    0.047274
  28 C :    0.046326
  29 N :    0.005912
  30 C :    0.042139
  31 N :   -0.234159
  32 C :    0.115132
  33 C :   -0.003792
  34 C :    0.155972
  35 O :   -0.186441
  36 C :   -0.077836
  37 C :    0.005029
  38 C :    0.120093
  39 O :   -0.205330
  40 N :   -0.262272
  41 C :    0.100321
  42 C :    0.003592
  43 C :    0.127484
  44 C :   -0.021775
  45 C :   -0.022148
  46 C :    0.101917
  47 N :   -0.265183
  48 C :    0.112794
  49 C :    0.002375
  50 C :    0.157255
  51 O :   -0.212252
  52 C :   -0.061517
  53 C :   -0.021691
  54 C :    0.145053
  55 O :   -0.173146
  56 N :   -0.267955
  57 C :    0.095678
  58 C :    0.006983
  59 C :    0.128060
  60 C :    0.000312
  61 C :   -0.009681
  62 C :   -0.047895
  63 C :    0.186940
  64 F :   -0.157095
  65 C :    0.248012
  66 F :   -0.173811
  67 C :   -0.148347
  68 C :    0.251437
  69 C :    0.178464
  70 F :   -0.173634
  71 F :   -0.176591
  72 H :    0.012595
  73 H :    0.038771
  74 H :    0.015813
  75 H :    0.030447
  76 H :    0.021105
  77 H :    0.013906
  78 H :    0.039650
  79 H :    0.024174
  80 H :    0.025255
  81 H :    0.015650
  82 H :    0.019658
  83 H :   -0.010093
  84 H :    0.033068
  85 H :    0.018679
  86 H :    0.022167
  87 H :    0.010869
  88 H :    0.013303
  89 H :    0.037731
  90 H :    0.028764
  91 H :    0.025072
  92 H :    0.017540
  93 H :    0.017972
  94 H :    0.041559
  95 H :    0.021544
  96 H :    0.022942
  97 H :    0.021627
  98 H :    0.019817
  99 H :   -0.045850
 100 H :    0.041543
 101 H :    0.025733
 102 H :    0.034720
 103 H :    0.016541
 104 H :    0.018696
 105 H :    0.035399
 106 H :    0.045162
 107 H :    0.025954
 108 H :    0.031425
 109 H :    0.022426
 110 H :    0.013360
 111 H :   -0.011298
 112 H :    0.030310
 113 H :    0.018466
Sum of atomic charges:   -0.0000000

LOEWDIN ATOMIC CHARGES
----------------------
   0 C :    0.086413
   1 N :   -0.002034
   2 C :    0.037667
   3 C :   -0.061345
   4 C :    0.075484
   5 O :   -0.196694
   6 C :   -0.127280
   7 C :   -0.128811
   8 C :    0.079314
   9 O :   -0.196281
  10 N :   -0.008496
  11 C :    0.035749
  12 C :   -0.062460
  13 C :    0.083213
  14 C :   -0.032090
  15 C :    0.026619
  16 C :   -0.012354
  17 C :   -0.002319
  18 C :   -0.003810
  19 N :   -0.035002
  20 C :    0.015490
  21 C :    0.013040
  22 N :   -0.013176
  23 C :   -0.036782
  24 C :    0.011535
  25 C :    0.000072
  26 N :   -0.030859
  27 C :    0.022121
  28 C :    0.016940
  29 N :   -0.014577
  30 C :    0.089584
  31 N :    0.015217
  32 C :    0.030441
  33 C :   -0.062218
  34 C :    0.082198
  35 O :   -0.181151
  36 C :   -0.115486
  37 C :   -0.104131
  38 C :    0.079094
  39 O :   -0.207408
  40 N :   -0.005799
  41 C :    0.034857
  42 C :   -0.061806
  43 C :    0.070723
  44 C :   -0.040263
  45 C :    0.015614
  46 C :    0.061417
  47 N :   -0.002240
  48 C :    0.036691
  49 C :   -0.063747
  50 C :    0.078305
  51 O :   -0.202310
  52 C :   -0.126743
  53 C :   -0.101860
  54 C :    0.081707
  55 O :   -0.177346
  56 N :   -0.004228
  57 C :    0.035259
  58 C :   -0.060525
  59 C :    0.083874
  60 C :   -0.036023
  61 C :    0.030488
  62 C :   -0.068430
  63 C :    0.064830
  64 F :   -0.035278
  65 C :    0.056464
  66 F :   -0.049684
  67 C :   -0.055590
  68 C :    0.056166
  69 C :    0.062538
  70 F :   -0.045247
  71 F :   -0.052183
  72 H :    0.031339
  73 H :    0.034840
  74 H :    0.023631
  75 H :    0.031525
  76 H :    0.028858
  77 H :    0.022122
  78 H :    0.035869
  79 H :    0.023346
  80 H :    0.030574
  81 H :    0.027417
  82 H :    0.023503
  83 H :    0.024043
  84 H :    0.039239
  85 H :    0.028725
  86 H :    0.031613
  87 H :    0.026467
  88 H :    0.027582
  89 H :    0.033365
  90 H :    0.019037
  91 H :    0.029193
  92 H :    0.028838
  93 H :    0.020860
  94 H :    0.037066
  95 H :    0.020514
  96 H :    0.030290
  97 H :    0.029605
  98 H :    0.022354
  99 H :    0.027463
 100 H :    0.053471
 101 H :    0.024791
 102 H :    0.035640
 103 H :    0.018324
 104 H :    0.028782
 105 H :    0.034992
 106 H :    0.038268
 107 H :    0.023671
 108 H :    0.033111
 109 H :    0.030547
 110 H :    0.021332
 111 H :    0.026975
 112 H :    0.040949
 113 H :    0.054814

  Mayer bond orders larger than 0.100000
B(  0-C ,  1-N ) :   1.1926 B(  0-C ,  7-C ) :   1.4487 B(  0-C , 72-H ) :   0.9908
B(  1-N ,  2-C ) :   0.9464 B(  1-N ,  4-C ) :   1.0438 B(  2-C ,  3-C ) :   1.1199
B(  2-C , 73-H ) :   0.9342 B(  2-C , 74-H ) :   0.9536 B(  3-C , 75-H ) :   0.9670
B(  3-C , 76-H ) :   0.9687 B(  3-C , 77-H ) :   0.9688 B(  4-C ,  5-O ) :   2.0486
B(  4-C ,  6-C ) :   1.0023 B(  6-C ,  7-C ) :   1.2067 B(  6-C , 13-C ) :   1.3686
B(  7-C ,  8-C ) :   0.9493 B(  8-C ,  9-O ) :   2.1721 B(  8-C , 10-N ) :   1.0254
B( 10-N , 11-C ) :   0.9491 B( 10-N , 13-C ) :   1.1517 B( 11-C , 12-C ) :   1.1220
B( 11-C , 78-H ) :   0.9273 B( 11-C , 79-H ) :   0.9485 B( 12-C , 80-H ) :   0.9635
B( 12-C , 81-H ) :   0.9675 B( 12-C , 82-H ) :   0.9670 B( 13-C , 14-C ) :   1.1339
B( 14-C , 15-C ) :   1.5507 B( 14-C , 83-H ) :   0.9397 B( 15-C , 16-C ) :   1.1846
B( 15-C , 84-H ) :   0.9509 B( 16-C , 17-C ) :   1.2105 B( 16-C , 23-C ) :   0.1477
B( 16-C , 25-C ) :   1.2054 B( 17-C , 18-C ) :   1.1485 B( 17-C , 22-N ) :   1.4876
B( 18-C , 19-N ) :   1.4522 B( 18-C , 23-C ) :   1.2865 B( 19-N , 20-C ) :   1.6527
B( 20-C , 21-C ) :   1.1864 B( 20-C , 85-H ) :   0.9732 B( 21-C , 22-N ) :   1.6903
B( 21-C , 86-H ) :   0.9773 B( 23-C , 24-C ) :   1.2981 B( 23-C , 30-C ) :   0.9966
B( 24-C , 25-C ) :   1.1605 B( 24-C , 29-N ) :   1.4635 B( 25-C , 26-N ) :   1.4452
B( 26-N , 27-C ) :   1.6683 B( 27-C , 28-C ) :   1.1916 B( 27-C , 87-H ) :   0.9720
B( 28-C , 29-N ) :   1.6714 B( 28-C , 88-H ) :   0.9738 B( 30-C , 31-N ) :   1.2461
B( 30-C , 37-C ) :   1.4117 B( 31-N , 32-C ) :   0.9455 B( 31-N , 34-C ) :   1.0310
B( 32-C , 33-C ) :   1.1167 B( 32-C , 89-H ) :   0.9266 B( 32-C , 90-H ) :   0.9287
B( 33-C , 91-H ) :   0.9657 B( 33-C , 92-H ) :   0.9672 B( 33-C , 93-H ) :   0.9663
B( 34-C , 35-O ) :   2.0812 B( 34-C , 36-C ) :   0.9804 B( 36-C , 37-C ) :   1.2395
B( 36-C , 43-C ) :   1.3505 B( 37-C , 38-C ) :   0.9637 B( 38-C , 39-O ) :   2.1175
B( 38-C , 40-N ) :   1.0425 B( 40-N , 41-C ) :   0.9525 B( 40-N , 43-C ) :   1.1519
B( 41-C , 42-C ) :   1.1201 B( 41-C , 94-H ) :   0.9257 B( 41-C , 95-H ) :   0.9487
B( 42-C , 96-H ) :   0.9628 B( 42-C , 97-H ) :   0.9674 B( 42-C , 98-H ) :   0.9677
B( 43-C , 44-C ) :   1.1522 B( 44-C , 45-C ) :   1.5481 B( 44-C , 99-H ) :   0.9573
B( 45-C , 46-C ) :   1.1697 B( 45-C ,100-H ) :   0.9397 B( 46-C , 47-N ) :   1.1594
B( 46-C , 53-C ) :   1.3489 B( 47-N , 48-C ) :   0.9447 B( 47-N , 50-C ) :   1.0651
B( 48-C , 49-C ) :   1.1170 B( 48-C ,101-H ) :   0.9497 B( 48-C ,102-H ) :   0.9290
B( 49-C ,103-H ) :   0.9634 B( 49-C ,104-H ) :   0.9682 B( 49-C ,105-H ) :   0.9591
B( 50-C , 51-O ) :   2.0222 B( 50-C , 52-C ) :   0.9897 B( 51-O ,112-H ) :   0.1084
B( 52-C , 53-C ) :   1.2441 B( 52-C , 59-C ) :   1.3353 B( 53-C , 54-C ) :   0.9705
B( 54-C , 55-O ) :   2.1549 B( 54-C , 56-N ) :   1.0176 B( 56-N , 57-C ) :   0.9455
B( 56-N , 59-C ) :   1.1764 B( 57-C , 58-C ) :   1.1211 B( 57-C ,106-H ) :   0.9264
B( 57-C ,107-H ) :   0.9496 B( 58-C ,108-H ) :   0.9636 B( 58-C ,109-H ) :   0.9676
B( 58-C ,110-H ) :   0.9682 B( 59-C , 60-C ) :   1.1472 B( 60-C , 61-C ) :   1.6302
B( 60-C ,111-H ) :   0.9572 B( 61-C , 62-C ) :   1.0898 B( 61-C ,112-H ) :   0.9528
B( 62-C , 63-C ) :   1.2812 B( 62-C , 67-C ) :   0.1221 B( 62-C , 69-C ) :   1.2633
B( 63-C , 64-F ) :   1.1610 B( 63-C , 65-C ) :   1.3076 B( 65-C , 66-F ) :   1.1255
B( 65-C , 67-C ) :   1.3142 B( 67-C , 68-C ) :   1.3199 B( 67-C ,113-H ) :   1.0190
B( 68-C , 69-C ) :   1.3203 B( 68-C , 71-F ) :   1.1191 B( 69-C , 70-F ) :   1.1257

-----------------------------------------------------------------------------
         ABSORPTION SPECTRUM VIA TRANSITION ELECTRIC DIPOLE MOMENTS
-----------------------------------------------------------------------------
State   Energy  Wavelength   fosc         T2         TX        TY        TZ
        (cm-1)    (nm)                  (au**2)     (au)      (au)      (au)
-----------------------------------------------------------------------------
   0   10552.8    947.6   0.905659382  28.25365  -1.13219   5.18633   0.27172
   1   14799.0    675.7   0.012681331   0.28210  -0.04036  -0.50972  -0.14372
   2   15710.0    636.5   0.261737557   5.48485   0.32950  -2.23339   0.62310
   3   18241.9    548.2   0.095785912   1.72865   0.15098  -0.73480   1.07978
   4   22392.3    446.6   0.058605707   0.86162  -0.12148   0.34407   0.85351
   5   23119.7    432.5   0.026859968   0.38247  -0.26781   0.35757  -0.42766
   6   24120.4    414.6   0.057192771   0.78061  -0.62120  -0.27807  -0.56337
   7   24288.5    411.7   0.152805613   2.07116   0.11810  -1.43420  -0.01696
   8   24431.1    409.3   0.039657783   0.53439  -0.38327  -0.61410  -0.10185
   9   24703.4    404.8   0.065032326   0.86666   0.67625  -0.61335   0.18207
  10   24965.2    400.6   0.120926123   1.59463   0.44558  -1.05578   0.53048
  11   26266.2    380.7   0.032119392   0.40257   0.17958  -0.60747  -0.03612
  12   26549.6    376.7   0.024177956   0.29980  -0.16273   0.38886  -0.34944
  13   26589.7    376.1   0.002971285   0.03679   0.16542  -0.07333  -0.06360
  14   27292.1    366.4   0.002150299   0.02594   0.07877  -0.11367  -0.08254
  15   27987.4    357.3   0.003230209   0.03800   0.08708  -0.15701   0.07590
  16   28035.3    356.7   0.007878292   0.09251  -0.19272  -0.21934  -0.08521
  17   28112.2    355.7   0.027875293   0.32644   0.48772   0.18858   0.23024
  18   28262.7    353.8   0.007055847   0.08219   0.22360  -0.17941   0.00135
  19   29094.7    343.7   0.023095220   0.26133  -0.28152   0.21685  -0.36749
  20   29732.1    336.3   0.057041266   0.63160   0.29003  -0.47824   0.56460
  21   29826.7    335.3   0.007293383   0.08050  -0.11634  -0.17271   0.19271
  22   30886.6    323.8   0.011944995   0.12732  -0.02538   0.07494   0.34793
  23   31402.5    318.4   0.047150715   0.49431  -0.27190   0.64807   0.01980
  24   32106.2    311.5   0.091224437   0.93540   0.34149   0.88169   0.20350
  25   32197.3    310.6   0.043523634   0.44502  -0.28777  -0.58127   0.15597
  26   32297.3    309.6   0.335273117   3.41749  -1.51460   0.84702  -0.63722
  27   32498.8    307.7   0.002568984   0.02602  -0.15698  -0.00426  -0.03694
  28   32908.9    303.9   0.107601128   1.07641  -0.30282   0.09552   0.98772
  29   33354.2    299.8   0.026231722   0.25891   0.25037  -0.36949   0.24434
  30   33538.6    298.2   0.424031047   4.16226   0.34130  -1.85959  -0.76662
  31   33992.8    294.2   0.133599128   1.29388  -0.99403   0.52325   0.17887
  32   34555.3    289.4   0.138988302   1.32415   0.82871   0.56045   0.56859
  33   34854.9    286.9   0.013684711   0.12925   0.28538   0.17755   0.12762
  34   34992.4    285.8   0.006736582   0.06338   0.13437  -0.20422   0.06014
  35   35370.2    282.7   0.143796906   1.33841   0.49462  -1.02558   0.20477
  36   35977.4    278.0   0.037253388   0.34089   0.17291  -0.22704  -0.50935
  37   36281.7    275.6   0.004070780   0.03694  -0.00891   0.19075  -0.02172
  38   36351.8    275.1   0.002980089   0.02699  -0.09003  -0.03205  -0.13362
  39   36679.7    272.6   0.033918937   0.30443   0.11535  -0.45067   0.29670
  40   36752.0    272.1   0.054559540   0.48873  -0.09567   0.51226   0.46601
  41   37287.3    268.2   0.025119245   0.22178   0.03642   0.43118  -0.18585
  42   37441.0    267.1   0.004934870   0.04339   0.15789  -0.06447  -0.11960
  43   37563.4    266.2   0.010874072   0.09530   0.12986  -0.26575  -0.08840
  44   37666.3    265.5   0.028604074   0.25001   0.13219   0.41306  -0.24882
  45   37768.7    264.8   0.117781452   1.02665  -0.19910   0.74847   0.65330
  46   38231.0    261.6   0.002017720   0.01737   0.08806  -0.09808  -0.00116
  47   38530.4    259.5   0.010859980   0.09279  -0.22010   0.20943  -0.02207
  48   39018.1    256.3   0.464349764   3.91792  -1.27027   1.38233  -0.62727
  49   39066.7    256.0   0.049349149   0.41586   0.40527  -0.49339   0.09047
  50   39565.3    252.7   0.016610722   0.13821   0.20385  -0.17089   0.25972
  51   39799.8    251.3   0.000967115   0.00800  -0.06321   0.03439  -0.05312
  52   39882.7    250.7   0.006329202   0.05224   0.10588  -0.17232  -0.10649
  53   40228.4    248.6   0.088273528   0.72239   0.40109  -0.68953  -0.29337
  54   40241.0    248.5   0.041978032   0.34342  -0.23610   0.50702   0.17496

FINAL SINGLE POINT ENERGY     -3400.953333429502

DIPOLE MOMENT
-------------
                                X             Y             Z
Electronic contribution:    -42.58180     104.47063       4.81015
Nuclear contribution   :     42.32770    -103.82302      -5.20064
                        -----------------------------------------
Total Dipole Moment    :     -0.25410       0.64761      -0.39049
                        -----------------------------------------
Magnitude (a.u.)       :      0.79778
Magnitude (Debye)      :      2.02780

Rotational constants in cm-1:     0.003107     0.000248     0.000242
Rotational constants in MHz :    93.137842     7.440836     7.250207

                             ****ORCA TERMINATED NORMALLY****
TOTAL RUN TIME: 0 days 0 hours 11 minutes 21 seconds 39 msec
