                         Program Version 4.2.0 -  RELEASE  -
|  1> # ORCA input file
|  2> # SCF done       -165.937926400638          0.000523445835
|  3> ! CAM-B3LYP def2-SVP def2/J RIJCOSX Grid4 TightSCF
|  4> %maxcore 5000
|  5> %tddft
|  6>     Mode sTDDFT
|  7>     Ethresh 5.0
|  8>     maxcore 5000
|  9> end
| 10>
| 11> %pal
| 12>   nprocs 6
| 13>   end
| 14> * xyz 0 1
| 15>    C       -3.09120         0.40232         6.30128
| 16>    N       -2.40607         1.35073         6.99187
| 17>    C       -1.54441         1.11433         8.12299
| 18>    C       -0.20725         0.51633         7.69344
| 19>    C       -2.57507         2.63400         6.41520
| 20>    O       -2.06229         3.64202         6.85650
| 21>    C       -3.44969         2.39044         5.29483
| 22>    C       -3.74766         0.99413         5.25716
| 23>    C       -4.62282         0.76918         4.12685
| 24>    O       -5.14945        -0.22759         3.68766
| 25>    N       -4.77827         2.04923         3.53996
| 26>    C       -5.68373         2.20587         2.42746
| 27>    C       -6.98050         2.90001         2.83605
| 28>    C       -4.08581         3.01814         4.23459
| 29>    C       -3.95387         4.41355         3.99083
| 30>    C       -4.34775         5.14682         2.92274
| 31>    C       -4.13292         6.54875         2.80460
| 32>    S       -4.57343         7.34699         1.31527
| 33>    C       -4.06151         8.88876         1.91923
| 34>    C       -3.57973         8.76176         3.22558
| 35>    C       -3.61683         7.44819         3.71425
| 36>    C       -3.10702         9.86575         3.95622
| 37>    N       -2.73043        10.77754         4.54123
| 38>    C       -4.12974        10.08538         1.16919
| 39>    C       -4.53364        10.16219        -0.12287
| 40>    C       -4.58597        11.37564        -0.85169
| 41>    O       -4.28973        12.56184        -0.27360
| 42>    C       -4.41621        13.53505        -1.20264
| 43>    C       -4.80154        12.97482        -2.42070
| 44>    C       -4.91556        11.57585        -2.19185
| 45>    C       -5.27940        10.58390        -3.11037
| 46>    N       -5.57422         9.75797        -3.84908
| 47>    C       -5.03304        13.66295        -3.61791
| 48>    N       -5.22179        14.23147        -4.59559
| 49>    C       -4.18699        14.89835        -0.88821
| 50>    C       -3.87834        15.34223         0.35380
| 51>    C       -3.66629        16.70450         0.68509
| 52>    S       -3.70343        17.97648        -0.50743
| 53>    C       -3.39776        19.19499         0.68899
| 54>    C       -3.27517        18.61360         1.95793
| 55>    C       -3.42222        17.21832         1.94230
| 56>    C       -3.03259        19.31710         3.14876
| 57>    N       -2.83912        19.85480         4.14465
| 58>    C       -3.31015        20.54355         0.27101
| 59>    C       -3.12001        21.61248         1.08953
| 60>    C       -3.03173        22.93649         0.59413
| 61>    N       -2.87546        24.04087         1.40063
| 62>    C       -2.85118        24.05562         2.84372
| 63>    C       -4.24941        23.91115         3.43887
| 64>    C       -2.80035        25.23168         0.65799
| 65>    O       -2.66632        26.32813         1.16350
| 66>    C       -2.90965        24.80196        -0.71917
| 67>    C       -3.05575        23.38764        -0.72270
| 68>    C       -3.15021        22.95667        -2.09636
| 69>    O       -3.28269        21.85808        -2.60317
| 70>    N       -3.04543        24.14486        -2.84204
| 71>    C       -3.14557        24.12629        -4.28113
| 72>    C       -4.53902        24.52736        -4.75925
| 73>    C       -2.90750        25.24772        -2.03381
| 74>    C       -2.77064        26.58373        -2.53762
| 75>    C       -2.65662        27.65002        -1.74243
| 76>    H       -3.06871        -0.62782         6.60598
| 77>    H       -2.05122         0.44896         8.82811
| 78>    H       -1.38313         2.08601         8.59748
| 79>    H       -0.35572        -0.43866         7.19404
| 80>    H        0.42440         0.36115         8.56344
| 81>    H        0.30126         1.19140         7.00949
| 82>    H       -5.90712         1.18832         2.09132
| 83>    H       -5.18674         2.73353         1.60915
| 84>    H       -7.49124         2.30964         3.59283
| 85>    H       -7.63348         2.99656         1.97300
| 86>    H       -6.78802         3.88989         3.24366
| 87>    H       -3.42046         4.91023         4.79088
| 88>    H       -4.84014         4.69151         2.07780
| 89>    H       -3.28193         7.17948         4.69958
| 90>    H       -3.82041        10.98564         1.68502
| 91>    H       -4.82890         9.27466        -0.66582
| 92>    H       -4.28797        15.59041        -1.71299
| 93>    H       -3.79413        14.63414         1.16768
| 94>    H       -3.35581        16.60919         2.82686
| 95>    H       -3.40758        20.70947        -0.79451
| 96>    H       -3.02826        21.46877         2.15501
| 97>    H       -2.43002        25.02439         3.12674
| 98>    H       -2.19294        23.26292         3.20958
| 99>    H       -4.88622        24.72303         3.09563
|100>    H       -4.19042        23.94737         4.52278
|101>    H       -4.70169        22.96585         3.14736
|102>    H       -2.93802        23.09588        -4.58380
|103>    H       -2.38173        24.77972        -4.71162
|104>    H       -5.27965        23.83947        -4.35887
|105>    H       -4.58083        24.48965        -5.84428
|106>    H       -4.78937        25.53427        -4.43233
|107>    H       -2.75916        26.70126        -3.61247
|108>    H       -2.66554        27.55709        -0.66925
|109>    H       -2.55133        28.64013        -2.15121
|110> *
|111>
|112>                          ****END OF INPUT****

CARTESIAN COORDINATES (ANGSTROEM)
---------------------------------
  C     -3.091200    0.402320    6.301280
  N     -2.406070    1.350730    6.991870
  C     -1.544410    1.114330    8.122990
  C     -0.207250    0.516330    7.693440
  C     -2.575070    2.634000    6.415200
  O     -2.062290    3.642020    6.856500
  C     -3.449690    2.390440    5.294830
  C     -3.747660    0.994130    5.257160
  C     -4.622820    0.769180    4.126850
  O     -5.149450   -0.227590    3.687660
  N     -4.778270    2.049230    3.539960
  C     -5.683730    2.205870    2.427460
  C     -6.980500    2.900010    2.836050
  C     -4.085810    3.018140    4.234590
  C     -3.953870    4.413550    3.990830
  C     -4.347750    5.146820    2.922740
  C     -4.132920    6.548750    2.804600
  S     -4.573430    7.346990    1.315270
  C     -4.061510    8.888760    1.919230
  C     -3.579730    8.761760    3.225580
  C     -3.616830    7.448190    3.714250
  C     -3.107020    9.865750    3.956220
  N     -2.730430   10.777540    4.541230
  C     -4.129740   10.085380    1.169190
  C     -4.533640   10.162190   -0.122870
  C     -4.585970   11.375640   -0.851690
  O     -4.289730   12.561840   -0.273600
  C     -4.416210   13.535050   -1.202640
  C     -4.801540   12.974820   -2.420700
  C     -4.915560   11.575850   -2.191850
  C     -5.279400   10.583900   -3.110370
  N     -5.574220    9.757970   -3.849080
  C     -5.033040   13.662950   -3.617910
  N     -5.221790   14.231470   -4.595590
  C     -4.186990   14.898350   -0.888210
  C     -3.878340   15.342230    0.353800
  C     -3.666290   16.704500    0.685090
  S     -3.703430   17.976480   -0.507430
  C     -3.397760   19.194990    0.688990
  C     -3.275170   18.613600    1.957930
  C     -3.422220   17.218320    1.942300
  C     -3.032590   19.317100    3.148760
  N     -2.839120   19.854800    4.144650
  C     -3.310150   20.543550    0.271010
  C     -3.120010   21.612480    1.089530
  C     -3.031730   22.936490    0.594130
  N     -2.875460   24.040870    1.400630
  C     -2.851180   24.055620    2.843720
  C     -4.249410   23.911150    3.438870
  C     -2.800350   25.231680    0.657990
  O     -2.666320   26.328130    1.163500
  C     -2.909650   24.801960   -0.719170
  C     -3.055750   23.387640   -0.722700
  C     -3.150210   22.956670   -2.096360
  O     -3.282690   21.858080   -2.603170
  N     -3.045430   24.144860   -2.842040
  C     -3.145570   24.126290   -4.281130
  C     -4.539020   24.527360   -4.759250
  C     -2.907500   25.247720   -2.033810
  C     -2.770640   26.583730   -2.537620
  C     -2.656620   27.650020   -1.742430
  H     -3.068710   -0.627820    6.605980
  H     -2.051220    0.448960    8.828110
  H     -1.383130    2.086010    8.597480
  H     -0.355720   -0.438660    7.194040
  H      0.424400    0.361150    8.563440
  H      0.301260    1.191400    7.009490
  H     -5.907120    1.188320    2.091320
  H     -5.186740    2.733530    1.609150
  H     -7.491240    2.309640    3.592830
  H     -7.633480    2.996560    1.973000
  H     -6.788020    3.889890    3.243660
  H     -3.420460    4.910230    4.790880
  H     -4.840140    4.691510    2.077800
  H     -3.281930    7.179480    4.699580
  H     -3.820410   10.985640    1.685020
  H     -4.828900    9.274660   -0.665820
  H     -4.287970   15.590410   -1.712990
  H     -3.794130   14.634140    1.167680
  H     -3.355810   16.609190    2.826860
  H     -3.407580   20.709470   -0.794510
  H     -3.028260   21.468770    2.155010
  H     -2.430020   25.024390    3.126740
  H     -2.192940   23.262920    3.209580
  H     -4.886220   24.723030    3.095630
  H     -4.190420   23.947370    4.522780
  H     -4.701690   22.965850    3.147360
  H     -2.938020   23.095880   -4.583800
  H     -2.381730   24.779720   -4.711620
  H     -5.279650   23.839470   -4.358870
  H     -4.580830   24.489650   -5.844280
  H     -4.789370   25.534270   -4.432330
  H     -2.759160   26.701260   -3.612470
  H     -2.665540   27.557090   -0.669250
  H     -2.551330   28.640130   -2.151210

 Total Charge           Charge          ....    0
 Multiplicity           Mult            ....    1
 Number of Electrons    NEL             ....  438
 Basis Dimension        Dim             .... 1032

ORBITAL ENERGIES
----------------

  NO   OCC          E(Eh)            E(eV)
   0   2.0000     -88.989129     -2421.5173
   1   2.0000     -88.982498     -2421.3369
   2   2.0000     -19.334900      -526.1294
   3   2.0000     -19.196566      -522.3651
   4   2.0000     -19.195376      -522.3327
   5   2.0000     -19.190493      -522.1999
   6   2.0000     -19.187014      -522.1052
   7   2.0000     -14.459211      -393.4551
   8   2.0000     -14.456295      -393.3758
   9   2.0000     -14.455392      -393.3512
  10   2.0000     -14.450852      -393.2277
  11   2.0000     -14.422044      -392.4438
  12   2.0000     -14.419370      -392.3710
  13   2.0000     -14.418979      -392.3604
  14   2.0000     -14.417400      -392.3174
  15   2.0000     -10.381035      -282.4823
  16   2.0000     -10.380477      -282.4671
  17   2.0000     -10.378954      -282.4257
  18   2.0000     -10.377101      -282.3753
  19   2.0000     -10.376253      -282.3522
  20   2.0000     -10.371145      -282.2132
  21   2.0000     -10.346845      -281.5520
  22   2.0000     -10.342013      -281.4205
  23   2.0000     -10.339504      -281.3522
  24   2.0000     -10.339135      -281.3422
  25   2.0000     -10.339115      -281.3416
  26   2.0000     -10.338611      -281.3279
  27   2.0000     -10.338176      -281.3161
  28   2.0000     -10.336413      -281.2681
  29   2.0000     -10.334756      -281.2230
  30   2.0000     -10.331922      -281.1459
  31   2.0000     -10.327679      -281.0304
  32   2.0000     -10.324970      -280.9567
  33   2.0000     -10.322697      -280.8949
  34   2.0000     -10.320093      -280.8240
  35   2.0000     -10.318923      -280.7922
  36   2.0000     -10.318872      -280.7908
  37   2.0000     -10.318603      -280.7835
  38   2.0000     -10.317457      -280.7523
  39   2.0000     -10.317011      -280.7401
  40   2.0000     -10.314525      -280.6725
  41   2.0000     -10.313648      -280.6486
  42   2.0000     -10.311223      -280.5826
  43   2.0000     -10.310359      -280.5591
  44   2.0000     -10.309899      -280.5466
  45   2.0000     -10.309224      -280.5282
  46   2.0000     -10.309038      -280.5232
  47   2.0000     -10.305927      -280.4385
  48   2.0000     -10.302789      -280.3531
  49   2.0000     -10.300402      -280.2882
  50   2.0000     -10.298227      -280.2290
  51   2.0000     -10.288477      -279.9637
  52   2.0000     -10.280199      -279.7384
  53   2.0000     -10.268965      -279.4327
  54   2.0000     -10.267859      -279.4026
  55   2.0000     -10.267078      -279.3814
  56   2.0000     -10.265140      -279.3287
  57   2.0000     -10.264709      -279.3169
  58   2.0000     -10.262712      -279.2626
  59   2.0000     -10.258894      -279.1587
  60   2.0000     -10.257847      -279.1302
  61   2.0000      -8.084571      -219.9924
  62   2.0000      -8.077938      -219.8119
  63   2.0000      -6.053660      -164.7285
  64   2.0000      -6.049734      -164.6216
  65   2.0000      -6.047036      -164.5482
  66   2.0000      -6.046889      -164.5442
  67   2.0000      -6.043014      -164.4388
  68   2.0000      -6.040262      -164.3639
  69   2.0000      -1.253726       -34.1156
  70   2.0000      -1.136575       -30.9278
  71   2.0000      -1.134602       -30.8741
  72   2.0000      -1.129518       -30.7358
  73   2.0000      -1.125758       -30.6334
  74   2.0000      -1.067401       -29.0455
  75   2.0000      -1.064149       -28.9570
  76   2.0000      -1.057573       -28.7780
  77   2.0000      -1.054786       -28.7022
  78   2.0000      -1.025977       -27.9182
  79   2.0000      -1.021106       -27.7857
  80   2.0000      -1.010812       -27.5056
  81   2.0000      -1.002100       -27.2685
  82   2.0000      -0.997695       -27.1487
  83   2.0000      -0.996318       -27.1112
  84   2.0000      -0.957140       -26.0451
  85   2.0000      -0.952439       -25.9172
  86   2.0000      -0.937126       -25.5005
  87   2.0000      -0.932578       -25.3767
  88   2.0000      -0.928414       -25.2634
  89   2.0000      -0.922772       -25.1099
  90   2.0000      -0.909972       -24.7616
  91   2.0000      -0.893110       -24.3028
  92   2.0000      -0.887092       -24.1390
  93   2.0000      -0.883462       -24.0402
  94   2.0000      -0.875602       -23.8264
  95   2.0000      -0.872340       -23.7376
  96   2.0000      -0.867811       -23.6143
  97   2.0000      -0.852822       -23.2065
  98   2.0000      -0.834238       -22.7008
  99   2.0000      -0.824978       -22.4488
 100   2.0000      -0.818910       -22.2837
 101   2.0000      -0.814962       -22.1762
 102   2.0000      -0.800181       -21.7740
 103   2.0000      -0.790614       -21.5137
 104   2.0000      -0.783031       -21.3074
 105   2.0000      -0.775726       -21.1086
 106   2.0000      -0.765467       -20.8294
 107   2.0000      -0.763194       -20.7676
 108   2.0000      -0.759393       -20.6641
 109   2.0000      -0.743227       -20.2242
 110   2.0000      -0.729518       -19.8512
 111   2.0000      -0.727628       -19.7998
 112   2.0000      -0.725209       -19.7339
 113   2.0000      -0.714037       -19.4299
 114   2.0000      -0.708392       -19.2763
 115   2.0000      -0.701888       -19.0993
 116   2.0000      -0.688063       -18.7231
 117   2.0000      -0.685275       -18.6473
 118   2.0000      -0.678586       -18.4653
 119   2.0000      -0.662623       -18.0309
 120   2.0000      -0.659542       -17.9471
 121   2.0000      -0.658642       -17.9226
 122   2.0000      -0.653202       -17.7745
 123   2.0000      -0.647320       -17.6145
 124   2.0000      -0.641580       -17.4583
 125   2.0000      -0.630214       -17.1490
 126   2.0000      -0.618507       -16.8304
 127   2.0000      -0.613749       -16.7010
 128   2.0000      -0.609365       -16.5817
 129   2.0000      -0.601536       -16.3686
 130   2.0000      -0.594946       -16.1893
 131   2.0000      -0.591339       -16.0912
 132   2.0000      -0.590523       -16.0690
 133   2.0000      -0.587515       -15.9871
 134   2.0000      -0.583965       -15.8905
 135   2.0000      -0.578889       -15.7524
 136   2.0000      -0.578339       -15.7374
 137   2.0000      -0.575443       -15.6586
 138   2.0000      -0.571377       -15.5480
 139   2.0000      -0.567745       -15.4491
 140   2.0000      -0.552456       -15.0331
 141   2.0000      -0.550077       -14.9683
 142   2.0000      -0.548322       -14.9206
 143   2.0000      -0.540221       -14.7001
 144   2.0000      -0.536440       -14.5973
 145   2.0000      -0.535127       -14.5615
 146   2.0000      -0.532974       -14.5030
 147   2.0000      -0.531041       -14.4503
 148   2.0000      -0.529723       -14.4145
 149   2.0000      -0.526124       -14.3166
 150   2.0000      -0.525020       -14.2865
 151   2.0000      -0.522419       -14.2158
 152   2.0000      -0.520937       -14.1754
 153   2.0000      -0.520685       -14.1686
 154   2.0000      -0.517132       -14.0719
 155   2.0000      -0.515043       -14.0150
 156   2.0000      -0.512242       -13.9388
 157   2.0000      -0.511557       -13.9202
 158   2.0000      -0.510626       -13.8949
 159   2.0000      -0.506168       -13.7735
 160   2.0000      -0.505355       -13.7514
 161   2.0000      -0.503547       -13.7022
 162   2.0000      -0.498212       -13.5571
 163   2.0000      -0.483056       -13.1446
 164   2.0000      -0.481248       -13.0954
 165   2.0000      -0.479783       -13.0556
 166   2.0000      -0.477296       -12.9879
 167   2.0000      -0.476386       -12.9631
 168   2.0000      -0.475169       -12.9300
 169   2.0000      -0.474266       -12.9054
 170   2.0000      -0.471321       -12.8253
 171   2.0000      -0.468552       -12.7500
 172   2.0000      -0.464137       -12.6298
 173   2.0000      -0.461554       -12.5595
 174   2.0000      -0.461309       -12.5529
 175   2.0000      -0.458852       -12.4860
 176   2.0000      -0.457478       -12.4486
 177   2.0000      -0.456046       -12.4097
 178   2.0000      -0.455882       -12.4052
 179   2.0000      -0.452292       -12.3075
 180   2.0000      -0.450855       -12.2684
 181   2.0000      -0.449650       -12.2356
 182   2.0000      -0.449492       -12.2313
 183   2.0000      -0.447254       -12.1704
 184   2.0000      -0.446685       -12.1549
 185   2.0000      -0.444140       -12.0857
 186   2.0000      -0.442282       -12.0351
 187   2.0000      -0.441558       -12.0154
 188   2.0000      -0.441050       -12.0016
 189   2.0000      -0.439999       -11.9730
 190   2.0000      -0.436335       -11.8733
 191   2.0000      -0.434989       -11.8366
 192   2.0000      -0.431765       -11.7489
 193   2.0000      -0.431471       -11.7409
 194   2.0000      -0.425450       -11.5771
 195   2.0000      -0.423970       -11.5368
 196   2.0000      -0.422137       -11.4869
 197   2.0000      -0.421116       -11.4592
 198   2.0000      -0.416624       -11.3369
 199   2.0000      -0.412906       -11.2358
 200   2.0000      -0.411643       -11.2014
 201   2.0000      -0.410134       -11.1603
 202   2.0000      -0.387918       -10.5558
 203   2.0000      -0.377161       -10.2631
 204   2.0000      -0.361625        -9.8403
 205   2.0000      -0.351235        -9.5576
 206   2.0000      -0.351038        -9.5522
 207   2.0000      -0.349128        -9.5003
 208   2.0000      -0.348336        -9.4787
 209   2.0000      -0.343466        -9.3462
 210   2.0000      -0.334347        -9.0980
 211   2.0000      -0.332728        -9.0540
 212   2.0000      -0.331220        -9.0130
 213   2.0000      -0.319392        -8.6911
 214   2.0000      -0.314509        -8.5582
 215   2.0000      -0.303023        -8.2457
 216   2.0000      -0.272989        -7.4284
 217   2.0000      -0.250104        -6.8057
 218   2.0000      -0.238478        -6.4893
 219   0.0000      -0.104450        -2.8422
 220   0.0000      -0.090708        -2.4683
 221   0.0000      -0.063856        -1.7376
 222   0.0000      -0.048632        -1.3233
 223   0.0000      -0.021459        -0.5839

MULLIKEN ATOMIC CHARGES
-----------------------
   0 C :    0.052177
   1 N :   -0.264771
   2 C :    0.108457
   3 C :   -0.002890
   4 C :    0.162922
   5 O :   -0.191873
   6 C :   -0.077571
   7 C :    0.001680
   8 C :    0.164861
   9 O :   -0.182588
  10 N :   -0.276995
  11 C :    0.095557
  12 C :   -0.002646
  13 C :    0.131982
  14 C :   -0.038402
  15 C :    0.085741
  16 C :   -0.081352
  17 S :    0.151474
  18 C :   -0.047683
  19 C :   -0.048745
  20 C :    0.019093
  21 C :   -0.188376
  22 N :    0.136436
  23 C :    0.008268
  24 C :   -0.061533
  25 C :    0.139992
  26 O :   -0.192649
  27 C :    0.144591
  28 C :   -0.005829
  29 C :   -0.004163
  30 C :   -0.300361
  31 N :    0.227023
  32 C :   -0.306272
  33 N :    0.228315
  34 C :   -0.069681
  35 C :    0.046794
  36 C :   -0.048619
  37 S :    0.170699
  38 C :   -0.051999
  39 C :   -0.077459
  40 C :    0.023979
  41 C :   -0.166641
  42 N :    0.117264
  43 C :    0.053006
  44 C :   -0.032278
  45 C :    0.130868
  46 N :   -0.258293
  47 C :    0.096203
  48 C :    0.006123
  49 C :    0.163024
  50 O :   -0.206661
  51 C :   -0.064787
  52 C :   -0.065651
  53 C :    0.167606
  54 O :   -0.211394
  55 N :   -0.256950
  56 C :    0.095459
  57 C :    0.003007
  58 C :    0.110297
  59 C :   -0.036901
  60 C :    0.012746
  61 H :    0.019613
  62 H :    0.020646
  63 H :    0.044018
  64 H :    0.014880
  65 H :    0.026440
  66 H :    0.032344
  67 H :    0.047826
  68 H :    0.024290
  69 H :    0.029188
  70 H :    0.025046
  71 H :    0.018730
  72 H :    0.010589
  73 H :   -0.019095
  74 H :    0.013943
  75 H :    0.025264
  76 H :    0.025196
  77 H :    0.029664
  78 H :    0.014831
  79 H :    0.004459
  80 H :    0.005944
  81 H :   -0.010572
  82 H :    0.040863
  83 H :    0.035772
  84 H :    0.025232
  85 H :    0.029475
  86 H :    0.015017
  87 H :    0.044164
  88 H :    0.025775
  89 H :    0.029869
  90 H :    0.025762
  91 H :    0.016699
  92 H :   -0.016607
  93 H :    0.060065
  94 H :    0.031043
Sum of atomic charges:   -0.0000000

LOEWDIN ATOMIC CHARGES
----------------------
   0 C :    0.102140
   1 N :   -0.002217
   2 C :    0.038163
   3 C :   -0.060353
   4 C :    0.077633
   5 O :   -0.194728
   6 C :   -0.114946
   7 C :   -0.133304
   8 C :    0.084245
   9 O :   -0.186497
  10 N :   -0.013527
  11 C :    0.033588
  12 C :   -0.063489
  13 C :    0.073590
  14 C :   -0.016076
  15 C :   -0.028700
  16 C :   -0.155758
  17 S :    0.465682
  18 C :   -0.146461
  19 C :   -0.093056
  20 C :   -0.018562
  21 C :   -0.032001
  22 N :   -0.048777
  23 C :   -0.013414
  24 C :   -0.039552
  25 C :    0.069583
  26 O :    0.029723
  27 C :    0.077175
  28 C :   -0.090341
  29 C :   -0.084410
  30 C :   -0.035309
  31 N :   -0.032192
  32 C :   -0.036744
  33 N :   -0.031490
  34 C :   -0.054881
  35 C :   -0.001123
  36 C :   -0.172926
  37 S :    0.484650
  38 C :   -0.129522
  39 C :   -0.107999
  40 C :   -0.009490
  41 C :   -0.026101
  42 N :   -0.058939
  43 C :   -0.010863
  44 C :   -0.022595
  45 C :    0.070192
  46 N :    0.001234
  47 C :    0.036433
  48 C :   -0.059629
  49 C :    0.080609
  50 O :   -0.199831
  51 C :   -0.125014
  52 C :   -0.115861
  53 C :    0.081360
  54 O :   -0.200333
  55 N :    0.001925
  56 C :    0.036167
  57 C :   -0.061049
  58 C :    0.083707
  59 C :   -0.055591
  60 C :    0.028395
  61 H :    0.034716
  62 H :    0.025409
  63 H :    0.037129
  64 H :    0.022498
  65 H :    0.031375
  66 H :    0.032210
  67 H :    0.039002
  68 H :    0.018494
  69 H :    0.032872
  70 H :    0.031501
  71 H :    0.020699
  72 H :    0.046516
  73 H :    0.029240
  74 H :    0.045041
  75 H :    0.045959
  76 H :    0.041333
  77 H :    0.041204
  78 H :    0.043655
  79 H :    0.043595
  80 H :    0.036731
  81 H :    0.036200
  82 H :    0.037336
  83 H :    0.027447
  84 H :    0.030086
  85 H :    0.033521
  86 H :    0.022268
  87 H :    0.037742
  88 H :    0.023714
  89 H :    0.032282
  90 H :    0.031343
  91 H :    0.022608
  92 H :    0.030017
  93 H :    0.033597
  94 H :    0.030120

  Mayer bond orders larger than 0.100000
B(  0-C ,  1-N ) :   1.2013 B(  0-C ,  7-C ) :   1.4476 B(  0-C , 61-H ) :   0.9898
B(  1-N ,  2-C ) :   0.9393 B(  1-N ,  4-C ) :   1.0298 B(  2-C ,  3-C ) :   1.1206
B(  2-C , 62-H ) :   0.9540 B(  2-C , 63-H ) :   0.9346 B(  3-C , 64-H ) :   0.9688
B(  3-C , 65-H ) :   0.9685 B(  3-C , 66-H ) :   0.9672 B(  4-C ,  5-O ) :   2.1238
B(  4-C ,  6-C ) :   0.9886 B(  6-C ,  7-C ) :   1.1938 B(  6-C , 13-C ) :   1.3926
B(  7-C ,  8-C ) :   0.9551 B(  8-C ,  9-O ) :   2.1717 B(  8-C , 10-N ) :   1.0133
B( 10-N , 11-C ) :   0.9451 B( 10-N , 13-C ) :   1.1606 B( 11-C , 12-C ) :   1.1166
B( 11-C , 67-H ) :   0.9221 B( 11-C , 68-H ) :   0.9508 B( 12-C , 69-H ) :   0.9621
B( 12-C , 70-H ) :   0.9675 B( 12-C , 71-H ) :   0.9680 B( 13-C , 14-C ) :   1.1802
B( 14-C , 15-C ) :   1.6207 B( 14-C , 72-H ) :   0.9460 B( 15-C , 16-C ) :   1.1097
B( 15-C , 73-H ) :   0.9614 B( 16-C , 17-S ) :   1.1210 B( 16-C , 20-C ) :   1.4876
B( 17-S , 18-C ) :   1.1280 B( 18-C , 19-C ) :   1.4373 B( 18-C , 23-C ) :   1.1718
B( 19-C , 20-C ) :   1.2911 B( 19-C , 21-C ) :   1.1033 B( 20-C , 74-H ) :   0.9978
B( 21-C , 22-N ) :   3.0191 B( 23-C , 24-C ) :   1.5996 B( 23-C , 75-H ) :   0.9726
B( 24-C , 25-C ) :   1.2155 B( 24-C , 76-H ) :   0.9533 B( 25-C , 26-O ) :   1.1461
B( 25-C , 29-C ) :   1.3837 B( 26-O , 27-C ) :   1.1527 B( 27-C , 28-C ) :   1.3802
B( 27-C , 34-C ) :   1.2207 B( 28-C , 29-C ) :   1.3078 B( 28-C , 32-C ) :   1.1501
B( 29-C , 30-C ) :   1.1502 B( 30-C , 31-N ) :   3.0154 B( 32-C , 33-N ) :   3.0167
B( 34-C , 35-C ) :   1.6084 B( 34-C , 77-H ) :   0.9477 B( 35-C , 36-C ) :   1.1420
B( 35-C , 78-H ) :   0.9886 B( 36-C , 37-S ) :   1.1074 B( 36-C , 40-C ) :   1.4468
B( 37-S , 38-C ) :   1.1564 B( 38-C , 39-C ) :   1.4209 B( 38-C , 43-C ) :   1.1656
B( 39-C , 40-C ) :   1.2916 B( 39-C , 41-C ) :   1.1198 B( 40-C , 79-H ) :   1.0116
B( 41-C , 42-N ) :   2.9688 B( 43-C , 44-C ) :   1.6090 B( 43-C , 80-H ) :   0.9200
B( 44-C , 45-C ) :   1.1695 B( 44-C , 81-H ) :   0.9492 B( 45-C , 46-N ) :   1.1600
B( 45-C , 52-C ) :   1.3463 B( 46-N , 47-C ) :   0.9422 B( 46-N , 49-C ) :   1.0577
B( 47-C , 48-C ) :   1.1219 B( 47-C , 82-H ) :   0.9272 B( 47-C , 83-H ) :   0.9482
B( 48-C , 84-H ) :   0.9640 B( 48-C , 85-H ) :   0.9677 B( 48-C , 86-H ) :   0.9679
B( 49-C , 50-O ) :   2.0501 B( 49-C , 51-C ) :   0.9800 B( 51-C , 52-C ) :   1.2446
B( 51-C , 58-C ) :   1.3684 B( 52-C , 53-C ) :   0.9878 B( 53-C , 54-O ) :   2.0164
B( 53-C , 55-N ) :   1.0609 B( 54-O , 80-H ) :   0.1179 B( 55-N , 56-C ) :   0.9451
B( 55-N , 58-C ) :   1.1689 B( 56-C , 57-C ) :   1.1209 B( 56-C , 87-H ) :   0.9289
B( 56-C , 88-H ) :   0.9504 B( 57-C , 89-H ) :   0.9637 B( 57-C , 90-H ) :   0.9679
B( 57-C , 91-H ) :   0.9687 B( 58-C , 59-C ) :   1.1283 B( 59-C , 60-C ) :   1.8824
B( 59-C , 92-H ) :   0.9539 B( 60-C , 93-H ) :   0.9271 B( 60-C , 94-H ) :   0.9451

-----------------------------------------------------------------------------
         ABSORPTION SPECTRUM VIA TRANSITION ELECTRIC DIPOLE MOMENTS
-----------------------------------------------------------------------------
State   Energy  Wavelength   fosc         T2         TX        TY        TZ
        (cm-1)    (nm)                  (au**2)     (au)      (au)      (au)
-----------------------------------------------------------------------------
   0   15344.0    651.7   1.365430652  29.29582  -0.19373  -5.05317   1.92971
   1   18205.1    549.3   0.654086664  11.82816  -0.75162   2.81158  -1.83256
   2   21490.9    465.3   0.112783721   1.72770  -0.37895  -0.90206  -0.87771
   3   22604.1    442.4   0.291111379   4.23983  -0.57173  -1.86816  -0.65034
   4   25011.8    399.8   0.300302819   3.95266   0.43186  -0.84635   1.74638
   5   26236.9    381.1   0.024779072   0.31092   0.05111   0.21591  -0.51156
   6   26759.0    373.7   0.083885200   1.03203   0.01210   0.46260   0.90437
   7   27076.2    369.3   0.186106205   2.26282  -0.09699  -0.87017  -1.22320
   8   27839.9    359.2   0.035386001   0.41845   0.28038   0.40645   0.41789
   9   28243.8    354.1   0.002881304   0.03358   0.10733  -0.14846  -0.00520
  10   28993.5    344.9   0.000500415   0.00568   0.07089  -0.02564   0.00024
  11   30204.1    331.1   0.018029984   0.19652  -0.00843  -0.42003   0.14151
  12   30235.7    330.7   0.023352941   0.25427  -0.08156  -0.44859   0.21538
  13   30747.2    325.2   0.027752876   0.29715  -0.12089   0.06003  -0.52814
  14   31292.8    319.6   0.202087778   2.12604  -0.44911  -1.23552  -0.63073
  15   32045.1    312.1   0.129889397   1.33441   0.20011  -0.43778   1.05010
  16   32670.5    306.1   0.001057517   0.01066  -0.03827   0.01399  -0.09485
  17   33799.9    295.9   0.112555222   1.09629  -0.06555   1.02312  -0.21265
  18   34570.1    289.3   0.142121451   1.35343  -0.37432   0.24612  -1.07365
  19   34712.3    288.1   0.006196487   0.05877  -0.06730   0.10351  -0.20863
  20   36090.0    277.1   0.003160872   0.02883   0.05313  -0.11022  -0.11774
  21   36592.3    273.3   0.054463246   0.48999   0.04074   0.49578  -0.49248
  22   37126.5    269.3   0.013641765   0.12097   0.04114  -0.12832  -0.32064
  23   37246.6    268.5   0.425294097   3.75905   0.60521   0.95966   1.57220
  24   37548.6    266.3   0.058237761   0.51061   0.11971   0.54145  -0.45067
  25   38214.8    261.7   0.000527132   0.00454  -0.04856  -0.03421  -0.03183
  26   38822.9    257.6   0.063026542   0.53445  -0.22353  -0.48986  -0.49449
  27   39227.4    254.9   0.001179541   0.00990   0.02040   0.00702  -0.09713
  28   39757.1    251.5   0.225270411   1.86537   0.56848   0.82962   0.92408

FINAL SINGLE POINT ENERGY     -3380.338976050303

DIPOLE MOMENT
-------------
                                X             Y             Z
Electronic contribution:     -2.13216     -12.80554     -16.50136
Nuclear contribution   :      2.26118      12.05611      17.23130
                        -----------------------------------------
Total Dipole Moment    :      0.12902      -0.74944       0.72994
                        -----------------------------------------
Magnitude (a.u.)       :      1.05409
Magnitude (Debye)      :      2.67929

Rotational constants in cm-1:     0.002819     0.000248     0.000231
Rotational constants in MHz :    84.525297     7.440955     6.925094

                             ****ORCA TERMINATED NORMALLY****
TOTAL RUN TIME: 0 days 0 hours 7 minutes 30 seconds 837 msec
