                         Program Version 4.2.0 -  RELEASE  -
|  1> # ORCA input file
|  2> # SCF done       -195.346054104905          0.000584156347
|  3> ! CAM-B3LYP def2-SVP def2/J RIJCOSX Grid4 TightSCF
|  4> %maxcore 5000
|  5> %tddft
|  6>     Mode sTDDFT
|  7>     Ethresh 5.0
|  8>     maxcore 5000
|  9> end
| 10>
| 11> %pal
| 12>   nprocs 6
| 13>   end
| 14> * xyz 0 1
| 15>    C       -2.22512        -0.48232        -5.40425
| 16>    N       -1.94388        -0.11751        -4.12312
| 17>    C       -1.28790        -0.93962        -3.13779
| 18>    C       -2.21862        -2.02170        -2.59665
| 19>    C       -2.42791         1.17547        -3.83885
| 20>    O       -2.28946         1.71573        -2.75227
| 21>    C       -3.04113         1.60074        -5.06939
| 22>    C       -2.89207         0.53895        -6.01879
| 23>    C       -3.48791         0.97049        -7.26839
| 24>    O       -3.60627         0.43086        -8.34524
| 25>    N       -3.94901         2.27316        -6.99388
| 26>    C       -4.65293         3.04195        -7.99169
| 27>    C       -6.16306         3.01722        -7.76862
| 28>    C       -3.69530         2.65645        -5.69652
| 29>    C       -4.04528         3.92683        -5.17317
| 30>    C       -3.81161         4.25111        -3.87449
| 31>    C       -4.10848         5.50890        -3.29541
| 32>    C       -3.90481         5.92880        -2.00755
| 33>    C       -4.34585         7.30633        -1.87561
| 34>    N       -4.81191         7.72901        -3.08851
| 35>    C       -4.68921         6.68756        -4.01217
| 36>    O       -5.01452         6.79192        -5.17105
| 37>    C       -5.17212         9.07294        -3.45470
| 38>    C       -4.11944         7.73067        -0.60991
| 39>    C       -3.50970         6.57026         0.10861
| 40>    O       -3.19262         6.48440         1.26807
| 41>    N       -3.41848         5.51652        -0.81149
| 42>    C       -2.90933         4.21338        -0.47184
| 43>    C       -4.37250         8.99943         0.02532
| 44>    C       -5.52532         9.67637         0.22850
| 45>    C       -5.23446        10.92331         0.92553
| 46>    N       -3.88964        10.99742         1.12890
| 47>    C       -3.28309         9.85157         0.59796
| 48>    O       -2.09410         9.66703         0.58016
| 49>    C       -3.14813        12.12081         1.63718
| 50>    C       -6.38687        11.60502         1.11744
| 51>    C       -7.47632        10.75126         0.55240
| 52>    O       -8.66620        10.93606         0.57303
| 53>    N       -6.87198         9.60374         0.02464
| 54>    C       -7.61738         8.47017        -0.45352
| 55>    C       -6.63661        12.89275         1.71567
| 56>    C       -6.44805        13.35108         2.97253
| 57>    C       -6.85512        14.74959         3.04575
| 58>    N       -7.31402        15.12208         1.82573
| 59>    C       -7.21421        14.03901         0.94440
| 60>    O       -7.52493        14.08046        -0.21779
| 61>    C       -7.84010        16.40193         1.43032
| 62>    C       -6.73746        15.17752         4.33344
| 63>    C       -6.23880        14.00417         5.11265
| 64>    O       -5.99101        13.92565         6.29213
| 65>    N       -6.06590        12.94762         4.21818
| 66>    C       -5.71706        11.61332         4.62728
| 67>    C       -6.91064        16.49764         4.87428
| 68>    N       -7.55308        16.78896         6.04573
| 69>    C       -8.30504        15.87710         6.87532
| 70>    C       -9.53515        15.33610         6.15274
| 71>    C       -7.51617        18.17564         6.33117
| 72>    O       -8.04337        18.67182         7.30308
| 73>    C       -6.75336        18.73697         5.24173
| 74>    C       -6.41584        17.67943         4.34849
| 75>    C       -5.56521        18.23348         3.32582
| 76>    O       -5.00536        17.73665         2.36607
| 77>    N       -5.46236        19.60270         3.65329
| 78>    C       -4.70040        20.47819         2.79756
| 79>    C       -5.59451        21.22080         1.80629
| 80>    C       -6.16546        19.90818         4.79741
| 81>    C       -6.29213        21.15816         5.49635
| 82>    C       -5.88668        22.38194         5.15599
| 83>    H       -1.92048        -1.43874        -5.78664
| 84>    H       -0.98393        -0.26958        -2.32895
| 85>    H       -0.39683        -1.39220        -3.58330
| 86>    H       -3.09249        -1.56724        -2.13624
| 87>    H       -1.69969        -2.61535        -1.84931
| 88>    H       -2.54967        -2.67929        -3.39742
| 89>    H       -4.41539         2.57651        -8.95260
| 90>    H       -4.28020         4.06975        -7.99329
| 91>    H       -6.52616         1.99254        -7.79464
| 92>    H       -6.65881         3.58233        -8.55294
| 93>    H       -6.42068         3.45500        -6.80689
| 94>    H       -4.49853         4.65271        -5.83024
| 95>    H       -3.36254         3.51634        -3.22022
| 96>    H       -6.01293         9.43242        -2.86073
| 97>    H       -5.45052         9.05781        -4.50807
| 98>    H       -4.32590         9.74841        -3.31151
| 99>    H       -2.52781         4.26934         0.54677
|100>    H       -2.10917         3.91902        -1.15014
|101>    H       -3.70156         3.46465        -0.52234
|102>    H       -3.40920        12.32843         2.67606
|103>    H       -3.34566        13.01296         1.03960
|104>    H       -2.09082        11.86474         1.57456
|105>    H       -7.34091         8.21990        -1.47853
|106>    H       -8.67252         8.73999        -0.41788
|107>    H       -7.44075         7.59975         0.18220
|108>    H       -7.04626        17.14716         1.41017
|109>    H       -8.62293        16.71743         2.12103
|110>    H       -8.25387        16.28524         0.42943
|111>    H       -6.54631        10.92722         4.44134
|112>    H       -5.50386        11.64642         5.69546
|113>    H       -4.83682        11.25594         4.09150
|114>    H       -8.60964        16.46001         7.74896
|115>    H       -7.65797        15.05947         7.20069
|116>    H       -9.24796        14.74822         5.28270
|117>    H      -10.17370        16.15430         5.82604
|118>    H      -10.10294        14.70048         6.82628
|119>    H       -4.01186        19.83136         2.24449
|120>    H       -4.11571        21.16860         3.40902
|121>    H       -6.08838        20.50716         1.15081
|122>    H       -4.99441        21.89185         1.19757
|123>    H       -6.35851        21.79826         2.32237
|124>    H       -6.81873        21.02760         6.43431
|125>    H       -5.38237        22.62140         4.23808
|126>    H       -6.07067        23.21135         5.81768
|127> *
|128>
|129>                          ****END OF INPUT****

CARTESIAN COORDINATES (ANGSTROEM)
---------------------------------
  C     -2.225120   -0.482320   -5.404250
  N     -1.943880   -0.117510   -4.123120
  C     -1.287900   -0.939620   -3.137790
  C     -2.218620   -2.021700   -2.596650
  C     -2.427910    1.175470   -3.838850
  O     -2.289460    1.715730   -2.752270
  C     -3.041130    1.600740   -5.069390
  C     -2.892070    0.538950   -6.018790
  C     -3.487910    0.970490   -7.268390
  O     -3.606270    0.430860   -8.345240
  N     -3.949010    2.273160   -6.993880
  C     -4.652930    3.041950   -7.991690
  C     -6.163060    3.017220   -7.768620
  C     -3.695300    2.656450   -5.696520
  C     -4.045280    3.926830   -5.173170
  C     -3.811610    4.251110   -3.874490
  C     -4.108480    5.508900   -3.295410
  C     -3.904810    5.928800   -2.007550
  C     -4.345850    7.306330   -1.875610
  N     -4.811910    7.729010   -3.088510
  C     -4.689210    6.687560   -4.012170
  O     -5.014520    6.791920   -5.171050
  C     -5.172120    9.072940   -3.454700
  C     -4.119440    7.730670   -0.609910
  C     -3.509700    6.570260    0.108610
  O     -3.192620    6.484400    1.268070
  N     -3.418480    5.516520   -0.811490
  C     -2.909330    4.213380   -0.471840
  C     -4.372500    8.999430    0.025320
  C     -5.525320    9.676370    0.228500
  C     -5.234460   10.923310    0.925530
  N     -3.889640   10.997420    1.128900
  C     -3.283090    9.851570    0.597960
  O     -2.094100    9.667030    0.580160
  C     -3.148130   12.120810    1.637180
  C     -6.386870   11.605020    1.117440
  C     -7.476320   10.751260    0.552400
  O     -8.666200   10.936060    0.573030
  N     -6.871980    9.603740    0.024640
  C     -7.617380    8.470170   -0.453520
  C     -6.636610   12.892750    1.715670
  C     -6.448050   13.351080    2.972530
  C     -6.855120   14.749590    3.045750
  N     -7.314020   15.122080    1.825730
  C     -7.214210   14.039010    0.944400
  O     -7.524930   14.080460   -0.217790
  C     -7.840100   16.401930    1.430320
  C     -6.737460   15.177520    4.333440
  C     -6.238800   14.004170    5.112650
  O     -5.991010   13.925650    6.292130
  N     -6.065900   12.947620    4.218180
  C     -5.717060   11.613320    4.627280
  C     -6.910640   16.497640    4.874280
  N     -7.553080   16.788960    6.045730
  C     -8.305040   15.877100    6.875320
  C     -9.535150   15.336100    6.152740
  C     -7.516170   18.175640    6.331170
  O     -8.043370   18.671820    7.303080
  C     -6.753360   18.736970    5.241730
  C     -6.415840   17.679430    4.348490
  C     -5.565210   18.233480    3.325820
  O     -5.005360   17.736650    2.366070
  N     -5.462360   19.602700    3.653290
  C     -4.700400   20.478190    2.797560
  C     -5.594510   21.220800    1.806290
  C     -6.165460   19.908180    4.797410
  C     -6.292130   21.158160    5.496350
  C     -5.886680   22.381940    5.155990
  H     -1.920480   -1.438740   -5.786640
  H     -0.983930   -0.269580   -2.328950
  H     -0.396830   -1.392200   -3.583300
  H     -3.092490   -1.567240   -2.136240
  H     -1.699690   -2.615350   -1.849310
  H     -2.549670   -2.679290   -3.397420
  H     -4.415390    2.576510   -8.952600
  H     -4.280200    4.069750   -7.993290
  H     -6.526160    1.992540   -7.794640
  H     -6.658810    3.582330   -8.552940
  H     -6.420680    3.455000   -6.806890
  H     -4.498530    4.652710   -5.830240
  H     -3.362540    3.516340   -3.220220
  H     -6.012930    9.432420   -2.860730
  H     -5.450520    9.057810   -4.508070
  H     -4.325900    9.748410   -3.311510
  H     -2.527810    4.269340    0.546770
  H     -2.109170    3.919020   -1.150140
  H     -3.701560    3.464650   -0.522340
  H     -3.409200   12.328430    2.676060
  H     -3.345660   13.012960    1.039600
  H     -2.090820   11.864740    1.574560
  H     -7.340910    8.219900   -1.478530
  H     -8.672520    8.739990   -0.417880
  H     -7.440750    7.599750    0.182200
  H     -7.046260   17.147160    1.410170
  H     -8.622930   16.717430    2.121030
  H     -8.253870   16.285240    0.429430
  H     -6.546310   10.927220    4.441340
  H     -5.503860   11.646420    5.695460
  H     -4.836820   11.255940    4.091500
  H     -8.609640   16.460010    7.748960
  H     -7.657970   15.059470    7.200690
  H     -9.247960   14.748220    5.282700
  H    -10.173700   16.154300    5.826040
  H    -10.102940   14.700480    6.826280
  H     -4.011860   19.831360    2.244490
  H     -4.115710   21.168600    3.409020
  H     -6.088380   20.507160    1.150810
  H     -4.994410   21.891850    1.197570
  H     -6.358510   21.798260    2.322370
  H     -6.818730   21.027600    6.434310
  H     -5.382370   22.621400    4.238080
  H     -6.070670   23.211350    5.817680

 Total Charge           Charge          ....    0
 Multiplicity           Mult            ....    1
 Number of Electrons    NEL             ....  482
 Basis Dimension        Dim             .... 1172

ORBITAL ENERGIES
----------------

  NO   OCC          E(Eh)            E(eV)
   0   2.0000     -19.218158      -522.9527
   1   2.0000     -19.217540      -522.9358
   2   2.0000     -19.215145      -522.8707
   3   2.0000     -19.213698      -522.8313
   4   2.0000     -19.213195      -522.8176
   5   2.0000     -19.213065      -522.8141
   6   2.0000     -19.187916      -522.1297
   7   2.0000     -19.187785      -522.1262
   8   2.0000     -19.183492      -522.0094
   9   2.0000     -19.180602      -521.9307
  10   2.0000     -14.473235      -393.8368
  11   2.0000     -14.471277      -393.7835
  12   2.0000     -14.469856      -393.7448
  13   2.0000     -14.469214      -393.7273
  14   2.0000     -14.469072      -393.7235
  15   2.0000     -14.468543      -393.7091
  16   2.0000     -14.452217      -393.2648
  17   2.0000     -14.451132      -393.2353
  18   2.0000     -14.447472      -393.1357
  19   2.0000     -14.444281      -393.0489
  20   2.0000     -10.400843      -283.0213
  21   2.0000     -10.397522      -282.9310
  22   2.0000     -10.393976      -282.8345
  23   2.0000     -10.393668      -282.8261
  24   2.0000     -10.393511      -282.8218
  25   2.0000     -10.392613      -282.7974
  26   2.0000     -10.372698      -282.2555
  27   2.0000     -10.371152      -282.2134
  28   2.0000     -10.366289      -282.0811
  29   2.0000     -10.365382      -282.0564
  30   2.0000     -10.353857      -281.7428
  31   2.0000     -10.347909      -281.5809
  32   2.0000     -10.347842      -281.5791
  33   2.0000     -10.347423      -281.5677
  34   2.0000     -10.347276      -281.5637
  35   2.0000     -10.347253      -281.5631
  36   2.0000     -10.346542      -281.5437
  37   2.0000     -10.335894      -281.2540
  38   2.0000     -10.334746      -281.2227
  39   2.0000     -10.319947      -280.8200
  40   2.0000     -10.319908      -280.8190
  41   2.0000     -10.318669      -280.7852
  42   2.0000     -10.318207      -280.7727
  43   2.0000     -10.316378      -280.7229
  44   2.0000     -10.306457      -280.4530
  45   2.0000     -10.305343      -280.4226
  46   2.0000     -10.305297      -280.4214
  47   2.0000     -10.304739      -280.4062
  48   2.0000     -10.304275      -280.3936
  49   2.0000     -10.303986      -280.3857
  50   2.0000     -10.303865      -280.3824
  51   2.0000     -10.303732      -280.3788
  52   2.0000     -10.302675      -280.3500
  53   2.0000     -10.299240      -280.2566
  54   2.0000     -10.298094      -280.2254
  55   2.0000     -10.292487      -280.0728
  56   2.0000     -10.292035      -280.0605
  57   2.0000     -10.288955      -279.9767
  58   2.0000     -10.283326      -279.8235
  59   2.0000     -10.277913      -279.6762
  60   2.0000     -10.264066      -279.2994
  61   2.0000     -10.262705      -279.2624
  62   2.0000     -10.259109      -279.1645
  63   2.0000     -10.258883      -279.1584
  64   2.0000     -10.257639      -279.1246
  65   2.0000     -10.255548      -279.0677
  66   2.0000     -10.252270      -278.9785
  67   2.0000     -10.249368      -278.8995
  68   2.0000      -1.160734       -31.5852
  69   2.0000      -1.158651       -31.5285
  70   2.0000      -1.156494       -31.4698
  71   2.0000      -1.151689       -31.3391
  72   2.0000      -1.149900       -31.2904
  73   2.0000      -1.148177       -31.2435
  74   2.0000      -1.130507       -30.7627
  75   2.0000      -1.124403       -30.5966
  76   2.0000      -1.123674       -30.5767
  77   2.0000      -1.117812       -30.4172
  78   2.0000      -1.094827       -29.7918
  79   2.0000      -1.093015       -29.7424
  80   2.0000      -1.091587       -29.7036
  81   2.0000      -1.062049       -28.8998
  82   2.0000      -1.060490       -28.8574
  83   2.0000      -1.059857       -28.8402
  84   2.0000      -1.059231       -28.8231
  85   2.0000      -1.055007       -28.7082
  86   2.0000      -1.051693       -28.6180
  87   2.0000      -1.046664       -28.4812
  88   2.0000      -0.940456       -25.5911
  89   2.0000      -0.939860       -25.5749
  90   2.0000      -0.934301       -25.4236
  91   2.0000      -0.930349       -25.3161
  92   2.0000      -0.924350       -25.1528
  93   2.0000      -0.919139       -25.0110
  94   2.0000      -0.911443       -24.8016
  95   2.0000      -0.896380       -24.3917
  96   2.0000      -0.889159       -24.1953
  97   2.0000      -0.881963       -23.9994
  98   2.0000      -0.867956       -23.6183
  99   2.0000      -0.864648       -23.5283
 100   2.0000      -0.835984       -22.7483
 101   2.0000      -0.824771       -22.4432
 102   2.0000      -0.823081       -22.3972
 103   2.0000      -0.822026       -22.3685
 104   2.0000      -0.817359       -22.2415
 105   2.0000      -0.814003       -22.1502
 106   2.0000      -0.802821       -21.8459
 107   2.0000      -0.795079       -21.6352
 108   2.0000      -0.787663       -21.4334
 109   2.0000      -0.780765       -21.2457
 110   2.0000      -0.777126       -21.1467
 111   2.0000      -0.774258       -21.0686
 112   2.0000      -0.766676       -20.8623
 113   2.0000      -0.758193       -20.6315
 114   2.0000      -0.754806       -20.5393
 115   2.0000      -0.751508       -20.4496
 116   2.0000      -0.741420       -20.1751
 117   2.0000      -0.714773       -19.4500
 118   2.0000      -0.707806       -19.2604
 119   2.0000      -0.706942       -19.2369
 120   2.0000      -0.703615       -19.1464
 121   2.0000      -0.698800       -19.0153
 122   2.0000      -0.694854       -18.9079
 123   2.0000      -0.687452       -18.7065
 124   2.0000      -0.682897       -18.5826
 125   2.0000      -0.676921       -18.4200
 126   2.0000      -0.672730       -18.3059
 127   2.0000      -0.661383       -17.9972
 128   2.0000      -0.647445       -17.6179
 129   2.0000      -0.644478       -17.5371
 130   2.0000      -0.639978       -17.4147
 131   2.0000      -0.637944       -17.3593
 132   2.0000      -0.633326       -17.2337
 133   2.0000      -0.626780       -17.0555
 134   2.0000      -0.617367       -16.7994
 135   2.0000      -0.609225       -16.5779
 136   2.0000      -0.607541       -16.5320
 137   2.0000      -0.600757       -16.3474
 138   2.0000      -0.595138       -16.1945
 139   2.0000      -0.594596       -16.1798
 140   2.0000      -0.592099       -16.1118
 141   2.0000      -0.590865       -16.0783
 142   2.0000      -0.589086       -16.0298
 143   2.0000      -0.584907       -15.9161
 144   2.0000      -0.582924       -15.8622
 145   2.0000      -0.579803       -15.7772
 146   2.0000      -0.576942       -15.6994
 147   2.0000      -0.576067       -15.6756
 148   2.0000      -0.572108       -15.5679
 149   2.0000      -0.567103       -15.4317
 150   2.0000      -0.565946       -15.4002
 151   2.0000      -0.564879       -15.3711
 152   2.0000      -0.560032       -15.2392
 153   2.0000      -0.556062       -15.1312
 154   2.0000      -0.551649       -15.0111
 155   2.0000      -0.545595       -14.8464
 156   2.0000      -0.544703       -14.8221
 157   2.0000      -0.544359       -14.8127
 158   2.0000      -0.541643       -14.7388
 159   2.0000      -0.541393       -14.7320
 160   2.0000      -0.537451       -14.6248
 161   2.0000      -0.535166       -14.5626
 162   2.0000      -0.528476       -14.3806
 163   2.0000      -0.527091       -14.3429
 164   2.0000      -0.525763       -14.3067
 165   2.0000      -0.525101       -14.2887
 166   2.0000      -0.523743       -14.2518
 167   2.0000      -0.517470       -14.0811
 168   2.0000      -0.515410       -14.0250
 169   2.0000      -0.514547       -14.0015
 170   2.0000      -0.513358       -13.9692
 171   2.0000      -0.512473       -13.9451
 172   2.0000      -0.509853       -13.8738
 173   2.0000      -0.508187       -13.8285
 174   2.0000      -0.508083       -13.8256
 175   2.0000      -0.505385       -13.7522
 176   2.0000      -0.502941       -13.6857
 177   2.0000      -0.501824       -13.6553
 178   2.0000      -0.500038       -13.6067
 179   2.0000      -0.498756       -13.5718
 180   2.0000      -0.498075       -13.5533
 181   2.0000      -0.495953       -13.4956
 182   2.0000      -0.493922       -13.4403
 183   2.0000      -0.490297       -13.3417
 184   2.0000      -0.489391       -13.3170
 185   2.0000      -0.487157       -13.2562
 186   2.0000      -0.485248       -13.2043
 187   2.0000      -0.483366       -13.1531
 188   2.0000      -0.482686       -13.1346
 189   2.0000      -0.478563       -13.0224
 190   2.0000      -0.476106       -12.9555
 191   2.0000      -0.473117       -12.8742
 192   2.0000      -0.470897       -12.8138
 193   2.0000      -0.470025       -12.7900
 194   2.0000      -0.464849       -12.6492
 195   2.0000      -0.462259       -12.5787
 196   2.0000      -0.457940       -12.4612
 197   2.0000      -0.455419       -12.3926
 198   2.0000      -0.454708       -12.3732
 199   2.0000      -0.452490       -12.3129
 200   2.0000      -0.451500       -12.2860
 201   2.0000      -0.448274       -12.1982
 202   2.0000      -0.446748       -12.1566
 203   2.0000      -0.446673       -12.1546
 204   2.0000      -0.445418       -12.1204
 205   2.0000      -0.443922       -12.0797
 206   2.0000      -0.442531       -12.0419
 207   2.0000      -0.440449       -11.9852
 208   2.0000      -0.432574       -11.7709
 209   2.0000      -0.431340       -11.7374
 210   2.0000      -0.428467       -11.6592
 211   2.0000      -0.423527       -11.5248
 212   2.0000      -0.420295       -11.4368
 213   2.0000      -0.418810       -11.3964
 214   2.0000      -0.410475       -11.1696
 215   2.0000      -0.404375       -11.0036
 216   2.0000      -0.398806       -10.8521
 217   2.0000      -0.397691       -10.8217
 218   2.0000      -0.393011       -10.6944
 219   2.0000      -0.371635       -10.1127
 220   2.0000      -0.370617       -10.0850
 221   2.0000      -0.368991       -10.0408
 222   2.0000      -0.365761        -9.9529
 223   2.0000      -0.355290        -9.6679
 224   2.0000      -0.354884        -9.6569
 225   2.0000      -0.353568        -9.6211
 226   2.0000      -0.351163        -9.5556
 227   2.0000      -0.345189        -9.3931
 228   2.0000      -0.339217        -9.2306
 229   2.0000      -0.331748        -9.0273
 230   2.0000      -0.330726        -8.9995
 231   2.0000      -0.329643        -8.9700
 232   2.0000      -0.323158        -8.7936
 233   2.0000      -0.313753        -8.5377
 234   2.0000      -0.311954        -8.4887
 235   2.0000      -0.306267        -8.3339
 236   2.0000      -0.293901        -7.9975
 237   2.0000      -0.292582        -7.9616
 238   2.0000      -0.291196        -7.9238
 239   2.0000      -0.246528        -6.7084
 240   2.0000      -0.239538        -6.5182
 241   0.0000      -0.085926        -2.3382
 242   0.0000      -0.080347        -2.1864
 243   0.0000      -0.060561        -1.6480
 244   0.0000      -0.045529        -1.2389
 245   0.0000      -0.035237        -0.9589

MULLIKEN ATOMIC CHARGES
-----------------------
   0 C :    0.028016
   1 N :   -0.254035
   2 C :    0.114750
   3 C :    0.000200
   4 C :    0.170329
   5 O :   -0.241035
   6 C :   -0.110105
   7 C :    0.010574
   8 C :    0.161405
   9 O :   -0.185855
  10 N :   -0.267518
  11 C :    0.100541
  12 C :    0.006633
  13 C :    0.176674
  14 C :   -0.041594
  15 C :   -0.053092
  16 C :   -0.122334
  17 C :    0.177183
  18 C :    0.178986
  19 N :   -0.235761
  20 C :    0.174040
  21 O :   -0.174000
  22 C :    0.123087
  23 C :   -0.205944
  24 C :    0.162278
  25 O :   -0.140096
  26 N :   -0.235431
  27 C :    0.123233
  28 C :   -0.221505
  29 C :    0.184643
  30 C :    0.190815
  31 N :   -0.241139
  32 C :    0.167562
  33 O :   -0.142094
  34 C :    0.124052
  35 C :   -0.232073
  36 C :    0.166474
  37 O :   -0.146497
  38 N :   -0.243554
  39 C :    0.126396
  40 C :   -0.197320
  41 C :    0.167229
  42 C :    0.212981
  43 N :   -0.228017
  44 C :    0.165689
  45 O :   -0.137134
  46 C :    0.119474
  47 C :   -0.226070
  48 C :    0.175916
  49 O :   -0.162510
  50 N :   -0.234217
  51 C :    0.123823
  52 C :    0.093441
  53 N :   -0.256050
  54 C :    0.101703
  55 C :   -0.006593
  56 C :    0.157851
  57 O :   -0.186005
  58 C :   -0.062508
  59 C :   -0.041173
  60 C :    0.105990
  61 O :   -0.217769
  62 N :   -0.266724
  63 C :    0.098360
  64 C :    0.003219
  65 C :    0.083731
  66 C :   -0.019292
  67 C :   -0.008428
  68 H :    0.010834
  69 H :    0.037243
  70 H :    0.017719
  71 H :    0.027194
  72 H :    0.021608
  73 H :    0.014812
  74 H :    0.039795
  75 H :    0.029056
  76 H :    0.024762
  77 H :    0.021639
  78 H :    0.016724
  79 H :   -0.002108
  80 H :   -0.001468
  81 H :    0.035074
  82 H :    0.060522
  83 H :    0.043811
  84 H :    0.052746
  85 H :    0.063731
  86 H :    0.044250
  87 H :    0.031245
  88 H :    0.045759
  89 H :    0.061851
  90 H :    0.030253
  91 H :    0.061567
  92 H :    0.039107
  93 H :    0.059367
  94 H :    0.035524
  95 H :    0.050647
  96 H :    0.043021
  97 H :    0.062339
  98 H :    0.035093
  99 H :    0.039499
 100 H :    0.045650
 101 H :    0.016910
 102 H :    0.019826
 103 H :    0.024307
 104 H :    0.040916
 105 H :    0.024806
 106 H :    0.023698
 107 H :    0.021895
 108 H :    0.020293
 109 H :    0.017279
 110 H :    0.021805
 111 H :    0.035597
Sum of atomic charges:   -0.0000000

LOEWDIN ATOMIC CHARGES
----------------------
   0 C :    0.079025
   1 N :    0.001447
   2 C :    0.038247
   3 C :   -0.060558
   4 C :    0.075059
   5 O :   -0.228593
   6 C :   -0.141004
   7 C :   -0.124943
   8 C :    0.082937
   9 O :   -0.189438
  10 N :   -0.006940
  11 C :    0.036505
  12 C :   -0.060482
  13 C :    0.091550
  14 C :   -0.053122
  15 C :    0.031998
  16 C :   -0.114499
  17 C :    0.067988
  18 C :    0.054067
  19 N :   -0.024200
  20 C :    0.106001
  21 O :   -0.164272
  22 C :    0.035593
  23 C :   -0.105538
  24 C :    0.100861
  25 O :   -0.147872
  26 N :   -0.013468
  27 C :    0.037347
  28 C :   -0.109384
  29 C :    0.057674
  30 C :    0.059933
  31 N :   -0.026699
  32 C :    0.100088
  33 O :   -0.150077
  34 C :    0.036513
  35 C :   -0.112653
  36 C :    0.099276
  37 O :   -0.154190
  38 N :   -0.027767
  39 C :    0.035818
  40 C :   -0.101832
  41 C :    0.054630
  42 C :    0.086019
  43 N :   -0.007275
  44 C :    0.103907
  45 O :   -0.143742
  46 C :    0.033053
  47 C :   -0.133314
  48 C :    0.102591
  49 O :   -0.161034
  50 N :   -0.021286
  51 C :    0.036562
  52 C :    0.087483
  53 N :    0.007257
  54 C :    0.031358
  55 C :   -0.063079
  56 C :    0.082464
  57 O :   -0.188078
  58 C :   -0.119728
  59 C :   -0.133645
  60 C :    0.078636
  61 O :   -0.214032
  62 N :   -0.003386
  63 C :    0.034996
  64 C :   -0.063337
  65 C :    0.072515
  66 C :   -0.028271
  67 C :   -0.021074
  68 H :    0.030629
  69 H :    0.034319
  70 H :    0.024175
  71 H :    0.030415
  72 H :    0.029428
  73 H :    0.022523
  74 H :    0.036234
  75 H :    0.025877
  76 H :    0.030004
  77 H :    0.030281
  78 H :    0.023059
  79 H :    0.031572
  80 H :    0.037514
  81 H :    0.025692
  82 H :    0.042585
  83 H :    0.031793
  84 H :    0.040366
  85 H :    0.036945
  86 H :    0.031948
  87 H :    0.024276
  88 H :    0.032706
  89 H :    0.043358
  90 H :    0.024006
  91 H :    0.043071
  92 H :    0.029890
  93 H :    0.032557
  94 H :    0.028831
  95 H :    0.039059
  96 H :    0.031484
  97 H :    0.043318
  98 H :    0.026353
  99 H :    0.034832
 100 H :    0.025929
 101 H :    0.018936
 102 H :    0.027072
 103 H :    0.031770
 104 H :    0.036246
 105 H :    0.022815
 106 H :    0.030365
 107 H :    0.030113
 108 H :    0.022323
 109 H :    0.049288
 110 H :    0.022254
 111 H :    0.033203

  Mayer bond orders larger than 0.100000
B(  0-C ,  1-N ) :   1.1780 B(  0-C ,  7-C ) :   1.4678 B(  0-C , 68-H ) :   0.9909
B(  1-N ,  2-C ) :   0.9454 B(  1-N ,  4-C ) :   1.0712 B(  2-C ,  3-C ) :   1.1186
B(  2-C , 69-H ) :   0.9345 B(  2-C , 70-H ) :   0.9537 B(  3-C , 71-H ) :   0.9671
B(  3-C , 72-H ) :   0.9688 B(  3-C , 73-H ) :   0.9693 B(  4-C ,  5-O ) :   1.9722
B(  4-C ,  6-C ) :   1.0270 B(  5-O , 80-H ) :   0.1097 B(  6-C ,  7-C ) :   1.1992
B(  6-C , 13-C ) :   1.3562 B(  7-C ,  8-C ) :   0.9458 B(  8-C ,  9-O ) :   2.1777
B(  8-C , 10-N ) :   1.0177 B( 10-N , 11-C ) :   0.9457 B( 10-N , 13-C ) :   1.1638
B( 11-C , 12-C ) :   1.1222 B( 11-C , 74-H ) :   0.9284 B( 11-C , 75-H ) :   0.9493
B( 12-C , 76-H ) :   0.9641 B( 12-C , 77-H ) :   0.9678 B( 12-C , 78-H ) :   0.9681
B( 13-C , 14-C ) :   1.1232 B( 14-C , 15-C ) :   1.5854 B( 14-C , 79-H ) :   0.9680
B( 15-C , 16-C ) :   1.1540 B( 15-C , 80-H ) :   0.9645 B( 16-C , 17-C ) :   1.4790
B( 16-C , 20-C ) :   0.9099 B( 17-C , 18-C ) :   1.0456 B( 17-C , 26-N ) :   1.1956
B( 18-C , 19-N ) :   1.1543 B( 18-C , 23-C ) :   1.6950 B( 19-N , 20-C ) :   1.0368
B( 19-N , 22-C ) :   0.9509 B( 20-C , 21-O ) :   2.1262 B( 22-C , 81-H ) :   0.9713
B( 22-C , 82-H ) :   0.9572 B( 22-C , 83-H ) :   0.9744 B( 23-C , 24-C ) :   0.9240
B( 23-C , 28-C ) :   0.9399 B( 24-C , 25-O ) :   2.2243 B( 24-C , 26-N ) :   1.0123
B( 26-N , 27-C ) :   0.9377 B( 27-C , 84-H ) :   0.9555 B( 27-C , 85-H ) :   0.9672
B( 27-C , 86-H ) :   0.9745 B( 28-C , 29-C ) :   1.6940 B( 28-C , 32-C ) :   0.9229
B( 29-C , 30-C ) :   1.0331 B( 29-C , 38-N ) :   1.1654 B( 30-C , 31-N ) :   1.1721
B( 30-C , 35-C ) :   1.6929 B( 31-N , 32-C ) :   1.0060 B( 31-N , 34-C ) :   0.9531
B( 32-C , 33-O ) :   2.2268 B( 34-C , 87-H ) :   0.9719 B( 34-C , 88-H ) :   0.9741
B( 34-C , 89-H ) :   0.9568 B( 35-C , 36-C ) :   0.9251 B( 35-C , 40-C ) :   0.9372
B( 36-C , 37-O ) :   2.2233 B( 36-C , 38-N ) :   1.0067 B( 38-N , 39-C ) :   0.9556
B( 39-C , 90-H ) :   0.9714 B( 39-C , 91-H ) :   0.9570 B( 39-C , 92-H ) :   0.9747
B( 40-C , 41-C ) :   1.7028 B( 40-C , 44-C ) :   0.9195 B( 41-C , 42-C ) :   1.0310
B( 41-C , 50-N ) :   1.1575 B( 42-C , 43-N ) :   1.2118 B( 42-C , 47-C ) :   1.5937
B( 43-N , 44-C ) :   1.0109 B( 43-N , 46-C ) :   0.9395 B( 44-C , 45-O ) :   2.2276
B( 46-C , 93-H ) :   0.9646 B( 46-C , 94-H ) :   0.9715 B( 46-C , 95-H ) :   0.9543
B( 47-C , 48-C ) :   0.9225 B( 47-C , 52-C ) :   0.9795 B( 48-C , 49-O ) :   2.1479
B( 48-C , 50-N ) :   1.0338 B( 50-N , 51-C ) :   0.9531 B( 51-C , 96-H ) :   0.9737
B( 51-C , 97-H ) :   0.9570 B( 51-C , 98-H ) :   0.9719 B( 52-C , 53-N ) :   1.2471
B( 52-C , 59-C ) :   1.4623 B( 53-N , 54-C ) :   0.9416 B( 53-N , 56-C ) :   1.0112
B( 54-C , 55-C ) :   1.1171 B( 54-C , 99-H ) :   0.9272 B( 54-C ,100-H ) :   0.9360
B( 55-C ,101-H ) :   0.9672 B( 55-C ,102-H ) :   0.9658 B( 55-C ,103-H ) :   0.9672
B( 56-C , 57-O ) :   2.1382 B( 56-C , 58-C ) :   0.9831 B( 58-C , 59-C ) :   1.1788
B( 58-C , 65-C ) :   1.4135 B( 59-C , 60-C ) :   0.9740 B( 60-C , 61-O ) :   2.0799
B( 60-C , 62-N ) :   1.0511 B( 62-N , 63-C ) :   0.9443 B( 62-N , 65-C ) :   1.1564
B( 63-C , 64-C ) :   1.1167 B( 63-C ,104-H ) :   0.9254 B( 63-C ,105-H ) :   0.9524
B( 64-C ,106-H ) :   0.9616 B( 64-C ,107-H ) :   0.9686 B( 64-C ,108-H ) :   0.9680
B( 65-C , 66-C ) :   1.1507 B( 66-C , 67-C ) :   1.8798 B( 66-C ,109-H ) :   0.9352
B( 67-C ,110-H ) :   0.9595 B( 67-C ,111-H ) :   0.9402

-----------------------------------------------------------------------------
         ABSORPTION SPECTRUM VIA TRANSITION ELECTRIC DIPOLE MOMENTS
-----------------------------------------------------------------------------
State   Energy  Wavelength   fosc         T2         TX        TY        TZ
        (cm-1)    (nm)                  (au**2)     (au)      (au)      (au)
-----------------------------------------------------------------------------
   0   17933.2    557.6   0.352881953   6.47809  -0.58641   2.26695   0.99758
   1   18473.1    541.3   0.159972205   2.85090   0.59375   1.55516   0.28255
   2   24363.5    410.5   0.069118674   0.93397   0.54710  -0.79304  -0.07575
   3   25051.0    399.2   0.152758409   2.00750  -0.06818   1.38933   0.26947
   4   25463.7    392.7   0.020459971   0.26452   0.43061   0.06344   0.27399
   5   25605.1    390.5   0.158254719   2.03473   0.68853   0.99980  -0.74903
   6   26681.5    374.8   0.055399481   0.68355  -0.42100  -0.19956   0.68300
   7   26771.1    373.5   0.142468945   1.75198  -0.07342   1.15129   0.64894
   8   27130.7    368.6   0.086368945   1.04803   0.53351  -0.83575   0.25481
   9   28223.6    354.3   0.202400853   2.36089   0.22355  -0.73738  -1.32936
  10   28321.9    353.1   0.004170545   0.04848  -0.06121   0.07796   0.19661
  11   28665.9    348.8   0.235048955   2.69940  -0.23959   0.80279   1.41334
  12   29100.7    343.6   0.265381494   3.00222  -0.14780   0.63576   1.60505
  13   29495.4    339.0   0.000859420   0.00959  -0.09676   0.00846   0.01255
  14   29803.0    335.5   0.073065286   0.80710   0.58717  -0.54096  -0.41193
  15   30156.4    331.6   0.024261240   0.26486  -0.00207  -0.20704  -0.47115
  16   30210.3    331.0   0.110124953   1.20007   0.48976  -0.43447  -0.87832
  17   31021.6    322.4   0.093310343   0.99024   0.27160  -0.47160  -0.83311
  18   32176.1    310.8   0.046782010   0.47865  -0.14153   0.36967   0.56742
  19   32375.2    308.9   0.051309779   0.52175   0.06833   0.34621   0.63025
  20   32928.9    303.7   0.042836684   0.42827   0.41373   0.10932   0.49512
  21   34091.9    293.3   0.019490881   0.18822  -0.04430  -0.13998  -0.40824
  22   34326.6    291.3   0.096942044   0.92973  -0.12490  -0.38680  -0.87437
  23   34364.1    291.0   0.008540046   0.08181  -0.17346  -0.03464  -0.22478
  24   34576.5    289.2   0.014100160   0.13425   0.08515   0.23403   0.26876
  25   35106.4    284.8   0.097292321   0.91236  -0.36346   0.71000   0.52551
  26   35505.3    281.6   0.077304367   0.71678  -0.00288  -0.56011  -0.63486
  27   35785.5    279.4   0.000591687   0.00544   0.03137   0.03841   0.05463
  28   35897.0    278.6   0.035966123   0.32985  -0.55569   0.14001  -0.03814
  29   36122.3    276.8   0.211145395   1.92434  -0.16295  -0.62640  -1.22695
  30   36264.3    275.8   0.039875393   0.36199   0.33554   0.18137   0.46531
  31   36853.8    271.3   0.077757156   0.69460  -0.09822   0.28982   0.77521
  32   37140.9    269.2   0.087579048   0.77629  -0.17757   0.64237   0.57630
  33   38022.1    263.0   0.019904067   0.17234   0.33579  -0.16555  -0.17938
  34   38153.4    262.1   0.006304062   0.05440   0.06925  -0.01998  -0.22181
  35   38480.4    259.9   0.000240879   0.00206   0.01359  -0.01509   0.04060
  36   38925.1    256.9   0.011069866   0.09362   0.04856  -0.06727  -0.29452
  37   39034.0    256.2   0.010245947   0.08641   0.01085   0.24513   0.16189
  38   39391.8    253.9   0.000681494   0.00570  -0.04537  -0.00086  -0.06030
  39   39475.5    253.3   0.016844054   0.14047   0.24868   0.19378  -0.20268
  40   39850.3    250.9   0.140795582   1.16314  -0.29823  -0.13419  -1.02771
  41   39949.2    250.3   0.043846957   0.36133  -0.20255   0.04208  -0.56439
  42   40058.1    249.6   0.019070212   0.15673   0.17213  -0.05249  -0.35262
  43   40169.1    248.9   0.041850526   0.34299   0.57101  -0.10724   0.07378

FINAL SINGLE POINT ENERGY     -3151.627814945692

DIPOLE MOMENT
-------------
                                X             Y             Z
Electronic contribution:      5.41678      -0.77427       5.04014
Nuclear contribution   :     -5.48863       1.17922      -4.78998
                        -----------------------------------------
Total Dipole Moment    :     -0.07184       0.40495       0.25017
                        -----------------------------------------
Magnitude (a.u.)       :      0.48138
Magnitude (Debye)      :      1.22358

Rotational constants in cm-1:     0.003374     0.000304     0.000295
Rotational constants in MHz :   101.153583     9.117345     8.852376

                             ****ORCA TERMINATED NORMALLY****
TOTAL RUN TIME: 0 days 0 hours 9 minutes 55 seconds 735 msec
