                         Program Version 4.2.0 -  RELEASE  -
|  1> # ORCA input file
|  2> # SCF done       -195.973623710242          0.000881405570
|  3> ! CAM-B3LYP def2-SVP def2/J RIJCOSX Grid4 TightSCF
|  4> %maxcore 5000
|  5> %tddft
|  6>     Mode sTDDFT
|  7>     Ethresh 5.0
|  8>     maxcore 5000
|  9> end
| 10>
| 11> %pal
| 12>   nprocs 6
| 13>   end
| 14> * xyz 0 1
| 15>    C        2.49989         0.57956         2.89159
| 16>    N        2.48366         1.83170         3.42459
| 17>    C        3.25577         2.27659         4.55681
| 18>    C        4.72611         2.47092         4.19582
| 19>    C        1.64178         2.69403         2.68948
| 20>    O        1.47166         3.86609         2.97815
| 21>    C        1.11631         1.85991         1.64106
| 22>    C        1.67765         0.55092         1.80174
| 23>    C        1.13924        -0.29640         0.75761
| 24>    O        1.30903        -1.46339         0.48155
| 25>    N        0.27731         0.55482         0.03883
| 26>    C       -0.42654         0.08695        -1.12935
| 27>    C        0.23891         0.55299        -2.42237
| 28>    C        0.25652         1.83504         0.55152
| 29>    C       -0.55008         2.87176         0.01577
| 30>    C       -0.53057         4.13237         0.51937
| 31>    C       -1.31727         5.21608         0.05645
| 32>    S       -1.11737         6.77164         0.80911
| 33>    C       -2.32740         7.48669        -0.19137
| 34>    C       -2.85191         6.56345        -1.09743
| 35>    C       -2.28671         5.26873        -0.94756
| 36>    O       -2.58008         4.14933        -1.63677
| 37>    C       -3.63818         4.15483        -2.57189
| 38>    C       -3.73103         6.95963        -2.12034
| 39>    N       -4.39750         7.29787        -2.99201
| 40>    C       -2.66856         8.86319        -0.04238
| 41>    S       -1.47489        10.01663         0.46910
| 42>    C       -2.60399        11.31772         0.35625
| 43>    C       -3.87304        10.85913         0.00871
| 44>    C       -3.91008         9.45901        -0.23405
| 45>    O       -4.97448         8.70925        -0.54157
| 46>    C       -6.11393         9.34130        -1.09925
| 47>    C       -4.98149        11.71753         0.05413
| 48>    N       -5.84354        12.47074         0.14590
| 49>    C       -2.18794        12.66531         0.59307
| 50>    S       -1.02854        12.98878         1.84057
| 51>    C       -1.02461        14.68808         1.47367
| 52>    C       -1.89331        14.96474         0.42383
| 53>    C       -2.53708        13.82267        -0.08545
| 54>    C       -3.36411        13.88996        -1.33338
| 55>    N       -3.11152        12.70183        -2.18784
| 56>    O       -4.07002        12.15322        -2.67186
| 57>    O       -1.96122        12.38207        -2.36148
| 58>    C       -2.95681        15.12326        -2.14619
| 59>    C       -3.12412        16.36127        -1.27743
| 60>    C       -2.15091        16.34874        -0.09829
| 61>    N       -2.75812        17.13370         1.03212
| 62>    O       -3.89634        16.88266         1.32646
| 63>    O       -2.04746        17.94001         1.57498
| 64>    C       -0.18224        15.58941         2.17390
| 65>    C        0.61324        15.23341         3.21516
| 66>    C        1.45060        16.17526         3.85742
| 67>    C        2.25766        15.90100         4.92257
| 68>    C        3.13521        16.83319         5.60808
| 69>    C        3.48607        18.08925         5.18640
| 70>    C        4.35713        18.94518         5.89309
| 71>    N        5.04781        19.69306         6.42371
| 72>    C        3.07582        18.69046         3.97775
| 73>    N        2.81132        19.23562         3.00223
| 74>    C        3.63918        16.16959         6.80478
| 75>    C        3.16250        14.82731         6.81672
| 76>    C        2.31441        14.59524         5.63541
| 77>    O        1.77196        13.55587         5.32437
| 78>    C        3.48591        13.95565         7.81642
| 79>    C        4.31235        14.39592         8.87416
| 80>    C        4.78711        15.73945         8.87395
| 81>    C        4.43824        16.61834         7.82319
| 82>    C        5.60782        16.16980         9.93638
| 83>    C        5.94510        15.31554        10.95066
| 84>    C        5.47743        13.99280        10.94965
| 85>    C        4.67880        13.54272         9.93352
| 86>    H        3.08878        -0.20231         3.33411
| 87>    H        3.15593         1.54929         5.36846
| 88>    H        2.81972         3.22861         4.87167
| 89>    H        5.16520         1.53561         3.85555
| 90>    H        5.27704         2.81972         5.06480
| 91>    H        4.82125         3.20869         3.40292
| 92>    H       -1.46851         0.41785        -1.08789
| 93>    H       -0.40080        -1.00539        -1.07684
| 94>    H        0.25593         1.63894        -2.48239
| 95>    H       -0.30455         0.16245        -3.27852
| 96>    H        1.26203         0.18759        -2.46418
| 97>    H       -1.19726         2.63560        -0.81259
| 98>    H        0.13054         4.35726         1.34692
| 99>    H       -3.75465         3.11722        -2.88220
|100>    H       -3.40010         4.76985        -3.44265
|101>    H       -4.56958         4.50779        -2.12255
|102>    H       -6.69477         8.54017        -1.55189
|103>    H       -5.82895        10.06184        -1.86907
|104>    H       -6.70492         9.83727        -0.32538
|105>    H       -4.43921        13.91164        -1.12004
|106>    H       -3.58824        15.20514        -3.03178
|107>    H       -1.91665        15.01730        -2.46441
|108>    H       -4.14451        16.38065        -0.88521
|109>    H       -2.96597        17.25992        -1.87432
|110>    H       -1.20706        16.84782        -0.34039
|111>    H       -0.17978        16.62242         1.85044
|112>    H        0.62057        14.21304         3.57257
|113>    H        1.42110        17.18501         3.46741
|114>    H        3.11366        12.94202         7.80034
|115>    H        4.81059        17.62990         7.85465
|116>    H        5.96598        17.18881         9.93219
|117>    H        6.57431        15.65457        11.75988
|118>    H        5.75324        13.33243        11.75817
|119>    H        4.31579        12.52536         9.92730
|120> *
|121>
|122>                          ****END OF INPUT****

CARTESIAN COORDINATES (ANGSTROEM)
---------------------------------
  C      2.499890    0.579560    2.891590
  N      2.483660    1.831700    3.424590
  C      3.255770    2.276590    4.556810
  C      4.726110    2.470920    4.195820
  C      1.641780    2.694030    2.689480
  O      1.471660    3.866090    2.978150
  C      1.116310    1.859910    1.641060
  C      1.677650    0.550920    1.801740
  C      1.139240   -0.296400    0.757610
  O      1.309030   -1.463390    0.481550
  N      0.277310    0.554820    0.038830
  C     -0.426540    0.086950   -1.129350
  C      0.238910    0.552990   -2.422370
  C      0.256520    1.835040    0.551520
  C     -0.550080    2.871760    0.015770
  C     -0.530570    4.132370    0.519370
  C     -1.317270    5.216080    0.056450
  S     -1.117370    6.771640    0.809110
  C     -2.327400    7.486690   -0.191370
  C     -2.851910    6.563450   -1.097430
  C     -2.286710    5.268730   -0.947560
  O     -2.580080    4.149330   -1.636770
  C     -3.638180    4.154830   -2.571890
  C     -3.731030    6.959630   -2.120340
  N     -4.397500    7.297870   -2.992010
  C     -2.668560    8.863190   -0.042380
  S     -1.474890   10.016630    0.469100
  C     -2.603990   11.317720    0.356250
  C     -3.873040   10.859130    0.008710
  C     -3.910080    9.459010   -0.234050
  O     -4.974480    8.709250   -0.541570
  C     -6.113930    9.341300   -1.099250
  C     -4.981490   11.717530    0.054130
  N     -5.843540   12.470740    0.145900
  C     -2.187940   12.665310    0.593070
  S     -1.028540   12.988780    1.840570
  C     -1.024610   14.688080    1.473670
  C     -1.893310   14.964740    0.423830
  C     -2.537080   13.822670   -0.085450
  C     -3.364110   13.889960   -1.333380
  N     -3.111520   12.701830   -2.187840
  O     -4.070020   12.153220   -2.671860
  O     -1.961220   12.382070   -2.361480
  C     -2.956810   15.123260   -2.146190
  C     -3.124120   16.361270   -1.277430
  C     -2.150910   16.348740   -0.098290
  N     -2.758120   17.133700    1.032120
  O     -3.896340   16.882660    1.326460
  O     -2.047460   17.940010    1.574980
  C     -0.182240   15.589410    2.173900
  C      0.613240   15.233410    3.215160
  C      1.450600   16.175260    3.857420
  C      2.257660   15.901000    4.922570
  C      3.135210   16.833190    5.608080
  C      3.486070   18.089250    5.186400
  C      4.357130   18.945180    5.893090
  N      5.047810   19.693060    6.423710
  C      3.075820   18.690460    3.977750
  N      2.811320   19.235620    3.002230
  C      3.639180   16.169590    6.804780
  C      3.162500   14.827310    6.816720
  C      2.314410   14.595240    5.635410
  O      1.771960   13.555870    5.324370
  C      3.485910   13.955650    7.816420
  C      4.312350   14.395920    8.874160
  C      4.787110   15.739450    8.873950
  C      4.438240   16.618340    7.823190
  C      5.607820   16.169800    9.936380
  C      5.945100   15.315540   10.950660
  C      5.477430   13.992800   10.949650
  C      4.678800   13.542720    9.933520
  H      3.088780   -0.202310    3.334110
  H      3.155930    1.549290    5.368460
  H      2.819720    3.228610    4.871670
  H      5.165200    1.535610    3.855550
  H      5.277040    2.819720    5.064800
  H      4.821250    3.208690    3.402920
  H     -1.468510    0.417850   -1.087890
  H     -0.400800   -1.005390   -1.076840
  H      0.255930    1.638940   -2.482390
  H     -0.304550    0.162450   -3.278520
  H      1.262030    0.187590   -2.464180
  H     -1.197260    2.635600   -0.812590
  H      0.130540    4.357260    1.346920
  H     -3.754650    3.117220   -2.882200
  H     -3.400100    4.769850   -3.442650
  H     -4.569580    4.507790   -2.122550
  H     -6.694770    8.540170   -1.551890
  H     -5.828950   10.061840   -1.869070
  H     -6.704920    9.837270   -0.325380
  H     -4.439210   13.911640   -1.120040
  H     -3.588240   15.205140   -3.031780
  H     -1.916650   15.017300   -2.464410
  H     -4.144510   16.380650   -0.885210
  H     -2.965970   17.259920   -1.874320
  H     -1.207060   16.847820   -0.340390
  H     -0.179780   16.622420    1.850440
  H      0.620570   14.213040    3.572570
  H      1.421100   17.185010    3.467410
  H      3.113660   12.942020    7.800340
  H      4.810590   17.629900    7.854650
  H      5.965980   17.188810    9.932190
  H      6.574310   15.654570   11.759880
  H      5.753240   13.332430   11.758170
  H      4.315790   12.525360    9.927300

 Total Charge           Charge          ....    0
 Multiplicity           Mult            ....    1
 Number of Electrons    NEL             ....  516
 Basis Dimension        Dim             .... 1176

ORBITAL ENERGIES
----------------

  NO   OCC          E(Eh)            E(eV)
   0   2.0000     -88.992982     -2421.6221
   1   2.0000     -88.989667     -2421.5319
   2   2.0000     -88.979653     -2421.2594
   3   2.0000     -19.274733      -524.4921
   4   2.0000     -19.269830      -524.3587
   5   2.0000     -19.262693      -524.1645
   6   2.0000     -19.262609      -524.1622
   7   2.0000     -19.261646      -524.1360
   8   2.0000     -19.260538      -524.1059
   9   2.0000     -19.219254      -522.9825
  10   2.0000     -19.179101      -521.8899
  11   2.0000     -19.178389      -521.8705
  12   2.0000     -14.659209      -398.8974
  13   2.0000     -14.658659      -398.8824
  14   2.0000     -14.444229      -393.0474
  15   2.0000     -14.442321      -392.9955
  16   2.0000     -14.423394      -392.4805
  17   2.0000     -14.417172      -392.3112
  18   2.0000     -14.415384      -392.2625
  19   2.0000     -14.408315      -392.0702
  20   2.0000     -10.373970      -282.2901
  21   2.0000     -10.369780      -282.1761
  22   2.0000     -10.366756      -282.0938
  23   2.0000     -10.364295      -282.0268
  24   2.0000     -10.361366      -281.9471
  25   2.0000     -10.357036      -281.8293
  26   2.0000     -10.354556      -281.7618
  27   2.0000     -10.350140      -281.6416
  28   2.0000     -10.345516      -281.5158
  29   2.0000     -10.345211      -281.5075
  30   2.0000     -10.343377      -281.4576
  31   2.0000     -10.341482      -281.4060
  32   2.0000     -10.336120      -281.2601
  33   2.0000     -10.335703      -281.2488
  34   2.0000     -10.334469      -281.2152
  35   2.0000     -10.331884      -281.1448
  36   2.0000     -10.329214      -281.0722
  37   2.0000     -10.326640      -281.0022
  38   2.0000     -10.325316      -280.9661
  39   2.0000     -10.324565      -280.9457
  40   2.0000     -10.322749      -280.8963
  41   2.0000     -10.322392      -280.8866
  42   2.0000     -10.319742      -280.8144
  43   2.0000     -10.318132      -280.7706
  44   2.0000     -10.318097      -280.7697
  45   2.0000     -10.317847      -280.7629
  46   2.0000     -10.316103      -280.7154
  47   2.0000     -10.314067      -280.6600
  48   2.0000     -10.311143      -280.5805
  49   2.0000     -10.309708      -280.5414
  50   2.0000     -10.307203      -280.4733
  51   2.0000     -10.303966      -280.3852
  52   2.0000     -10.302907      -280.3564
  53   2.0000     -10.301580      -280.3202
  54   2.0000     -10.301148      -280.3085
  55   2.0000     -10.298906      -280.2475
  56   2.0000     -10.298632      -280.2400
  57   2.0000     -10.297855      -280.2189
  58   2.0000     -10.297586      -280.2115
  59   2.0000     -10.295922      -280.1663
  60   2.0000     -10.293063      -280.0885
  61   2.0000     -10.289737      -279.9980
  62   2.0000     -10.287772      -279.9445
  63   2.0000     -10.287199      -279.9289
  64   2.0000     -10.286920      -279.9213
  65   2.0000     -10.286374      -279.9065
  66   2.0000     -10.276868      -279.6478
  67   2.0000     -10.260605      -279.2053
  68   2.0000     -10.258395      -279.1451
  69   2.0000     -10.249914      -278.9143
  70   2.0000     -10.246518      -278.8219
  71   2.0000      -8.088386      -220.0962
  72   2.0000      -8.084966      -220.0031
  73   2.0000      -8.075298      -219.7400
  74   2.0000      -6.057675      -164.8377
  75   2.0000      -6.054076      -164.7398
  76   2.0000      -6.053564      -164.7259
  77   2.0000      -6.050365      -164.6388
  78   2.0000      -6.050089      -164.6313
  79   2.0000      -6.047183      -164.5522
  80   2.0000      -6.044528      -164.4800
  81   2.0000      -6.040462      -164.3693
  82   2.0000      -6.037334      -164.2842
  83   2.0000      -1.344636       -36.5894
  84   2.0000      -1.342293       -36.5257
  85   2.0000      -1.178663       -32.0730
  86   2.0000      -1.178053       -32.0565
  87   2.0000      -1.166383       -31.7389
  88   2.0000      -1.162294       -31.6276
  89   2.0000      -1.133690       -30.8493
  90   2.0000      -1.121772       -30.5250
  91   2.0000      -1.114969       -30.3399
  92   2.0000      -1.052358       -28.6361
  93   2.0000      -1.044051       -28.4101
  94   2.0000      -1.041204       -28.3326
  95   2.0000      -1.023843       -27.8602
  96   2.0000      -1.019028       -27.7292
  97   2.0000      -1.013326       -27.5740
  98   2.0000      -1.001208       -27.2443
  99   2.0000      -0.999576       -27.1999
 100   2.0000      -0.994525       -27.0624
 101   2.0000      -0.989268       -26.9194
 102   2.0000      -0.975259       -26.5382
 103   2.0000      -0.972441       -26.4615
 104   2.0000      -0.951910       -25.9028
 105   2.0000      -0.934048       -25.4167
 106   2.0000      -0.922438       -25.1008
 107   2.0000      -0.920004       -25.0346
 108   2.0000      -0.915160       -24.9028
 109   2.0000      -0.899104       -24.4659
 110   2.0000      -0.892520       -24.2867
 111   2.0000      -0.884517       -24.0689
 112   2.0000      -0.881792       -23.9948
 113   2.0000      -0.872962       -23.7545
 114   2.0000      -0.869787       -23.6681
 115   2.0000      -0.864937       -23.5361
 116   2.0000      -0.862274       -23.4637
 117   2.0000      -0.851322       -23.1656
 118   2.0000      -0.840304       -22.8658
 119   2.0000      -0.829682       -22.5768
 120   2.0000      -0.828960       -22.5571
 121   2.0000      -0.813338       -22.1321
 122   2.0000      -0.809236       -22.0204
 123   2.0000      -0.800444       -21.7812
 124   2.0000      -0.794852       -21.6290
 125   2.0000      -0.779325       -21.2065
 126   2.0000      -0.766909       -20.8686
 127   2.0000      -0.762768       -20.7560
 128   2.0000      -0.754133       -20.5210
 129   2.0000      -0.745883       -20.2965
 130   2.0000      -0.742031       -20.1917
 131   2.0000      -0.728796       -19.8316
 132   2.0000      -0.724904       -19.7256
 133   2.0000      -0.710550       -19.3350
 134   2.0000      -0.709145       -19.2968
 135   2.0000      -0.705816       -19.2062
 136   2.0000      -0.702314       -19.1109
 137   2.0000      -0.701811       -19.0973
 138   2.0000      -0.693537       -18.8721
 139   2.0000      -0.687398       -18.7051
 140   2.0000      -0.678452       -18.4616
 141   2.0000      -0.674500       -18.3541
 142   2.0000      -0.672148       -18.2901
 143   2.0000      -0.660344       -17.9689
 144   2.0000      -0.656203       -17.8562
 145   2.0000      -0.654121       -17.7995
 146   2.0000      -0.650023       -17.6880
 147   2.0000      -0.645660       -17.5693
 148   2.0000      -0.643801       -17.5187
 149   2.0000      -0.638887       -17.3850
 150   2.0000      -0.635394       -17.2900
 151   2.0000      -0.633311       -17.2333
 152   2.0000      -0.630645       -17.1607
 153   2.0000      -0.624453       -16.9922
 154   2.0000      -0.614387       -16.7183
 155   2.0000      -0.607936       -16.5428
 156   2.0000      -0.606494       -16.5035
 157   2.0000      -0.603425       -16.4200
 158   2.0000      -0.597502       -16.2589
 159   2.0000      -0.595220       -16.1968
 160   2.0000      -0.589089       -16.0299
 161   2.0000      -0.586037       -15.9469
 162   2.0000      -0.581723       -15.8295
 163   2.0000      -0.577684       -15.7196
 164   2.0000      -0.574632       -15.6365
 165   2.0000      -0.572737       -15.5850
 166   2.0000      -0.570988       -15.5374
 167   2.0000      -0.566449       -15.4139
 168   2.0000      -0.562179       -15.2977
 169   2.0000      -0.555902       -15.1269
 170   2.0000      -0.551598       -15.0098
 171   2.0000      -0.547496       -14.8981
 172   2.0000      -0.545703       -14.8493
 173   2.0000      -0.541287       -14.7292
 174   2.0000      -0.540638       -14.7115
 175   2.0000      -0.539283       -14.6746
 176   2.0000      -0.537659       -14.6305
 177   2.0000      -0.535087       -14.5605
 178   2.0000      -0.531727       -14.4690
 179   2.0000      -0.526164       -14.3176
 180   2.0000      -0.523481       -14.2447
 181   2.0000      -0.523174       -14.2363
 182   2.0000      -0.521733       -14.1971
 183   2.0000      -0.516722       -14.0607
 184   2.0000      -0.514980       -14.0133
 185   2.0000      -0.514744       -14.0069
 186   2.0000      -0.510624       -13.8948
 187   2.0000      -0.507887       -13.8203
 188   2.0000      -0.506314       -13.7775
 189   2.0000      -0.502998       -13.6873
 190   2.0000      -0.500451       -13.6180
 191   2.0000      -0.498590       -13.5673
 192   2.0000      -0.497538       -13.5387
 193   2.0000      -0.494782       -13.4637
 194   2.0000      -0.492961       -13.4141
 195   2.0000      -0.491445       -13.3729
 196   2.0000      -0.488696       -13.2981
 197   2.0000      -0.486983       -13.2515
 198   2.0000      -0.484956       -13.1963
 199   2.0000      -0.483025       -13.1438
 200   2.0000      -0.473260       -12.8781
 201   2.0000      -0.470007       -12.7895
 202   2.0000      -0.468734       -12.7549
 203   2.0000      -0.465534       -12.6678
 204   2.0000      -0.462458       -12.5841
 205   2.0000      -0.460644       -12.5348
 206   2.0000      -0.456576       -12.4241
 207   2.0000      -0.454633       -12.3712
 208   2.0000      -0.452876       -12.3234
 209   2.0000      -0.451491       -12.2857
 210   2.0000      -0.450427       -12.2568
 211   2.0000      -0.449715       -12.2374
 212   2.0000      -0.449387       -12.2284
 213   2.0000      -0.447010       -12.1638
 214   2.0000      -0.445391       -12.1197
 215   2.0000      -0.445020       -12.1096
 216   2.0000      -0.442541       -12.0422
 217   2.0000      -0.441271       -12.0076
 218   2.0000      -0.439320       -11.9545
 219   2.0000      -0.438356       -11.9283
 220   2.0000      -0.435436       -11.8488
 221   2.0000      -0.434120       -11.8130
 222   2.0000      -0.433544       -11.7973
 223   2.0000      -0.431681       -11.7466
 224   2.0000      -0.429384       -11.6841
 225   2.0000      -0.427493       -11.6327
 226   2.0000      -0.426109       -11.5950
 227   2.0000      -0.424262       -11.5448
 228   2.0000      -0.421959       -11.4821
 229   2.0000      -0.420368       -11.4388
 230   2.0000      -0.415808       -11.3147
 231   2.0000      -0.407616       -11.0918
 232   2.0000      -0.405945       -11.0463
 233   2.0000      -0.401724       -10.9315
 234   2.0000      -0.401240       -10.9183
 235   2.0000      -0.398420       -10.8416
 236   2.0000      -0.395505       -10.7622
 237   2.0000      -0.394340       -10.7305
 238   2.0000      -0.391686       -10.6583
 239   2.0000      -0.390073       -10.6144
 240   2.0000      -0.385412       -10.4876
 241   2.0000      -0.384305       -10.4575
 242   2.0000      -0.379162       -10.3175
 243   2.0000      -0.375835       -10.2270
 244   2.0000      -0.356935        -9.7127
 245   2.0000      -0.350393        -9.5347
 246   2.0000      -0.338241        -9.2040
 247   2.0000      -0.336712        -9.1624
 248   2.0000      -0.335813        -9.1379
 249   2.0000      -0.324127        -8.8199
 250   2.0000      -0.320449        -8.7199
 251   2.0000      -0.319345        -8.6898
 252   2.0000      -0.315983        -8.5983
 253   2.0000      -0.304006        -8.2724
 254   2.0000      -0.298120        -8.1123
 255   2.0000      -0.287810        -7.8317
 256   2.0000      -0.269052        -7.3213
 257   2.0000      -0.234413        -6.3787
 258   0.0000      -0.108660        -2.9568
 259   0.0000      -0.075860        -2.0643
 260   0.0000      -0.061704        -1.6790
 261   0.0000      -0.050875        -1.3844
 262   0.0000      -0.036925        -1.0048

MULLIKEN ATOMIC CHARGES
-----------------------
   0 C :    0.031373
   1 N :   -0.257717
   2 C :    0.114074
   3 C :   -0.001291
   4 C :    0.169880
   5 O :   -0.227144
   6 C :   -0.111094
   7 C :    0.006649
   8 C :    0.160091
   9 O :   -0.188942
  10 N :   -0.272111
  11 C :    0.098912
  12 C :    0.004699
  13 C :    0.167250
  14 C :   -0.048163
  15 C :    0.069147
  16 C :   -0.166831
  17 S :    0.195448
  18 C :   -0.058548
  19 C :   -0.056618
  20 C :    0.213184
  21 O :   -0.304467
  22 C :    0.181326
  23 C :   -0.268191
  24 N :    0.140165
  25 C :   -0.192096
  26 S :    0.217011
  27 C :   -0.116928
  28 C :   -0.096791
  29 C :    0.239346
  30 O :   -0.291165
  31 C :    0.171288
  32 C :   -0.225156
  33 N :    0.142900
  34 C :   -0.140313
  35 S :    0.188788
  36 C :   -0.070479
  37 C :   -0.069263
  38 C :    0.061791
  39 C :    0.109418
  40 N :    0.180283
  41 O :   -0.211123
  42 O :   -0.209086
  43 C :    0.060037
  44 C :    0.065030
  45 C :    0.122425
  46 N :    0.197590
  47 O :   -0.207613
  48 O :   -0.216240
  49 C :    0.008674
  50 C :   -0.009190
  51 C :   -0.044300
  52 C :   -0.066981
  53 C :    0.328318
  54 C :   -0.344885
  55 C :   -0.180181
  56 N :    0.147155
  57 C :   -0.200771
  58 N :    0.155241
  59 C :    0.045585
  60 C :   -0.001028
  61 C :    0.150653
  62 O :   -0.149769
  63 C :   -0.079912
  64 C :    0.097850
  65 C :    0.095691
  66 C :   -0.081572
  67 C :   -0.017203
  68 C :    0.036562
  69 C :    0.036392
  70 C :   -0.015894
  71 H :    0.010696
  72 H :    0.016465
  73 H :    0.039416
  74 H :    0.013946
  75 H :    0.020335
  76 H :    0.029597
  77 H :    0.020081
  78 H :    0.041781
  79 H :    0.016866
  80 H :    0.018228
  81 H :    0.027436
  82 H :   -0.014325
  83 H :   -0.000279
  84 H :    0.036357
  85 H :    0.052087
  86 H :    0.044017
  87 H :    0.046861
  88 H :    0.055662
  89 H :    0.046572
  90 H :    0.056314
  91 H :    0.034245
  92 H :    0.035080
  93 H :    0.047270
  94 H :    0.032950
  95 H :    0.037766
  96 H :    0.027147
  97 H :    0.034207
  98 H :    0.020182
  99 H :   -0.013494
 100 H :   -0.008866
 101 H :   -0.008968
 102 H :   -0.004498
 103 H :   -0.004473
 104 H :   -0.017827
Sum of atomic charges:   -0.0000000

LOEWDIN ATOMIC CHARGES
----------------------
   0 C :    0.079909
   1 N :   -0.000105
   2 C :    0.037819
   3 C :   -0.060941
   4 C :    0.073535
   5 O :   -0.218784
   6 C :   -0.140330
   7 C :   -0.126446
   8 C :    0.081938
   9 O :   -0.193463
  10 N :   -0.009941
  11 C :    0.035029
  12 C :   -0.062162
  13 C :    0.089276
  14 C :   -0.060617
  15 C :    0.014361
  16 C :   -0.211327
  17 S :    0.484831
  18 C :   -0.147740
  19 C :   -0.135541
  20 C :    0.055561
  21 O :   -0.078970
  22 C :    0.083305
  23 C :   -0.029867
  24 N :   -0.070609
  25 C :   -0.231161
  26 S :    0.490566
  27 C :   -0.163640
  28 C :   -0.134853
  29 C :    0.054888
  30 O :   -0.070597
  31 C :    0.085285
  32 C :   -0.028977
  33 N :   -0.056519
  34 C :   -0.179079
  35 S :    0.491481
  36 C :   -0.162120
  37 C :   -0.056064
  38 C :   -0.049663
  39 C :    0.012922
  40 N :    0.274750
  41 O :   -0.184341
  42 O :   -0.190111
  43 C :   -0.014465
  44 C :   -0.024981
  45 C :    0.022630
  46 N :    0.271990
  47 O :   -0.180575
  48 O :   -0.187164
  49 C :    0.001095
  50 C :   -0.024649
  51 C :    0.066790
  52 C :   -0.085636
  53 C :    0.074798
  54 C :   -0.136174
  55 C :   -0.016773
  56 N :   -0.052521
  57 C :   -0.021722
  58 N :   -0.050570
  59 C :   -0.025445
  60 C :   -0.055961
  61 C :    0.085693
  62 O :   -0.145205
  63 C :    0.032921
  64 C :   -0.008112
  65 C :   -0.005776
  66 C :    0.019804
  67 C :   -0.004975
  68 C :   -0.012819
  69 C :   -0.011926
  70 C :   -0.009333
  71 H :    0.030380
  72 H :    0.023420
  73 H :    0.035073
  74 H :    0.021990
  75 H :    0.028888
  76 H :    0.031211
  77 H :    0.021627
  78 H :    0.036615
  79 H :    0.022335
  80 H :    0.028413
  81 H :    0.031597
  82 H :    0.026048
  83 H :    0.036002
  84 H :    0.030003
  85 H :    0.027121
  86 H :    0.025278
  87 H :    0.033728
  88 H :    0.029723
  89 H :    0.024023
  90 H :    0.047336
  91 H :    0.040082
  92 H :    0.032774
  93 H :    0.038363
  94 H :    0.040066
  95 H :    0.044039
  96 H :    0.037287
  97 H :    0.027532
  98 H :    0.045139
  99 H :    0.039018
 100 H :    0.039080
 101 H :    0.034983
 102 H :    0.033410
 103 H :    0.033045
 104 H :    0.031948

  Mayer bond orders larger than 0.100000
B(  0-C ,  1-N ) :   1.1812 B(  0-C ,  7-C ) :   1.4655 B(  0-C , 71-H ) :   0.9903
B(  1-N ,  2-C ) :   0.9465 B(  1-N ,  4-C ) :   1.0625 B(  2-C ,  3-C ) :   1.1185
B(  2-C , 72-H ) :   0.9538 B(  2-C , 73-H ) :   0.9340 B(  3-C , 74-H ) :   0.9693
B(  3-C , 75-H ) :   0.9686 B(  3-C , 76-H ) :   0.9672 B(  4-C ,  5-O ) :   1.9996
B(  4-C ,  6-C ) :   1.0174 B(  5-O , 83-H ) :   0.1205 B(  6-C ,  7-C ) :   1.2012
B(  6-C , 13-C ) :   1.3634 B(  7-C ,  8-C ) :   0.9482 B(  8-C ,  9-O ) :   2.1742
B(  8-C , 10-N ) :   1.0205 B( 10-N , 11-C ) :   0.9511 B( 10-N , 13-C ) :   1.1510
B( 11-C , 12-C ) :   1.1209 B( 11-C , 77-H ) :   0.9489 B( 11-C , 78-H ) :   0.9276
B( 12-C , 79-H ) :   0.9676 B( 12-C , 80-H ) :   0.9676 B( 12-C , 81-H ) :   0.9637
B( 13-C , 14-C ) :   1.1527 B( 14-C , 15-C ) :   1.6114 B( 14-C , 82-H ) :   0.9610
B( 15-C , 16-C ) :   1.1491 B( 15-C , 83-H ) :   0.9266 B( 16-C , 17-S ) :   1.1047
B( 16-C , 18-C ) :   0.1099 B( 16-C , 20-C ) :   1.4239 B( 17-S , 18-C ) :   1.1810
B( 18-C , 19-C ) :   1.4842 B( 18-C , 25-C ) :   1.0802 B( 19-C , 20-C ) :   1.2270
B( 19-C , 23-C ) :   1.1363 B( 20-C , 21-O ) :   1.2040 B( 21-O , 22-C ) :   0.9221
B( 22-C , 84-H ) :   0.9735 B( 22-C , 85-H ) :   0.9698 B( 22-C , 86-H ) :   0.9686
B( 23-C , 24-N ) :   2.9547 B( 25-C , 26-S ) :   1.1075 B( 25-C , 27-C ) :   0.1281
B( 25-C , 29-C ) :   1.4912 B( 26-S , 27-C ) :   1.1701 B( 27-C , 28-C ) :   1.4929
B( 27-C , 34-C ) :   1.0802 B( 28-C , 29-C ) :   1.2089 B( 28-C , 32-C ) :   1.1293
B( 29-C , 30-O ) :   1.2602 B( 30-O , 31-C ) :   0.9011 B( 31-C , 87-H ) :   0.9719
B( 31-C , 88-H ) :   0.9651 B( 31-C , 89-H ) :   0.9704 B( 32-C , 33-N ) :   2.9127
B( 34-C , 35-S ) :   1.1580 B( 34-C , 36-C ) :   0.1129 B( 34-C , 38-C ) :   1.5435
B( 35-S , 36-C ) :   1.1179 B( 36-C , 37-C ) :   1.4740 B( 36-C , 49-C ) :   1.1307
B( 37-C , 38-C ) :   1.3447 B( 37-C , 45-C ) :   1.0186 B( 38-C , 39-C ) :   0.9662
B( 39-C , 40-N ) :   0.8319 B( 39-C , 43-C ) :   1.0622 B( 39-C , 90-H ) :   0.8761
B( 40-N , 41-O ) :   1.5389 B( 40-N , 42-O ) :   1.5727 B( 41-O , 42-O ) :   0.2677
B( 43-C , 44-C ) :   1.1096 B( 43-C , 91-H ) :   0.9271 B( 43-C , 92-H ) :   0.9285
B( 44-C , 45-C ) :   1.0487 B( 44-C , 93-H ) :   0.9081 B( 44-C , 94-H ) :   0.9263
B( 45-C , 46-N ) :   0.8333 B( 45-C , 95-H ) :   0.8878 B( 46-N , 47-O ) :   1.5874
B( 46-N , 48-O ) :   1.5531 B( 47-O , 48-O ) :   0.2682 B( 49-C , 50-C ) :   1.5751
B( 49-C , 96-H ) :   0.9650 B( 50-C , 51-C ) :   1.1566 B( 50-C , 97-H ) :   0.9757
B( 51-C , 52-C ) :   1.5534 B( 51-C , 98-H ) :   0.9676 B( 52-C , 53-C ) :   1.0555
B( 52-C , 61-C ) :   0.9400 B( 53-C , 54-C ) :   1.6372 B( 53-C , 59-C ) :   0.9893
B( 54-C , 55-C ) :   1.1432 B( 54-C , 57-C ) :   1.1447 B( 55-C , 56-N ) :   2.9645
B( 57-C , 58-N ) :   2.9793 B( 59-C , 60-C ) :   1.2153 B( 59-C , 66-C ) :   1.4492
B( 60-C , 61-C ) :   0.9448 B( 60-C , 63-C ) :   1.4696 B( 61-C , 62-O ) :   2.2007
B( 63-C , 64-C ) :   1.1810 B( 63-C , 99-H ) :   1.0156 B( 64-C , 65-C ) :   1.2563
B( 64-C , 70-C ) :   1.2428 B( 65-C , 66-C ) :   1.2065 B( 65-C , 67-C ) :   1.2396
B( 66-C ,100-H ) :   0.9891 B( 67-C , 68-C ) :   1.4898 B( 67-C ,101-H ) :   0.9970
B( 68-C , 69-C ) :   1.2593 B( 68-C ,102-H ) :   0.9884 B( 69-C , 70-C ) :   1.4901
B( 69-C ,103-H ) :   0.9884 B( 70-C ,104-H ) :   0.9974

-----------------------------------------------------------------------------
         ABSORPTION SPECTRUM VIA TRANSITION ELECTRIC DIPOLE MOMENTS
-----------------------------------------------------------------------------
State   Energy  Wavelength   fosc         T2         TX        TY        TZ
        (cm-1)    (nm)                  (au**2)     (au)      (au)      (au)
-----------------------------------------------------------------------------
   0   16895.8    591.9   0.549130749  10.69973   0.18380   3.20335   0.63600
   1   20794.3    480.9   0.681522148  10.78976   2.44421  -0.45826   2.14606
   2   21457.4    466.0   0.776205399  11.90901  -1.75893  -2.31798  -1.85530
   3   24913.4    401.4   0.041106830   0.54320  -0.33928   0.54234   0.36599
   4   26011.8    384.4   0.298416986   3.77684  -1.19854   1.41684  -0.57698
   5   26565.0    376.4   0.299666545   3.71368   1.40617  -0.17547   1.30597
   6   26794.7    373.2   0.102171961   1.25533  -0.81740   0.42907  -0.63489
   7   27506.3    363.6   0.191498178   2.29197  -0.03969  -1.44189  -0.45972
   8   28298.3    353.4   0.043994215   0.51181  -0.13466  -0.50439  -0.48916
   9   29113.5    343.5   0.012195207   0.13790   0.05255  -0.34100  -0.13734
  10   29450.3    339.6   0.094933819   1.06122  -0.49080   0.65077  -0.62995
  11   29815.9    335.4   0.046537568   0.51384   0.26477  -0.45313   0.48827
  12   30619.1    326.6   0.191035268   2.05399   0.72041  -0.69141   1.02808
  13   30904.2    323.6   0.000675257   0.00719   0.05109  -0.02805  -0.06161
  14   31821.3    314.3   0.139616715   1.44443  -0.22011   0.39795  -1.11248
  15   31995.9    312.5   0.070429278   0.72466  -0.65057   0.54881   0.01543
  16   32274.7    309.8   0.131317267   1.33948   0.38785  -0.93589   0.55961
  17   33015.1    302.9   0.378749030   3.77672   0.68458  -0.83729   1.61462
  18   33392.5    299.5   0.005554494   0.05476  -0.12686  -0.01513   0.19606
  19   33651.2    297.2   0.011233073   0.10989  -0.17501  -0.26718  -0.08877
  20   33664.1    297.1   0.046467789   0.45442  -0.00126   0.53340  -0.41220
  21   34652.2    288.6   0.041368220   0.39302  -0.27481  -0.53984  -0.16145
  22   34999.9    285.7   0.011578382   0.10891   0.04339  -0.09660   0.31256
  23   35084.2    285.0   0.029347485   0.27538  -0.27150   0.31131  -0.32366
  24   35609.7    280.8   0.093604889   0.86538  -0.28644   0.77235  -0.43221
  25   35744.9    279.8   0.053170364   0.48970   0.06134  -0.42121   0.55544
  26   35861.4    278.9   0.009920634   0.09107  -0.03926  -0.26986   0.12926
  27   35959.2    278.1   0.007324460   0.06706  -0.07777  -0.24005  -0.05816
  28   36298.1    275.5   0.146600778   1.32962  -0.14406   0.23591  -1.11947
  29   36938.9    270.7   0.057373916   0.51134   0.16503   0.62927   0.29685
  30   37241.6    268.5   0.102441046   0.90557  -0.19917   0.91969  -0.14163
  31   37889.4    263.9   0.100989479   0.87747   0.21723   0.89388  -0.17684
  32   37964.9    263.4   0.005961693   0.05170   0.10355  -0.09277  -0.17991
  33   38193.0    261.8   0.009812802   0.08458  -0.11536  -0.26661   0.01396
  34   38203.4    261.8   0.034584829   0.29803   0.23398   0.48161  -0.10647
  35   38326.0    260.9   0.021708699   0.18647   0.14497   0.38224   0.13910
  36   38905.3    257.0   0.228105072   1.93020   0.26755   1.36206  -0.05826
  37   39206.8    255.1   0.150298516   1.26203  -0.23220  -0.92479  -0.59403
  38   39679.9    252.0   0.012958883   0.10752   0.00967   0.32453   0.04588
  39   40113.2    249.3   0.147798390   1.21299  -0.82973  -0.65520  -0.30864

FINAL SINGLE POINT ENERGY     -4269.083202556790

DIPOLE MOMENT
-------------
                                X             Y             Z
Electronic contribution:    -10.56835      54.74747       5.70618
Nuclear contribution   :     10.66054     -55.80722      -5.17100
                        -----------------------------------------
Total Dipole Moment    :      0.09219      -1.05975       0.53518
                        -----------------------------------------
Magnitude (a.u.)       :      1.19080
Magnitude (Debye)      :      3.02677

Rotational constants in cm-1:     0.000911     0.000422     0.000299
Rotational constants in MHz :    27.308875    12.657269     8.956610

                             ****ORCA TERMINATED NORMALLY****
TOTAL RUN TIME: 0 days 0 hours 9 minutes 32 seconds 642 msec
