                         Program Version 4.2.0 -  RELEASE  -
|  1> # ORCA input file
|  2> # SCF done       -191.932329670472          0.000341761219
|  3> ! CAM-B3LYP def2-SVP def2/J RIJCOSX Grid4 TightSCF
|  4> %maxcore 5000
|  5> %tddft
|  6>     Mode sTDDFT
|  7>     Ethresh 5.0
|  8>     maxcore 5000
|  9> end
| 10>
| 11> %pal
| 12>   nprocs 6
| 13>   end
| 14> * xyz 0 1
| 15>    C        0.60564        -0.43756        -8.33386
| 16>    N        0.84769         0.69866        -9.03450
| 17>    C        1.43471         0.77325       -10.34901
| 18>    C        2.93473         0.49406       -10.31140
| 19>    C        0.50629         1.84870        -8.28410
| 20>    O        0.63775         2.98146        -8.70763
| 21>    C        0.01406         1.31869        -7.03636
| 22>    C        0.09388        -0.10465        -7.10794
| 23>    C       -0.41143        -0.64636        -5.85992
| 24>    O       -0.54454        -1.77959        -5.45900
| 25>    N       -0.77124         0.49378        -5.11611
| 26>    C       -1.28606         0.37348        -3.77275
| 27>    C       -0.21701         0.66618        -2.72308
| 28>    C       -0.52440         1.66517        -5.79728
| 29>    C       -0.81499         2.94551        -5.27608
| 30>    C       -0.57037         4.09960        -5.96158
| 31>    C       -0.86817         5.38877        -5.46484
| 32>    C       -1.43680         5.74789        -4.25449
| 33>    C       -1.58767         7.15491        -4.20749
| 34>    C       -1.03524         7.67455        -5.47357
| 35>    C       -0.60897         6.61541        -6.20850
| 36>    C       -0.87081         9.02032        -5.82549
| 37>    N       -0.67132        10.10852        -6.13319
| 38>    C       -2.16164         7.89983        -3.19399
| 39>    C       -2.48562         9.27736        -3.20584
| 40>    C       -3.02720         9.63292        -1.97900
| 41>    C       -3.05396         8.44050        -1.14959
| 42>    C       -2.56470         7.39558        -1.87220
| 43>    C       -2.45355         6.08515        -1.39902
| 44>    N       -2.37839         5.01684        -0.98070
| 45>    C       -3.49123        10.93910        -1.68061
| 46>    N       -3.70670        11.48862        -0.43789
| 47>    C       -3.48580        10.89143         0.85769
| 48>    C       -4.75898        10.24723         1.40258
| 49>    C       -4.15818        12.81624        -0.52076
| 50>    O       -4.39339        13.50507         0.45472
| 51>    C       -4.23669        13.08448        -1.93703
| 52>    C       -3.80947        11.92504        -2.62128
| 53>    C       -3.93790        12.17381        -4.04430
| 54>    O       -3.73200        11.48587        -5.01839
| 55>    N       -4.40848        13.50314        -4.11946
| 56>    C       -4.69449        14.12030        -5.39353
| 57>    C       -6.18939        14.13093        -5.70387
| 58>    C       -4.59967        14.05152        -2.87999
| 59>    C       -5.08844        15.36507        -2.67307
| 60>    C       -5.30768        15.86495        -1.42939
| 61>    C       -5.84250        17.14239        -1.11954
| 62>    S       -5.84152        17.65669         0.55504
| 63>    C       -6.59478        19.17804         0.18427
| 64>    C       -6.83996        19.26085        -1.19594
| 65>    C       -6.41300        18.11832        -1.90895
| 66>    N       -6.56868        17.97200        -3.34962
| 67>    O       -7.50412        17.31120        -3.72486
| 68>    O       -5.69680        18.44331        -4.03557
| 69>    N       -7.48557        20.32683        -1.86054
| 70>    O       -7.77332        21.33250        -1.23530
| 71>    O       -7.72565        20.16329        -3.04396
| 72>    C       -6.90004        20.13210         1.17308
| 73>    C       -6.63549        19.96071         2.49924
| 74>    C       -6.93187        20.89383         3.51218
| 75>    N       -7.53811        22.10740         3.27359
| 76>    C       -7.69431        22.77567         4.42617
| 77>    C       -7.18618        22.00728         5.47165
| 78>    C       -6.70113        20.81255         4.89292
| 79>    C       -6.06661        19.68807         5.62963
| 80>    C       -7.15084        22.33937         6.87209
| 81>    C       -7.63313        23.46650         7.41907
| 82>    C       -7.57393        23.74723         8.82897
| 83>    C       -8.05339        24.85938         9.38203
| 84>    H        0.80515        -1.40481        -8.75665
| 85>    H        1.25223         1.78832       -10.71172
| 86>    H        0.93068         0.06000       -11.00799
| 87>    H        3.43529         1.22130        -9.67686
| 88>    H        3.34776         0.56365       -11.31367
| 89>    H        3.13087        -0.50220        -9.92106
| 90>    H       -1.62398        -0.66188        -3.67300
| 91>    H       -2.14586         1.03745        -3.64768
| 92>    H        0.60802        -0.03428        -2.82761
| 93>    H       -0.64140         0.55917        -1.72893
| 94>    H        0.17039         1.67699        -2.82901
| 95>    H       -1.25788         2.99762        -4.29253
| 96>    H       -0.12740         4.04411        -6.94737
| 97>    H       -1.75336         5.08236        -3.47648
| 98>    H       -0.14596         6.64777        -7.17729
| 99>    H       -2.34824         9.93268        -4.04282
|100>    H       -3.44010         8.36440        -0.15193
|101>    H       -3.18680        11.70443         1.52672
|102>    H       -2.66510        10.17514         0.78793
|103>    H       -5.51363        11.01286         1.56409
|104>    H       -4.55122         9.75757         2.35019
|105>    H       -5.16058         9.51426         0.70593
|106>    H       -4.16904        13.51849        -6.14027
|107>    H       -4.28707        15.13485        -5.40946
|108>    H       -6.57747        13.11520        -5.69919
|109>    H       -6.35138        14.55994        -6.68846
|110>    H       -6.74512        14.71899        -4.97683
|111>    H       -5.27124        15.95082        -3.55854
|112>    H       -5.06246        15.25077        -0.57158
|113>    H       -7.36781        21.03570         0.81328
|114>    H       -6.16036        19.04125         2.81443
|115>    H       -7.81764        22.43624         2.36379
|116>    H       -8.14801        23.74652         4.45295
|117>    H       -5.17542        20.03461         6.15248
|118>    H       -5.78107        18.88500         4.95713
|119>    H       -6.75485        19.28799         6.37387
|120>    H       -6.69371        21.59973         7.51577
|121>    H       -8.09708        24.22085         6.79888
|122>    H       -7.10764        22.99203         9.44903
|123>    H       -8.52212        25.62708         8.78838
|124>    H       -7.99462        25.04163        10.44082
|125> *
|126>
|127>                          ****END OF INPUT****

CARTESIAN COORDINATES (ANGSTROEM)
---------------------------------
  C      0.605640   -0.437560   -8.333860
  N      0.847690    0.698660   -9.034500
  C      1.434710    0.773250  -10.349010
  C      2.934730    0.494060  -10.311400
  C      0.506290    1.848700   -8.284100
  O      0.637750    2.981460   -8.707630
  C      0.014060    1.318690   -7.036360
  C      0.093880   -0.104650   -7.107940
  C     -0.411430   -0.646360   -5.859920
  O     -0.544540   -1.779590   -5.459000
  N     -0.771240    0.493780   -5.116110
  C     -1.286060    0.373480   -3.772750
  C     -0.217010    0.666180   -2.723080
  C     -0.524400    1.665170   -5.797280
  C     -0.814990    2.945510   -5.276080
  C     -0.570370    4.099600   -5.961580
  C     -0.868170    5.388770   -5.464840
  C     -1.436800    5.747890   -4.254490
  C     -1.587670    7.154910   -4.207490
  C     -1.035240    7.674550   -5.473570
  C     -0.608970    6.615410   -6.208500
  C     -0.870810    9.020320   -5.825490
  N     -0.671320   10.108520   -6.133190
  C     -2.161640    7.899830   -3.193990
  C     -2.485620    9.277360   -3.205840
  C     -3.027200    9.632920   -1.979000
  C     -3.053960    8.440500   -1.149590
  C     -2.564700    7.395580   -1.872200
  C     -2.453550    6.085150   -1.399020
  N     -2.378390    5.016840   -0.980700
  C     -3.491230   10.939100   -1.680610
  N     -3.706700   11.488620   -0.437890
  C     -3.485800   10.891430    0.857690
  C     -4.758980   10.247230    1.402580
  C     -4.158180   12.816240   -0.520760
  O     -4.393390   13.505070    0.454720
  C     -4.236690   13.084480   -1.937030
  C     -3.809470   11.925040   -2.621280
  C     -3.937900   12.173810   -4.044300
  O     -3.732000   11.485870   -5.018390
  N     -4.408480   13.503140   -4.119460
  C     -4.694490   14.120300   -5.393530
  C     -6.189390   14.130930   -5.703870
  C     -4.599670   14.051520   -2.879990
  C     -5.088440   15.365070   -2.673070
  C     -5.307680   15.864950   -1.429390
  C     -5.842500   17.142390   -1.119540
  S     -5.841520   17.656690    0.555040
  C     -6.594780   19.178040    0.184270
  C     -6.839960   19.260850   -1.195940
  C     -6.413000   18.118320   -1.908950
  N     -6.568680   17.972000   -3.349620
  O     -7.504120   17.311200   -3.724860
  O     -5.696800   18.443310   -4.035570
  N     -7.485570   20.326830   -1.860540
  O     -7.773320   21.332500   -1.235300
  O     -7.725650   20.163290   -3.043960
  C     -6.900040   20.132100    1.173080
  C     -6.635490   19.960710    2.499240
  C     -6.931870   20.893830    3.512180
  N     -7.538110   22.107400    3.273590
  C     -7.694310   22.775670    4.426170
  C     -7.186180   22.007280    5.471650
  C     -6.701130   20.812550    4.892920
  C     -6.066610   19.688070    5.629630
  C     -7.150840   22.339370    6.872090
  C     -7.633130   23.466500    7.419070
  C     -7.573930   23.747230    8.828970
  C     -8.053390   24.859380    9.382030
  H      0.805150   -1.404810   -8.756650
  H      1.252230    1.788320  -10.711720
  H      0.930680    0.060000  -11.007990
  H      3.435290    1.221300   -9.676860
  H      3.347760    0.563650  -11.313670
  H      3.130870   -0.502200   -9.921060
  H     -1.623980   -0.661880   -3.673000
  H     -2.145860    1.037450   -3.647680
  H      0.608020   -0.034280   -2.827610
  H     -0.641400    0.559170   -1.728930
  H      0.170390    1.676990   -2.829010
  H     -1.257880    2.997620   -4.292530
  H     -0.127400    4.044110   -6.947370
  H     -1.753360    5.082360   -3.476480
  H     -0.145960    6.647770   -7.177290
  H     -2.348240    9.932680   -4.042820
  H     -3.440100    8.364400   -0.151930
  H     -3.186800   11.704430    1.526720
  H     -2.665100   10.175140    0.787930
  H     -5.513630   11.012860    1.564090
  H     -4.551220    9.757570    2.350190
  H     -5.160580    9.514260    0.705930
  H     -4.169040   13.518490   -6.140270
  H     -4.287070   15.134850   -5.409460
  H     -6.577470   13.115200   -5.699190
  H     -6.351380   14.559940   -6.688460
  H     -6.745120   14.718990   -4.976830
  H     -5.271240   15.950820   -3.558540
  H     -5.062460   15.250770   -0.571580
  H     -7.367810   21.035700    0.813280
  H     -6.160360   19.041250    2.814430
  H     -7.817640   22.436240    2.363790
  H     -8.148010   23.746520    4.452950
  H     -5.175420   20.034610    6.152480
  H     -5.781070   18.885000    4.957130
  H     -6.754850   19.287990    6.373870
  H     -6.693710   21.599730    7.515770
  H     -8.097080   24.220850    6.798880
  H     -7.107640   22.992030    9.449030
  H     -8.522120   25.627080    8.788380
  H     -7.994620   25.041630   10.440820

 Total Charge           Charge          ....    0
 Multiplicity           Mult            ....    1
 Number of Electrons    NEL             ....  490
 Basis Dimension        Dim             .... 1175

ORBITAL ENERGIES
----------------

  NO   OCC          E(Eh)            E(eV)
   0   2.0000     -88.990377     -2421.5513
   1   2.0000     -19.256967      -524.0087
   2   2.0000     -19.256498      -523.9959
   3   2.0000     -19.247856      -523.7608
   4   2.0000     -19.247269      -523.7448
   5   2.0000     -19.195385      -522.3330
   6   2.0000     -19.195289      -522.3304
   7   2.0000     -19.193841      -522.2910
   8   2.0000     -19.184388      -522.0337
   9   2.0000     -14.663692      -399.0193
  10   2.0000     -14.658631      -398.8816
  11   2.0000     -14.480646      -394.0384
  12   2.0000     -14.459438      -393.4613
  13   2.0000     -14.456257      -393.3747
  14   2.0000     -14.455171      -393.3452
  15   2.0000     -14.449880      -393.2012
  16   2.0000     -14.409451      -392.1011
  17   2.0000     -14.397071      -391.7642
  18   2.0000     -10.377477      -282.3855
  19   2.0000     -10.377449      -282.3847
  20   2.0000     -10.374521      -282.3051
  21   2.0000     -10.371144      -282.2132
  22   2.0000     -10.354304      -281.7549
  23   2.0000     -10.353278      -281.7270
  24   2.0000     -10.347552      -281.5712
  25   2.0000     -10.346919      -281.5540
  26   2.0000     -10.343436      -281.4592
  27   2.0000     -10.341795      -281.4146
  28   2.0000     -10.338585      -281.3272
  29   2.0000     -10.331150      -281.1249
  30   2.0000     -10.320465      -280.8341
  31   2.0000     -10.320052      -280.8229
  32   2.0000     -10.316747      -280.7329
  33   2.0000     -10.314607      -280.6747
  34   2.0000     -10.314296      -280.6663
  35   2.0000     -10.313681      -280.6495
  36   2.0000     -10.313111      -280.6340
  37   2.0000     -10.312120      -280.6070
  38   2.0000     -10.309975      -280.5487
  39   2.0000     -10.309862      -280.5456
  40   2.0000     -10.309389      -280.5327
  41   2.0000     -10.309125      -280.5256
  42   2.0000     -10.304753      -280.4066
  43   2.0000     -10.304141      -280.3899
  44   2.0000     -10.304018      -280.3866
  45   2.0000     -10.301134      -280.3081
  46   2.0000     -10.300174      -280.2820
  47   2.0000     -10.298848      -280.2459
  48   2.0000     -10.298260      -280.2299
  49   2.0000     -10.296616      -280.1852
  50   2.0000     -10.294164      -280.1184
  51   2.0000     -10.293238      -280.0932
  52   2.0000     -10.286531      -279.9107
  53   2.0000     -10.280687      -279.7517
  54   2.0000     -10.280403      -279.7440
  55   2.0000     -10.279759      -279.7265
  56   2.0000     -10.278255      -279.6855
  57   2.0000     -10.274391      -279.5804
  58   2.0000     -10.271803      -279.5100
  59   2.0000     -10.271612      -279.5048
  60   2.0000     -10.269225      -279.4398
  61   2.0000     -10.268234      -279.4128
  62   2.0000     -10.265853      -279.3481
  63   2.0000     -10.265128      -279.3283
  64   2.0000     -10.262355      -279.2529
  65   2.0000     -10.262192      -279.2484
  66   2.0000     -10.260004      -279.1889
  67   2.0000     -10.258814      -279.1565
  68   2.0000     -10.255913      -279.0776
  69   2.0000      -8.085718      -220.0236
  70   2.0000      -6.055039      -164.7660
  71   2.0000      -6.051090      -164.6585
  72   2.0000      -6.047464      -164.5599
  73   2.0000      -1.339908       -36.4608
  74   2.0000      -1.327450       -36.1218
  75   2.0000      -1.159416       -31.5493
  76   2.0000      -1.146809       -31.2063
  77   2.0000      -1.138212       -30.9723
  78   2.0000      -1.132618       -30.8201
  79   2.0000      -1.131571       -30.7916
  80   2.0000      -1.124590       -30.6016
  81   2.0000      -1.096397       -29.8345
  82   2.0000      -1.068395       -29.0725
  83   2.0000      -1.063144       -28.9296
  84   2.0000      -1.060075       -28.8461
  85   2.0000      -1.053875       -28.6774
  86   2.0000      -1.032768       -28.1030
  87   2.0000      -1.012251       -27.5447
  88   2.0000      -0.995988       -27.1022
  89   2.0000      -0.981849       -26.7175
  90   2.0000      -0.973699       -26.4957
  91   2.0000      -0.943162       -25.6647
  92   2.0000      -0.933202       -25.3937
  93   2.0000      -0.930147       -25.3106
  94   2.0000      -0.927079       -25.2271
  95   2.0000      -0.922013       -25.0892
  96   2.0000      -0.912007       -24.8170
  97   2.0000      -0.905807       -24.6483
  98   2.0000      -0.895493       -24.3676
  99   2.0000      -0.887706       -24.1557
 100   2.0000      -0.880938       -23.9715
 101   2.0000      -0.873371       -23.7656
 102   2.0000      -0.869131       -23.6502
 103   2.0000      -0.855692       -23.2846
 104   2.0000      -0.850331       -23.1387
 105   2.0000      -0.841960       -22.9109
 106   2.0000      -0.828176       -22.5358
 107   2.0000      -0.821751       -22.3610
 108   2.0000      -0.819407       -22.2972
 109   2.0000      -0.816781       -22.2258
 110   2.0000      -0.810195       -22.0465
 111   2.0000      -0.803726       -21.8705
 112   2.0000      -0.799616       -21.7587
 113   2.0000      -0.782056       -21.2808
 114   2.0000      -0.774320       -21.0703
 115   2.0000      -0.763979       -20.7889
 116   2.0000      -0.761593       -20.7240
 117   2.0000      -0.759593       -20.6696
 118   2.0000      -0.758731       -20.6461
 119   2.0000      -0.733344       -19.9553
 120   2.0000      -0.725201       -19.7337
 121   2.0000      -0.718248       -19.5445
 122   2.0000      -0.713175       -19.4065
 123   2.0000      -0.708982       -19.2924
 124   2.0000      -0.704845       -19.1798
 125   2.0000      -0.703124       -19.1330
 126   2.0000      -0.688602       -18.7378
 127   2.0000      -0.683727       -18.6051
 128   2.0000      -0.679083       -18.4788
 129   2.0000      -0.676140       -18.3987
 130   2.0000      -0.664758       -18.0890
 131   2.0000      -0.658182       -17.9100
 132   2.0000      -0.653438       -17.7809
 133   2.0000      -0.650103       -17.6902
 134   2.0000      -0.648854       -17.6562
 135   2.0000      -0.644635       -17.5414
 136   2.0000      -0.639594       -17.4042
 137   2.0000      -0.639407       -17.3991
 138   2.0000      -0.637957       -17.3597
 139   2.0000      -0.635406       -17.2903
 140   2.0000      -0.621653       -16.9160
 141   2.0000      -0.618234       -16.8230
 142   2.0000      -0.613127       -16.6840
 143   2.0000      -0.607677       -16.5357
 144   2.0000      -0.604358       -16.4454
 145   2.0000      -0.600044       -16.3280
 146   2.0000      -0.598058       -16.2740
 147   2.0000      -0.590958       -16.0808
 148   2.0000      -0.589074       -16.0295
 149   2.0000      -0.585194       -15.9239
 150   2.0000      -0.582007       -15.8372
 151   2.0000      -0.577637       -15.7183
 152   2.0000      -0.575092       -15.6490
 153   2.0000      -0.567252       -15.4357
 154   2.0000      -0.564156       -15.3515
 155   2.0000      -0.562836       -15.3156
 156   2.0000      -0.553629       -15.0650
 157   2.0000      -0.551737       -15.0135
 158   2.0000      -0.547486       -14.8978
 159   2.0000      -0.547339       -14.8939
 160   2.0000      -0.546411       -14.8686
 161   2.0000      -0.543794       -14.7974
 162   2.0000      -0.539650       -14.6846
 163   2.0000      -0.538095       -14.6423
 164   2.0000      -0.535086       -14.5604
 165   2.0000      -0.529443       -14.4069
 166   2.0000      -0.526259       -14.3202
 167   2.0000      -0.523273       -14.2390
 168   2.0000      -0.520902       -14.1745
 169   2.0000      -0.519754       -14.1432
 170   2.0000      -0.517088       -14.0707
 171   2.0000      -0.515572       -14.0294
 172   2.0000      -0.514548       -14.0016
 173   2.0000      -0.513728       -13.9792
 174   2.0000      -0.513167       -13.9640
 175   2.0000      -0.512839       -13.9551
 176   2.0000      -0.505225       -13.7479
 177   2.0000      -0.504981       -13.7412
 178   2.0000      -0.503365       -13.6973
 179   2.0000      -0.501026       -13.6336
 180   2.0000      -0.495567       -13.4851
 181   2.0000      -0.495126       -13.4731
 182   2.0000      -0.487163       -13.2564
 183   2.0000      -0.486472       -13.2376
 184   2.0000      -0.485401       -13.2084
 185   2.0000      -0.483115       -13.1462
 186   2.0000      -0.477620       -12.9967
 187   2.0000      -0.477074       -12.9819
 188   2.0000      -0.476223       -12.9587
 189   2.0000      -0.475459       -12.9379
 190   2.0000      -0.473812       -12.8931
 191   2.0000      -0.472792       -12.8653
 192   2.0000      -0.463815       -12.6211
 193   2.0000      -0.462351       -12.5812
 194   2.0000      -0.460115       -12.5204
 195   2.0000      -0.458843       -12.4857
 196   2.0000      -0.457540       -12.4503
 197   2.0000      -0.455831       -12.4038
 198   2.0000      -0.455289       -12.3890
 199   2.0000      -0.453964       -12.3530
 200   2.0000      -0.452740       -12.3197
 201   2.0000      -0.448434       -12.2025
 202   2.0000      -0.444777       -12.1030
 203   2.0000      -0.443033       -12.0555
 204   2.0000      -0.441364       -12.0101
 205   2.0000      -0.441200       -12.0057
 206   2.0000      -0.440449       -11.9852
 207   2.0000      -0.437763       -11.9121
 208   2.0000      -0.433262       -11.7897
 209   2.0000      -0.432647       -11.7729
 210   2.0000      -0.429458       -11.6861
 211   2.0000      -0.426068       -11.5939
 212   2.0000      -0.425569       -11.5803
 213   2.0000      -0.422983       -11.5099
 214   2.0000      -0.420639       -11.4462
 215   2.0000      -0.417657       -11.3650
 216   2.0000      -0.416623       -11.3369
 217   2.0000      -0.412272       -11.2185
 218   2.0000      -0.406926       -11.0730
 219   2.0000      -0.405298       -11.0287
 220   2.0000      -0.399488       -10.8706
 221   2.0000      -0.394559       -10.7365
 222   2.0000      -0.393055       -10.6956
 223   2.0000      -0.391390       -10.6503
 224   2.0000      -0.389955       -10.6112
 225   2.0000      -0.381746       -10.3878
 226   2.0000      -0.377601       -10.2751
 227   2.0000      -0.375017       -10.2047
 228   2.0000      -0.367468        -9.9993
 229   2.0000      -0.354170        -9.6375
 230   2.0000      -0.352218        -9.5843
 231   2.0000      -0.351314        -9.5597
 232   2.0000      -0.346811        -9.4372
 233   2.0000      -0.336583        -9.1589
 234   2.0000      -0.329390        -8.9631
 235   2.0000      -0.327477        -8.9111
 236   2.0000      -0.325573        -8.8593
 237   2.0000      -0.319698        -8.6994
 238   2.0000      -0.313896        -8.5415
 239   2.0000      -0.309790        -8.4298
 240   2.0000      -0.294891        -8.0244
 241   2.0000      -0.283010        -7.7011
 242   2.0000      -0.259018        -7.0482
 243   2.0000      -0.248796        -6.7701
 244   2.0000      -0.232613        -6.3297
 245   0.0000      -0.132856        -3.6152
 246   0.0000      -0.087438        -2.3793
 247   0.0000      -0.070239        -1.9113
 248   0.0000      -0.057317        -1.5597
 249   0.0000      -0.032436        -0.8826

MULLIKEN ATOMIC CHARGES
-----------------------
   0 C :    0.041764
   1 N :   -0.258076
   2 C :    0.112959
   3 C :   -0.002221
   4 C :    0.177673
   5 O :   -0.210923
   6 C :   -0.101382
   7 C :    0.000955
   8 C :    0.165067
   9 O :   -0.184588
  10 N :   -0.270845
  11 C :    0.096264
  12 C :    0.006304
  13 C :    0.167520
  14 C :   -0.012617
  15 C :    0.010998
  16 C :    0.105661
  17 C :   -0.123502
  18 C :    0.114723
  19 C :   -0.082310
  20 C :    0.001223
  21 C :   -0.180604
  22 N :    0.144786
  23 C :    0.122598
  24 C :   -0.116955
  25 C :    0.042463
  26 C :   -0.031208
  27 C :   -0.103713
  28 C :   -0.169398
  29 N :    0.126162
  30 C :    0.148287
  31 N :   -0.256899
  32 C :    0.103448
  33 C :    0.001731
  34 C :    0.166863
  35 O :   -0.225386
  36 C :   -0.072392
  37 C :   -0.048946
  38 C :    0.151653
  39 O :   -0.175436
  40 N :   -0.257189
  41 C :    0.090088
  42 C :    0.003816
  43 C :    0.125688
  44 C :   -0.016426
  45 C :    0.062692
  46 C :   -0.125190
  47 S :    0.173756
  48 C :   -0.140090
  49 C :    0.196539
  50 C :    0.123474
  51 N :    0.234671
  52 O :   -0.205591
  53 O :   -0.208304
  54 N :    0.266055
  55 O :   -0.250733
  56 O :   -0.244515
  57 C :   -0.063657
  58 C :    0.031074
  59 C :    0.033926
  60 N :   -0.022143
  61 C :    0.019728
  62 C :    0.048434
  63 C :   -0.141092
  64 C :    0.120711
  65 C :   -0.011486
  66 C :    0.011964
  67 C :    0.005541
  68 C :   -0.021774
  69 H :    0.017922
  70 H :    0.043421
  71 H :    0.019928
  72 H :    0.031208
  73 H :    0.024122
  74 H :    0.014474
  75 H :    0.043099
  76 H :    0.027578
  77 H :    0.027588
  78 H :    0.028384
  79 H :    0.015886
  80 H :   -0.013919
  81 H :    0.005028
  82 H :   -0.000896
  83 H :    0.008624
  84 H :    0.028095
  85 H :   -0.016292
  86 H :    0.038218
  87 H :    0.026802
  88 H :    0.034147
  89 H :    0.023936
  90 H :    0.021499
  91 H :    0.049874
  92 H :    0.034272
  93 H :    0.024153
  94 H :    0.028159
  95 H :    0.022883
  96 H :   -0.013520
  97 H :    0.003935
  98 H :   -0.003540
  99 H :   -0.004140
 100 H :    0.136300
 101 H :    0.006141
 102 H :    0.034756
 103 H :    0.004342
 104 H :    0.035129
 105 H :   -0.025628
 106 H :   -0.025176
 107 H :   -0.011681
 108 H :    0.011395
 109 H :    0.021820
Sum of atomic charges:   -0.0000000

LOEWDIN ATOMIC CHARGES
----------------------
   0 C :    0.092841
   1 N :    0.001973
   2 C :    0.038693
   3 C :   -0.059961
   4 C :    0.078707
   5 O :   -0.199972
   6 C :   -0.122697
   7 C :   -0.127368
   8 C :    0.081033
   9 O :   -0.188751
  10 N :   -0.007511
  11 C :    0.035878
  12 C :   -0.059915
  13 C :    0.081174
  14 C :   -0.020436
  15 C :    0.026984
  16 C :   -0.014745
  17 C :   -0.026917
  18 C :    0.046903
  19 C :   -0.078312
  20 C :    0.057652
  21 C :   -0.034184
  22 N :   -0.051717
  23 C :    0.027113
  24 C :    0.008576
  25 C :   -0.037378
  26 C :    0.039906
  27 C :   -0.082507
  28 C :   -0.028690
  29 N :   -0.072749
  30 C :    0.067403
  31 N :    0.002429
  32 C :    0.036728
  33 C :   -0.062901
  34 C :    0.078748
  35 O :   -0.212161
  36 C :   -0.125800
  37 C :   -0.100467
  38 C :    0.085056
  39 O :   -0.168582
  40 N :    0.004331
  41 C :    0.036550
  42 C :   -0.060234
  43 C :    0.087844
  44 C :   -0.037610
  45 C :    0.005958
  46 C :   -0.169244
  47 S :    0.484785
  48 C :   -0.114102
  49 C :   -0.086396
  50 C :   -0.028144
  51 N :    0.277378
  52 O :   -0.174710
  53 O :   -0.177514
  54 N :    0.289075
  55 O :   -0.214803
  56 O :   -0.204271
  57 C :   -0.094948
  58 C :    0.020733
  59 C :   -0.041247
  60 N :    0.109044
  61 C :    0.035473
  62 C :   -0.081754
  63 C :   -0.027835
  64 C :   -0.046494
  65 C :   -0.021805
  66 C :   -0.026474
  67 C :   -0.025375
  68 C :   -0.050826
  69 H :    0.033714
  70 H :    0.036593
  71 H :    0.025188
  72 H :    0.031818
  73 H :    0.030802
  74 H :    0.022403
  75 H :    0.038012
  76 H :    0.024288
  77 H :    0.031235
  78 H :    0.033240
  79 H :    0.022414
  80 H :    0.034470
  81 H :    0.038534
  82 H :    0.030316
  83 H :    0.041632
  84 H :    0.038790
  85 H :    0.034389
  86 H :    0.036948
  87 H :    0.024831
  88 H :    0.034661
  89 H :    0.031112
  90 H :    0.021253
  91 H :    0.040662
  92 H :    0.027270
  93 H :    0.030247
  94 H :    0.034097
  95 H :    0.023366
  96 H :    0.028378
  97 H :    0.038242
  98 H :    0.025924
  99 H :    0.029092
 100 H :    0.096711
 101 H :    0.025203
 102 H :    0.040421
 103 H :    0.030421
 104 H :    0.040561
 105 H :    0.026813
 106 H :    0.022275
 107 H :    0.027615
 108 H :    0.020379
 109 H :    0.024212

  Mayer bond orders larger than 0.100000
B(  0-C ,  1-N ) :   1.1981 B(  0-C ,  7-C ) :   1.4428 B(  0-C , 69-H ) :   0.9905
B(  1-N ,  2-C ) :   0.9399 B(  1-N ,  4-C ) :   1.0516 B(  2-C ,  3-C ) :   1.1187
B(  2-C , 70-H ) :   0.9349 B(  2-C , 71-H ) :   0.9536 B(  3-C , 72-H ) :   0.9672
B(  3-C , 73-H ) :   0.9687 B(  3-C , 74-H ) :   0.9696 B(  4-C ,  5-O ) :   2.0178
B(  4-C ,  6-C ) :   1.0052 B(  5-O , 81-H ) :   0.1102 B(  6-C ,  7-C ) :   1.2170
B(  6-C , 13-C ) :   1.3559 B(  7-C ,  8-C ) :   0.9476 B(  8-C ,  9-O ) :   2.1793
B(  8-C , 10-N ) :   1.0195 B( 10-N , 11-C ) :   0.9424 B( 10-N , 13-C ) :   1.1572
B( 11-C , 12-C ) :   1.1215 B( 11-C , 75-H ) :   0.9272 B( 11-C , 76-H ) :   0.9501
B( 12-C , 77-H ) :   0.9635 B( 12-C , 78-H ) :   0.9678 B( 12-C , 79-H ) :   0.9685
B( 13-C , 14-C ) :   1.1610 B( 14-C , 15-C ) :   1.5733 B( 14-C , 80-H ) :   0.9652
B( 15-C , 16-C ) :   1.1184 B( 15-C , 81-H ) :   0.9569 B( 16-C , 17-C ) :   1.5093
B( 16-C , 20-C ) :   1.0317 B( 17-C , 18-C ) :   1.1573 B( 17-C , 82-H ) :   0.9949
B( 18-C , 19-C ) :   1.1028 B( 18-C , 23-C ) :   1.3590 B( 19-C , 20-C ) :   1.6643
B( 19-C , 21-C ) :   1.0864 B( 20-C , 83-H ) :   1.0271 B( 21-C , 22-N ) :   2.9869
B( 23-C , 24-C ) :   1.1378 B( 23-C , 27-C ) :   1.1066 B( 24-C , 25-C ) :   1.5222
B( 24-C , 84-H ) :   0.9930 B( 25-C , 26-C ) :   1.0368 B( 25-C , 30-C ) :   1.0508
B( 26-C , 27-C ) :   1.6542 B( 26-C , 85-H ) :   1.0230 B( 27-C , 28-C ) :   1.0831
B( 28-C , 29-N ) :   2.9638 B( 30-C , 31-N ) :   1.1892 B( 30-C , 37-C ) :   1.3680
B( 31-N , 32-C ) :   0.9426 B( 31-N , 34-C ) :   1.0625 B( 32-C , 33-C ) :   1.1193
B( 32-C , 86-H ) :   0.9278 B( 32-C , 87-H ) :   0.9500 B( 33-C , 88-H ) :   0.9598
B( 33-C , 89-H ) :   0.9682 B( 33-C , 90-H ) :   0.9645 B( 34-C , 35-O ) :   1.9940
B( 34-C , 36-C ) :   0.9995 B( 35-O , 97-H ) :   0.1237 B( 36-C , 37-C ) :   1.2584
B( 36-C , 43-C ) :   1.2917 B( 37-C , 38-C ) :   0.9635 B( 38-C , 39-O ) :   2.1023
B( 38-C , 40-N ) :   1.0346 B( 40-N , 41-C ) :   0.9367 B( 40-N , 43-C ) :   1.1874
B( 41-C , 42-C ) :   1.1201 B( 41-C , 91-H ) :   0.9274 B( 41-C , 92-H ) :   0.9494
B( 42-C , 93-H ) :   0.9621 B( 42-C , 94-H ) :   0.9676 B( 42-C , 95-H ) :   0.9655
B( 43-C , 44-C ) :   1.1974 B( 44-C , 45-C ) :   1.6014 B( 44-C , 96-H ) :   0.9511
B( 45-C , 46-C ) :   1.1550 B( 45-C , 97-H ) :   0.9179 B( 46-C , 47-S ) :   1.0940
B( 46-C , 50-C ) :   1.5404 B( 47-S , 48-C ) :   1.1415 B( 48-C , 49-C ) :   1.3932
B( 48-C , 57-C ) :   1.2464 B( 49-C , 50-C ) :   1.2788 B( 49-C , 54-N ) :   0.9603
B( 50-C , 51-N ) :   0.8357 B( 51-N , 52-O ) :   1.5573 B( 51-N , 53-O ) :   1.5421
B( 52-O , 53-O ) :   0.2876 B( 54-N , 55-O ) :   1.4998 B( 54-N , 56-O ) :   1.5184
B( 55-O , 56-O ) :   0.2545 B( 57-C , 58-C ) :   1.4975 B( 57-C , 98-H ) :   0.9695
B( 58-C , 59-C ) :   1.1975 B( 58-C , 99-H ) :   0.9581 B( 59-C , 60-N ) :   1.1967
B( 59-C , 63-C ) :   1.3536 B( 60-N , 61-C ) :   1.2924 B( 60-N ,100-H ) :   0.9280
B( 61-C , 62-C ) :   1.3741 B( 61-C ,101-H ) :   0.9839 B( 62-C , 63-C ) :   1.3468
B( 62-C , 65-C ) :   1.0658 B( 63-C , 64-C ) :   1.1268 B( 64-C ,102-H ) :   0.9390
B( 64-C ,103-H ) :   0.9433 B( 64-C ,104-H ) :   0.9390 B( 65-C , 66-C ) :   1.7473
B( 65-C , 68-C ) :   0.1018 B( 65-C ,105-H ) :   0.9732 B( 66-C , 67-C ) :   1.1034
B( 66-C ,106-H ) :   0.9732 B( 67-C , 68-C ) :   1.9079 B( 67-C ,107-H ) :   0.9764
B( 68-C ,108-H ) :   0.9573 B( 68-C ,109-H ) :   0.9518

-----------------------------------------------------------------------------
         ABSORPTION SPECTRUM VIA TRANSITION ELECTRIC DIPOLE MOMENTS
-----------------------------------------------------------------------------
State   Energy  Wavelength   fosc         T2         TX        TY        TZ
        (cm-1)    (nm)                  (au**2)     (au)      (au)      (au)
-----------------------------------------------------------------------------
   0    7499.7   1333.4   0.643340310  28.24066  -1.94341   4.49867   2.05569
   1   11447.2    873.6   0.060794167   1.74838  -0.28608   0.69774   1.08614
   2   16892.9    592.0   0.071769709   1.39866   0.31746  -1.00524  -0.53608
   3   17154.5    582.9   0.645802765  12.39359  -1.01301   3.13397   1.24324
   4   18624.2    536.9   0.057675548   1.01950   0.15774  -0.46347  -0.88307
   5   19491.4    513.0   0.046341451   0.78271   0.01156  -0.08929  -0.88012
   6   21413.4    467.0   0.503858353   7.74638  -0.21126  -0.07162  -2.77428
   7   23349.8    428.3   0.033789624   0.47640   0.13492  -0.46710  -0.48991
   8   23594.0    423.8   0.003385785   0.04724  -0.16566  -0.13541   0.03823
   9   23637.1    423.1   0.408870718   5.69465   0.70590  -1.55043  -1.67108
  10   24259.9    412.2   0.081529313   1.10637  -0.41181   0.52984   0.80997
  11   24716.4    404.6   0.045388731   0.60456   0.20316  -0.63689  -0.39706
  12   25043.6    399.3   0.003704606   0.04870   0.13310  -0.10482   0.14141
  13   26041.4    384.0   0.116667366   1.47490  -0.30795   0.98817   0.63528
  14   26168.3    382.1   0.105793401   1.33094  -0.29623   0.85027   0.72126
  15   26267.6    380.7   0.220296140   2.76097  -0.48758   1.26985   0.95431
  16   26712.2    374.4   0.078980186   0.97339   0.44644  -0.80755  -0.34919
  17   26859.9    372.3   0.004972597   0.06095   0.01552  -0.07709   0.23402
  18   28422.5    351.8   0.106501464   1.23358   0.13385  -0.24262   1.07555
  19   28570.6    350.0   0.071411883   0.82286   0.17600   0.87914  -0.13783
  20   30006.3    333.3   0.016379271   0.17970   0.03644  -0.05248   0.41907
  21   30200.8    331.1   0.004795696   0.05228  -0.06252   0.12561  -0.18053
  22   30322.2    329.8   0.115108667   1.24975  -0.10658   0.32303  -1.06491
  23   31125.1    321.3   0.001780803   0.01884   0.00772   0.03920  -0.13130
  24   31645.7    316.0   0.182387596   1.89739  -0.36738   0.84441   1.02440
  25   31874.7    313.7   0.000549099   0.00567   0.00227  -0.03628   0.06596
  26   32836.4    304.5   0.000281076   0.00282  -0.01528  -0.03890   0.03273
  27   33205.8    301.2   0.087081982   0.86336   0.01294  -0.91368   0.16843
  28   33297.2    300.3   0.186221349   1.84118  -0.24730   1.19057   0.60215
  29   33396.2    299.4   0.017106742   0.16863  -0.08142   0.39231   0.08998
  30   33882.7    295.1   0.111365406   1.08205   0.42030  -0.91133  -0.27365
  31   34380.4    290.9   0.122804231   1.17592  -0.37517   0.79735   0.63198
  32   34579.4    289.2   0.034247316   0.32605  -0.08962  -0.51216   0.23604
  33   34964.1    286.0   0.005125906   0.04826  -0.10210  -0.01542   0.19391
  34   35321.7    283.1   0.039417776   0.36739  -0.19453  -0.51175   0.26012
  35   35424.1    282.3   0.002110991   0.01962   0.02861  -0.09775  -0.09616
  36   35730.7    279.9   0.054482014   0.50198  -0.12159  -0.05408  -0.69590
  37   35934.0    278.3   0.000740497   0.00678   0.05240  -0.04395   0.04590
  38   36102.4    277.0   0.065093561   0.59358  -0.05342   0.76657  -0.05566
  39   36830.6    271.5   0.061660283   0.55115  -0.16802   0.57753   0.43518
  40   37360.7    267.7   0.004049184   0.03568  -0.05176   0.16979   0.06459
  41   37608.6    265.9   0.008320733   0.07284  -0.03501   0.02589   0.26635
  42   38152.4    262.1   0.086712289   0.74823   0.02205   0.32704   0.80049
  43   38359.3    260.7   0.088918106   0.76312  -0.13841   0.62554   0.59385
  44   38463.0    260.0   0.223298398   1.91125   0.01718   1.35719  -0.26265
  45   38649.3    258.7   0.110979856   0.94532   0.37735   0.05342  -0.89447
  46   39364.4    254.0   0.000063232   0.00053  -0.00473   0.00427   0.02210
  47   39634.3    252.3   0.008898298   0.07391  -0.05969   0.16352   0.20883
  48   39801.1    251.2   0.002246655   0.01858  -0.04084  -0.11267  -0.06496
  49   39876.1    250.8   0.033239741   0.27442  -0.11229   0.48988   0.14775
  50   40225.9    248.6   0.023282771   0.19055   0.21455  -0.37954   0.02154
  51   40292.8    248.2   0.061406993   0.50173   0.30305  -0.60125  -0.21996

FINAL SINGLE POINT ENERGY     -3456.651429737991

DIPOLE MOMENT
-------------
                                X             Y             Z
Electronic contribution:     -8.16231      19.58529     -27.86677
Nuclear contribution   :      8.05083     -18.66781      30.53946
                        -----------------------------------------
Total Dipole Moment    :     -0.11148       0.91748       2.67269
                        -----------------------------------------
Magnitude (a.u.)       :      2.82798
Magnitude (Debye)      :      7.18816

Rotational constants in cm-1:     0.002523     0.000222     0.000207
Rotational constants in MHz :    75.645905     6.660427     6.211744

                             ****ORCA TERMINATED NORMALLY****
TOTAL RUN TIME: 0 days 0 hours 11 minutes 5 seconds 430 msec
