                         Program Version 4.2.0 -  RELEASE  -
|  1> # ORCA input file
|  2> # SCF done       -182.965025827101          0.000361799461
|  3> ! CAM-B3LYP def2-SVP def2/J RIJCOSX Grid4 TightSCF
|  4> %maxcore 5000
|  5> %tddft
|  6>     Mode sTDDFT
|  7>     Ethresh 5.0
|  8>     maxcore 5000
|  9> end
| 10>
| 11> %pal
| 12>   nprocs 6
| 13>   end
| 14> * xyz 0 1
| 15>    C       -2.16369        -2.48803         1.77862
| 16>    N       -1.32165        -1.71458         2.51313
| 17>    C       -0.67156        -2.10352         3.73886
| 18>    C       -1.64144        -2.09155         4.91773
| 19>    C       -1.19977        -0.41360         1.96246
| 20>    O       -0.50100         0.45374         2.44727
| 21>    C       -2.04654        -0.45717         0.79752
| 22>    C       -2.62716        -1.76011         0.71770
| 23>    C       -3.47743        -1.78526        -0.45264
| 24>    O       -4.17094        -2.65017        -0.93922
| 25>    N       -3.36524        -0.48511        -0.99849
| 26>    C       -4.03584        -0.18488        -2.23981
| 27>    C       -3.06965        -0.16355        -3.42196
| 28>    C       -2.51031         0.31032        -0.26265
| 29>    C       -2.12852         1.66431        -0.44752
| 30>    C       -2.55991         2.58014        -1.35305
| 31>    C       -2.07039         3.90713        -1.37048
| 32>    S       -2.67929         5.09640        -2.50671
| 33>    C       -1.65921         6.39006        -1.92813
| 34>    C       -0.87716         5.89595        -0.89303
| 35>    C       -1.11216         4.53191        -0.59262
| 36>    O       -0.28854         4.19107         0.42550
| 37>    C        0.38857         5.33101         0.69036
| 38>    N        0.09660         6.35291        -0.03468
| 39>    C       -1.71048         7.68968        -2.48867
| 40>    C       -0.90830         8.68770        -2.05430
| 41>    C       -0.88706        10.03878        -2.54918
| 42>    C       -1.81452        10.54050        -3.46273
| 43>    C       -1.76574        11.85696        -3.89164
| 44>    N       -2.81622        12.24392        -4.80331
| 45>    O       -3.23667        11.38784        -5.55113
| 46>    O       -3.24483        13.37868        -4.75490
| 47>    C       -0.75338        12.73884        -3.46564
| 48>    C        0.16887        12.21941        -2.54765
| 49>    C        0.10046        10.92494        -2.09161
| 50>    C       -0.64066        14.09902        -3.96113
| 51>    C        0.45880        14.85297        -3.91166
| 52>    C        0.50581        16.24184        -4.44279
| 53>    C        1.52328        16.40758        -5.58286
| 54>    O        1.76517        15.62966        -6.45200
| 55>    O        2.13564        17.59755        -5.46234
| 56>    C        1.60467        18.34940        -4.37702
| 57>    C        1.00798        17.28820        -3.43880
| 58>    C       -0.02603        17.80441        -2.44812
| 59>    C       -1.10193        18.65656        -3.10802
| 60>    C       -0.54749        19.78360        -3.97147
| 61>    C        0.58745        19.37468        -4.92829
| 62>    O        1.26229        20.58980        -5.22810
| 63>    C        1.00281        21.54907        -4.32673
| 64>    O        1.48771        22.63734        -4.37066
| 65>    C        0.04084        21.01430        -3.25715
| 66>    C        0.84336        20.76460        -2.02059
| 67>    C        0.45607        21.14074        -0.80256
| 68>    C        1.22174        20.94791         0.41974
| 69>    C        0.56971        20.97818         1.64743
| 70>    C        1.26439        20.78710         2.83371
| 71>    N        0.48679        20.76977         4.04536
| 72>    O       -0.59804        21.31398         4.01790
| 73>    O        0.94409        20.20237         5.01540
| 74>    C        2.65364        20.58950         2.84849
| 75>    C        3.29622        20.58055         1.60652
| 76>    C        2.60640        20.74386         0.42608
| 77>    C        3.43299        20.46643         4.07500
| 78>    C        4.50402        19.69200         4.19326
| 79>    H       -2.36780        -3.50481         2.05963
| 80>    H        0.12896        -1.37813         3.90762
| 81>    H       -0.23509        -3.09908         3.61448
| 82>    H       -2.05723        -1.09550         5.04838
| 83>    H       -1.12040        -2.37409         5.82815
| 84>    H       -2.45813        -2.79050         4.75060
| 85>    H       -4.58349         0.75675        -2.15053
| 86>    H       -4.76155        -0.99221        -2.38096
| 87>    H       -2.28184         0.57177        -3.27481
| 88>    H       -3.60843         0.07605        -4.33465
| 89>    H       -2.60976        -1.14197        -3.53720
| 90>    H       -1.39318         1.98407         0.28087
| 91>    H       -3.30417         2.35567        -2.09959
| 92>    H        1.11660         5.31265         1.47732
| 93>    H       -2.42258         7.83460        -3.28814
| 94>    H       -0.20342         8.45797        -1.26648
| 95>    H       -2.60893         9.91667        -3.84219
| 96>    H        0.94558        12.86558        -2.17150
| 97>    H        0.82287        10.57331        -1.37007
| 98>    H       -1.52602        14.51319        -4.42096
| 99>    H        1.38714        14.48450        -3.49882
|100>    H       -0.47430        16.51937        -4.84387
|101>    H        2.44449        18.89155        -3.93293
|102>    H        1.83511        16.83900        -2.87564
|103>    H        0.48057        18.38609        -1.67731
|104>    H       -0.49629        16.94801        -1.96111
|105>    H       -1.74112        19.08823        -2.33661
|106>    H       -1.73319        18.02368        -3.73473
|107>    H       -1.36738        20.15784        -4.59575
|108>    H        0.20191        18.98436        -5.87632
|109>    H       -0.73022        21.75560        -3.04013
|110>    H        1.80051        20.28392        -2.16729
|111>    H       -0.51419        21.60167        -0.67171
|112>    H       -0.49832        21.13253         1.69926
|113>    H        4.36901        20.46718         1.58450
|114>    H        3.15164        20.74939        -0.50484
|115>    H        3.09250        21.03948         4.92604
|116>    H        4.84446        19.05493         3.39344
|117>    H        5.05829        19.64159         5.11350
|118> *
|119>
|120>                          ****END OF INPUT****

CARTESIAN COORDINATES (ANGSTROEM)
---------------------------------
  C     -2.163690   -2.488030    1.778620
  N     -1.321650   -1.714580    2.513130
  C     -0.671560   -2.103520    3.738860
  C     -1.641440   -2.091550    4.917730
  C     -1.199770   -0.413600    1.962460
  O     -0.501000    0.453740    2.447270
  C     -2.046540   -0.457170    0.797520
  C     -2.627160   -1.760110    0.717700
  C     -3.477430   -1.785260   -0.452640
  O     -4.170940   -2.650170   -0.939220
  N     -3.365240   -0.485110   -0.998490
  C     -4.035840   -0.184880   -2.239810
  C     -3.069650   -0.163550   -3.421960
  C     -2.510310    0.310320   -0.262650
  C     -2.128520    1.664310   -0.447520
  C     -2.559910    2.580140   -1.353050
  C     -2.070390    3.907130   -1.370480
  S     -2.679290    5.096400   -2.506710
  C     -1.659210    6.390060   -1.928130
  C     -0.877160    5.895950   -0.893030
  C     -1.112160    4.531910   -0.592620
  O     -0.288540    4.191070    0.425500
  C      0.388570    5.331010    0.690360
  N      0.096600    6.352910   -0.034680
  C     -1.710480    7.689680   -2.488670
  C     -0.908300    8.687700   -2.054300
  C     -0.887060   10.038780   -2.549180
  C     -1.814520   10.540500   -3.462730
  C     -1.765740   11.856960   -3.891640
  N     -2.816220   12.243920   -4.803310
  O     -3.236670   11.387840   -5.551130
  O     -3.244830   13.378680   -4.754900
  C     -0.753380   12.738840   -3.465640
  C      0.168870   12.219410   -2.547650
  C      0.100460   10.924940   -2.091610
  C     -0.640660   14.099020   -3.961130
  C      0.458800   14.852970   -3.911660
  C      0.505810   16.241840   -4.442790
  C      1.523280   16.407580   -5.582860
  O      1.765170   15.629660   -6.452000
  O      2.135640   17.597550   -5.462340
  C      1.604670   18.349400   -4.377020
  C      1.007980   17.288200   -3.438800
  C     -0.026030   17.804410   -2.448120
  C     -1.101930   18.656560   -3.108020
  C     -0.547490   19.783600   -3.971470
  C      0.587450   19.374680   -4.928290
  O      1.262290   20.589800   -5.228100
  C      1.002810   21.549070   -4.326730
  O      1.487710   22.637340   -4.370660
  C      0.040840   21.014300   -3.257150
  C      0.843360   20.764600   -2.020590
  C      0.456070   21.140740   -0.802560
  C      1.221740   20.947910    0.419740
  C      0.569710   20.978180    1.647430
  C      1.264390   20.787100    2.833710
  N      0.486790   20.769770    4.045360
  O     -0.598040   21.313980    4.017900
  O      0.944090   20.202370    5.015400
  C      2.653640   20.589500    2.848490
  C      3.296220   20.580550    1.606520
  C      2.606400   20.743860    0.426080
  C      3.432990   20.466430    4.075000
  C      4.504020   19.692000    4.193260
  H     -2.367800   -3.504810    2.059630
  H      0.128960   -1.378130    3.907620
  H     -0.235090   -3.099080    3.614480
  H     -2.057230   -1.095500    5.048380
  H     -1.120400   -2.374090    5.828150
  H     -2.458130   -2.790500    4.750600
  H     -4.583490    0.756750   -2.150530
  H     -4.761550   -0.992210   -2.380960
  H     -2.281840    0.571770   -3.274810
  H     -3.608430    0.076050   -4.334650
  H     -2.609760   -1.141970   -3.537200
  H     -1.393180    1.984070    0.280870
  H     -3.304170    2.355670   -2.099590
  H      1.116600    5.312650    1.477320
  H     -2.422580    7.834600   -3.288140
  H     -0.203420    8.457970   -1.266480
  H     -2.608930    9.916670   -3.842190
  H      0.945580   12.865580   -2.171500
  H      0.822870   10.573310   -1.370070
  H     -1.526020   14.513190   -4.420960
  H      1.387140   14.484500   -3.498820
  H     -0.474300   16.519370   -4.843870
  H      2.444490   18.891550   -3.932930
  H      1.835110   16.839000   -2.875640
  H      0.480570   18.386090   -1.677310
  H     -0.496290   16.948010   -1.961110
  H     -1.741120   19.088230   -2.336610
  H     -1.733190   18.023680   -3.734730
  H     -1.367380   20.157840   -4.595750
  H      0.201910   18.984360   -5.876320
  H     -0.730220   21.755600   -3.040130
  H      1.800510   20.283920   -2.167290
  H     -0.514190   21.601670   -0.671710
  H     -0.498320   21.132530    1.699260
  H      4.369010   20.467180    1.584500
  H      3.151640   20.749390   -0.504840
  H      3.092500   21.039480    4.926040
  H      4.844460   19.054930    3.393440
  H      5.058290   19.641590    5.113500

 Total Charge           Charge          ....    0
 Multiplicity           Mult            ....    1
 Number of Electrons    NEL             ....  460
 Basis Dimension        Dim             .... 1095

ORBITAL ENERGIES
----------------

  NO   OCC          E(Eh)            E(eV)
   0   2.0000     -88.976931     -2421.1854
   1   2.0000     -19.314923      -525.5858
   2   2.0000     -19.268809      -524.3309
   3   2.0000     -19.267001      -524.2818
   4   2.0000     -19.248601      -523.7811
   5   2.0000     -19.247939      -523.7630
   6   2.0000     -19.246370      -523.7204
   7   2.0000     -19.244167      -523.6604
   8   2.0000     -19.205820      -522.6169
   9   2.0000     -19.205441      -522.6066
  10   2.0000     -19.183791      -522.0175
  11   2.0000     -19.182164      -521.9732
  12   2.0000     -14.653176      -398.7332
  13   2.0000     -14.650954      -398.6727
  14   2.0000     -14.449075      -393.1793
  15   2.0000     -14.447150      -393.1269
  16   2.0000     -14.428012      -392.6062
  17   2.0000     -10.403019      -283.0805
  18   2.0000     -10.402070      -283.0547
  19   2.0000     -10.383214      -282.5416
  20   2.0000     -10.368405      -282.1387
  21   2.0000     -10.367118      -282.1036
  22   2.0000     -10.351099      -281.6677
  23   2.0000     -10.350778      -281.6590
  24   2.0000     -10.348037      -281.5844
  25   2.0000     -10.336492      -281.2702
  26   2.0000     -10.335649      -281.2473
  27   2.0000     -10.334936      -281.2279
  28   2.0000     -10.327665      -281.0301
  29   2.0000     -10.323376      -280.9133
  30   2.0000     -10.322887      -280.9000
  31   2.0000     -10.315686      -280.7041
  32   2.0000     -10.313144      -280.6349
  33   2.0000     -10.313055      -280.6325
  34   2.0000     -10.306708      -280.4598
  35   2.0000     -10.305878      -280.4372
  36   2.0000     -10.304835      -280.4088
  37   2.0000     -10.304697      -280.4051
  38   2.0000     -10.304190      -280.3913
  39   2.0000     -10.304132      -280.3897
  40   2.0000     -10.303515      -280.3729
  41   2.0000     -10.303150      -280.3630
  42   2.0000     -10.301645      -280.3220
  43   2.0000     -10.300773      -280.2983
  44   2.0000     -10.300372      -280.2874
  45   2.0000     -10.300021      -280.2778
  46   2.0000     -10.299291      -280.2580
  47   2.0000     -10.297319      -280.2043
  48   2.0000     -10.295879      -280.1651
  49   2.0000     -10.295579      -280.1570
  50   2.0000     -10.295003      -280.1413
  51   2.0000     -10.293936      -280.1123
  52   2.0000     -10.293406      -280.0978
  53   2.0000     -10.289769      -279.9989
  54   2.0000     -10.289221      -279.9840
  55   2.0000     -10.287583      -279.9394
  56   2.0000     -10.285668      -279.8873
  57   2.0000     -10.284988      -279.8687
  58   2.0000     -10.284197      -279.8472
  59   2.0000     -10.274428      -279.5814
  60   2.0000     -10.263422      -279.2819
  61   2.0000     -10.261536      -279.2306
  62   2.0000     -10.254765      -279.0464
  63   2.0000     -10.254486      -279.0388
  64   2.0000      -8.071876      -219.6469
  65   2.0000      -6.041226      -164.3901
  66   2.0000      -6.037269      -164.2824
  67   2.0000      -6.033790      -164.1878
  68   2.0000      -1.329135       -36.1676
  69   2.0000      -1.326404       -36.0933
  70   2.0000      -1.244329       -33.8599
  71   2.0000      -1.208324       -32.8802
  72   2.0000      -1.200139       -32.6574
  73   2.0000      -1.147211       -31.2172
  74   2.0000      -1.144565       -31.1452
  75   2.0000      -1.126122       -30.6433
  76   2.0000      -1.119400       -30.4604
  77   2.0000      -1.117169       -30.3997
  78   2.0000      -1.111830       -30.2544
  79   2.0000      -1.056685       -28.7539
  80   2.0000      -1.047696       -28.5093
  81   2.0000      -1.037883       -28.2422
  82   2.0000      -0.995397       -27.0861
  83   2.0000      -0.994726       -27.0679
  84   2.0000      -0.991906       -26.9911
  85   2.0000      -0.963406       -26.2156
  86   2.0000      -0.939937       -25.5770
  87   2.0000      -0.929995       -25.3064
  88   2.0000      -0.923423       -25.1276
  89   2.0000      -0.921100       -25.0644
  90   2.0000      -0.910993       -24.7894
  91   2.0000      -0.902902       -24.5692
  92   2.0000      -0.900181       -24.4952
  93   2.0000      -0.890666       -24.2363
  94   2.0000      -0.878992       -23.9186
  95   2.0000      -0.870670       -23.6921
  96   2.0000      -0.862214       -23.4620
  97   2.0000      -0.856639       -23.3103
  98   2.0000      -0.852452       -23.1964
  99   2.0000      -0.842875       -22.9358
 100   2.0000      -0.831540       -22.6274
 101   2.0000      -0.819223       -22.2922
 102   2.0000      -0.817224       -22.2378
 103   2.0000      -0.804942       -21.9036
 104   2.0000      -0.795642       -21.6505
 105   2.0000      -0.788387       -21.4531
 106   2.0000      -0.786181       -21.3931
 107   2.0000      -0.769530       -20.9400
 108   2.0000      -0.757847       -20.6221
 109   2.0000      -0.750752       -20.4290
 110   2.0000      -0.749324       -20.3901
 111   2.0000      -0.740301       -20.1446
 112   2.0000      -0.736623       -20.0445
 113   2.0000      -0.716862       -19.5068
 114   2.0000      -0.712603       -19.3909
 115   2.0000      -0.708390       -19.2763
 116   2.0000      -0.702439       -19.1143
 117   2.0000      -0.701080       -19.0773
 118   2.0000      -0.685318       -18.6485
 119   2.0000      -0.678109       -18.4523
 120   2.0000      -0.674577       -18.3562
 121   2.0000      -0.669896       -18.2288
 122   2.0000      -0.668594       -18.1934
 123   2.0000      -0.665506       -18.1093
 124   2.0000      -0.661464       -17.9993
 125   2.0000      -0.650512       -17.7013
 126   2.0000      -0.646963       -17.6048
 127   2.0000      -0.646088       -17.5809
 128   2.0000      -0.639316       -17.3967
 129   2.0000      -0.635829       -17.3018
 130   2.0000      -0.635581       -17.2950
 131   2.0000      -0.629246       -17.1227
 132   2.0000      -0.627100       -17.0643
 133   2.0000      -0.617927       -16.8147
 134   2.0000      -0.613200       -16.6860
 135   2.0000      -0.604296       -16.4437
 136   2.0000      -0.601845       -16.3770
 137   2.0000      -0.600180       -16.3317
 138   2.0000      -0.595091       -16.1932
 139   2.0000      -0.592648       -16.1268
 140   2.0000      -0.589598       -16.0438
 141   2.0000      -0.588536       -16.0149
 142   2.0000      -0.585618       -15.9355
 143   2.0000      -0.582016       -15.8375
 144   2.0000      -0.577754       -15.7215
 145   2.0000      -0.574835       -15.6420
 146   2.0000      -0.571393       -15.5484
 147   2.0000      -0.570101       -15.5132
 148   2.0000      -0.562866       -15.3164
 149   2.0000      -0.561866       -15.2892
 150   2.0000      -0.558374       -15.1941
 151   2.0000      -0.555565       -15.1177
 152   2.0000      -0.552821       -15.0430
 153   2.0000      -0.548121       -14.9151
 154   2.0000      -0.545511       -14.8441
 155   2.0000      -0.543186       -14.7809
 156   2.0000      -0.539309       -14.6753
 157   2.0000      -0.536273       -14.5927
 158   2.0000      -0.532594       -14.4926
 159   2.0000      -0.529710       -14.4142
 160   2.0000      -0.529058       -14.3964
 161   2.0000      -0.526328       -14.3221
 162   2.0000      -0.525084       -14.2883
 163   2.0000      -0.521008       -14.1773
 164   2.0000      -0.514720       -14.0063
 165   2.0000      -0.510877       -13.9017
 166   2.0000      -0.509713       -13.8700
 167   2.0000      -0.505359       -13.7515
 168   2.0000      -0.502970       -13.6865
 169   2.0000      -0.499284       -13.5862
 170   2.0000      -0.497059       -13.5257
 171   2.0000      -0.494068       -13.4443
 172   2.0000      -0.492710       -13.4073
 173   2.0000      -0.487032       -13.2528
 174   2.0000      -0.485934       -13.2229
 175   2.0000      -0.485051       -13.1989
 176   2.0000      -0.482865       -13.1394
 177   2.0000      -0.480306       -13.0698
 178   2.0000      -0.476267       -12.9599
 179   2.0000      -0.469014       -12.7625
 180   2.0000      -0.468804       -12.7568
 181   2.0000      -0.466172       -12.6852
 182   2.0000      -0.463603       -12.6153
 183   2.0000      -0.461903       -12.5690
 184   2.0000      -0.459136       -12.4937
 185   2.0000      -0.456649       -12.4261
 186   2.0000      -0.454405       -12.3650
 187   2.0000      -0.453939       -12.3523
 188   2.0000      -0.450254       -12.2520
 189   2.0000      -0.448928       -12.2160
 190   2.0000      -0.448298       -12.1988
 191   2.0000      -0.447302       -12.1717
 192   2.0000      -0.445931       -12.1344
 193   2.0000      -0.443853       -12.0779
 194   2.0000      -0.442456       -12.0398
 195   2.0000      -0.439704       -11.9649
 196   2.0000      -0.435869       -11.8606
 197   2.0000      -0.433503       -11.7962
 198   2.0000      -0.429930       -11.6990
 199   2.0000      -0.425916       -11.5898
 200   2.0000      -0.418546       -11.3892
 201   2.0000      -0.415716       -11.3122
 202   2.0000      -0.415115       -11.2959
 203   2.0000      -0.409403       -11.1404
 204   2.0000      -0.408018       -11.1027
 205   2.0000      -0.400219       -10.8905
 206   2.0000      -0.395587       -10.7645
 207   2.0000      -0.390801       -10.6342
 208   2.0000      -0.387883       -10.5548
 209   2.0000      -0.386369       -10.5136
 210   2.0000      -0.383124       -10.4253
 211   2.0000      -0.382657       -10.4126
 212   2.0000      -0.381144       -10.3715
 213   2.0000      -0.378030       -10.2867
 214   2.0000      -0.373172       -10.1545
 215   2.0000      -0.366087        -9.9617
 216   2.0000      -0.360431        -9.8078
 217   2.0000      -0.357610        -9.7311
 218   2.0000      -0.349994        -9.5238
 219   2.0000      -0.345846        -9.4110
 220   2.0000      -0.344788        -9.3822
 221   2.0000      -0.341251        -9.2859
 222   2.0000      -0.340755        -9.2724
 223   2.0000      -0.326138        -8.8747
 224   2.0000      -0.324479        -8.8295
 225   2.0000      -0.311923        -8.4879
 226   2.0000      -0.309176        -8.4131
 227   2.0000      -0.299019        -8.1367
 228   2.0000      -0.269006        -7.3200
 229   2.0000      -0.234732        -6.3874
 230   0.0000      -0.084287        -2.2936
 231   0.0000      -0.056111        -1.5269
 232   0.0000      -0.053607        -1.4587
 233   0.0000      -0.039463        -1.0738
 234   0.0000      -0.028169        -0.7665

MULLIKEN ATOMIC CHARGES
-----------------------
   0 C :    0.045801
   1 N :   -0.265702
   2 C :    0.112197
   3 C :   -0.001002
   4 C :    0.157471
   5 O :   -0.200748
   6 C :   -0.079192
   7 C :    0.005822
   8 C :    0.161922
   9 O :   -0.189449
  10 N :   -0.280112
  11 C :    0.098194
  12 C :   -0.000411
  13 C :    0.143714
  14 C :   -0.069841
  15 C :    0.103552
  16 C :   -0.218392
  17 S :    0.158552
  18 C :   -0.195738
  19 C :    0.053684
  20 C :    0.202149
  21 O :   -0.188331
  22 C :    0.197382
  23 N :   -0.075104
  24 C :    0.069222
  25 C :   -0.019466
  26 C :    0.116424
  27 C :   -0.053375
  28 C :    0.138121
  29 N :    0.244969
  30 O :   -0.226244
  31 O :   -0.234593
  32 C :    0.073964
  33 C :   -0.042169
  34 C :    0.015451
  35 C :   -0.029123
  36 C :    0.053591
  37 C :   -0.115010
  38 C :    0.195327
  39 O :   -0.141152
  40 O :   -0.258222
  41 C :    0.169953
  42 C :   -0.088397
  43 C :    0.117968
  44 C :    0.095447
  45 C :   -0.081730
  46 C :    0.158803
  47 O :   -0.254951
  48 C :    0.169974
  49 O :   -0.149031
  50 C :   -0.050612
  51 C :    0.001315
  52 C :    0.024322
  53 C :    0.098912
  54 C :   -0.073641
  55 C :    0.136864
  56 N :    0.244534
  57 O :   -0.236810
  58 O :   -0.229057
  59 C :    0.043323
  60 C :   -0.034820
  61 C :    0.011104
  62 C :    0.002049
  63 C :   -0.022437
  64 H :    0.014218
  65 H :    0.040565
  66 H :    0.016945
  67 H :    0.029460
  68 H :    0.021970
  69 H :    0.014827
  70 H :    0.022216
  71 H :    0.044892
  72 H :    0.020889
  73 H :    0.019997
  74 H :    0.027199
  75 H :    0.016889
  76 H :   -0.033168
  77 H :    0.042673
  78 H :   -0.022918
  79 H :    0.000000
  80 H :   -0.002572
  81 H :   -0.018002
  82 H :   -0.010226
  83 H :    0.010699
  84 H :   -0.002533
  85 H :    0.034535
  86 H :    0.019086
  87 H :    0.009719
  88 H :    0.017441
  89 H :    0.009198
  90 H :    0.008619
  91 H :    0.013751
  92 H :    0.022251
  93 H :    0.022324
  94 H :    0.027744
  95 H :   -0.000910
  96 H :   -0.007667
  97 H :    0.000099
  98 H :   -0.008965
  99 H :   -0.009525
 100 H :    0.017008
 101 H :    0.020646
 102 H :    0.033407
Sum of atomic charges:    0.0000000

LOEWDIN ATOMIC CHARGES
----------------------
   0 C :    0.093360
   1 N :   -0.003930
   2 C :    0.037776
   3 C :   -0.060737
   4 C :    0.075329
   5 O :   -0.203269
   6 C :   -0.122531
   7 C :   -0.132735
   8 C :    0.083666
   9 O :   -0.191768
  10 N :   -0.014267
  11 C :    0.033436
  12 C :   -0.063763
  13 C :    0.077574
  14 C :   -0.036954
  15 C :   -0.020918
  16 C :   -0.203014
  17 S :    0.458732
  18 C :   -0.173107
  19 C :   -0.062983
  20 C :    0.005942
  21 O :    0.004807
  22 C :    0.105955
  23 N :   -0.100619
  24 C :   -0.034209
  25 C :   -0.006158
  26 C :   -0.023237
  27 C :    0.010624
  28 C :   -0.021412
  29 N :    0.287125
  30 O :   -0.193802
  31 O :   -0.199947
  32 C :   -0.007022
  33 C :   -0.006590
  34 C :    0.007846
  35 C :   -0.028811
  36 C :    0.005240
  37 C :   -0.062204
  38 C :    0.077675
  39 O :   -0.136250
  40 O :   -0.070547
  41 C :    0.065961
  42 C :   -0.031516
  43 C :   -0.028353
  44 C :   -0.025600
  45 C :   -0.033757
  46 C :    0.068186
  47 O :   -0.068244
  48 C :    0.078310
  49 O :   -0.140478
  50 C :   -0.053522
  51 C :   -0.010552
  52 C :   -0.018221
  53 C :   -0.027826
  54 C :    0.005644
  55 C :   -0.028342
  56 N :    0.284469
  57 O :   -0.204326
  58 O :   -0.189600
  59 C :   -0.000726
  60 C :   -0.006261
  61 C :    0.007862
  62 C :   -0.018231
  63 C :   -0.031189
  64 H :    0.032215
  65 H :    0.035675
  66 H :    0.024000
  67 H :    0.031397
  68 H :    0.029598
  69 H :    0.022233
  70 H :    0.018403
  71 H :    0.037708
  72 H :    0.021368
  73 H :    0.029619
  74 H :    0.032425
  75 H :    0.045899
  76 H :    0.029129
  77 H :    0.031599
  78 H :    0.029086
  79 H :    0.035450
  80 H :    0.035517
  81 H :    0.031691
  82 H :    0.035287
  83 H :    0.028183
  84 H :    0.023700
  85 H :    0.042603
  86 H :    0.026291
  87 H :    0.031670
  88 H :    0.028046
  89 H :    0.033386
  90 H :    0.033563
  91 H :    0.027209
  92 H :    0.038740
  93 H :    0.031600
  94 H :    0.046579
  95 H :    0.018715
  96 H :    0.031915
  97 H :    0.039081
  98 H :    0.035441
  99 H :    0.032795
 100 H :    0.032938
 101 H :    0.021446
 102 H :    0.029809

  Mayer bond orders larger than 0.100000
B(  0-C ,  1-N ) :   1.1962 B(  0-C ,  7-C ) :   1.4515 B(  0-C , 64-H ) :   0.9895
B(  1-N ,  2-C ) :   0.9436 B(  1-N ,  4-C ) :   1.0281 B(  2-C ,  3-C ) :   1.1194
B(  2-C , 65-H ) :   0.9343 B(  2-C , 66-H ) :   0.9539 B(  3-C , 67-H ) :   0.9673
B(  3-C , 68-H ) :   0.9689 B(  3-C , 69-H ) :   0.9690 B(  4-C ,  5-O ) :   2.1164
B(  4-C ,  6-C ) :   0.9981 B(  6-C ,  7-C ) :   1.1946 B(  6-C , 13-C ) :   1.3796
B(  7-C ,  8-C ) :   0.9538 B(  8-C ,  9-O ) :   2.1655 B(  8-C , 10-N ) :   1.0187
B( 10-N , 11-C ) :   0.9478 B( 10-N , 13-C ) :   1.1539 B( 11-C , 12-C ) :   1.1160
B( 11-C , 70-H ) :   0.9509 B( 11-C , 71-H ) :   0.9229 B( 12-C , 72-H ) :   0.9681
B( 12-C , 73-H ) :   0.9680 B( 12-C , 74-H ) :   0.9622 B( 13-C , 14-C ) :   1.1862
B( 14-C , 15-C ) :   1.5683 B( 14-C , 75-H ) :   0.9480 B( 15-C , 16-C ) :   1.1476
B( 15-C , 76-H ) :   0.9601 B( 16-C , 17-S ) :   1.1000 B( 16-C , 18-C ) :   0.1177
B( 16-C , 20-C ) :   1.4310 B( 17-S , 18-C ) :   1.1275 B( 18-C , 19-C ) :   1.4031
B( 18-C , 24-C ) :   1.1438 B( 19-C , 20-C ) :   1.2737 B( 19-C , 23-N ) :   1.2695
B( 20-C , 21-O ) :   1.1116 B( 21-O , 22-C ) :   1.1220 B( 22-C , 23-N ) :   1.7722
B( 22-C , 77-H ) :   0.9853 B( 24-C , 25-C ) :   1.6722 B( 24-C , 78-H ) :   0.9545
B( 25-C , 26-C ) :   1.0672 B( 25-C , 79-H ) :   0.9779 B( 26-C , 27-C ) :   1.3065
B( 26-C , 34-C ) :   1.3097 B( 27-C , 28-C ) :   1.3903 B( 27-C , 80-H ) :   0.9873
B( 28-C , 29-N ) :   0.8693 B( 28-C , 32-C ) :   1.3590 B( 29-N , 30-O ) :   1.5604
B( 29-N , 31-O ) :   1.5174 B( 30-O , 31-O ) :   0.2648 B( 32-C , 33-C ) :   1.3404
B( 32-C , 35-C ) :   1.0499 B( 33-C , 34-C ) :   1.4000 B( 33-C , 81-H ) :   0.9875
B( 34-C , 82-H ) :   1.0001 B( 35-C , 36-C ) :   1.8097 B( 35-C , 83-H ) :   0.9693
B( 36-C , 37-C ) :   1.0151 B( 36-C , 84-H ) :   0.9585 B( 37-C , 38-C ) :   0.8740
B( 37-C , 42-C ) :   0.9627 B( 37-C , 85-H ) :   0.9027 B( 38-C , 39-O ) :   2.2655
B( 38-C , 40-O ) :   1.1295 B( 40-O , 41-C ) :   0.9572 B( 41-C , 42-C ) :   1.0087
B( 41-C , 46-C ) :   0.9721 B( 41-C , 86-H ) :   0.9126 B( 42-C , 43-C ) :   1.0676
B( 42-C , 87-H ) :   0.9144 B( 43-C , 44-C ) :   1.0662 B( 43-C , 88-H ) :   0.9284
B( 43-C , 89-H ) :   0.9193 B( 44-C , 45-C ) :   1.0623 B( 44-C , 90-H ) :   0.9239
B( 44-C , 91-H ) :   0.9365 B( 45-C , 46-C ) :   1.0115 B( 45-C , 50-C ) :   0.9937
B( 45-C , 92-H ) :   0.9083 B( 46-C , 47-O ) :   0.9658 B( 46-C , 93-H ) :   0.9181
B( 47-O , 48-C ) :   1.1275 B( 48-C , 49-O ) :   2.2523 B( 48-C , 50-C ) :   0.8898
B( 50-C , 51-C ) :   1.0013 B( 50-C , 94-H ) :   0.9139 B( 51-C , 52-C ) :   1.8453
B( 51-C , 95-H ) :   0.9420 B( 52-C , 53-C ) :   1.0383 B( 52-C , 96-H ) :   0.9785
B( 53-C , 54-C ) :   1.3082 B( 53-C , 61-C ) :   1.3355 B( 54-C , 55-C ) :   1.3599
B( 54-C , 97-H ) :   1.0010 B( 55-C , 56-N ) :   0.8810 B( 55-C , 59-C ) :   1.3666
B( 56-N , 57-O ) :   1.5535 B( 56-N , 58-O ) :   1.5306 B( 57-O , 58-O ) :   0.2665
B( 59-C , 60-C ) :   1.3527 B( 59-C , 62-C ) :   1.0449 B( 60-C , 61-C ) :   1.4010
B( 60-C , 98-H ) :   0.9899 B( 61-C , 99-H ) :   0.9925 B( 62-C , 63-C ) :   1.9718
B( 62-C ,100-H ) :   0.9452 B( 63-C ,101-H ) :   0.9615 B( 63-C ,102-H ) :   0.9518

-----------------------------------------------------------------------------
         ABSORPTION SPECTRUM VIA TRANSITION ELECTRIC DIPOLE MOMENTS
-----------------------------------------------------------------------------
State   Energy  Wavelength   fosc         T2         TX        TY        TZ
        (cm-1)    (nm)                  (au**2)     (au)      (au)      (au)
-----------------------------------------------------------------------------
   0   18550.8    539.1   1.280425933  22.72309  -0.01398  -4.30243   2.05231
   1   24752.0    404.0   0.627522923   8.34630   0.76623   2.77170  -0.27724
   2   26188.2    381.9   0.101178362   1.27191  -0.73507  -0.69261  -0.50188
   3   27732.7    360.6   0.109581873   1.30084   0.31353   1.08002   0.18996
   4   28698.0    348.5   0.010304151   0.11821   0.19198   0.22986   0.16886
   5   30491.5    328.0   0.000428598   0.00463  -0.05277   0.01887   0.03855
   6   32364.1    309.0   0.132586152   1.34868  -1.09201   0.20490  -0.33796
   7   32861.7    304.3   0.000067554   0.00068   0.02293  -0.01227  -0.00067
   8   33451.5    298.9   0.044975960   0.44263   0.30271   0.59092  -0.04254
   9   34271.6    291.8   0.041169765   0.39548  -0.24361   0.26243  -0.51697
  10   34638.5    288.7   0.102556784   0.97472   0.64461  -0.15529   0.73150
  11   35055.5    285.3   0.008326854   0.07820   0.18887  -0.02330   0.20490
  12   35309.8    283.2   0.001912710   0.01783   0.07453   0.07064   0.08537
  13   37303.6    268.1   0.089982903   0.79412  -0.66523  -0.41306  -0.42540
  14   37719.0    265.1   0.071103299   0.62059  -0.47714   0.01038   0.62675
  15   38808.6    257.7   0.128577516   1.09072   0.70006   0.43479   0.64156
  16   38888.7    257.1   0.002229775   0.01888   0.08922   0.04201   0.09567
  17   39453.8    253.5   0.008283787   0.06912  -0.22655   0.01358  -0.13270
  18   39535.2    252.9   0.105102076   0.87519  -0.65847   0.33053  -0.57650
  19   39623.0    252.4   0.001304619   0.01084  -0.05905   0.02234  -0.08279
  20   40064.6    249.6   0.075686203   0.62192  -0.53442  -0.55099  -0.18089

FINAL SINGLE POINT ENERGY     -3309.995281234315

DIPOLE MOMENT
-------------
                                X             Y             Z
Electronic contribution:     -5.79432       6.00173     -12.73067
Nuclear contribution   :      6.42351      -7.06786      14.51327
                        -----------------------------------------
Total Dipole Moment    :      0.62919      -1.06613       1.78260
                        -----------------------------------------
Magnitude (a.u.)       :      2.17029
Magnitude (Debye)      :      5.51644

Rotational constants in cm-1:     0.001769     0.000249     0.000225
Rotational constants in MHz :    53.033395     7.465146     6.754122

                             ****ORCA TERMINATED NORMALLY****
TOTAL RUN TIME: 0 days 0 hours 7 minutes 47 seconds 901 msec
