                         Program Version 4.2.0 -  RELEASE  -
|  1> # ORCA input file
|  2> # SCF done       -197.204033148244          0.000486283232
|  3> ! CAM-B3LYP def2-SVP def2/J RIJCOSX Grid4 TightSCF
|  4> %maxcore 5000
|  5> %tddft
|  6>     Mode sTDDFT
|  7>     Ethresh 5.0
|  8>     maxcore 5000
|  9> end
| 10>
| 11> %pal
| 12>   nprocs 6
| 13>   end
| 14> * xyz 0 1
| 15>    C       -3.73290        -1.52859        -3.52838
| 16>    N       -4.70118        -0.69054        -3.99266
| 17>    C       -5.68033        -1.01201        -4.99973
| 18>    C       -5.06572        -1.02811        -6.39703
| 19>    C       -4.59337         0.59014        -3.41513
| 20>    O       -5.36185         1.50321        -3.67352
| 21>    C       -3.46206         0.48653        -2.53331
| 22>    C       -2.95825        -0.85426        -2.63088
| 23>    C       -1.83723        -0.97632        -1.72341
| 24>    O       -1.09729        -1.89636        -1.45443
| 25>    N       -1.74406         0.29666        -1.12453
| 26>    C       -0.68572         0.60028        -0.19319
| 27>    C        0.43687         1.40173        -0.84858
| 28>    C       -2.69477         1.17165        -1.60379
| 29>    C       -2.80965         2.51555        -1.14444
| 30>    C       -3.67049         3.40112        -1.68942
| 31>    C       -3.79846         4.78503        -1.28563
| 32>    C       -4.98874         5.50080        -1.53118
| 33>    O       -6.10804         4.92356        -2.05632
| 34>    C       -6.56938         3.67333        -1.56646
| 35>    C       -5.04341         6.88174        -1.26491
| 36>    O       -6.13659         7.67577        -1.43447
| 37>    C       -7.44627         7.14816        -1.38819
| 38>    C       -3.90050         7.53989        -0.77980
| 39>    C       -2.75662         6.80458        -0.47075
| 40>    C       -2.70873         5.45673        -0.71900
| 41>    C       -3.88208         8.96733        -0.50140
| 42>    N       -4.23409         9.96019        -1.37376
| 43>    C       -4.54689         9.81867        -2.77477
| 44>    C       -3.34680         9.31742        -3.57356
| 45>    C       -4.05401        11.24429        -0.80209
| 46>    O       -4.28508        12.27703        -1.39681
| 47>    C       -3.57361        10.97227         0.52902
| 48>    C       -3.46238         9.55850         0.67386
| 49>    C       -2.99268         9.29211         2.00912
| 50>    O       -2.74843         8.26262         2.60585
| 51>    N       -2.82223        10.57460         2.58553
| 52>    C       -2.46102        10.67365         3.97809
| 53>    C       -3.61866        11.16856         4.84101
| 54>    C       -3.16705        11.58034         1.70485
| 55>    C       -3.11119        12.99849         1.86430
| 56>    C       -2.50180        13.72493         2.82122
| 57>    C       -2.40583        15.17420         2.80472
| 58>    C       -3.41814        16.01378         2.30438
| 59>    O       -4.65339        15.52813         1.95350
| 60>    C       -5.35518        14.75189         2.90575
| 61>    C       -3.17278        17.39127         2.16166
| 62>    O       -3.98891        18.29891         1.58320
| 63>    C       -5.38664        18.10247         1.51324
| 64>    C       -1.93129        17.91195         2.57424
| 65>    C       -0.96578        17.08125         3.13083
| 66>    C       -1.20503        15.73327         3.25081
| 67>    C       -1.73869        19.35547         2.53005
| 68>    N       -0.66059        19.97648         1.95632
| 69>    C        0.31897        19.36174         1.09342
| 70>    C       -0.30485        18.90153        -0.22081
| 71>    C       -0.72550        21.37909         2.11191
| 72>    O        0.11778        22.13400         1.66657
| 73>    C       -1.93080        21.59849         2.87295
| 74>    C       -2.53255        20.32013         3.10292
| 75>    C       -3.73200        20.51900         3.87604
| 76>    O       -4.56771        19.75573         4.31649
| 77>    N       -3.79002        21.91778         4.05577
| 78>    C       -4.84203        22.51966         4.83579
| 79>    C       -4.38000        22.85602         6.25232
| 80>    C       -2.72269        22.56157         3.46939
| 81>    C       -2.54656        23.98722         3.50249
| 82>    C       -1.50060        24.60019         2.94635
| 83>    H       -3.67469        -2.54666        -3.86586
| 84>    H       -6.45100        -0.23865        -4.94022
| 85>    H       -6.12728        -1.98373        -4.76882
| 86>    H       -4.64652        -0.05268        -6.63145
| 87>    H       -5.82777        -1.26655        -7.13372
| 88>    H       -4.27372        -1.77127        -6.45955
| 89>    H       -0.29804        -0.36534         0.14393
| 90>    H       -1.09337         1.13492         0.66985
| 91>    H        0.86637         0.83345        -1.66998
| 92>    H        1.21775         1.60598        -0.12118
| 93>    H        0.06499         2.34626        -1.24000
| 94>    H       -2.18998         2.80317        -0.30779
| 95>    H       -4.28969         3.07668        -2.51305
| 96>    H       -6.49361         2.91541        -2.34852
| 97>    H       -7.62113         3.80505        -1.29560
| 98>    H       -6.00852         3.35034        -0.68815
| 99>    H       -7.58387         6.49503        -0.52314
|100>    H       -7.69842         6.60631        -2.30145
|101>    H       -8.09399         8.01948        -1.28672
|102>    H       -1.90544         7.31716        -0.05307
|103>    H       -1.79702         4.91515        -0.52683
|104>    H       -4.83081        10.81942        -3.11334
|105>    H       -5.39553         9.14412        -2.89646
|106>    H       -2.50210         9.99141        -3.44794
|107>    H       -3.60201         9.27328        -4.62872
|108>    H       -3.05324         8.32270        -3.24449
|109>    H       -1.57800        11.30723         4.09841
|110>    H       -2.19240         9.65477         4.27619
|111>    H       -3.93548        12.16422         4.53982
|112>    H       -3.31405        11.19803         5.88374
|113>    H       -4.46489        10.49259         4.74543
|114>    H       -3.57552        13.51871         1.03535
|115>    H       -1.93215        13.24723         3.60450
|116>    H       -6.34065        15.20678         3.03592
|117>    H       -5.47961        13.72956         2.53951
|118>    H       -4.84149        14.73139         3.86863
|119>    H       -5.77940        19.04484         1.13204
|120>    H       -5.80326        17.91743         2.50536
|121>    H       -5.65052        17.28956         0.83474
|122>    H       -0.04533        17.50635         3.50057
|123>    H       -0.44761        15.08444         3.66433
|124>    H        0.78895        18.51660         1.60222
|125>    H        1.07390        20.13046         0.90471
|126>    H       -1.07070        18.15129        -0.03678
|127>    H        0.45964        18.47200        -0.86240
|128>    H       -0.75978        19.74485        -0.73474
|129>    H       -5.64388        21.77671         4.88069
|130>    H       -5.21760        23.41206         4.32664
|131>    H       -4.05639        21.95028         6.75926
|132>    H       -5.19959        23.29592         6.81422
|133>    H       -3.54886        23.55769         6.23517
|134>    H       -3.31343        24.56318         4.00213
|135>    H       -0.72606        24.04655         2.44295
|136>    H       -1.39731        25.67105         2.98295
|137> *
|138>
|139>                          ****END OF INPUT****

CARTESIAN COORDINATES (ANGSTROEM)
---------------------------------
  C     -3.732900   -1.528590   -3.528380
  N     -4.701180   -0.690540   -3.992660
  C     -5.680330   -1.012010   -4.999730
  C     -5.065720   -1.028110   -6.397030
  C     -4.593370    0.590140   -3.415130
  O     -5.361850    1.503210   -3.673520
  C     -3.462060    0.486530   -2.533310
  C     -2.958250   -0.854260   -2.630880
  C     -1.837230   -0.976320   -1.723410
  O     -1.097290   -1.896360   -1.454430
  N     -1.744060    0.296660   -1.124530
  C     -0.685720    0.600280   -0.193190
  C      0.436870    1.401730   -0.848580
  C     -2.694770    1.171650   -1.603790
  C     -2.809650    2.515550   -1.144440
  C     -3.670490    3.401120   -1.689420
  C     -3.798460    4.785030   -1.285630
  C     -4.988740    5.500800   -1.531180
  O     -6.108040    4.923560   -2.056320
  C     -6.569380    3.673330   -1.566460
  C     -5.043410    6.881740   -1.264910
  O     -6.136590    7.675770   -1.434470
  C     -7.446270    7.148160   -1.388190
  C     -3.900500    7.539890   -0.779800
  C     -2.756620    6.804580   -0.470750
  C     -2.708730    5.456730   -0.719000
  C     -3.882080    8.967330   -0.501400
  N     -4.234090    9.960190   -1.373760
  C     -4.546890    9.818670   -2.774770
  C     -3.346800    9.317420   -3.573560
  C     -4.054010   11.244290   -0.802090
  O     -4.285080   12.277030   -1.396810
  C     -3.573610   10.972270    0.529020
  C     -3.462380    9.558500    0.673860
  C     -2.992680    9.292110    2.009120
  O     -2.748430    8.262620    2.605850
  N     -2.822230   10.574600    2.585530
  C     -2.461020   10.673650    3.978090
  C     -3.618660   11.168560    4.841010
  C     -3.167050   11.580340    1.704850
  C     -3.111190   12.998490    1.864300
  C     -2.501800   13.724930    2.821220
  C     -2.405830   15.174200    2.804720
  C     -3.418140   16.013780    2.304380
  O     -4.653390   15.528130    1.953500
  C     -5.355180   14.751890    2.905750
  C     -3.172780   17.391270    2.161660
  O     -3.988910   18.298910    1.583200
  C     -5.386640   18.102470    1.513240
  C     -1.931290   17.911950    2.574240
  C     -0.965780   17.081250    3.130830
  C     -1.205030   15.733270    3.250810
  C     -1.738690   19.355470    2.530050
  N     -0.660590   19.976480    1.956320
  C      0.318970   19.361740    1.093420
  C     -0.304850   18.901530   -0.220810
  C     -0.725500   21.379090    2.111910
  O      0.117780   22.134000    1.666570
  C     -1.930800   21.598490    2.872950
  C     -2.532550   20.320130    3.102920
  C     -3.732000   20.519000    3.876040
  O     -4.567710   19.755730    4.316490
  N     -3.790020   21.917780    4.055770
  C     -4.842030   22.519660    4.835790
  C     -4.380000   22.856020    6.252320
  C     -2.722690   22.561570    3.469390
  C     -2.546560   23.987220    3.502490
  C     -1.500600   24.600190    2.946350
  H     -3.674690   -2.546660   -3.865860
  H     -6.451000   -0.238650   -4.940220
  H     -6.127280   -1.983730   -4.768820
  H     -4.646520   -0.052680   -6.631450
  H     -5.827770   -1.266550   -7.133720
  H     -4.273720   -1.771270   -6.459550
  H     -0.298040   -0.365340    0.143930
  H     -1.093370    1.134920    0.669850
  H      0.866370    0.833450   -1.669980
  H      1.217750    1.605980   -0.121180
  H      0.064990    2.346260   -1.240000
  H     -2.189980    2.803170   -0.307790
  H     -4.289690    3.076680   -2.513050
  H     -6.493610    2.915410   -2.348520
  H     -7.621130    3.805050   -1.295600
  H     -6.008520    3.350340   -0.688150
  H     -7.583870    6.495030   -0.523140
  H     -7.698420    6.606310   -2.301450
  H     -8.093990    8.019480   -1.286720
  H     -1.905440    7.317160   -0.053070
  H     -1.797020    4.915150   -0.526830
  H     -4.830810   10.819420   -3.113340
  H     -5.395530    9.144120   -2.896460
  H     -2.502100    9.991410   -3.447940
  H     -3.602010    9.273280   -4.628720
  H     -3.053240    8.322700   -3.244490
  H     -1.578000   11.307230    4.098410
  H     -2.192400    9.654770    4.276190
  H     -3.935480   12.164220    4.539820
  H     -3.314050   11.198030    5.883740
  H     -4.464890   10.492590    4.745430
  H     -3.575520   13.518710    1.035350
  H     -1.932150   13.247230    3.604500
  H     -6.340650   15.206780    3.035920
  H     -5.479610   13.729560    2.539510
  H     -4.841490   14.731390    3.868630
  H     -5.779400   19.044840    1.132040
  H     -5.803260   17.917430    2.505360
  H     -5.650520   17.289560    0.834740
  H     -0.045330   17.506350    3.500570
  H     -0.447610   15.084440    3.664330
  H      0.788950   18.516600    1.602220
  H      1.073900   20.130460    0.904710
  H     -1.070700   18.151290   -0.036780
  H      0.459640   18.472000   -0.862400
  H     -0.759780   19.744850   -0.734740
  H     -5.643880   21.776710    4.880690
  H     -5.217600   23.412060    4.326640
  H     -4.056390   21.950280    6.759260
  H     -5.199590   23.295920    6.814220
  H     -3.548860   23.557690    6.235170
  H     -3.313430   24.563180    4.002130
  H     -0.726060   24.046550    2.442950
  H     -1.397310   25.671050    2.982950

 Total Charge           Charge          ....    0
 Multiplicity           Mult            ....    1
 Number of Electrons    NEL             ....  488
 Basis Dimension        Dim             .... 1222

ORBITAL ENERGIES
----------------

  NO   OCC          E(Eh)            E(eV)
   0   2.0000     -19.246678      -523.7287
   1   2.0000     -19.242068      -523.6033
   2   2.0000     -19.236610      -523.4548
   3   2.0000     -19.233276      -523.3640
   4   2.0000     -19.187814      -522.1270
   5   2.0000     -19.185517      -522.0645
   6   2.0000     -19.178432      -521.8717
   7   2.0000     -19.177261      -521.8398
   8   2.0000     -19.175307      -521.7866
   9   2.0000     -19.173370      -521.7339
  10   2.0000     -14.451408      -393.2428
  11   2.0000     -14.449831      -393.1999
  12   2.0000     -14.441278      -392.9672
  13   2.0000     -14.440017      -392.9329
  14   2.0000     -14.439104      -392.9080
  15   2.0000     -14.438514      -392.8920
  16   2.0000     -10.371131      -282.2128
  17   2.0000     -10.370093      -282.1846
  18   2.0000     -10.361274      -281.9446
  19   2.0000     -10.361208      -281.9428
  20   2.0000     -10.359514      -281.8967
  21   2.0000     -10.356877      -281.8250
  22   2.0000     -10.341636      -281.4102
  23   2.0000     -10.340392      -281.3764
  24   2.0000     -10.339610      -281.3551
  25   2.0000     -10.333976      -281.2018
  26   2.0000     -10.330765      -281.1144
  27   2.0000     -10.330508      -281.1074
  28   2.0000     -10.327395      -281.0227
  29   2.0000     -10.324984      -280.9571
  30   2.0000     -10.324340      -280.9396
  31   2.0000     -10.322384      -280.8863
  32   2.0000     -10.315320      -280.6941
  33   2.0000     -10.314899      -280.6827
  34   2.0000     -10.311372      -280.5867
  35   2.0000     -10.308332      -280.5040
  36   2.0000     -10.306515      -280.4545
  37   2.0000     -10.299085      -280.2523
  38   2.0000     -10.298724      -280.2425
  39   2.0000     -10.297984      -280.2224
  40   2.0000     -10.293610      -280.1034
  41   2.0000     -10.292967      -280.0859
  42   2.0000     -10.288212      -279.9565
  43   2.0000     -10.288106      -279.9536
  44   2.0000     -10.287244      -279.9301
  45   2.0000     -10.286497      -279.9098
  46   2.0000     -10.285278      -279.8766
  47   2.0000     -10.283417      -279.8260
  48   2.0000     -10.280578      -279.7488
  49   2.0000     -10.279438      -279.7177
  50   2.0000     -10.277289      -279.6592
  51   2.0000     -10.273790      -279.5641
  52   2.0000     -10.273405      -279.5536
  53   2.0000     -10.273209      -279.5482
  54   2.0000     -10.268978      -279.4331
  55   2.0000     -10.268349      -279.4160
  56   2.0000     -10.264626      -279.3147
  57   2.0000     -10.263122      -279.2737
  58   2.0000     -10.258675      -279.1527
  59   2.0000     -10.256997      -279.1071
  60   2.0000     -10.256283      -279.0876
  61   2.0000     -10.254741      -279.0457
  62   2.0000     -10.249306      -278.8978
  63   2.0000     -10.248872      -278.8860
  64   2.0000     -10.248540      -278.8769
  65   2.0000     -10.246409      -278.8190
  66   2.0000     -10.243034      -278.7271
  67   2.0000     -10.240394      -278.6553
  68   2.0000      -1.157977       -31.5102
  69   2.0000      -1.149287       -31.2737
  70   2.0000      -1.134997       -30.8849
  71   2.0000      -1.129283       -30.7293
  72   2.0000      -1.128283       -30.7021
  73   2.0000      -1.122617       -30.5480
  74   2.0000      -1.119374       -30.4597
  75   2.0000      -1.117379       -30.4054
  76   2.0000      -1.112553       -30.2741
  77   2.0000      -1.110497       -30.2181
  78   2.0000      -1.059925       -28.8420
  79   2.0000      -1.051470       -28.6120
  80   2.0000      -1.049911       -28.5695
  81   2.0000      -1.048490       -28.5309
  82   2.0000      -1.040798       -28.3216
  83   2.0000      -1.040115       -28.3030
  84   2.0000      -0.959316       -26.1043
  85   2.0000      -0.953560       -25.9477
  86   2.0000      -0.925160       -25.1749
  87   2.0000      -0.916362       -24.9355
  88   2.0000      -0.913192       -24.8492
  89   2.0000      -0.910089       -24.7648
  90   2.0000      -0.901436       -24.5293
  91   2.0000      -0.880904       -23.9706
  92   2.0000      -0.875342       -23.8193
  93   2.0000      -0.868050       -23.6208
  94   2.0000      -0.860504       -23.4155
  95   2.0000      -0.857412       -23.3314
  96   2.0000      -0.852299       -23.1922
  97   2.0000      -0.849335       -23.1116
  98   2.0000      -0.843394       -22.9499
  99   2.0000      -0.818860       -22.2823
 100   2.0000      -0.814067       -22.1519
 101   2.0000      -0.809122       -22.0173
 102   2.0000      -0.807590       -21.9756
 103   2.0000      -0.806110       -21.9354
 104   2.0000      -0.794600       -21.6222
 105   2.0000      -0.791915       -21.5491
 106   2.0000      -0.789531       -21.4842
 107   2.0000      -0.770589       -20.9688
 108   2.0000      -0.761532       -20.7223
 109   2.0000      -0.759766       -20.6743
 110   2.0000      -0.756466       -20.5845
 111   2.0000      -0.752192       -20.4682
 112   2.0000      -0.749889       -20.4055
 113   2.0000      -0.748108       -20.3571
 114   2.0000      -0.741583       -20.1795
 115   2.0000      -0.710229       -19.3263
 116   2.0000      -0.708380       -19.2760
 117   2.0000      -0.702422       -19.1139
 118   2.0000      -0.696911       -18.9639
 119   2.0000      -0.694143       -18.8886
 120   2.0000      -0.685908       -18.6645
 121   2.0000      -0.684467       -18.6253
 122   2.0000      -0.683931       -18.6107
 123   2.0000      -0.673610       -18.3299
 124   2.0000      -0.667332       -18.1590
 125   2.0000      -0.656561       -17.8659
 126   2.0000      -0.650792       -17.7090
 127   2.0000      -0.644963       -17.5503
 128   2.0000      -0.644340       -17.5334
 129   2.0000      -0.637669       -17.3518
 130   2.0000      -0.635321       -17.2880
 131   2.0000      -0.621472       -16.9111
 132   2.0000      -0.612775       -16.6745
 133   2.0000      -0.608576       -16.5602
 134   2.0000      -0.600729       -16.3467
 135   2.0000      -0.596829       -16.2405
 136   2.0000      -0.592867       -16.1327
 137   2.0000      -0.591884       -16.1060
 138   2.0000      -0.587154       -15.9773
 139   2.0000      -0.583774       -15.8853
 140   2.0000      -0.578944       -15.7539
 141   2.0000      -0.575662       -15.6646
 142   2.0000      -0.573524       -15.6064
 143   2.0000      -0.571667       -15.5558
 144   2.0000      -0.566134       -15.4053
 145   2.0000      -0.564245       -15.3539
 146   2.0000      -0.559358       -15.2209
 147   2.0000      -0.557351       -15.1663
 148   2.0000      -0.555904       -15.1269
 149   2.0000      -0.554339       -15.0843
 150   2.0000      -0.551718       -15.0130
 151   2.0000      -0.548586       -14.9278
 152   2.0000      -0.546635       -14.8747
 153   2.0000      -0.545342       -14.8395
 154   2.0000      -0.544381       -14.8134
 155   2.0000      -0.538446       -14.6519
 156   2.0000      -0.535996       -14.5852
 157   2.0000      -0.533088       -14.5061
 158   2.0000      -0.528891       -14.3919
 159   2.0000      -0.527807       -14.3624
 160   2.0000      -0.522498       -14.2179
 161   2.0000      -0.521150       -14.1812
 162   2.0000      -0.519813       -14.1448
 163   2.0000      -0.517549       -14.0832
 164   2.0000      -0.516025       -14.0417
 165   2.0000      -0.515000       -14.0139
 166   2.0000      -0.512696       -13.9512
 167   2.0000      -0.512219       -13.9382
 168   2.0000      -0.509066       -13.8524
 169   2.0000      -0.506906       -13.7936
 170   2.0000      -0.506099       -13.7717
 171   2.0000      -0.504611       -13.7312
 172   2.0000      -0.503859       -13.7107
 173   2.0000      -0.499664       -13.5966
 174   2.0000      -0.499407       -13.5895
 175   2.0000      -0.496103       -13.4997
 176   2.0000      -0.495792       -13.4912
 177   2.0000      -0.494903       -13.4670
 178   2.0000      -0.490176       -13.3384
 179   2.0000      -0.488066       -13.2810
 180   2.0000      -0.484383       -13.1807
 181   2.0000      -0.478292       -13.0150
 182   2.0000      -0.475315       -12.9340
 183   2.0000      -0.471407       -12.8276
 184   2.0000      -0.469644       -12.7797
 185   2.0000      -0.462736       -12.5917
 186   2.0000      -0.462176       -12.5765
 187   2.0000      -0.460987       -12.5441
 188   2.0000      -0.460591       -12.5333
 189   2.0000      -0.459608       -12.5066
 190   2.0000      -0.457271       -12.4430
 191   2.0000      -0.456081       -12.4106
 192   2.0000      -0.455340       -12.3904
 193   2.0000      -0.454229       -12.3602
 194   2.0000      -0.452684       -12.3181
 195   2.0000      -0.451669       -12.2905
 196   2.0000      -0.448183       -12.1957
 197   2.0000      -0.447191       -12.1687
 198   2.0000      -0.445640       -12.1265
 199   2.0000      -0.442822       -12.0498
 200   2.0000      -0.442409       -12.0386
 201   2.0000      -0.440740       -11.9931
 202   2.0000      -0.439587       -11.9618
 203   2.0000      -0.438528       -11.9330
 204   2.0000      -0.436300       -11.8723
 205   2.0000      -0.431119       -11.7313
 206   2.0000      -0.429378       -11.6840
 207   2.0000      -0.428190       -11.6516
 208   2.0000      -0.426286       -11.5998
 209   2.0000      -0.423977       -11.5370
 210   2.0000      -0.421659       -11.4739
 211   2.0000      -0.417977       -11.3737
 212   2.0000      -0.414822       -11.2879
 213   2.0000      -0.413697       -11.2573
 214   2.0000      -0.411768       -11.2048
 215   2.0000      -0.410012       -11.1570
 216   2.0000      -0.407931       -11.1004
 217   2.0000      -0.404190       -10.9986
 218   2.0000      -0.401751       -10.9322
 219   2.0000      -0.398148       -10.8342
 220   2.0000      -0.393032       -10.6949
 221   2.0000      -0.390851       -10.6356
 222   2.0000      -0.385541       -10.4911
 223   2.0000      -0.369741       -10.0612
 224   2.0000      -0.362215        -9.8564
 225   2.0000      -0.353241        -9.6122
 226   2.0000      -0.344610        -9.3773
 227   2.0000      -0.343946        -9.3592
 228   2.0000      -0.337243        -9.1769
 229   2.0000      -0.334304        -9.0969
 230   2.0000      -0.332450        -9.0464
 231   2.0000      -0.327907        -8.9228
 232   2.0000      -0.318731        -8.6731
 233   2.0000      -0.316322        -8.6076
 234   2.0000      -0.310978        -8.4622
 235   2.0000      -0.303194        -8.2503
 236   2.0000      -0.300697        -8.1824
 237   2.0000      -0.298630        -8.1261
 238   2.0000      -0.296244        -8.0612
 239   2.0000      -0.285330        -7.7642
 240   2.0000      -0.279960        -7.6181
 241   2.0000      -0.249136        -6.7793
 242   2.0000      -0.236848        -6.4450
 243   2.0000      -0.229047        -6.2327
 244   0.0000      -0.072840        -1.9821
 245   0.0000      -0.056612        -1.5405
 246   0.0000      -0.042389        -1.1535
 247   0.0000      -0.001390        -0.0378
 248   0.0000       0.015973         0.4347

MULLIKEN ATOMIC CHARGES
-----------------------
   0 C :    0.032683
   1 N :   -0.257366
   2 C :    0.111175
   3 C :   -0.001073
   4 C :    0.176170
   5 O :   -0.231126
   6 C :   -0.108964
   7 C :    0.007305
   8 C :    0.167658
   9 O :   -0.185306
  10 N :   -0.273004
  11 C :    0.095804
  12 C :    0.002625
  13 C :    0.161373
  14 C :   -0.018093
  15 C :   -0.036955
  16 C :    0.046119
  17 C :    0.106224
  18 O :   -0.343227
  19 C :    0.166648
  20 C :    0.178592
  21 O :   -0.325279
  22 C :    0.199151
  23 C :   -0.079997
  24 C :    0.032779
  25 C :   -0.034778
  26 C :    0.114565
  27 N :   -0.255569
  28 C :    0.110119
  29 C :   -0.008221
  30 C :    0.149668
  31 O :   -0.192063
  32 C :   -0.053642
  33 C :   -0.028507
  34 C :    0.125582
  35 O :   -0.203127
  36 N :   -0.280535
  37 C :    0.105678
  38 C :    0.003192
  39 C :    0.103040
  40 C :   -0.021677
  41 C :   -0.049684
  42 C :    0.079702
  43 C :    0.061896
  44 O :   -0.346219
  45 C :    0.195962
  46 C :    0.215000
  47 O :   -0.306109
  48 C :    0.200398
  49 C :   -0.099401
  50 C :    0.008631
  51 C :   -0.040340
  52 C :    0.101560
  53 N :   -0.259028
  54 C :    0.112386
  55 C :   -0.002765
  56 C :    0.161743
  57 O :   -0.209423
  58 C :   -0.079139
  59 C :    0.005114
  60 C :    0.129285
  61 O :   -0.208849
  62 N :   -0.271009
  63 C :    0.098237
  64 C :    0.005072
  65 C :    0.111037
  66 C :   -0.037294
  67 C :    0.010890
  68 H :    0.012958
  69 H :    0.039853
  70 H :    0.017419
  71 H :    0.030033
  72 H :    0.023131
  73 H :    0.016165
  74 H :    0.044126
  75 H :    0.025294
  76 H :    0.029455
  77 H :    0.024112
  78 H :    0.014921
  79 H :   -0.018819
  80 H :    0.044258
  81 H :    0.058652
  82 H :    0.014912
  83 H :    0.033498
  84 H :    0.012291
  85 H :    0.039899
  86 H :    0.029830
  87 H :   -0.012630
  88 H :   -0.027996
  89 H :    0.036435
  90 H :    0.033201
  91 H :    0.019392
  92 H :    0.018756
  93 H :    0.025200
  94 H :    0.019645
  95 H :    0.041646
  96 H :    0.009580
  97 H :    0.019894
  98 H :    0.023912
  99 H :    0.030504
 100 H :   -0.012580
 101 H :    0.024712
 102 H :    0.038593
 103 H :    0.031422
 104 H :    0.021141
 105 H :    0.021670
 106 H :    0.035451
 107 H :   -0.016552
 108 H :   -0.030247
 109 H :    0.011728
 110 H :    0.041228
 111 H :    0.034525
 112 H :    0.017995
 113 H :    0.023927
 114 H :    0.038771
 115 H :    0.020111
 116 H :    0.027776
 117 H :    0.018978
 118 H :    0.015647
 119 H :   -0.021076
 120 H :    0.055086
 121 H :    0.026876
Sum of atomic charges:   -0.0000000

LOEWDIN ATOMIC CHARGES
----------------------
   0 C :    0.082935
   1 N :    0.001515
   2 C :    0.037829
   3 C :   -0.060514
   4 C :    0.078363
   5 O :   -0.218508
   6 C :   -0.140481
   7 C :   -0.125382
   8 C :    0.083568
   9 O :   -0.188518
  10 N :   -0.008619
  11 C :    0.035141
  12 C :   -0.061391
  13 C :    0.093508
  14 C :   -0.056594
  15 C :    0.048347
  16 C :   -0.055012
  17 C :    0.032291
  18 O :   -0.112143
  19 C :    0.076156
  20 C :    0.046249
  21 O :   -0.098862
  22 C :    0.079946
  23 C :   -0.050693
  24 C :    0.002073
  25 C :   -0.018729
  26 C :    0.095409
  27 N :    0.007015
  28 C :    0.031785
  29 C :   -0.063086
  30 C :    0.080576
  31 O :   -0.193801
  32 C :   -0.117443
  33 C :   -0.133280
  34 C :    0.079357
  35 O :   -0.206071
  36 N :   -0.013530
  37 C :    0.033843
  38 C :   -0.063776
  39 C :    0.069111
  40 C :   -0.027215
  41 C :   -0.005776
  42 C :   -0.042863
  43 C :    0.022772
  44 O :   -0.115608
  45 C :    0.082310
  46 C :    0.062931
  47 O :   -0.088259
  48 C :    0.079436
  49 C :   -0.058787
  50 C :   -0.015314
  51 C :   -0.031664
  52 C :    0.092120
  53 N :    0.002272
  54 C :    0.035694
  55 C :   -0.060476
  56 C :    0.082061
  57 O :   -0.201858
  58 C :   -0.128155
  59 C :   -0.120964
  60 C :    0.082061
  61 O :   -0.209222
  62 N :   -0.006808
  63 C :    0.034342
  64 C :   -0.062167
  65 C :    0.078481
  66 C :   -0.054632
  67 C :    0.018693
  68 H :    0.031758
  69 H :    0.034998
  70 H :    0.024172
  71 H :    0.031621
  72 H :    0.030059
  73 H :    0.022734
  74 H :    0.037887
  75 H :    0.022805
  76 H :    0.032261
  77 H :    0.030867
  78 H :    0.021179
  79 H :    0.028652
  80 H :    0.040920
  81 H :    0.023447
  82 H :    0.014997
  83 H :    0.019342
  84 H :    0.014007
  85 H :    0.017981
  86 H :    0.023464
  87 H :    0.037722
  88 H :    0.028288
  89 H :    0.032950
  90 H :    0.021310
  91 H :    0.026444
  92 H :    0.029297
  93 H :    0.023489
  94 H :    0.017243
  95 H :    0.036182
  96 H :    0.018990
  97 H :    0.029818
  98 H :    0.030516
  99 H :    0.048524
 100 H :    0.027767
 101 H :    0.019061
 102 H :    0.018874
 103 H :    0.018964
 104 H :    0.021511
 105 H :    0.016376
 106 H :    0.014734
 107 H :    0.031216
 108 H :    0.027401
 109 H :    0.019979
 110 H :    0.034680
 111 H :    0.028160
 112 H :    0.028738
 113 H :    0.029595
 114 H :    0.035422
 115 H :    0.021126
 116 H :    0.031567
 117 H :    0.028456
 118 H :    0.021963
 119 H :    0.028114
 120 H :    0.032457
 121 H :    0.027926

  Mayer bond orders larger than 0.100000
B(  0-C ,  1-N ) :   1.1779 B(  0-C ,  7-C ) :   1.4725 B(  0-C , 68-H ) :   0.9906
B(  1-N ,  2-C ) :   0.9447 B(  1-N ,  4-C ) :   1.0709 B(  2-C ,  3-C ) :   1.1188
B(  2-C , 69-H ) :   0.9343 B(  2-C , 70-H ) :   0.9537 B(  3-C , 71-H ) :   0.9673
B(  3-C , 72-H ) :   0.9687 B(  3-C , 73-H ) :   0.9690 B(  4-C ,  5-O ) :   1.9524
B(  4-C ,  6-C ) :   1.0196 B(  6-C ,  7-C ) :   1.1974 B(  6-C , 13-C ) :   1.3774
B(  7-C ,  8-C ) :   0.9481 B(  8-C ,  9-O ) :   2.1765 B(  8-C , 10-N ) :   1.0138
B( 10-N , 11-C ) :   0.9484 B( 10-N , 13-C ) :   1.1613 B( 11-C , 12-C ) :   1.1199
B( 11-C , 74-H ) :   0.9271 B( 11-C , 75-H ) :   0.9500 B( 12-C , 76-H ) :   0.9636
B( 12-C , 77-H ) :   0.9676 B( 12-C , 78-H ) :   0.9683 B( 13-C , 14-C ) :   1.1356
B( 14-C , 15-C ) :   1.6537 B( 14-C , 79-H ) :   0.9602 B( 15-C , 16-C ) :   1.0408
B( 15-C , 80-H ) :   0.9527 B( 16-C , 17-C ) :   1.3048 B( 16-C , 23-C ) :   0.1066
B( 16-C , 25-C ) :   1.3154 B( 17-C , 18-O ) :   1.1613 B( 17-C , 20-C ) :   1.2897
B( 18-O , 19-C ) :   0.9091 B( 19-C , 81-H ) :   0.9673 B( 19-C , 82-H ) :   0.9676
B( 19-C , 83-H ) :   0.9601 B( 20-C , 21-O ) :   1.1789 B( 20-C , 23-C ) :   1.3790
B( 21-O , 22-C ) :   0.9272 B( 22-C , 84-H ) :   0.9743 B( 22-C , 85-H ) :   0.9744
B( 22-C , 86-H ) :   0.9763 B( 23-C , 24-C ) :   1.3632 B( 23-C , 26-C ) :   0.9605
B( 24-C , 25-C ) :   1.3751 B( 24-C , 87-H ) :   1.0015 B( 25-C , 88-H ) :   0.9979
B( 26-C , 27-N ) :   1.2219 B( 26-C , 33-C ) :   1.4440 B( 27-N , 28-C ) :   0.9464
B( 27-N , 30-C ) :   1.0220 B( 28-C , 29-C ) :   1.1201 B( 28-C , 89-H ) :   0.9285
B( 28-C , 90-H ) :   0.9363 B( 29-C , 91-H ) :   0.9653 B( 29-C , 92-H ) :   0.9667
B( 29-C , 93-H ) :   0.9684 B( 30-C , 31-O ) :   2.1285 B( 30-C , 32-C ) :   0.9816
B( 32-C , 33-C ) :   1.1858 B( 32-C , 39-C ) :   1.3973 B( 33-C , 34-C ) :   0.9743
B( 34-C , 35-O ) :   2.1335 B( 34-C , 36-N ) :   1.0274 B( 36-N , 37-C ) :   0.9497
B( 36-N , 39-C ) :   1.1525 B( 37-C , 38-C ) :   1.1177 B( 37-C , 94-H ) :   0.9498
B( 37-C , 95-H ) :   0.9204 B( 38-C , 96-H ) :   0.9666 B( 38-C , 97-H ) :   0.9661
B( 38-C , 98-H ) :   0.9615 B( 39-C , 40-C ) :   1.1685 B( 40-C , 41-C ) :   1.6445
B( 40-C , 99-H ) :   0.9434 B( 41-C , 42-C ) :   1.0408 B( 41-C ,100-H ) :   0.9731
B( 42-C , 43-C ) :   1.3200 B( 42-C , 49-C ) :   0.1039 B( 42-C , 51-C ) :   1.3122
B( 43-C , 44-O ) :   1.1256 B( 43-C , 46-C ) :   1.2976 B( 44-O , 45-C ) :   0.9334
B( 45-C ,101-H ) :   0.9706 B( 45-C ,102-H ) :   0.9723 B( 45-C ,103-H ) :   0.9642
B( 46-C , 47-O ) :   1.2276 B( 46-C , 49-C ) :   1.3816 B( 47-O , 48-C ) :   0.9218
B( 48-C ,104-H ) :   0.9770 B( 48-C ,105-H ) :   0.9721 B( 48-C ,106-H ) :   0.9720
B( 49-C , 50-C ) :   1.3694 B( 49-C , 52-C ) :   0.9590 B( 50-C , 51-C ) :   1.3582
B( 50-C ,107-H ) :   0.9964 B( 51-C ,108-H ) :   1.0014 B( 52-C , 53-N ) :   1.2089
B( 52-C , 59-C ) :   1.4716 B( 53-N , 54-C ) :   0.9522 B( 53-N , 56-C ) :   1.0414
B( 54-C , 55-C ) :   1.1181 B( 54-C ,109-H ) :   0.9460 B( 54-C ,110-H ) :   0.9298
B( 55-C ,111-H ) :   0.9684 B( 55-C ,112-H ) :   0.9667 B( 55-C ,113-H ) :   0.9650
B( 56-C , 57-O ) :   2.0445 B( 56-C , 58-C ) :   0.9896 B( 58-C , 59-C ) :   1.2038
B( 58-C , 65-C ) :   1.4013 B( 59-C , 60-C ) :   0.9711 B( 60-C , 61-O ) :   2.1180
B( 60-C , 62-N ) :   1.0327 B( 62-N , 63-C ) :   0.9526 B( 62-N , 65-C ) :   1.1574
B( 63-C , 64-C ) :   1.1197 B( 63-C ,114-H ) :   0.9273 B( 63-C ,115-H ) :   0.9507
B( 64-C ,116-H ) :   0.9636 B( 64-C ,117-H ) :   0.9678 B( 64-C ,118-H ) :   0.9686
B( 65-C , 66-C ) :   1.1182 B( 66-C , 67-C ) :   1.8972 B( 66-C ,119-H ) :   0.9536
B( 67-C ,120-H ) :   0.9263 B( 67-C ,121-H ) :   0.9446

-----------------------------------------------------------------------------
         ABSORPTION SPECTRUM VIA TRANSITION ELECTRIC DIPOLE MOMENTS
-----------------------------------------------------------------------------
State   Energy  Wavelength   fosc         T2         TX        TY        TZ
        (cm-1)    (nm)                  (au**2)     (au)      (au)      (au)
-----------------------------------------------------------------------------
   0   19800.9    505.0   1.139797643  18.95038  -0.63606  -3.59357  -2.37320
   1   22371.2    447.0   0.070034064   1.03061   0.89401  -0.47917   0.04189
   2   22883.4    437.0   0.173129744   2.49073   0.06932  -1.47387  -0.56004
   3   24803.1    403.2   0.068017722   0.90280  -0.44972  -0.28389  -0.78737
   4   25786.1    387.8   0.069149847   0.88284  -0.80156   0.40019   0.28317
   5   27729.1    360.6   0.057428673   0.68182  -0.73042   0.38222  -0.04705
   6   28973.8    345.1   0.030682397   0.34863   0.57220  -0.03223  -0.14203
   7   29023.4    344.5   0.038351399   0.43502   0.64826   0.05002   0.11079
   8   29479.0    339.2   0.022831361   0.25497  -0.17697  -0.43953  -0.17456
   9   29643.1    337.3   0.025560605   0.28387   0.24280   0.28451  -0.37944
  10   29892.8    334.5   0.004554047   0.05015   0.10480   0.01044  -0.19764
  11   30268.5    330.4   0.147024342   1.59909  -0.65115   0.87676  -0.63748
  12   30884.5    323.8   0.084290122   0.89849  -0.06388  -0.86788   0.37575
  13   31101.9    321.5   0.022181661   0.23479  -0.28495   0.04705  -0.38908
  14   31719.3    315.3   0.004591376   0.04765  -0.13310   0.17291   0.00622
  15   31826.3    314.2   0.449079991   4.64529  -0.23287   2.13582   0.17122
  16   32011.0    312.4   0.007744425   0.07965   0.26956   0.05258  -0.06495
  17   32580.0    306.9   0.104658345   1.05754   0.35374   0.95936   0.10978
  18   33510.1    298.4   0.019418541   0.19077  -0.09869   0.41808   0.07901
  19   33547.1    298.1   0.155937678   1.53028   0.02220  -1.20699  -0.27012
  20   34787.2    287.5   0.009716253   0.09195  -0.06938   0.28125   0.08963
  21   35755.7    279.7   0.052190350   0.48053  -0.16837  -0.66505   0.09945
  22   36257.8    275.8   0.000264940   0.00241  -0.03493   0.03286   0.01029
  23   36743.2    272.2   0.001902254   0.01704  -0.00292   0.12966   0.01493
  24   37042.5    270.0   0.046879985   0.41664   0.19341  -0.61530  -0.02542
  25   37766.4    264.8   0.130733083   1.13961   0.44717  -0.88070   0.40498
  26   38131.9    262.2   0.172307440   1.48762   0.72831  -0.92749   0.31136
  27   38536.2    259.5   0.014919531   0.12746   0.26870   0.17121   0.16107
  28   38754.2    258.0   0.018425061   0.15652  -0.15203   0.36504   0.01217
  29   39250.1    254.8   0.018592105   0.15594  -0.30598   0.22244  -0.11331
  30   39366.6    254.0   0.004804052   0.04017  -0.05555  -0.18190   0.06326
  31   39549.3    252.8   0.053074046   0.44179  -0.16897   0.59793  -0.23604
  32   40030.8    249.8   0.017328631   0.14251   0.17852  -0.17087   0.28538
  33   40195.7    248.8   0.046170773   0.37815   0.22188   0.53058  -0.21773

FINAL SINGLE POINT ENERGY     -3090.966953818036

DIPOLE MOMENT
-------------
                                X             Y             Z
Electronic contribution:      7.40640      -1.95780       1.72131
Nuclear contribution   :     -8.65605       0.78230      -1.37139
                        -----------------------------------------
Total Dipole Moment    :     -1.24966      -1.17550       0.34993
                        -----------------------------------------
Magnitude (a.u.)       :      1.75097
Magnitude (Debye)      :      4.45060

Rotational constants in cm-1:     0.003447     0.000259     0.000256
Rotational constants in MHz :   103.344879     7.764482     7.659732

                             ****ORCA TERMINATED NORMALLY****
TOTAL RUN TIME: 0 days 0 hours 10 minutes 32 seconds 266 msec
