                         Program Version 4.2.0 -  RELEASE  -
|  1> # ORCA input file
|  2> # SCF done       -158.630001588267          0.001634452890
|  3> ! CAM-B3LYP def2-SVP def2/J RIJCOSX Grid4 TightSCF
|  4> %maxcore 5000
|  5> %tddft
|  6>     Mode sTDDFT
|  7>     Ethresh 5.0
|  8>     maxcore 5000
|  9> end
| 10>
| 11> %pal
| 12>   nprocs 6
| 13>   end
| 14> * xyz 0 1
| 15>    C       -8.97488         1.82548        -2.46607
| 16>    N       -8.60588         1.29383        -1.27661
| 17>    C       -9.24186         0.16993        -0.63277
| 18>    C      -10.71020         0.43560        -0.32064
| 19>    C       -7.47727         1.96189        -0.73430
| 20>    O       -6.96634         1.66151         0.32675
| 21>    C       -7.16922         2.97372        -1.71539
| 22>    C       -8.13007         2.86166        -2.76807
| 23>    C       -7.80939         3.85775        -3.75087
| 24>    O       -8.34800         4.17050        -4.80098
| 25>    N       -6.64802         4.48549        -3.26628
| 26>    C       -6.05201         5.53996        -4.05106
| 27>    C       -6.26028         6.91774        -3.43186
| 28>    C       -6.25366         3.96288        -2.04355
| 29>    C       -5.11335         4.26370        -1.23918
| 30>    C       -4.05316         5.04391        -1.54994
| 31>    C       -2.85267         5.27833        -0.80725
| 32>    S       -1.50648         5.82812        -1.78583
| 33>    C       -0.47913         5.89679        -0.42183
| 34>    C       -1.11671         5.54399         0.72959
| 35>    C       -2.47387         5.18426         0.52110
| 36>    C       -3.39956         4.95207         1.68732
| 37>    C       -2.62840         4.70736         2.98955
| 38>    C       -1.49317         5.70630         3.17819
| 39>    C       -0.45965         5.51347         2.07293
| 40>    N       -4.26033         6.11946         1.81327
| 41>    C       -5.53355         6.07786         1.36816
| 42>    C       -6.25796         7.11637         0.89850
| 43>    C       -7.55163         6.91248         0.32649
| 44>    C       -8.09864         7.80360        -0.60101
| 45>    C       -9.16787         7.48149        -1.46632
| 46>    N       -9.47749         8.47216        -2.35077
| 47>    C       -8.73583         9.49817        -2.20739
| 48>    S       -7.50855         9.39916        -0.97523
| 49>    C       -9.78896         6.21334        -1.41608
| 50>    C       -9.41156         5.43148        -0.31701
| 51>    C       -8.31981         5.74639         0.52344
| 52>    N       -8.08227         4.82533         1.50074
| 53>    C       -8.91187         3.86150         1.46914
| 54>    S      -10.11148         3.93004         0.20061
| 55>    C      -10.55862         5.70050        -2.51115
| 56>    S      -11.14749         4.07020        -2.49242
| 57>    C      -11.47212         4.11840        -4.19692
| 58>    C      -11.90678         2.91122        -4.82798
| 59>    O      -11.95456         1.83100        -4.27105
| 60>    C      -11.19856         5.37661        -4.72571
| 61>    C      -10.71311         6.26748        -3.76050
| 62>    C      -11.31715         5.69599        -6.13279
| 63>    S      -12.26180         7.05064        -6.67125
| 64>    C      -10.74764         5.03894        -7.18780
| 65>    O       -9.91714         3.97010        -7.12942
| 66>    C      -11.09121         5.59824        -8.46099
| 67>    N      -10.52620         5.03288        -9.58630
| 68>    N      -11.12743         5.04773       -10.85673
| 69>    C      -11.92331         6.69376        -8.35580
| 70>    C      -12.49156         7.52799        -9.37545
| 71>    C      -13.32642         8.54169        -9.15228
| 72>    H       -9.80944         1.43454        -3.02083
| 73>    H       -8.67700        -0.01329         0.28568
| 74>    H       -9.15388        -0.70881        -1.28134
| 75>    H      -10.81221         1.27719         0.35966
| 76>    H      -11.14758        -0.44365         0.14409
| 77>    H      -11.26350         0.65992        -1.22929
| 78>    H       -6.56082         5.50146        -5.01999
| 79>    H       -4.99262         5.32791        -4.21987
| 80>    H       -7.32195         7.15039        -3.41869
| 81>    H       -5.74724         7.67048        -4.02489
| 82>    H       -5.88344         6.95347        -2.41140
| 83>    H       -5.12318         3.71216        -0.31001
| 84>    H       -4.02102         5.51858        -2.51875
| 85>    H        0.54374         6.19498        -0.54051
| 86>    H       -4.04876         4.09153         1.50567
| 87>    H       -2.21737         3.69643         2.96920
| 88>    H       -3.33459         4.77152         3.81807
| 89>    H       -1.02353         5.55555         4.15081
| 90>    H       -1.88353         6.72527         3.15134
| 91>    H        0.02831         4.54229         2.20283
| 92>    H        0.31621         6.27965         2.12440
| 93>    H       -3.78729         7.01158         1.75283
| 94>    H       -5.99554         5.10339         1.41917
| 95>    H       -5.82541         8.10353         0.80330
| 96>    H       -8.83493        10.38740        -2.79812
| 97>    H       -8.89534         3.04061         2.15819
| 98>    H      -12.19375         3.02108        -5.88958
| 99>    H      -10.42045         7.27752        -3.98035
|100>    H       -9.48859         3.91750        -6.25612
|101>    H      -10.10056         4.13453        -9.38169
|102>    H      -10.88712         5.91188       -11.33771
|103>    H      -12.14343         4.97724       -10.79652
|104>    H      -12.19986         7.30552       -10.39293
|105>    H      -13.63817         8.80262        -8.15556
|106>    H      -13.71890         9.13441        -9.95870
|107> *
|108>
|109>                          ****END OF INPUT****

CARTESIAN COORDINATES (ANGSTROEM)
---------------------------------
  C     -8.974880    1.825480   -2.466070
  N     -8.605880    1.293830   -1.276610
  C     -9.241860    0.169930   -0.632770
  C    -10.710200    0.435600   -0.320640
  C     -7.477270    1.961890   -0.734300
  O     -6.966340    1.661510    0.326750
  C     -7.169220    2.973720   -1.715390
  C     -8.130070    2.861660   -2.768070
  C     -7.809390    3.857750   -3.750870
  O     -8.348000    4.170500   -4.800980
  N     -6.648020    4.485490   -3.266280
  C     -6.052010    5.539960   -4.051060
  C     -6.260280    6.917740   -3.431860
  C     -6.253660    3.962880   -2.043550
  C     -5.113350    4.263700   -1.239180
  C     -4.053160    5.043910   -1.549940
  C     -2.852670    5.278330   -0.807250
  S     -1.506480    5.828120   -1.785830
  C     -0.479130    5.896790   -0.421830
  C     -1.116710    5.543990    0.729590
  C     -2.473870    5.184260    0.521100
  C     -3.399560    4.952070    1.687320
  C     -2.628400    4.707360    2.989550
  C     -1.493170    5.706300    3.178190
  C     -0.459650    5.513470    2.072930
  N     -4.260330    6.119460    1.813270
  C     -5.533550    6.077860    1.368160
  C     -6.257960    7.116370    0.898500
  C     -7.551630    6.912480    0.326490
  C     -8.098640    7.803600   -0.601010
  C     -9.167870    7.481490   -1.466320
  N     -9.477490    8.472160   -2.350770
  C     -8.735830    9.498170   -2.207390
  S     -7.508550    9.399160   -0.975230
  C     -9.788960    6.213340   -1.416080
  C     -9.411560    5.431480   -0.317010
  C     -8.319810    5.746390    0.523440
  N     -8.082270    4.825330    1.500740
  C     -8.911870    3.861500    1.469140
  S    -10.111480    3.930040    0.200610
  C    -10.558620    5.700500   -2.511150
  S    -11.147490    4.070200   -2.492420
  C    -11.472120    4.118400   -4.196920
  C    -11.906780    2.911220   -4.827980
  O    -11.954560    1.831000   -4.271050
  C    -11.198560    5.376610   -4.725710
  C    -10.713110    6.267480   -3.760500
  C    -11.317150    5.695990   -6.132790
  S    -12.261800    7.050640   -6.671250
  C    -10.747640    5.038940   -7.187800
  O     -9.917140    3.970100   -7.129420
  C    -11.091210    5.598240   -8.460990
  N    -10.526200    5.032880   -9.586300
  N    -11.127430    5.047730  -10.856730
  C    -11.923310    6.693760   -8.355800
  C    -12.491560    7.527990   -9.375450
  C    -13.326420    8.541690   -9.152280
  H     -9.809440    1.434540   -3.020830
  H     -8.677000   -0.013290    0.285680
  H     -9.153880   -0.708810   -1.281340
  H    -10.812210    1.277190    0.359660
  H    -11.147580   -0.443650    0.144090
  H    -11.263500    0.659920   -1.229290
  H     -6.560820    5.501460   -5.019990
  H     -4.992620    5.327910   -4.219870
  H     -7.321950    7.150390   -3.418690
  H     -5.747240    7.670480   -4.024890
  H     -5.883440    6.953470   -2.411400
  H     -5.123180    3.712160   -0.310010
  H     -4.021020    5.518580   -2.518750
  H      0.543740    6.194980   -0.540510
  H     -4.048760    4.091530    1.505670
  H     -2.217370    3.696430    2.969200
  H     -3.334590    4.771520    3.818070
  H     -1.023530    5.555550    4.150810
  H     -1.883530    6.725270    3.151340
  H      0.028310    4.542290    2.202830
  H      0.316210    6.279650    2.124400
  H     -3.787290    7.011580    1.752830
  H     -5.995540    5.103390    1.419170
  H     -5.825410    8.103530    0.803300
  H     -8.834930   10.387400   -2.798120
  H     -8.895340    3.040610    2.158190
  H    -12.193750    3.021080   -5.889580
  H    -10.420450    7.277520   -3.980350
  H     -9.488590    3.917500   -6.256120
  H    -10.100560    4.134530   -9.381690
  H    -10.887120    5.911880  -11.337710
  H    -12.143430    4.977240  -10.796520
  H    -12.199860    7.305520  -10.392930
  H    -13.638170    8.802620   -8.155560
  H    -13.718900    9.134410   -9.958700

 Total Charge           Charge          ....    0
 Multiplicity           Mult            ....    1
 Number of Electrons    NEL             ....  442
 Basis Dimension        Dim             ....  993

ORBITAL ENERGIES
----------------

  NO   OCC          E(Eh)            E(eV)
   0   2.0000     -88.961926     -2420.7771
   1   2.0000     -88.959123     -2420.7008
   2   2.0000     -88.957180     -2420.6479
   3   2.0000     -88.945100     -2420.3192
   4   2.0000     -88.921179     -2419.6683
   5   2.0000     -19.216815      -522.9161
   6   2.0000     -19.193295      -522.2761
   7   2.0000     -19.191298      -522.2218
   8   2.0000     -19.190042      -522.1876
   9   2.0000     -14.452899      -393.2834
  10   2.0000     -14.452620      -393.2758
  11   2.0000     -14.433377      -392.7521
  12   2.0000     -14.420216      -392.3940
  13   2.0000     -14.410343      -392.1254
  14   2.0000     -14.410292      -392.1240
  15   2.0000     -14.406113      -392.0103
  16   2.0000     -10.375291      -282.3260
  17   2.0000     -10.373160      -282.2680
  18   2.0000     -10.337964      -281.3103
  19   2.0000     -10.337818      -281.3063
  20   2.0000     -10.335674      -281.2480
  21   2.0000     -10.328325      -281.0480
  22   2.0000     -10.327274      -281.0194
  23   2.0000     -10.321606      -280.8652
  24   2.0000     -10.310721      -280.5690
  25   2.0000     -10.309400      -280.5330
  26   2.0000     -10.307941      -280.4933
  27   2.0000     -10.306305      -280.4488
  28   2.0000     -10.304975      -280.4126
  29   2.0000     -10.303197      -280.3642
  30   2.0000     -10.302876      -280.3555
  31   2.0000     -10.301530      -280.3189
  32   2.0000     -10.300649      -280.2949
  33   2.0000     -10.299525      -280.2643
  34   2.0000     -10.298161      -280.2272
  35   2.0000     -10.298083      -280.2251
  36   2.0000     -10.292510      -280.0734
  37   2.0000     -10.291352      -280.0419
  38   2.0000     -10.289879      -280.0018
  39   2.0000     -10.287884      -279.9476
  40   2.0000     -10.287814      -279.9456
  41   2.0000     -10.284424      -279.8534
  42   2.0000     -10.281419      -279.7716
  43   2.0000     -10.279460      -279.7183
  44   2.0000     -10.275592      -279.6131
  45   2.0000     -10.275491      -279.6103
  46   2.0000     -10.272475      -279.5283
  47   2.0000     -10.272302      -279.5235
  48   2.0000     -10.267403      -279.3902
  49   2.0000     -10.260582      -279.2046
  50   2.0000     -10.260261      -279.1959
  51   2.0000     -10.257235      -279.1136
  52   2.0000     -10.256575      -279.0956
  53   2.0000     -10.252920      -278.9961
  54   2.0000     -10.252837      -278.9939
  55   2.0000     -10.252611      -278.9877
  56   2.0000     -10.239854      -278.6406
  57   2.0000      -8.057977      -219.2687
  58   2.0000      -8.055058      -219.1893
  59   2.0000      -8.052186      -219.1111
  60   2.0000      -8.039797      -218.7740
  61   2.0000      -8.016544      -218.1413
  62   2.0000      -6.027131      -164.0066
  63   2.0000      -6.024324      -163.9302
  64   2.0000      -6.022937      -163.8925
  65   2.0000      -6.021614      -163.8564
  66   2.0000      -6.020389      -163.8231
  67   2.0000      -6.020327      -163.8214
  68   2.0000      -6.017329      -163.7398
  69   2.0000      -6.017003      -163.7310
  70   2.0000      -6.014115      -163.6524
  71   2.0000      -6.009030      -163.5140
  72   2.0000      -6.004840      -163.4000
  73   2.0000      -6.002108      -163.3257
  74   2.0000      -5.986195      -162.8927
  75   2.0000      -5.982252      -162.7853
  76   2.0000      -5.977773      -162.6635
  77   2.0000      -1.131842       -30.7990
  78   2.0000      -1.125377       -30.6231
  79   2.0000      -1.113325       -30.2951
  80   2.0000      -1.101834       -29.9824
  81   2.0000      -1.068211       -29.0675
  82   2.0000      -1.060821       -28.8664
  83   2.0000      -1.060030       -28.8449
  84   2.0000      -1.051316       -28.6078
  85   2.0000      -1.047197       -28.4957
  86   2.0000      -1.041997       -28.3542
  87   2.0000      -0.991172       -26.9712
  88   2.0000      -0.978204       -26.6183
  89   2.0000      -0.950649       -25.8685
  90   2.0000      -0.941682       -25.6245
  91   2.0000      -0.924979       -25.1700
  92   2.0000      -0.923618       -25.1329
  93   2.0000      -0.916359       -24.9354
  94   2.0000      -0.902896       -24.5690
  95   2.0000      -0.884073       -24.0569
  96   2.0000      -0.872617       -23.7451
  97   2.0000      -0.871254       -23.7080
  98   2.0000      -0.865443       -23.5499
  99   2.0000      -0.862878       -23.4801
 100   2.0000      -0.849258       -23.1095
 101   2.0000      -0.835894       -22.7458
 102   2.0000      -0.831045       -22.6139
 103   2.0000      -0.823492       -22.4084
 104   2.0000      -0.819677       -22.3045
 105   2.0000      -0.816979       -22.2311
 106   2.0000      -0.814071       -22.1520
 107   2.0000      -0.795057       -21.6346
 108   2.0000      -0.785427       -21.3726
 109   2.0000      -0.768054       -20.8998
 110   2.0000      -0.761524       -20.7221
 111   2.0000      -0.760161       -20.6850
 112   2.0000      -0.757246       -20.6057
 113   2.0000      -0.741141       -20.1675
 114   2.0000      -0.726570       -19.7710
 115   2.0000      -0.714945       -19.4547
 116   2.0000      -0.709953       -19.3188
 117   2.0000      -0.701564       -19.0905
 118   2.0000      -0.700029       -19.0488
 119   2.0000      -0.686166       -18.6715
 120   2.0000      -0.679842       -18.4994
 121   2.0000      -0.675929       -18.3930
 122   2.0000      -0.673334       -18.3223
 123   2.0000      -0.651456       -17.7270
 124   2.0000      -0.649411       -17.6714
 125   2.0000      -0.648203       -17.6385
 126   2.0000      -0.647231       -17.6121
 127   2.0000      -0.644603       -17.5405
 128   2.0000      -0.630364       -17.1531
 129   2.0000      -0.630151       -17.1473
 130   2.0000      -0.619926       -16.8690
 131   2.0000      -0.609165       -16.5762
 132   2.0000      -0.603432       -16.4202
 133   2.0000      -0.597321       -16.2539
 134   2.0000      -0.592364       -16.1190
 135   2.0000      -0.585295       -15.9267
 136   2.0000      -0.579703       -15.7745
 137   2.0000      -0.577813       -15.7231
 138   2.0000      -0.576282       -15.6814
 139   2.0000      -0.571162       -15.5421
 140   2.0000      -0.569948       -15.5091
 141   2.0000      -0.565717       -15.3940
 142   2.0000      -0.562605       -15.3092
 143   2.0000      -0.559680       -15.2297
 144   2.0000      -0.554401       -15.0860
 145   2.0000      -0.548515       -14.9259
 146   2.0000      -0.545842       -14.8531
 147   2.0000      -0.544312       -14.8115
 148   2.0000      -0.533945       -14.5294
 149   2.0000      -0.531296       -14.4573
 150   2.0000      -0.528008       -14.3678
 151   2.0000      -0.524052       -14.2602
 152   2.0000      -0.523485       -14.2447
 153   2.0000      -0.519335       -14.1318
 154   2.0000      -0.516078       -14.0432
 155   2.0000      -0.512333       -13.9413
 156   2.0000      -0.510397       -13.8886
 157   2.0000      -0.508119       -13.8266
 158   2.0000      -0.506055       -13.7704
 159   2.0000      -0.505387       -13.7523
 160   2.0000      -0.502318       -13.6688
 161   2.0000      -0.498924       -13.5764
 162   2.0000      -0.494815       -13.4646
 163   2.0000      -0.491175       -13.3656
 164   2.0000      -0.489110       -13.3094
 165   2.0000      -0.486169       -13.2293
 166   2.0000      -0.484226       -13.1765
 167   2.0000      -0.481374       -13.0988
 168   2.0000      -0.478394       -13.0178
 169   2.0000      -0.477172       -12.9845
 170   2.0000      -0.471032       -12.8174
 171   2.0000      -0.468385       -12.7454
 172   2.0000      -0.466513       -12.6945
 173   2.0000      -0.464584       -12.6420
 174   2.0000      -0.461121       -12.5477
 175   2.0000      -0.460025       -12.5179
 176   2.0000      -0.458047       -12.4641
 177   2.0000      -0.456392       -12.4191
 178   2.0000      -0.451562       -12.2876
 179   2.0000      -0.446579       -12.1520
 180   2.0000      -0.445853       -12.1323
 181   2.0000      -0.444991       -12.1088
 182   2.0000      -0.442140       -12.0312
 183   2.0000      -0.439377       -11.9561
 184   2.0000      -0.436872       -11.8879
 185   2.0000      -0.429859       -11.6971
 186   2.0000      -0.428094       -11.6490
 187   2.0000      -0.424795       -11.5592
 188   2.0000      -0.424311       -11.5461
 189   2.0000      -0.418831       -11.3970
 190   2.0000      -0.415639       -11.3101
 191   2.0000      -0.415505       -11.3065
 192   2.0000      -0.410858       -11.1800
 193   2.0000      -0.407565       -11.0904
 194   2.0000      -0.403252       -10.9730
 195   2.0000      -0.399949       -10.8832
 196   2.0000      -0.396876       -10.7995
 197   2.0000      -0.394228       -10.7275
 198   2.0000      -0.386137       -10.5073
 199   2.0000      -0.381232       -10.3738
 200   2.0000      -0.367596       -10.0028
 201   2.0000      -0.362008        -9.8507
 202   2.0000      -0.353371        -9.6157
 203   2.0000      -0.350991        -9.5509
 204   2.0000      -0.346497        -9.4287
 205   2.0000      -0.344370        -9.3708
 206   2.0000      -0.339231        -9.2310
 207   2.0000      -0.332751        -9.0546
 208   2.0000      -0.326381        -8.8813
 209   2.0000      -0.321628        -8.7519
 210   2.0000      -0.318125        -8.6566
 211   2.0000      -0.315422        -8.5831
 212   2.0000      -0.313644        -8.5347
 213   2.0000      -0.307085        -8.3562
 214   2.0000      -0.297515        -8.0958
 215   2.0000      -0.296643        -8.0721
 216   2.0000      -0.285072        -7.7572
 217   2.0000      -0.249462        -6.7882
 218   2.0000      -0.241990        -6.5849
 219   2.0000      -0.230764        -6.2794
 220   2.0000      -0.226592        -6.1659
 221   0.0000      -0.070455        -1.9172
 222   0.0000      -0.048016        -1.3066
 223   0.0000      -0.009017        -0.2454
 224   0.0000      -0.003278        -0.0892
 225   0.0000       0.015985         0.4350

MULLIKEN ATOMIC CHARGES
-----------------------
   0 C :    0.074157
   1 N :   -0.260842
   2 C :    0.116238
   3 C :   -0.019066
   4 C :    0.157141
   5 O :   -0.202502
   6 C :   -0.067933
   7 C :   -0.003079
   8 C :    0.207223
   9 O :   -0.248090
  10 N :   -0.273943
  11 C :    0.099350
  12 C :   -0.009318
  13 C :    0.109679
  14 C :   -0.023085
  15 C :    0.084557
  16 C :   -0.171962
  17 S :    0.119799
  18 C :   -0.119216
  19 C :   -0.084719
  20 C :    0.002886
  21 C :    0.070889
  22 C :    0.083410
  23 C :   -0.000702
  24 C :    0.149378
  25 N :   -0.109598
  26 C :    0.082239
  27 C :   -0.098134
  28 C :    0.063157
  29 C :   -0.138513
  30 C :   -0.017716
  31 N :   -0.062886
  32 C :    0.017976
  33 S :    0.085005
  34 C :    0.158566
  35 C :   -0.129100
  36 C :   -0.004354
  37 N :   -0.078922
  38 C :    0.036826
  39 S :    0.062317
  40 C :   -0.136872
  41 S :    0.096199
  42 C :   -0.199293
  43 C :    0.166621
  44 O :   -0.239300
  45 C :    0.163917
  46 C :   -0.018388
  47 C :   -0.248045
  48 S :    0.100992
  49 C :    0.181385
  50 O :   -0.236665
  51 C :    0.075252
  52 N :   -0.095077
  53 N :   -0.122990
  54 C :   -0.185752
  55 C :   -0.005660
  56 C :   -0.045476
  57 H :    0.028635
  58 H :    0.038511
  59 H :    0.025702
  60 H :    0.015541
  61 H :    0.023073
  62 H :    0.041159
  63 H :    0.043836
  64 H :    0.023245
  65 H :    0.038020
  66 H :    0.015192
  67 H :    0.031237
  68 H :   -0.009189
  69 H :   -0.020099
  70 H :    0.014027
  71 H :    0.032574
  72 H :    0.005083
  73 H :    0.010948
  74 H :    0.007703
  75 H :   -0.003117
  76 H :    0.018462
  77 H :    0.004642
  78 H :    0.115521
  79 H :    0.031278
  80 H :   -0.042171
  81 H :    0.043177
  82 H :    0.042435
  83 H :    0.002536
  84 H :   -0.009883
  85 H :    0.198917
  86 H :    0.131042
  87 H :    0.123803
  88 H :    0.103578
  89 H :   -0.061161
  90 H :    0.016691
  91 H :    0.011096
Sum of atomic charges:    0.0000000

LOEWDIN ATOMIC CHARGES
----------------------
   0 C :    0.110703
   1 N :    0.002265
   2 C :    0.038554
   3 C :   -0.062238
   4 C :    0.075798
   5 O :   -0.201862
   6 C :   -0.121085
   7 C :   -0.146300
   8 C :    0.102350
   9 O :   -0.209803
  10 N :   -0.001267
  11 C :    0.033906
  12 C :   -0.066654
  13 C :    0.077982
  14 C :   -0.033796
  15 C :   -0.023469
  16 C :   -0.169485
  17 S :    0.444714
  18 C :   -0.188891
  19 C :   -0.065395
  20 C :   -0.067500
  21 C :    0.039826
  22 C :   -0.028288
  23 C :   -0.030921
  24 C :   -0.023573
  25 N :    0.011509
  26 C :    0.068323
  27 C :   -0.139573
  28 C :   -0.010599
  29 C :   -0.181194
  30 C :   -0.022839
  31 N :   -0.081497
  32 C :   -0.102243
  33 S :    0.389226
  34 C :   -0.081152
  35 C :   -0.163714
  36 C :   -0.046441
  37 N :   -0.083275
  38 C :   -0.102660
  39 S :    0.403968
  40 C :   -0.143184
  41 S :    0.472428
  42 C :   -0.245092
  43 C :    0.083581
  44 O :   -0.191150
  45 C :   -0.034466
  46 C :   -0.052561
  47 C :   -0.225560
  48 S :    0.401955
  49 C :    0.005867
  50 O :   -0.070300
  51 C :   -0.031670
  52 N :   -0.005502
  53 N :   -0.042328
  54 C :   -0.222635
  55 C :   -0.044905
  56 C :   -0.078738
  57 H :    0.031591
  58 H :    0.032933
  59 H :    0.026574
  60 H :    0.014639
  61 H :    0.031689
  62 H :    0.030680
  63 H :    0.037770
  64 H :    0.017996
  65 H :    0.031907
  66 H :    0.029236
  67 H :    0.021724
  68 H :    0.039328
  69 H :    0.026568
  70 H :    0.023136
  71 H :    0.037575
  72 H :    0.026236
  73 H :    0.029900
  74 H :    0.028261
  75 H :    0.017750
  76 H :    0.034848
  77 H :    0.030858
  78 H :    0.072421
  79 H :    0.028408
  80 H :    0.012111
  81 H :    0.021057
  82 H :    0.020140
  83 H :    0.008854
  84 H :    0.027701
  85 H :    0.071268
  86 H :    0.069811
  87 H :    0.050464
  88 H :    0.046198
  89 H :    0.017186
  90 H :    0.013461
  91 H :    0.020568

  Mayer bond orders larger than 0.100000
B(  0-C ,  1-N ) :   1.2157 B(  0-C ,  7-C ) :   1.4025 B(  0-C , 57-H ) :   0.9759
B(  1-N ,  2-C ) :   0.9339 B(  1-N ,  4-C ) :   1.0288 B(  2-C ,  3-C ) :   1.1133
B(  2-C , 58-H ) :   0.9372 B(  2-C , 59-H ) :   0.9548 B(  3-C , 60-H ) :   0.9646
B(  3-C , 61-H ) :   0.9641 B(  3-C , 62-H ) :   0.9678 B(  4-C ,  5-O ) :   2.0955
B(  4-C ,  6-C ) :   0.9974 B(  6-C ,  7-C ) :   1.2035 B(  6-C , 13-C ) :   1.3846
B(  7-C ,  8-C ) :   0.9992 B(  8-C ,  9-O ) :   1.9344 B(  8-C , 10-N ) :   1.0762
B(  9-O , 85-H ) :   0.1156 B( 10-N , 11-C ) :   0.9416 B( 10-N , 13-C ) :   1.1364
B( 11-C , 12-C ) :   1.1173 B( 11-C , 63-H ) :   0.9194 B( 11-C , 64-H ) :   0.9494
B( 12-C , 65-H ) :   0.9558 B( 12-C , 66-H ) :   0.9610 B( 12-C , 67-H ) :   0.9654
B( 13-C , 14-C ) :   1.2089 B( 14-C , 15-C ) :   1.6177 B( 14-C , 68-H ) :   0.9451
B( 15-C , 16-C ) :   1.1194 B( 15-C , 69-H ) :   0.9396 B( 16-C , 17-S ) :   1.1537
B( 16-C , 20-C ) :   1.4975 B( 17-S , 18-C ) :   1.1631 B( 18-C , 19-C ) :   1.5642
B( 18-C , 70-H ) :   0.9712 B( 19-C , 20-C ) :   1.3009 B( 19-C , 24-C ) :   1.0283
B( 20-C , 21-C ) :   0.9942 B( 21-C , 22-C ) :   1.0657 B( 21-C , 25-N ) :   1.0101
B( 21-C , 71-H ) :   0.9023 B( 22-C , 23-C ) :   1.0610 B( 22-C , 72-H ) :   0.9379
B( 22-C , 73-H ) :   0.9291 B( 23-C , 24-C ) :   1.0856 B( 23-C , 74-H ) :   0.9356
B( 23-C , 75-H ) :   0.9475 B( 24-C , 76-H ) :   0.9157 B( 24-C , 77-H ) :   0.9251
B( 25-N , 26-C ) :   1.2469 B( 25-N , 78-H ) :   0.9273 B( 26-C , 27-C ) :   1.6039
B( 26-C , 79-H ) :   0.9273 B( 27-C , 28-C ) :   1.1696 B( 27-C , 80-H ) :   0.9528
B( 28-C , 29-C ) :   1.3344 B( 28-C , 36-C ) :   1.2786 B( 29-C , 30-C ) :   1.3078
B( 29-C , 33-S ) :   1.0556 B( 30-C , 31-N ) :   1.3103 B( 30-C , 34-C ) :   1.3056
B( 31-N , 32-C ) :   1.7376 B( 31-N , 33-S ) :   0.1076 B( 32-C , 33-S ) :   1.1228
B( 32-C , 81-H ) :   0.9639 B( 34-C , 35-C ) :   1.3213 B( 34-C , 40-C ) :   1.0913
B( 35-C , 36-C ) :   1.3033 B( 35-C , 39-S ) :   1.0785 B( 36-C , 37-N ) :   1.2966
B( 37-N , 38-C ) :   1.7615 B( 38-C , 39-S ) :   1.0828 B( 38-C , 82-H ) :   0.9610
B( 40-C , 41-S ) :   1.1504 B( 40-C , 46-C ) :   1.4713 B( 41-S , 42-C ) :   1.0730
B( 42-C , 43-C ) :   1.0797 B( 42-C , 45-C ) :   1.4249 B( 43-C , 44-O ) :   2.0469
B( 43-C , 83-H ) :   0.9569 B( 45-C , 46-C ) :   1.2878 B( 45-C , 47-C ) :   0.9634
B( 46-C , 84-H ) :   0.9842 B( 47-C , 48-S ) :   1.0931 B( 47-C , 49-C ) :   1.5561
B( 47-C , 54-C ) :   0.1150 B( 48-S , 54-C ) :   1.0449 B( 49-C , 50-O ) :   1.2463
B( 49-C , 51-C ) :   1.1893 B( 50-O , 85-H ) :   0.9030 B( 51-C , 52-N ) :   1.2058
B( 51-C , 54-C ) :   1.5147 B( 52-N , 53-N ) :   1.0336 B( 52-N , 86-H ) :   0.9152
B( 53-N , 87-H ) :   0.9753 B( 53-N , 88-H ) :   0.9752 B( 54-C , 55-C ) :   1.1201
B( 55-C , 56-C ) :   1.9127 B( 55-C , 89-H ) :   0.9627 B( 56-C , 90-H ) :   0.9536
B( 56-C , 91-H ) :   0.9490

-----------------------------------------------------------------------------
         ABSORPTION SPECTRUM VIA TRANSITION ELECTRIC DIPOLE MOMENTS
-----------------------------------------------------------------------------
State   Energy  Wavelength   fosc         T2         TX        TY        TZ
        (cm-1)    (nm)                  (au**2)     (au)      (au)      (au)
-----------------------------------------------------------------------------
   0   15827.3    631.8   0.023019704   0.47882   0.09052   0.63859   0.25066
   1   20741.7    482.1   0.119215512   1.89219  -1.01968  -0.72304   0.57416
   2   21918.5    456.2   0.521685274   7.83562   2.18800   0.65218   1.61955
   3   23474.9    426.0   0.124829966   1.75062   0.94223   0.89755  -0.23923
   4   24150.7    414.1   0.397294869   5.41575   1.67268   1.49310   0.62333
   5   24624.9    406.1   0.064478553   0.86202   0.64380   0.46548  -0.48049
   6   25279.3    395.6   0.134470059   1.75120  -0.86184  -0.07986  -1.00103
   7   26152.6    382.4   0.019269668   0.24257  -0.15349  -0.20309  -0.42162
   8   27725.1    360.7   0.086762554   1.03023  -0.62721  -0.55875  -0.56977
   9   28716.5    348.2   0.003075154   0.03525   0.15812   0.09880  -0.02216
  10   29384.5    340.3   0.115001398   1.28843  -0.35662  -0.15966  -1.06572
  11   30866.9    324.0   0.117468942   1.25287   1.05676   0.31744   0.18806
  12   31595.9    316.5   0.011875862   0.12374  -0.29660  -0.06799  -0.17648
  13   31740.1    315.1   0.001665416   0.01727  -0.05453   0.08015  -0.08875
  14   31933.8    313.1   0.032448383   0.33452   0.10490   0.40853  -0.39575
  15   32072.2    311.8   0.023764079   0.24393  -0.18248  -0.33592   0.31271
  16   32862.9    304.3   0.187972666   1.88306   1.17594   0.45841   0.53859
  17   33564.1    297.9   0.113592832   1.11417  -0.81390   0.51562  -0.43113
  18   34119.2    293.1   0.168270655   1.62362  -0.65987  -0.13430  -1.08174
  19   34441.3    290.3   0.032167428   0.30748   0.52463   0.03416  -0.17628
  20   34997.4    285.7   0.113612135   1.06872   0.12865  -0.82497  -0.60959
  21   35528.7    281.5   0.038364014   0.35548  -0.02704   0.43309  -0.40888
  22   35584.6    281.0   0.035744770   0.33069  -0.02656  -0.19029   0.54201
  23   35937.8    278.3   0.191963308   1.75850  -1.24805  -0.08025  -0.44096
  24   36639.7    272.9   0.021115872   0.18973  -0.27387  -0.16343  -0.29667
  25   37033.8    270.0   0.330456000   2.93759  -0.79886   1.18342  -0.94812
  26   37320.8    267.9   0.031028420   0.27371  -0.33937   0.33604  -0.21357
  27   37617.6    265.8   0.016724854   0.14637   0.35765   0.13175   0.03312
  28   37857.6    264.1   0.040819969   0.35497   0.54553   0.15108  -0.18587
  29   37915.9    263.7   0.016937960   0.14707   0.04387   0.37746  -0.05161
  30   38414.3    260.3   0.015867779   0.13599  -0.19888  -0.20579  -0.23256
  31   38698.1    258.4   0.116319976   0.98956  -0.37967   0.45704  -0.79783
  32   38831.9    257.5   0.109771726   0.93063  -0.42955   0.39069  -0.77037
  33   39194.8    255.1   0.033237089   0.27917  -0.40927   0.09401  -0.32067
  34   39286.2    254.5   0.033805014   0.28328  -0.43140   0.23868   0.20051
  35   39630.5    252.3   0.137888120   1.14544   0.62288  -0.69346   0.52591
  36   39947.6    250.3   0.213321893   1.75800   0.64923  -0.87592  -0.75450
  37   40013.1    249.9   0.011150802   0.09174  -0.02031   0.08004  -0.29142

FINAL SINGLE POINT ENERGY     -4255.083801469296

DIPOLE MOMENT
-------------
                                X             Y             Z
Electronic contribution:    -23.21536       6.79791      -2.68626
Nuclear contribution   :     26.50660      -6.00437       4.53087
                        -----------------------------------------
Total Dipole Moment    :      3.29124       0.79354       1.84460
                        -----------------------------------------
Magnitude (a.u.)       :      3.85545
Magnitude (Debye)      :      9.79978

Rotational constants in cm-1:     0.002334     0.000894     0.000823
Rotational constants in MHz :    69.973430    26.811868    24.679983

                             ****ORCA TERMINATED NORMALLY****
TOTAL RUN TIME: 0 days 0 hours 9 minutes 37 seconds 962 msec
