                         Program Version 4.2.0 -  RELEASE  -
|  1> # ORCA input file
|  2> # SCF done       -140.849968303181          0.000927112507
|  3> ! CAM-B3LYP def2-SVP def2/J RIJCOSX Grid4 TightSCF
|  4> %maxcore 5000
|  5> %tddft
|  6>     Mode sTDDFT
|  7>     Ethresh 5.0
|  8>     maxcore 5000
|  9> end
| 10>
| 11> %pal
| 12>   nprocs 6
| 13>   end
| 14> * xyz 0 1
| 15>    C       -3.39158        -1.58987        -1.72533
| 16>    N       -3.55353        -0.65455        -2.69919
| 17>    C       -3.71623        -0.91832        -4.10680
| 18>    C       -2.38975        -1.27995        -4.76990
| 19>    C       -3.49404         0.65364        -2.17229
| 20>    O       -3.62228         1.65281        -2.85671
| 21>    C       -3.28455         0.45472        -0.75984
| 22>    C       -3.22958        -0.95897        -0.52523
| 23>    C       -3.03180        -1.16743         0.89366
| 24>    O       -2.92141        -2.16692         1.56841
| 25>    N       -2.97480         0.13764         1.42410
| 26>    C       -2.89069         0.35316         2.84698
| 27>    C       -4.26630         0.63505         3.44835
| 28>    C       -3.12404         1.10413         0.45533
| 29>    C       -3.07348         2.50322         0.72751
| 30>    C       -3.24698         3.41718        -0.25180
| 31>    C       -3.18959         4.84272        -0.08525
| 32>    C       -2.78755         5.51295         1.08180
| 33>    N       -2.75324         6.82415         1.14880
| 34>    C       -3.13535         7.53136         0.08402
| 35>    N       -3.52305         6.99645        -1.07615
| 36>    C       -3.53857         5.68709        -1.15597
| 37>    C       -3.10814         8.97051         0.17374
| 38>    C       -2.69109         9.78950         1.37967
| 39>    N       -2.63972        11.07265         1.15499
| 40>    C       -3.03343        11.21173        -0.15116
| 41>    C       -3.23183        11.99997        -1.23714
| 42>    S       -3.69894        10.67477        -2.34847
| 43>    C       -3.33098         9.92085        -0.75009
| 44>    C       -2.33604         9.18201         2.63241
| 45>    C       -1.20473         9.57181         3.35213
| 46>    N       -0.78787         8.92653         4.42139
| 47>    C       -1.46902         7.83932         4.78255
| 48>    N       -2.62185         7.45383         4.23877
| 49>    C       -3.06667         8.12029         3.20121
| 50>    C       -0.96213         7.01050         5.86052
| 51>    N       -0.25340         7.48286         6.93048
| 52>    C        0.06358         8.86108         7.22011
| 53>    C       -1.15654         9.61843         7.73584
| 54>    C        0.04848         6.45695         7.84660
| 55>    O        0.65737         6.64391         8.88160
| 56>    C       -0.50168         5.26713         7.24221
| 57>    C       -1.11358         5.64485         6.00633
| 58>    C       -1.60255         4.44105         5.37018
| 59>    O       -2.11993         4.21224         4.29517
| 60>    N       -1.31323         3.42266         6.30477
| 61>    C       -1.64340         2.04612         6.03412
| 62>    C       -0.43068         1.24615         5.56361
| 63>    C       -0.65329         3.90309         7.41111
| 64>    C       -0.25442         3.07415         8.51401
| 65>    C        0.41222         3.54484         9.56959
| 66>    H       -3.41039        -2.63877        -1.95705
| 67>    H       -4.11553        -0.00160        -4.54918
| 68>    H       -4.44159        -1.72672        -4.23820
| 69>    H       -1.67945        -0.46536        -4.65204
| 70>    H       -2.54354        -1.45734        -5.83062
| 71>    H       -1.96792        -2.17732        -4.32247
| 72>    H       -2.19730         1.17157         3.05363
| 73>    H       -2.48784        -0.57296         3.26722
| 74>    H       -4.67298         1.56810         3.06446
| 75>    H       -4.19672         0.70272         4.53066
| 76>    H       -4.94992        -0.17292         3.19802
| 77>    H       -2.88681         2.81568         1.74476
| 78>    H       -3.45537         3.07783        -1.25847
| 79>    H       -2.48668         5.00062         1.98684
| 80>    H       -3.84705         5.27051        -2.10714
| 81>    H       -3.14179        13.04510        -1.45943
| 82>    H       -0.61516        10.42151         3.03512
| 83>    H       -4.06540         7.87627         2.86945
| 84>    H        0.44973         9.33322         6.31573
| 85>    H        0.83874         8.83521         7.99090
| 86>    H       -1.94053         9.63558         6.98203
| 87>    H       -0.88014        10.64168         7.97331
| 88>    H       -1.54385         9.14328         8.63437
| 89>    H       -2.39943         2.07215         5.24554
| 90>    H       -2.08497         1.59129         6.92548
| 91>    H       -0.02522         1.68352         4.65413
| 92>    H       -0.72098         0.21919         5.35948
| 93>    H        0.35073         1.24575         6.32010
| 94>    H       -0.52641         2.02889         8.46380
| 95>    H        0.69362         4.58212         9.64252
| 96>    H        0.69199         2.89860        10.38390
| 97> *
| 98>
| 99>                          ****END OF INPUT****

CARTESIAN COORDINATES (ANGSTROEM)
---------------------------------
  C     -3.391580   -1.589870   -1.725330
  N     -3.553530   -0.654550   -2.699190
  C     -3.716230   -0.918320   -4.106800
  C     -2.389750   -1.279950   -4.769900
  C     -3.494040    0.653640   -2.172290
  O     -3.622280    1.652810   -2.856710
  C     -3.284550    0.454720   -0.759840
  C     -3.229580   -0.958970   -0.525230
  C     -3.031800   -1.167430    0.893660
  O     -2.921410   -2.166920    1.568410
  N     -2.974800    0.137640    1.424100
  C     -2.890690    0.353160    2.846980
  C     -4.266300    0.635050    3.448350
  C     -3.124040    1.104130    0.455330
  C     -3.073480    2.503220    0.727510
  C     -3.246980    3.417180   -0.251800
  C     -3.189590    4.842720   -0.085250
  C     -2.787550    5.512950    1.081800
  N     -2.753240    6.824150    1.148800
  C     -3.135350    7.531360    0.084020
  N     -3.523050    6.996450   -1.076150
  C     -3.538570    5.687090   -1.155970
  C     -3.108140    8.970510    0.173740
  C     -2.691090    9.789500    1.379670
  N     -2.639720   11.072650    1.154990
  C     -3.033430   11.211730   -0.151160
  C     -3.231830   11.999970   -1.237140
  S     -3.698940   10.674770   -2.348470
  C     -3.330980    9.920850   -0.750090
  C     -2.336040    9.182010    2.632410
  C     -1.204730    9.571810    3.352130
  N     -0.787870    8.926530    4.421390
  C     -1.469020    7.839320    4.782550
  N     -2.621850    7.453830    4.238770
  C     -3.066670    8.120290    3.201210
  C     -0.962130    7.010500    5.860520
  N     -0.253400    7.482860    6.930480
  C      0.063580    8.861080    7.220110
  C     -1.156540    9.618430    7.735840
  C      0.048480    6.456950    7.846600
  O      0.657370    6.643910    8.881600
  C     -0.501680    5.267130    7.242210
  C     -1.113580    5.644850    6.006330
  C     -1.602550    4.441050    5.370180
  O     -2.119930    4.212240    4.295170
  N     -1.313230    3.422660    6.304770
  C     -1.643400    2.046120    6.034120
  C     -0.430680    1.246150    5.563610
  C     -0.653290    3.903090    7.411110
  C     -0.254420    3.074150    8.514010
  C      0.412220    3.544840    9.569590
  H     -3.410390   -2.638770   -1.957050
  H     -4.115530   -0.001600   -4.549180
  H     -4.441590   -1.726720   -4.238200
  H     -1.679450   -0.465360   -4.652040
  H     -2.543540   -1.457340   -5.830620
  H     -1.967920   -2.177320   -4.322470
  H     -2.197300    1.171570    3.053630
  H     -2.487840   -0.572960    3.267220
  H     -4.672980    1.568100    3.064460
  H     -4.196720    0.702720    4.530660
  H     -4.949920   -0.172920    3.198020
  H     -2.886810    2.815680    1.744760
  H     -3.455370    3.077830   -1.258470
  H     -2.486680    5.000620    1.986840
  H     -3.847050    5.270510   -2.107140
  H     -3.141790   13.045100   -1.459430
  H     -0.615160   10.421510    3.035120
  H     -4.065400    7.876270    2.869450
  H      0.449730    9.333220    6.315730
  H      0.838740    8.835210    7.990900
  H     -1.940530    9.635580    6.982030
  H     -0.880140   10.641680    7.973310
  H     -1.543850    9.143280    8.634370
  H     -2.399430    2.072150    5.245540
  H     -2.084970    1.591290    6.925480
  H     -0.025220    1.683520    4.654130
  H     -0.720980    0.219190    5.359480
  H      0.350730    1.245750    6.320100
  H     -0.526410    2.028890    8.463800
  H      0.693620    4.582120    9.642520
  H      0.691990    2.898600   10.383900

 Total Charge           Charge          ....    0
 Multiplicity           Mult            ....    1
 Number of Electrons    NEL             ....  364
 Basis Dimension        Dim             ....  873

ORBITAL ENERGIES
----------------

  NO   OCC          E(Eh)            E(eV)
   0   2.0000     -88.951364     -2420.4897
   1   2.0000     -19.192775      -522.2620
   2   2.0000     -19.186948      -522.1034
   3   2.0000     -19.183759      -522.0166
   4   2.0000     -19.183351      -522.0055
   5   2.0000     -14.451600      -393.2480
   6   2.0000     -14.450576      -393.2202
   7   2.0000     -14.448098      -393.1527
   8   2.0000     -14.446256      -393.1026
   9   2.0000     -14.419386      -392.3715
  10   2.0000     -14.417642      -392.3240
  11   2.0000     -14.412805      -392.1924
  12   2.0000     -14.407786      -392.0558
  13   2.0000     -14.407534      -392.0489
  14   2.0000     -10.375670      -282.3363
  15   2.0000     -10.369564      -282.1702
  16   2.0000     -10.369085      -282.1572
  17   2.0000     -10.365923      -282.0711
  18   2.0000     -10.355905      -281.7985
  19   2.0000     -10.351170      -281.6697
  20   2.0000     -10.339084      -281.3408
  21   2.0000     -10.336805      -281.2788
  22   2.0000     -10.333454      -281.1876
  23   2.0000     -10.332951      -281.1739
  24   2.0000     -10.330647      -281.1112
  25   2.0000     -10.327992      -281.0390
  26   2.0000     -10.326514      -280.9987
  27   2.0000     -10.325807      -280.9795
  28   2.0000     -10.325446      -280.9697
  29   2.0000     -10.321507      -280.8625
  30   2.0000     -10.312061      -280.6054
  31   2.0000     -10.310758      -280.5700
  32   2.0000     -10.307254      -280.4747
  33   2.0000     -10.306252      -280.4474
  34   2.0000     -10.304672      -280.4044
  35   2.0000     -10.298495      -280.2363
  36   2.0000     -10.297091      -280.1981
  37   2.0000     -10.291684      -280.0510
  38   2.0000     -10.290059      -280.0067
  39   2.0000     -10.288594      -279.9669
  40   2.0000     -10.286513      -279.9103
  41   2.0000     -10.285936      -279.8945
  42   2.0000     -10.278197      -279.6840
  43   2.0000     -10.266728      -279.3719
  44   2.0000     -10.263546      -279.2853
  45   2.0000     -10.261126      -279.2194
  46   2.0000     -10.259210      -279.1673
  47   2.0000     -10.256062      -279.0816
  48   2.0000     -10.254678      -279.0440
  49   2.0000     -10.253724      -279.0180
  50   2.0000     -10.249710      -278.9088
  51   2.0000      -8.045890      -218.9398
  52   2.0000      -6.016698      -163.7227
  53   2.0000      -6.012927      -163.6201
  54   2.0000      -6.004488      -163.3904
  55   2.0000      -1.131156       -30.7803
  56   2.0000      -1.128323       -30.7032
  57   2.0000      -1.121697       -30.5229
  58   2.0000      -1.121681       -30.5225
  59   2.0000      -1.094424       -29.7808
  60   2.0000      -1.087747       -29.5991
  61   2.0000      -1.067481       -29.0476
  62   2.0000      -1.059847       -28.8399
  63   2.0000      -1.059018       -28.8173
  64   2.0000      -1.050619       -28.5888
  65   2.0000      -1.047524       -28.5046
  66   2.0000      -0.988076       -26.8869
  67   2.0000      -0.979384       -26.6504
  68   2.0000      -0.969323       -26.3766
  69   2.0000      -0.933767       -25.4091
  70   2.0000      -0.922779       -25.1101
  71   2.0000      -0.922445       -25.1010
  72   2.0000      -0.905686       -24.6450
  73   2.0000      -0.891616       -24.2621
  74   2.0000      -0.889000       -24.1909
  75   2.0000      -0.871176       -23.7059
  76   2.0000      -0.865530       -23.5523
  77   2.0000      -0.852387       -23.1946
  78   2.0000      -0.826865       -22.5001
  79   2.0000      -0.817669       -22.2499
  80   2.0000      -0.813898       -22.1473
  81   2.0000      -0.803475       -21.8637
  82   2.0000      -0.785188       -21.3661
  83   2.0000      -0.783366       -21.3165
  84   2.0000      -0.765846       -20.8397
  85   2.0000      -0.759140       -20.6572
  86   2.0000      -0.758473       -20.6391
  87   2.0000      -0.755839       -20.5674
  88   2.0000      -0.746459       -20.3122
  89   2.0000      -0.742110       -20.1938
  90   2.0000      -0.735642       -20.0178
  91   2.0000      -0.707186       -19.2435
  92   2.0000      -0.705603       -19.2004
  93   2.0000      -0.703289       -19.1375
  94   2.0000      -0.691240       -18.8096
  95   2.0000      -0.688194       -18.7267
  96   2.0000      -0.661260       -17.9938
  97   2.0000      -0.655931       -17.8488
  98   2.0000      -0.655306       -17.8318
  99   2.0000      -0.648164       -17.6374
 100   2.0000      -0.645973       -17.5778
 101   2.0000      -0.639726       -17.4078
 102   2.0000      -0.627914       -17.0864
 103   2.0000      -0.626459       -17.0468
 104   2.0000      -0.614042       -16.7089
 105   2.0000      -0.600518       -16.3409
 106   2.0000      -0.594998       -16.1907
 107   2.0000      -0.590312       -16.0632
 108   2.0000      -0.583715       -15.8837
 109   2.0000      -0.580887       -15.8067
 110   2.0000      -0.573493       -15.6055
 111   2.0000      -0.566755       -15.4222
 112   2.0000      -0.565094       -15.3770
 113   2.0000      -0.563393       -15.3307
 114   2.0000      -0.559384       -15.2216
 115   2.0000      -0.558125       -15.1873
 116   2.0000      -0.545909       -14.8549
 117   2.0000      -0.541006       -14.7215
 118   2.0000      -0.533636       -14.5210
 119   2.0000      -0.531458       -14.4617
 120   2.0000      -0.527620       -14.3573
 121   2.0000      -0.526072       -14.3152
 122   2.0000      -0.524333       -14.2678
 123   2.0000      -0.521983       -14.2039
 124   2.0000      -0.519518       -14.1368
 125   2.0000      -0.518420       -14.1069
 126   2.0000      -0.515927       -14.0391
 127   2.0000      -0.514166       -13.9912
 128   2.0000      -0.511303       -13.9133
 129   2.0000      -0.508144       -13.8273
 130   2.0000      -0.505979       -13.7684
 131   2.0000      -0.502528       -13.6745
 132   2.0000      -0.501370       -13.6430
 133   2.0000      -0.499994       -13.6055
 134   2.0000      -0.494046       -13.4437
 135   2.0000      -0.491976       -13.3873
 136   2.0000      -0.490866       -13.3571
 137   2.0000      -0.480584       -13.0773
 138   2.0000      -0.472650       -12.8615
 139   2.0000      -0.470997       -12.8165
 140   2.0000      -0.470270       -12.7967
 141   2.0000      -0.465388       -12.6638
 142   2.0000      -0.463220       -12.6048
 143   2.0000      -0.460045       -12.5185
 144   2.0000      -0.459821       -12.5124
 145   2.0000      -0.454886       -12.3781
 146   2.0000      -0.454420       -12.3654
 147   2.0000      -0.451650       -12.2900
 148   2.0000      -0.445002       -12.1091
 149   2.0000      -0.443336       -12.0638
 150   2.0000      -0.439286       -11.9536
 151   2.0000      -0.437832       -11.9140
 152   2.0000      -0.433920       -11.8076
 153   2.0000      -0.430309       -11.7093
 154   2.0000      -0.425212       -11.5706
 155   2.0000      -0.424315       -11.5462
 156   2.0000      -0.421533       -11.4705
 157   2.0000      -0.418855       -11.3976
 158   2.0000      -0.415759       -11.3134
 159   2.0000      -0.407172       -11.0797
 160   2.0000      -0.403170       -10.9708
 161   2.0000      -0.400858       -10.9079
 162   2.0000      -0.398397       -10.8409
 163   2.0000      -0.398002       -10.8302
 164   2.0000      -0.379550       -10.3281
 165   2.0000      -0.376118       -10.2347
 166   2.0000      -0.352588        -9.5944
 167   2.0000      -0.349445        -9.5089
 168   2.0000      -0.345934        -9.4133
 169   2.0000      -0.345545        -9.4028
 170   2.0000      -0.343604        -9.3499
 171   2.0000      -0.342563        -9.3216
 172   2.0000      -0.327483        -8.9113
 173   2.0000      -0.326550        -8.8859
 174   2.0000      -0.321930        -8.7602
 175   2.0000      -0.313724        -8.5369
 176   2.0000      -0.309837        -8.4311
 177   2.0000      -0.307525        -8.3682
 178   2.0000      -0.301662        -8.2087
 179   2.0000      -0.271864        -7.3978
 180   2.0000      -0.245568        -6.6823
 181   2.0000      -0.245053        -6.6682
 182   0.0000      -0.085883        -2.3370
 183   0.0000      -0.071301        -1.9402
 184   0.0000      -0.054014        -1.4698
 185   0.0000      -0.015594        -0.4243
 186   0.0000      -0.007291        -0.1984

MULLIKEN ATOMIC CHARGES
-----------------------
   0 C :    0.036970
   1 N :   -0.256093
   2 C :    0.110143
   3 C :   -0.002003
   4 C :    0.175151
   5 O :   -0.220607
   6 C :   -0.104848
   7 C :    0.002939
   8 C :    0.162499
   9 O :   -0.187506
  10 N :   -0.268952
  11 C :    0.084129
  12 C :    0.006709
  13 C :    0.144700
  14 C :   -0.007315
  15 C :    0.007511
  16 C :    0.025641
  17 C :    0.057353
  18 N :   -0.095232
  19 C :   -0.114041
  20 N :   -0.028347
  21 C :    0.036320
  22 C :   -0.029571
  23 C :   -0.013613
  24 N :   -0.052011
  25 C :    0.187810
  26 C :   -0.150297
  27 S :    0.089427
  28 C :    0.010811
  29 C :   -0.050636
  30 C :    0.074034
  31 N :   -0.062860
  32 C :   -0.169439
  33 N :   -0.054198
  34 C :    0.146177
  35 C :    0.180826
  36 N :   -0.255288
  37 C :    0.120905
  38 C :   -0.003716
  39 C :    0.170580
  40 O :   -0.206113
  41 C :   -0.086432
  42 C :   -0.021731
  43 C :    0.163871
  44 O :   -0.192643
  45 N :   -0.271453
  46 C :    0.091520
  47 C :    0.001795
  48 C :    0.119361
  49 C :   -0.040555
  50 C :    0.019112
  51 H :    0.014579
  52 H :    0.041333
  53 H :    0.018856
  54 H :    0.031352
  55 H :    0.023723
  56 H :    0.014557
  57 H :    0.033558
  58 H :    0.040184
  59 H :    0.021287
  60 H :    0.023002
  61 H :    0.026082
  62 H :   -0.004091
  63 H :    0.014427
  64 H :    0.020475
  65 H :    0.023436
  66 H :    0.033764
  67 H :    0.010198
  68 H :    0.003432
  69 H :    0.034866
  70 H :    0.034006
  71 H :    0.018937
  72 H :    0.019059
  73 H :    0.020713
  74 H :    0.031072
  75 H :    0.024744
  76 H :    0.030271
  77 H :    0.026430
  78 H :    0.018398
  79 H :   -0.018210
  80 H :    0.058209
  81 H :    0.030558
Sum of atomic charges:   -0.0000000

LOEWDIN ATOMIC CHARGES
----------------------
   0 C :    0.086863
   1 N :    0.001084
   2 C :    0.038061
   3 C :   -0.060828
   4 C :    0.076646
   5 O :   -0.210715
   6 C :   -0.134956
   7 C :   -0.127577
   8 C :    0.082045
   9 O :   -0.192054
  10 N :   -0.006167
  11 C :    0.033492
  12 C :   -0.060821
  13 C :    0.087993
  14 C :   -0.041085
  15 C :    0.032767
  16 C :   -0.073991
  17 C :    0.077029
  18 N :   -0.061159
  19 C :    0.026851
  20 N :   -0.074368
  21 C :    0.064296
  22 C :   -0.080427
  23 C :    0.052191
  24 N :   -0.098916
  25 C :   -0.068727
  26 C :   -0.054706
  27 S :    0.298876
  28 C :   -0.076383
  29 C :   -0.080971
  30 C :    0.068523
  31 N :   -0.082500
  32 C :    0.021145
  33 N :   -0.072148
  34 C :    0.090932
  35 C :    0.070658
  36 N :    0.014309
  37 C :    0.032607
  38 C :   -0.060745
  39 C :    0.080744
  40 O :   -0.197907
  41 C :   -0.127828
  42 C :   -0.109003
  43 C :    0.094896
  44 O :   -0.206874
  45 N :   -0.005295
  46 C :    0.033726
  47 C :   -0.061975
  48 C :    0.085727
  49 C :   -0.056581
  50 C :    0.029495
  51 H :    0.032283
  52 H :    0.035816
  53 H :    0.024567
  54 H :    0.031838
  55 H :    0.030135
  56 H :    0.022318
  57 H :    0.023286
  58 H :    0.034516
  59 H :    0.025762
  60 H :    0.026789
  61 H :    0.031951
  62 H :    0.035091
  63 H :    0.037999
  64 H :    0.030208
  65 H :    0.033784
  66 H :    0.026411
  67 H :    0.030843
  68 H :    0.023987
  69 H :    0.024447
  70 H :    0.031352
  71 H :    0.021389
  72 H :    0.029634
  73 H :    0.027097
  74 H :    0.030127
  75 H :    0.024185
  76 H :    0.030135
  77 H :    0.030193
  78 H :    0.024835
  79 H :    0.029245
  80 H :    0.033550
  81 H :    0.029980

  Mayer bond orders larger than 0.100000
B(  0-C ,  1-N ) :   1.1857 B(  0-C ,  7-C ) :   1.4616 B(  0-C , 51-H ) :   0.9905
B(  1-N ,  2-C ) :   0.9428 B(  1-N ,  4-C ) :   1.0622 B(  2-C ,  3-C ) :   1.1193
B(  2-C , 52-H ) :   0.9344 B(  2-C , 53-H ) :   0.9540 B(  3-C , 54-H ) :   0.9674
B(  3-C , 55-H ) :   0.9687 B(  3-C , 56-H ) :   0.9690 B(  4-C ,  5-O ) :   2.0055
B(  4-C ,  6-C ) :   1.0073 B(  5-O , 63-H ) :   0.1192 B(  6-C ,  7-C ) :   1.2017
B(  6-C , 13-C ) :   1.3854 B(  7-C ,  8-C ) :   0.9501 B(  8-C ,  9-O ) :   2.1729
B(  8-C , 10-N ) :   1.0173 B( 10-N , 11-C ) :   0.9471 B( 10-N , 13-C ) :   1.1594
B( 11-C , 12-C ) :   1.1203 B( 11-C , 57-H ) :   0.9460 B( 11-C , 58-H ) :   0.9242
B( 12-C , 59-H ) :   0.9665 B( 12-C , 60-H ) :   0.9649 B( 12-C , 61-H ) :   0.9611
B( 13-C , 14-C ) :   1.1399 B( 14-C , 15-C ) :   1.6368 B( 14-C , 62-H ) :   0.9615
B( 15-C , 16-C ) :   1.0691 B( 15-C , 63-H ) :   0.9595 B( 16-C , 17-C ) :   1.2999
B( 16-C , 21-C ) :   1.2973 B( 17-C , 18-N ) :   1.5287 B( 17-C , 64-H ) :   0.9702
B( 18-N , 19-C ) :   1.5183 B( 19-C , 20-N ) :   1.6323 B( 19-C , 22-C ) :   0.9651
B( 20-N , 21-C ) :   1.5643 B( 20-N , 22-C ) :  -0.1187 B( 21-C , 65-H ) :   0.9866
B( 22-C , 23-C ) :   1.0146 B( 22-C , 28-C ) :   1.8182 B( 23-C , 24-N ) :   1.8136
B( 23-C , 26-C ) :   0.1020 B( 23-C , 29-C ) :   0.9978 B( 24-N , 25-C ) :   1.1988
B( 25-C , 26-C ) :   1.5654 B( 25-C , 28-C ) :   1.0540 B( 26-C , 27-S ) :   0.9823
B( 26-C , 66-H ) :   1.0103 B( 27-S , 28-C ) :   0.8989 B( 29-C , 30-C ) :   1.3939
B( 29-C , 34-C ) :   1.2905 B( 30-C , 31-N ) :   1.5082 B( 30-C , 67-H ) :   0.9860
B( 31-N , 32-C ) :   1.5391 B( 32-C , 33-N ) :   1.5611 B( 32-C , 35-C ) :   0.9480
B( 33-N , 34-C ) :   1.5757 B( 34-C , 68-H ) :   0.9694 B( 35-C , 36-N ) :   1.2277
B( 35-C , 42-C ) :   1.4354 B( 36-N , 37-C ) :   0.9387 B( 36-N , 39-C ) :   1.0501
B( 37-C , 38-C ) :   1.1237 B( 37-C , 69-H ) :   0.9314 B( 37-C , 70-H ) :   0.9275
B( 38-C , 71-H ) :   0.9682 B( 38-C , 72-H ) :   0.9677 B( 38-C , 73-H ) :   0.9661
B( 39-C , 40-O ) :   2.0456 B( 39-C , 41-C ) :   0.9876 B( 41-C , 42-C ) :   1.2066
B( 41-C , 48-C ) :   1.3957 B( 42-C , 43-C ) :   0.9717 B( 43-C , 44-O ) :   2.0634
B( 43-C , 45-N ) :   1.0389 B( 45-N , 46-C ) :   0.9484 B( 45-N , 48-C ) :   1.1591
B( 46-C , 47-C ) :   1.1194 B( 46-C , 74-H ) :   0.9257 B( 46-C , 75-H ) :   0.9466
B( 47-C , 76-H ) :   0.9613 B( 47-C , 77-H ) :   0.9669 B( 47-C , 78-H ) :   0.9644
B( 48-C , 49-C ) :   1.1215 B( 49-C , 50-C ) :   1.8929 B( 49-C , 79-H ) :   0.9532
B( 50-C , 80-H ) :   0.9253 B( 50-C , 81-H ) :   0.9438

-----------------------------------------------------------------------------
         ABSORPTION SPECTRUM VIA TRANSITION ELECTRIC DIPOLE MOMENTS
-----------------------------------------------------------------------------
State   Energy  Wavelength   fosc         T2         TX        TY        TZ
        (cm-1)    (nm)                  (au**2)     (au)      (au)      (au)
-----------------------------------------------------------------------------
   0   18298.3    546.5   0.075497459   1.35831  -0.26669   0.28451  -1.09829
   1   20622.9    484.9   0.501957019   8.01294  -0.11960  -2.72081  -0.77190
   2   20806.8    480.6   0.148682003   2.35249   0.12662  -1.20350   0.94237
   3   22745.8    439.6   0.072523343   1.04967  -0.06523  -1.01600   0.11472
   4   24892.0    401.7   0.041015806   0.54246  -0.10834  -0.03147  -0.72783
   5   27120.1    368.7   0.009416560   0.11431  -0.04929   0.33242  -0.03708
   6   27453.0    364.3   0.034288394   0.41118  -0.28067  -0.08347  -0.57047
   7   27552.7    362.9   0.037247279   0.44505  -0.12501  -0.65407   0.04008
   8   28676.3    348.7   0.019558448   0.22454   0.15194  -0.37145   0.25194
   9   28886.7    346.2   0.049915087   0.56887  -0.15731  -0.11981  -0.72785
  10   28968.6    345.2   0.096948555   1.10176  -0.21653   0.49033  -0.90247
  11   29838.3    335.1   0.005655052   0.06239  -0.17722  -0.16701  -0.05562
  12   29942.5    334.0   0.037600338   0.41341   0.11740  -0.09048   0.62565
  13   30727.9    325.4   0.029131392   0.31211   0.04653  -0.54926   0.09088
  14   30934.3    323.3   0.035856466   0.38159  -0.04538  -0.56762   0.23945
  15   31311.5    319.4   0.757856351   7.96818   0.14703  -2.73278   0.69171
  16   32485.0    307.8   0.032316001   0.32750   0.17708   0.41897   0.34728
  17   33003.0    303.0   0.015334227   0.15296   0.17271  -0.29660   0.18752
  18   33630.6    297.3   0.023242520   0.22752   0.15863   0.19964   0.40312
  19   34428.7    290.5   0.080843758   0.77304  -0.02761   0.86499  -0.15512
  20   34829.3    287.1   0.014034714   0.13266   0.11150   0.33888   0.07339
  21   34916.1    286.4   0.032404416   0.30553   0.03020  -0.51803   0.19042
  22   35007.7    285.7   0.004890147   0.04599  -0.15742  -0.06177  -0.13187
  23   35145.6    284.5   0.042454923   0.39768   0.20097  -0.11289   0.58698
  24   35376.5    282.7   0.063070423   0.58693   0.20844   0.07541   0.73335
  25   35565.4    281.2   0.436412319   4.03966   0.12154  -1.78668   0.91251
  26   36424.4    274.5   0.025665152   0.23197   0.12407   0.16421  -0.43544
  27   36764.8    272.0   0.002897698   0.02595   0.00587  -0.06550   0.14705
  28   37312.9    268.0   0.066400497   0.58585   0.20855  -0.40223   0.61690
  29   38277.7    261.2   0.007187962   0.06182  -0.00798   0.22002  -0.11553
  30   38494.3    259.8   0.009481862   0.08109   0.01218  -0.24565  -0.14352
  31   38889.1    257.1   0.001046994   0.00886   0.05323  -0.07658  -0.01285
  32   39217.6    255.0   0.014174093   0.11898  -0.11257  -0.27599  -0.17362
  33   39331.0    254.3   0.018289976   0.15309   0.11489   0.37122   0.04566
  34   39382.4    253.9   0.023353890   0.19522   0.00326  -0.35489   0.26318
  35   39736.5    251.7   0.048333630   0.40044   0.12132  -0.26891   0.55983
  36   40232.1    248.6   0.010125464   0.08285   0.10409  -0.18817   0.19134

FINAL SINGLE POINT ENERGY     -2617.499873589260

DIPOLE MOMENT
-------------
                                X             Y             Z
Electronic contribution:     -6.61089      43.74983     -19.34857
Nuclear contribution   :      6.25618     -44.26825      18.49616
                        -----------------------------------------
Total Dipole Moment    :     -0.35470      -0.51842      -0.85241
                        -----------------------------------------
Magnitude (a.u.)       :      1.05886
Magnitude (Debye)      :      2.69140

Rotational constants in cm-1:     0.001782     0.001248     0.000752
Rotational constants in MHz :    53.413957    37.410174    22.544343

                             ****ORCA TERMINATED NORMALLY****
TOTAL RUN TIME: 0 days 0 hours 6 minutes 25 seconds 379 msec
