                         Program Version 4.2.0 -  RELEASE  -
|  1> # ORCA input file
|  2> # SCF done       -177.712064092313          0.000891319523
|  3> ! CAM-B3LYP def2-SVP def2/J RIJCOSX Grid4 TightSCF
|  4> %maxcore 5000
|  5> %tddft
|  6>     Mode sTDDFT
|  7>     Ethresh 5.0
|  8>     maxcore 5000
|  9> end
| 10>
| 11> %pal
| 12>   nprocs 6
| 13>   end
| 14> * xyz 0 1
| 15>    C        5.12903         4.62803         1.36129
| 16>    N        4.83135         4.57589         0.03794
| 17>    C        5.68009         4.05206        -1.00221
| 18>    C        5.69793         2.52580        -0.99519
| 19>    C        3.52064         5.05054        -0.21706
| 20>    O        3.05019         5.13359        -1.33228
| 21>    C        3.01756         5.39532         1.09143
| 22>    C        4.05547         5.13208         2.04224
| 23>    C        3.57456         5.52756         3.34994
| 24>    O        4.07525         5.49509         4.45202
| 25>    N        2.27405         6.01003         3.10171
| 26>    C        1.46025         6.53263         4.17108
| 27>    C        1.50208         8.05862         4.22440
| 28>    C        1.93195         5.93102         1.76735
| 29>    C        0.67212         6.33948         1.25648
| 30>    C        0.27382         6.09372        -0.01807
| 31>    C       -0.97348         6.53396        -0.52723
| 32>    O       -1.74936         7.38772         0.17494
| 33>    C       -2.84723         7.67373        -0.56910
| 34>    C       -2.77732         6.99688        -1.77627
| 35>    C       -1.58118         6.25846        -1.75840
| 36>    C       -1.08817         5.30232        -2.77038
| 37>    O       -0.33553         4.40261        -2.52346
| 38>    O       -1.57171         5.48425        -4.01420
| 39>    C       -3.85950         8.54555        -0.09962
| 40>    C       -3.84329         9.14979         1.11774
| 41>    C       -4.87744        10.01676         1.54175
| 42>    N       -4.91180        10.63082         2.77895
| 43>    C       -3.96880        10.44907         3.85547
| 44>    C       -4.19523         9.13149         4.59298
| 45>    C       -6.03853        11.44038         2.92955
| 46>    O       -6.27737        12.09028         3.94110
| 47>    C       -6.74698        11.31643         1.68241
| 48>    C       -6.01022        10.43764         0.84807
| 49>    C       -6.70108        10.34749        -0.41760
| 50>    O       -6.46813         9.71668        -1.43276
| 51>    N       -7.81475        11.18953        -0.27024
| 52>    C       -8.74883        11.39762        -1.34920
| 53>    C       -8.46127        12.69242        -2.10586
| 54>    C       -7.85920        11.77714         0.97336
| 55>    C       -8.85550        12.67901         1.40826
| 56>    C       -8.85754        13.11935         2.69850
| 57>    C       -9.75469        14.05634         3.24604
| 58>    O      -10.71642        14.60464         2.46304
| 59>    C      -11.44881        15.45667         3.21608
| 60>    C      -10.95898        15.45932         4.51096
| 61>    C       -9.86892        14.57269         4.54602
| 62>    C       -9.13440        14.34194         5.81663
| 63>    O       -9.59407        14.75714         6.85106
| 64>    O       -7.97049        13.69662         5.82679
| 65>    C      -12.51439        16.16513         2.59949
| 66>    C      -13.33388        17.01969         3.25663
| 67>    C      -14.39150        17.74591         2.65425
| 68>    S      -14.71369        17.60511         0.94719
| 69>    C      -16.03356        18.68933         1.07885
| 70>    C      -16.25093        19.13528         2.34665
| 71>    C      -17.32275        20.12569         2.66340
| 72>    C      -15.30851        18.59585         3.27406
| 73>    C      -15.24399        18.88760         4.68530
| 74>    C      -16.27440        19.19866         5.48981
| 75>    C      -16.11202        19.47075         6.89378
| 76>    C      -17.12707        19.74100         7.71247
| 77>    H        6.08886         4.31169         1.72656
| 78>    H        6.69244         4.44702        -0.87352
| 79>    H        5.26860         4.41503        -1.94805
| 80>    H        6.07670         2.14951        -0.04707
| 81>    H        6.33471         2.16053        -1.79596
| 82>    H        4.69228         2.14136        -1.14658
| 83>    H        1.87944         6.12604         5.09603
| 84>    H        0.43350         6.17222         4.06090
| 85>    H        2.52504         8.39334         4.37726
| 86>    H        0.89282         8.41627         5.05017
| 87>    H        1.13198         8.49361         3.29845
| 88>    H       -0.00218         6.85613         1.92491
| 89>    H        0.89557         5.53550        -0.70378
| 90>    H       -3.53415         7.02893        -2.53545
| 91>    H       -2.15319         6.25319        -4.07633
| 92>    H       -4.68246         8.71813        -0.77885
| 93>    H       -3.01563         8.96749         1.78772
| 94>    H       -4.12816        11.28492         4.54243
| 95>    H       -2.94989        10.50574         3.46191
| 96>    H       -5.19630         9.11198         5.01650
| 97>    H       -3.47541         9.03286         5.40088
| 98>    H       -4.08812         8.28390         3.91947
| 99>    H       -9.76775        11.39653        -0.95245
|100>    H       -8.63026        10.54514        -2.02405
|101>    H       -8.52510        13.55330        -1.44401
|102>    H       -9.17960        12.81566        -2.91166
|103>    H       -7.46185        12.65761        -2.53250
|104>    H       -9.60891        13.02043         0.71504
|105>    H       -8.10922        12.72082         3.36311
|106>    H      -11.31816        16.02129         5.34734
|107>    H       -7.60185        13.37055         4.99015
|108>    H      -12.65242        15.98498         1.54186
|109>    H      -13.19146        17.16405         4.31733
|110>    H      -16.58247        18.95207         0.19557
|111>    H      -17.61714        20.65449         1.75929
|112>    H      -16.97090        20.84641         3.39902
|113>    H      -18.20573        19.62561         3.06191
|114>    H      -14.25882        18.82075         5.13047
|115>    H      -17.28652        19.22045         5.11614
|116>    H      -15.09962        19.44543         7.27652
|117>    H      -18.14483        19.77027         7.35855
|118>    H      -16.97788        19.93922         8.75953
|119> *
|120>
|121>                          ****END OF INPUT****

CARTESIAN COORDINATES (ANGSTROEM)
---------------------------------
  C      5.129030    4.628030    1.361290
  N      4.831350    4.575890    0.037940
  C      5.680090    4.052060   -1.002210
  C      5.697930    2.525800   -0.995190
  C      3.520640    5.050540   -0.217060
  O      3.050190    5.133590   -1.332280
  C      3.017560    5.395320    1.091430
  C      4.055470    5.132080    2.042240
  C      3.574560    5.527560    3.349940
  O      4.075250    5.495090    4.452020
  N      2.274050    6.010030    3.101710
  C      1.460250    6.532630    4.171080
  C      1.502080    8.058620    4.224400
  C      1.931950    5.931020    1.767350
  C      0.672120    6.339480    1.256480
  C      0.273820    6.093720   -0.018070
  C     -0.973480    6.533960   -0.527230
  O     -1.749360    7.387720    0.174940
  C     -2.847230    7.673730   -0.569100
  C     -2.777320    6.996880   -1.776270
  C     -1.581180    6.258460   -1.758400
  C     -1.088170    5.302320   -2.770380
  O     -0.335530    4.402610   -2.523460
  O     -1.571710    5.484250   -4.014200
  C     -3.859500    8.545550   -0.099620
  C     -3.843290    9.149790    1.117740
  C     -4.877440   10.016760    1.541750
  N     -4.911800   10.630820    2.778950
  C     -3.968800   10.449070    3.855470
  C     -4.195230    9.131490    4.592980
  C     -6.038530   11.440380    2.929550
  O     -6.277370   12.090280    3.941100
  C     -6.746980   11.316430    1.682410
  C     -6.010220   10.437640    0.848070
  C     -6.701080   10.347490   -0.417600
  O     -6.468130    9.716680   -1.432760
  N     -7.814750   11.189530   -0.270240
  C     -8.748830   11.397620   -1.349200
  C     -8.461270   12.692420   -2.105860
  C     -7.859200   11.777140    0.973360
  C     -8.855500   12.679010    1.408260
  C     -8.857540   13.119350    2.698500
  C     -9.754690   14.056340    3.246040
  O    -10.716420   14.604640    2.463040
  C    -11.448810   15.456670    3.216080
  C    -10.958980   15.459320    4.510960
  C     -9.868920   14.572690    4.546020
  C     -9.134400   14.341940    5.816630
  O     -9.594070   14.757140    6.851060
  O     -7.970490   13.696620    5.826790
  C    -12.514390   16.165130    2.599490
  C    -13.333880   17.019690    3.256630
  C    -14.391500   17.745910    2.654250
  S    -14.713690   17.605110    0.947190
  C    -16.033560   18.689330    1.078850
  C    -16.250930   19.135280    2.346650
  C    -17.322750   20.125690    2.663400
  C    -15.308510   18.595850    3.274060
  C    -15.243990   18.887600    4.685300
  C    -16.274400   19.198660    5.489810
  C    -16.112020   19.470750    6.893780
  C    -17.127070   19.741000    7.712470
  H      6.088860    4.311690    1.726560
  H      6.692440    4.447020   -0.873520
  H      5.268600    4.415030   -1.948050
  H      6.076700    2.149510   -0.047070
  H      6.334710    2.160530   -1.795960
  H      4.692280    2.141360   -1.146580
  H      1.879440    6.126040    5.096030
  H      0.433500    6.172220    4.060900
  H      2.525040    8.393340    4.377260
  H      0.892820    8.416270    5.050170
  H      1.131980    8.493610    3.298450
  H     -0.002180    6.856130    1.924910
  H      0.895570    5.535500   -0.703780
  H     -3.534150    7.028930   -2.535450
  H     -2.153190    6.253190   -4.076330
  H     -4.682460    8.718130   -0.778850
  H     -3.015630    8.967490    1.787720
  H     -4.128160   11.284920    4.542430
  H     -2.949890   10.505740    3.461910
  H     -5.196300    9.111980    5.016500
  H     -3.475410    9.032860    5.400880
  H     -4.088120    8.283900    3.919470
  H     -9.767750   11.396530   -0.952450
  H     -8.630260   10.545140   -2.024050
  H     -8.525100   13.553300   -1.444010
  H     -9.179600   12.815660   -2.911660
  H     -7.461850   12.657610   -2.532500
  H     -9.608910   13.020430    0.715040
  H     -8.109220   12.720820    3.363110
  H    -11.318160   16.021290    5.347340
  H     -7.601850   13.370550    4.990150
  H    -12.652420   15.984980    1.541860
  H    -13.191460   17.164050    4.317330
  H    -16.582470   18.952070    0.195570
  H    -17.617140   20.654490    1.759290
  H    -16.970900   20.846410    3.399020
  H    -18.205730   19.625610    3.061910
  H    -14.258820   18.820750    5.130470
  H    -17.286520   19.220450    5.116140
  H    -15.099620   19.445430    7.276520
  H    -18.144830   19.770270    7.358550
  H    -16.977880   19.939220    8.759530

 Total Charge           Charge          ....    0
 Multiplicity           Mult            ....    1
 Number of Electrons    NEL             ....  448
 Basis Dimension        Dim             .... 1082

ORBITAL ENERGIES
----------------

  NO   OCC          E(Eh)            E(eV)
   0   2.0000     -88.954329     -2420.5703
   1   2.0000     -19.311697      -525.4980
   2   2.0000     -19.302126      -525.2375
   3   2.0000     -19.258439      -524.0488
   4   2.0000     -19.241034      -523.5751
   5   2.0000     -19.199734      -522.4513
   6   2.0000     -19.197287      -522.3847
   7   2.0000     -19.195873      -522.3463
   8   2.0000     -19.184504      -522.0369
   9   2.0000     -19.182609      -521.9853
  10   2.0000     -19.179448      -521.8993
  11   2.0000     -14.459168      -393.4540
  12   2.0000     -14.458610      -393.4388
  13   2.0000     -14.447749      -393.1432
  14   2.0000     -14.445430      -393.0801
  15   2.0000     -10.403894      -283.1043
  16   2.0000     -10.395595      -282.8785
  17   2.0000     -10.380007      -282.4544
  18   2.0000     -10.379426      -282.4385
  19   2.0000     -10.366334      -282.0823
  20   2.0000     -10.366268      -282.0805
  21   2.0000     -10.355638      -281.7912
  22   2.0000     -10.350652      -281.6556
  23   2.0000     -10.346779      -281.5502
  24   2.0000     -10.345331      -281.5108
  25   2.0000     -10.344154      -281.4787
  26   2.0000     -10.338906      -281.3359
  27   2.0000     -10.335281      -281.2373
  28   2.0000     -10.325826      -280.9800
  29   2.0000     -10.312959      -280.6299
  30   2.0000     -10.312370      -280.6139
  31   2.0000     -10.304806      -280.4080
  32   2.0000     -10.303335      -280.3680
  33   2.0000     -10.301988      -280.3314
  34   2.0000     -10.301117      -280.3076
  35   2.0000     -10.299247      -280.2568
  36   2.0000     -10.298831      -280.2454
  37   2.0000     -10.297582      -280.2115
  38   2.0000     -10.295517      -280.1553
  39   2.0000     -10.295411      -280.1524
  40   2.0000     -10.295002      -280.1412
  41   2.0000     -10.293877      -280.1106
  42   2.0000     -10.293119      -280.0900
  43   2.0000     -10.292502      -280.0732
  44   2.0000     -10.292225      -280.0657
  45   2.0000     -10.287896      -279.9479
  46   2.0000     -10.284758      -279.8625
  47   2.0000     -10.280906      -279.7577
  48   2.0000     -10.278332      -279.6876
  49   2.0000     -10.277611      -279.6680
  50   2.0000     -10.275040      -279.5981
  51   2.0000     -10.272117      -279.5185
  52   2.0000     -10.269188      -279.4388
  53   2.0000     -10.268122      -279.4098
  54   2.0000     -10.267403      -279.3902
  55   2.0000     -10.264727      -279.3174
  56   2.0000     -10.264372      -279.3078
  57   2.0000     -10.262575      -279.2589
  58   2.0000     -10.262484      -279.2564
  59   2.0000     -10.259204      -279.1671
  60   2.0000     -10.254769      -279.0465
  61   2.0000     -10.253836      -279.0211
  62   2.0000      -8.050312      -219.0601
  63   2.0000      -6.019519      -163.7994
  64   2.0000      -6.015394      -163.6872
  65   2.0000      -6.012576      -163.6105
  66   2.0000      -1.229390       -33.4534
  67   2.0000      -1.220313       -33.2064
  68   2.0000      -1.180219       -32.1154
  69   2.0000      -1.166536       -31.7431
  70   2.0000      -1.138771       -30.9875
  71   2.0000      -1.132194       -30.8086
  72   2.0000      -1.125610       -30.6294
  73   2.0000      -1.118712       -30.4417
  74   2.0000      -1.095457       -29.8089
  75   2.0000      -1.078443       -29.3459
  76   2.0000      -1.068270       -29.0691
  77   2.0000      -1.060239       -28.8506
  78   2.0000      -1.056470       -28.7480
  79   2.0000      -1.047848       -28.5134
  80   2.0000      -0.987479       -26.8707
  81   2.0000      -0.937201       -25.5025
  82   2.0000      -0.934020       -25.4160
  83   2.0000      -0.927803       -25.2468
  84   2.0000      -0.924692       -25.1622
  85   2.0000      -0.921039       -25.0627
  86   2.0000      -0.915948       -24.9242
  87   2.0000      -0.906389       -24.6641
  88   2.0000      -0.905377       -24.6366
  89   2.0000      -0.900940       -24.5158
  90   2.0000      -0.878635       -23.9089
  91   2.0000      -0.870258       -23.6809
  92   2.0000      -0.866050       -23.5664
  93   2.0000      -0.859346       -23.3840
  94   2.0000      -0.856771       -23.3139
  95   2.0000      -0.835314       -22.7300
  96   2.0000      -0.824478       -22.4352
  97   2.0000      -0.815663       -22.1953
  98   2.0000      -0.814171       -22.1547
  99   2.0000      -0.802538       -21.8382
 100   2.0000      -0.791125       -21.5276
 101   2.0000      -0.783004       -21.3066
 102   2.0000      -0.768172       -20.9030
 103   2.0000      -0.765210       -20.8224
 104   2.0000      -0.756376       -20.5820
 105   2.0000      -0.755247       -20.5513
 106   2.0000      -0.740745       -20.1567
 107   2.0000      -0.740604       -20.1529
 108   2.0000      -0.728932       -19.8353
 109   2.0000      -0.717227       -19.5167
 110   2.0000      -0.712603       -19.3909
 111   2.0000      -0.708465       -19.2783
 112   2.0000      -0.705038       -19.1851
 113   2.0000      -0.700131       -19.0515
 114   2.0000      -0.694785       -18.9061
 115   2.0000      -0.692069       -18.8322
 116   2.0000      -0.685030       -18.6406
 117   2.0000      -0.682246       -18.5648
 118   2.0000      -0.679737       -18.4966
 119   2.0000      -0.669132       -18.2080
 120   2.0000      -0.658546       -17.9199
 121   2.0000      -0.654501       -17.8099
 122   2.0000      -0.646205       -17.5841
 123   2.0000      -0.644264       -17.5313
 124   2.0000      -0.625966       -17.0334
 125   2.0000      -0.620018       -16.8716
 126   2.0000      -0.615085       -16.7373
 127   2.0000      -0.604183       -16.4406
 128   2.0000      -0.600586       -16.3428
 129   2.0000      -0.597557       -16.2603
 130   2.0000      -0.592120       -16.1124
 131   2.0000      -0.590419       -16.0661
 132   2.0000      -0.583506       -15.8780
 133   2.0000      -0.579595       -15.7716
 134   2.0000      -0.576600       -15.6901
 135   2.0000      -0.574153       -15.6235
 136   2.0000      -0.572069       -15.5668
 137   2.0000      -0.570980       -15.5372
 138   2.0000      -0.569228       -15.4895
 139   2.0000      -0.568355       -15.4657
 140   2.0000      -0.565074       -15.3764
 141   2.0000      -0.562447       -15.3050
 142   2.0000      -0.557685       -15.1754
 143   2.0000      -0.550918       -14.9912
 144   2.0000      -0.541687       -14.7401
 145   2.0000      -0.536335       -14.5944
 146   2.0000      -0.535863       -14.5816
 147   2.0000      -0.532488       -14.4897
 148   2.0000      -0.528774       -14.3887
 149   2.0000      -0.527480       -14.3535
 150   2.0000      -0.526367       -14.3232
 151   2.0000      -0.525551       -14.3010
 152   2.0000      -0.524619       -14.2756
 153   2.0000      -0.521280       -14.1848
 154   2.0000      -0.520449       -14.1621
 155   2.0000      -0.518262       -14.1026
 156   2.0000      -0.517270       -14.0756
 157   2.0000      -0.516280       -14.0487
 158   2.0000      -0.513135       -13.9631
 159   2.0000      -0.510380       -13.8881
 160   2.0000      -0.507268       -13.8035
 161   2.0000      -0.506663       -13.7870
 162   2.0000      -0.505589       -13.7578
 163   2.0000      -0.504726       -13.7343
 164   2.0000      -0.499249       -13.5853
 165   2.0000      -0.493323       -13.4240
 166   2.0000      -0.491883       -13.3848
 167   2.0000      -0.488242       -13.2857
 168   2.0000      -0.484412       -13.1815
 169   2.0000      -0.480758       -13.0821
 170   2.0000      -0.479520       -13.0484
 171   2.0000      -0.474382       -12.9086
 172   2.0000      -0.472719       -12.8633
 173   2.0000      -0.471932       -12.8419
 174   2.0000      -0.471733       -12.8365
 175   2.0000      -0.470756       -12.8099
 176   2.0000      -0.464437       -12.6380
 177   2.0000      -0.463120       -12.6021
 178   2.0000      -0.462448       -12.5839
 179   2.0000      -0.461332       -12.5535
 180   2.0000      -0.460377       -12.5275
 181   2.0000      -0.456422       -12.4199
 182   2.0000      -0.452984       -12.3263
 183   2.0000      -0.452252       -12.3064
 184   2.0000      -0.450120       -12.2484
 185   2.0000      -0.449516       -12.2319
 186   2.0000      -0.446527       -12.1506
 187   2.0000      -0.445434       -12.1209
 188   2.0000      -0.443242       -12.0612
 189   2.0000      -0.441621       -12.0171
 190   2.0000      -0.440390       -11.9836
 191   2.0000      -0.433818       -11.8048
 192   2.0000      -0.431206       -11.7337
 193   2.0000      -0.429996       -11.7008
 194   2.0000      -0.428632       -11.6637
 195   2.0000      -0.425843       -11.5878
 196   2.0000      -0.422370       -11.4933
 197   2.0000      -0.419152       -11.4057
 198   2.0000      -0.412040       -11.2122
 199   2.0000      -0.409306       -11.1378
 200   2.0000      -0.406192       -11.0531
 201   2.0000      -0.399306       -10.8657
 202   2.0000      -0.396361       -10.7855
 203   2.0000      -0.395119       -10.7517
 204   2.0000      -0.386446       -10.5157
 205   2.0000      -0.379111       -10.3161
 206   2.0000      -0.374715       -10.1965
 207   2.0000      -0.357249        -9.7212
 208   2.0000      -0.356988        -9.7141
 209   2.0000      -0.352006        -9.5786
 210   2.0000      -0.349474        -9.5097
 211   2.0000      -0.341455        -9.2915
 212   2.0000      -0.340658        -9.2698
 213   2.0000      -0.339490        -9.2380
 214   2.0000      -0.338410        -9.2086
 215   2.0000      -0.323130        -8.7928
 216   2.0000      -0.319548        -8.6954
 217   2.0000      -0.313161        -8.5216
 218   2.0000      -0.308014        -8.3815
 219   2.0000      -0.296065        -8.0563
 220   2.0000      -0.284216        -7.7339
 221   2.0000      -0.259365        -7.0577
 222   2.0000      -0.243813        -6.6345
 223   2.0000      -0.226259        -6.1568
 224   0.0000      -0.097341        -2.6488
 225   0.0000      -0.071033        -1.9329
 226   0.0000      -0.045768        -1.2454
 227   0.0000      -0.025433        -0.6921
 228   0.0000       0.000640         0.0174

MULLIKEN ATOMIC CHARGES
-----------------------
   0 C :    0.040103
   1 N :   -0.259921
   2 C :    0.114584
   3 C :   -0.001627
   4 C :    0.167522
   5 O :   -0.194335
   6 C :   -0.090808
   7 C :    0.004621
   8 C :    0.161571
   9 O :   -0.191712
  10 N :   -0.271903
  11 C :    0.104002
  12 C :    0.005059
  13 C :    0.154491
  14 C :   -0.030061
  15 C :   -0.010321
  16 C :    0.130489
  17 O :   -0.200256
  18 C :    0.183866
  19 C :   -0.081920
  20 C :   -0.036206
  21 C :    0.169839
  22 O :   -0.161411
  23 O :   -0.156971
  24 C :   -0.008947
  25 C :   -0.028664
  26 C :    0.136091
  27 N :   -0.250874
  28 C :    0.095804
  29 C :    0.002447
  30 C :    0.187085
  31 O :   -0.266182
  32 C :   -0.081887
  33 C :   -0.061298
  34 C :    0.167313
  35 O :   -0.217674
  36 N :   -0.256655
  37 C :    0.100555
  38 C :    0.002100
  39 C :    0.151298
  40 C :   -0.044904
  41 C :   -0.015062
  42 C :    0.147044
  43 O :   -0.201011
  44 C :    0.214805
  45 C :   -0.093706
  46 C :   -0.032038
  47 C :    0.154943
  48 O :   -0.183540
  49 O :   -0.146739
  50 C :   -0.009821
  51 C :    0.018626
  52 C :   -0.123490
  53 S :    0.104786
  54 C :   -0.107870
  55 C :   -0.085904
  56 C :    0.106015
  57 C :    0.129883
  58 C :   -0.058480
  59 C :    0.010869
  60 C :   -0.000391
  61 C :   -0.015579
  62 H :    0.015119
  63 H :    0.015478
  64 H :    0.043893
  65 H :    0.012646
  66 H :    0.022291
  67 H :    0.034567
  68 H :    0.041832
  69 H :    0.018865
  70 H :    0.031330
  71 H :    0.018719
  72 H :    0.010288
  73 H :   -0.016710
  74 H :    0.051251
  75 H :    0.001623
  76 H :    0.179208
  77 H :    0.017936
  78 H :   -0.018450
  79 H :    0.047965
  80 H :    0.024545
  81 H :    0.031277
  82 H :    0.025334
  83 H :    0.016030
  84 H :    0.025182
  85 H :    0.042756
  86 H :    0.017491
  87 H :    0.024855
  88 H :    0.028592
  89 H :   -0.017280
  90 H :   -0.020945
  91 H :    0.002547
  92 H :    0.186957
  93 H :   -0.001904
  94 H :   -0.006211
  95 H :    0.014966
  96 H :    0.008707
  97 H :    0.033194
  98 H :    0.037083
  99 H :   -0.004503
 100 H :   -0.016847
 101 H :   -0.006615
 102 H :    0.014083
 103 H :    0.025212
Sum of atomic charges:   -0.0000000

LOEWDIN ATOMIC CHARGES
----------------------
   0 C :    0.093207
   1 N :   -0.000682
   2 C :    0.038348
   3 C :   -0.060150
   4 C :    0.077760
   5 O :   -0.186967
   6 C :   -0.123462
   7 C :   -0.130235
   8 C :    0.080390
   9 O :   -0.195390
  10 N :   -0.010540
  11 C :    0.035738
  12 C :   -0.061854
  13 C :    0.077744
  14 C :   -0.034408
  15 C :    0.014118
  16 C :    0.066056
  17 O :    0.020228
  18 C :    0.037285
  19 C :   -0.048952
  20 C :   -0.109987
  21 C :    0.081203
  22 O :   -0.141631
  23 O :   -0.030616
  24 C :    0.004100
  25 C :   -0.043559
  26 C :    0.066740
  27 N :    0.007106
  28 C :    0.036866
  29 C :   -0.060716
  30 C :    0.085105
  31 O :   -0.231430
  32 C :   -0.131411
  33 C :   -0.118337
  34 C :    0.083068
  35 O :   -0.205909
  36 N :    0.001732
  37 C :    0.037148
  38 C :   -0.060879
  39 C :    0.081653
  40 C :   -0.051345
  41 C :    0.007023
  42 C :    0.024235
  43 O :    0.015624
  44 C :    0.048563
  45 C :   -0.033211
  46 C :   -0.087559
  47 C :    0.078689
  48 O :   -0.168023
  49 O :   -0.018548
  50 C :   -0.055161
  51 C :   -0.009092
  52 C :   -0.173905
  53 S :    0.430941
  54 C :   -0.183529
  55 C :   -0.056194
  56 C :   -0.045446
  57 C :   -0.048673
  58 C :   -0.026782
  59 C :   -0.016492
  60 C :   -0.026275
  61 C :   -0.041630
  62 H :    0.032811
  63 H :    0.023555
  64 H :    0.037033
  65 H :    0.021594
  66 H :    0.029916
  67 H :    0.033291
  68 H :    0.037481
  69 H :    0.021586
  70 H :    0.033118
  71 H :    0.028382
  72 H :    0.019676
  73 H :    0.028573
  74 H :    0.050846
  75 H :    0.034918
  76 H :    0.093059
  77 H :    0.044005
  78 H :    0.029875
  79 H :    0.039045
  80 H :    0.023518
  81 H :    0.033200
  82 H :    0.031250
  83 H :    0.022234
  84 H :    0.024766
  85 H :    0.037098
  86 H :    0.022858
  87 H :    0.030984
  88 H :    0.031859
  89 H :    0.031242
  90 H :    0.031313
  91 H :    0.037621
  92 H :    0.079497
  93 H :    0.029407
  94 H :    0.035312
  95 H :    0.022142
  96 H :    0.032573
  97 H :    0.036321
  98 H :    0.034679
  99 H :    0.027878
 100 H :    0.027420
 101 H :    0.028964
 102 H :    0.021564
 103 H :    0.025847

  Mayer bond orders larger than 0.100000
B(  0-C ,  1-N ) :   1.1996 B(  0-C ,  7-C ) :   1.4481 B(  0-C , 62-H ) :   0.9899
B(  1-N ,  2-C ) :   0.9420 B(  1-N ,  4-C ) :   1.0386 B(  2-C ,  3-C ) :   1.1185
B(  2-C , 63-H ) :   0.9536 B(  2-C , 64-H ) :   0.9340 B(  3-C , 65-H ) :   0.9692
B(  3-C , 66-H ) :   0.9689 B(  3-C , 67-H ) :   0.9674 B(  4-C ,  5-O ) :   2.0647
B(  4-C ,  6-C ) :   0.9932 B(  6-C ,  7-C ) :   1.2042 B(  6-C , 13-C ) :   1.3947
B(  7-C ,  8-C ) :   0.9517 B(  8-C ,  9-O ) :   2.1699 B(  8-C , 10-N ) :   1.0206
B( 10-N , 11-C ) :   0.9503 B( 10-N , 13-C ) :   1.1489 B( 11-C , 12-C ) :   1.1186
B( 11-C , 68-H ) :   0.9283 B( 11-C , 69-H ) :   0.9501 B( 12-C , 70-H ) :   0.9636
B( 12-C , 71-H ) :   0.9682 B( 12-C , 72-H ) :   0.9691 B( 13-C , 14-C ) :   1.1280
B( 14-C , 15-C ) :   1.5850 B( 14-C , 73-H ) :   0.9713 B( 15-C , 16-C ) :   1.1897
B( 15-C , 74-H ) :   0.9312 B( 16-C , 17-O ) :   1.1617 B( 16-C , 20-C ) :   1.4031
B( 17-O , 18-C ) :   1.1312 B( 18-C , 19-C ) :   1.4427 B( 18-C , 24-C ) :   1.1600
B( 19-C , 20-C ) :   1.2097 B( 19-C , 75-H ) :   0.9992 B( 20-C , 21-C ) :   0.9059
B( 21-C , 22-O ) :   2.1691 B( 21-C , 23-O ) :   1.2396 B( 23-O , 76-H ) :   0.9564
B( 24-C , 25-C ) :   1.5708 B( 24-C , 77-H ) :   0.9352 B( 25-C , 26-C ) :   1.1541
B( 25-C , 78-H ) :   0.9741 B( 26-C , 27-N ) :   1.1406 B( 26-C , 33-C ) :   1.3480
B( 27-N , 28-C ) :   0.9441 B( 27-N , 30-C ) :   1.0990 B( 28-C , 29-C ) :   1.1210
B( 28-C , 79-H ) :   0.9295 B( 28-C , 80-H ) :   0.9498 B( 29-C , 81-H ) :   0.9639
B( 29-C , 82-H ) :   0.9678 B( 29-C , 83-H ) :   0.9687 B( 30-C , 31-O ) :   1.9002
B( 30-C , 32-C ) :   1.0281 B( 31-O , 90-H ) :   0.1054 B( 32-C , 33-C ) :   1.2546
B( 32-C , 39-C ) :   1.3057 B( 33-C , 34-C ) :   0.9874 B( 34-C , 35-O ) :   2.0164
B( 34-C , 36-N ) :   1.0628 B( 35-O , 77-H ) :   0.1165 B( 36-N , 37-C ) :   0.9440
B( 36-N , 39-C ) :   1.1589 B( 37-C , 38-C ) :   1.1212 B( 37-C , 84-H ) :   0.9502
B( 37-C , 85-H ) :   0.9301 B( 38-C , 86-H ) :   0.9692 B( 38-C , 87-H ) :   0.9680
B( 38-C , 88-H ) :   0.9642 B( 39-C , 40-C ) :   1.1564 B( 40-C , 41-C ) :   1.5546
B( 40-C , 89-H ) :   0.9888 B( 41-C , 42-C ) :   1.1954 B( 41-C , 90-H ) :   0.9187
B( 42-C , 43-O ) :   1.1520 B( 42-C , 46-C ) :   1.3362 B( 43-O , 44-C ) :   1.1249
B( 44-C , 45-C ) :   1.4114 B( 44-C , 50-C ) :   1.1296 B( 45-C , 46-C ) :   1.2820
B( 45-C , 91-H ) :   1.0144 B( 46-C , 47-C ) :   0.8925 B( 47-C , 48-O ) :   2.1757
B( 47-C , 49-O ) :   1.2937 B( 49-O , 92-H ) :   0.9258 B( 50-C , 51-C ) :   1.6497
B( 50-C , 93-H ) :   0.9617 B( 51-C , 52-C ) :   1.1840 B( 51-C , 94-H ) :   0.9653
B( 52-C , 53-S ) :   1.1210 B( 52-C , 57-C ) :   1.4232 B( 53-S , 54-C ) :   1.1446
B( 54-C , 55-C ) :   1.5959 B( 54-C , 95-H ) :   0.9666 B( 55-C , 56-C ) :   1.0890
B( 55-C , 57-C ) :   1.2427 B( 56-C , 96-H ) :   0.9478 B( 56-C , 97-H ) :   0.9470
B( 56-C , 98-H ) :   0.9428 B( 57-C , 58-C ) :   1.0657 B( 58-C , 59-C ) :   1.7415
B( 58-C , 61-C ) :   0.1004 B( 58-C , 99-H ) :   0.9610 B( 59-C , 60-C ) :   1.0954
B( 59-C ,100-H ) :   0.9791 B( 60-C , 61-C ) :   1.9088 B( 60-C ,101-H ) :   0.9767
B( 61-C ,102-H ) :   0.9578 B( 61-C ,103-H ) :   0.9518

-----------------------------------------------------------------------------
         ABSORPTION SPECTRUM VIA TRANSITION ELECTRIC DIPOLE MOMENTS
-----------------------------------------------------------------------------
State   Energy  Wavelength   fosc         T2         TX        TY        TZ
        (cm-1)    (nm)                  (au**2)     (au)      (au)      (au)
-----------------------------------------------------------------------------
   0   13608.4    734.8   1.780546117  43.07477   5.32262  -3.74485  -0.84888
   1   18584.9    538.1   0.030301400   0.53676  -0.55855  -0.41517  -0.22895
   2   20969.0    476.9   0.018249283   0.28651   0.09127   0.33375   0.40840
   3   21785.6    459.0   0.263409121   3.98049   1.25826  -1.24207  -0.92441
   4   24808.1    403.1   0.034727273   0.46084  -0.65433   0.14964   0.10153
   5   26338.4    379.7   0.269546033   3.36914  -1.49372   1.06621   0.03391
   6   27462.5    364.1   0.024201588   0.29012  -0.39812   0.36205  -0.02334
   7   27788.1    359.9   0.063462017   0.75185  -0.74260   0.42364   0.14465
   8   28059.2    356.4   0.049606375   0.58202   0.63426  -0.42123   0.04794
   9   29010.6    344.7   0.094054522   1.06733   0.73443  -0.70312   0.18323
  10   29382.9    340.3   0.003926945   0.04400   0.17006  -0.05024  -0.11205
  11   29489.5    339.1   0.143446100   1.60139   1.05110  -0.69032  -0.14154
  12   30404.3    328.9   0.004466732   0.04836   0.08440   0.06794   0.19138
  13   30606.9    326.7   0.009875190   0.10622   0.03801   0.02744   0.32252
  14   32693.3    305.9   0.060512674   0.60935   0.15405  -0.11887   0.75597
  15   33337.8    300.0   0.118241895   1.16764  -0.00166  -0.32673  -1.02999
  16   33889.3    295.1   0.122926132   1.19415  -0.02152   0.38266   1.02335
  17   34132.3    293.0   0.036599181   0.35301  -0.08214   0.23836   0.53800
  18   34280.6    291.7   0.036802640   0.35343   0.58031  -0.10111  -0.08029
  19   34850.0    286.9   0.001285419   0.01214  -0.10924   0.00211   0.01431
  20   35196.4    284.1   0.000550231   0.00515   0.03615  -0.04861   0.03843
  21   35612.1    280.8   0.088897396   0.82180  -0.64861   0.05468  -0.63097
  22   35996.4    277.8   0.157064211   1.43646   0.15669   0.27028   1.15709
  23   37449.3    267.0   0.071737103   0.63063   0.12817  -0.47397  -0.62414
  24   37824.1    264.4   0.000060319   0.00053   0.01483  -0.01591   0.00720
  25   38286.1    261.2   0.298998077   2.57100  -0.16848   0.62897   1.46527
  26   38823.6    257.6   0.086800173   0.73604  -0.13482   0.13468  -0.83649
  27   39485.9    253.3   0.035679096   0.29747  -0.37401   0.11199  -0.38085
  28   39759.9    251.5   0.007946130   0.06579  -0.01404  -0.21923   0.13242
  29   40026.5    249.8   0.038250396   0.31460  -0.06542   0.12233   0.54347

FINAL SINGLE POINT ENERGY     -3182.194829477060

DIPOLE MOMENT
-------------
                                X             Y             Z
Electronic contribution:      8.38958     -13.31705     -14.03180
Nuclear contribution   :    -10.42538      15.06849      12.42768
                        -----------------------------------------
Total Dipole Moment    :     -2.03580       1.75144      -1.60412
                        -----------------------------------------
Magnitude (a.u.)       :      3.12813
Magnitude (Debye)      :      7.95107

Rotational constants in cm-1:     0.003199     0.000272     0.000253
Rotational constants in MHz :    95.909954     8.163066     7.588346

                             ****ORCA TERMINATED NORMALLY****
TOTAL RUN TIME: 0 days 0 hours 13 minutes 25 seconds 854 msec
