                         Program Version 4.2.0 -  RELEASE  -
|  1> # ORCA input file
|  2> # SCF done       -165.038353552033          0.000919098571
|  3> ! CAM-B3LYP def2-SVP def2/J RIJCOSX Grid4 TightSCF
|  4> %maxcore 5000
|  5> %tddft
|  6>     Mode sTDDFT
|  7>     Ethresh 5.0
|  8>     maxcore 5000
|  9> end
| 10>
| 11> %pal
| 12>   nprocs 6
| 13>   end
| 14> * xyz 0 1
| 15>    C       -4.48978        -0.85173         2.89401
| 16>    N       -4.31215         0.12539         3.82701
| 17>    C       -4.56891        -0.00022         5.23882
| 18>    C       -6.06475        -0.00341         5.54401
| 19>    C       -3.88725         1.33096         3.23446
| 20>    O       -3.66134         2.34584         3.88082
| 21>    C       -3.80557         1.02629         1.83388
| 22>    C       -4.18732        -0.34298         1.66302
| 23>    C       -4.09934        -0.65947         0.25162
| 24>    O       -4.31568        -1.67565        -0.37281
| 25>    N       -3.65996         0.53730        -0.34091
| 26>    C       -3.49767         0.64769        -1.76903
| 27>    C       -4.68314         1.35426        -2.42354
| 28>    C       -3.48597         1.55031         0.58151
| 29>    C       -3.04844         2.84917         0.25446
| 30>    C       -2.92557         3.81259         1.21653
| 31>    C       -2.50404         5.12980         1.02173
| 32>    S       -2.03672         5.77946        -0.51960
| 33>    C       -1.73770         7.36695         0.12717
| 34>    C       -1.93605         7.37668         1.52329
| 35>    C       -2.38542         6.12087         2.02133
| 36>    C       -2.65538         5.96299         3.38523
| 37>    C       -2.44447         7.00082         4.26809
| 38>    C       -2.74330         6.83078         5.68717
| 39>    C       -2.79205         5.66679         6.32493
| 40>    C       -1.92729         8.23881         3.78384
| 41>    C       -1.61872         9.35637         4.73322
| 42>    C       -1.68543         8.40937         2.44459
| 43>    C       -1.38553         8.38418        -0.78020
| 44>    C       -1.48044         9.72886        -0.57406
| 45>    C       -1.11269        10.68964        -1.53822
| 46>    O       -0.52765        10.35802        -2.70885
| 47>    C       -0.31562        11.49846        -3.42027
| 48>    C       -0.77213        12.58957        -2.69768
| 49>    C       -1.27666        12.08240        -1.48802
| 50>    C       -1.83179        12.80023        -0.42349
| 51>    N       -2.28103        13.38399         0.45711
| 52>    C        0.31742        11.40078        -4.68174
| 53>    C        0.50036        12.44972        -5.52972
| 54>    C        1.17031        12.37834        -6.76276
| 55>    C        1.34341        13.39899        -7.71470
| 56>    C        2.11306        12.99350        -8.84620
| 57>    C        2.39842        13.94126        -9.84671
| 58>    C        1.90460        15.21262        -9.74310
| 59>    C        1.11364        15.59647        -8.64738
| 60>    C        0.84160        14.71137        -7.64236
| 61>    C        2.53907        11.64799        -8.76988
| 62>    S        1.96697        10.93000        -7.29215
| 63>    C        3.26874        10.88607        -9.70393
| 64>    S        3.35349        11.36154       -11.37661
| 65>    C        4.28990         9.98321       -11.83760
| 66>    C        4.54630         9.17616       -10.72668
| 67>    C        3.97153         9.67617        -9.51805
| 68>    C        4.19906         8.97329        -8.32626
| 69>    C        4.93904         7.81230        -8.30956
| 70>    C        5.15524         7.10354        -7.05070
| 71>    C        5.22323         7.67830        -5.85638
| 72>    C        5.48404         7.29814        -9.52441
| 73>    C        6.29611         6.03872        -9.51648
| 74>    C        5.29063         7.97935       -10.69330
| 75>    C        4.71069         9.78214       -13.18700
| 76>    C        4.44552        10.60409       -14.20480
| 77>    H       -4.80956        -1.83669         3.17837
| 78>    H       -4.09332         0.86161         5.71544
| 79>    H       -4.10284        -0.91850         5.61010
| 80>    H       -6.52126         0.91473         5.18213
| 81>    H       -6.22343        -0.07301         6.61673
| 82>    H       -6.55314        -0.84782         5.06248
| 83>    H       -3.42857        -0.37732        -2.14486
| 84>    H       -2.56262         1.16984        -1.99282
| 85>    H       -5.59631         0.79417        -2.23701
| 86>    H       -4.52775         1.41973        -3.49716
| 87>    H       -4.80566         2.35888        -2.02417
| 88>    H       -2.80685         3.08265        -0.77299
| 89>    H       -3.17881         3.54635         2.23331
| 90>    H       -3.03686         5.02107         3.74376
| 91>    H       -2.93163         7.73964         6.24196
| 92>    H       -2.59268         4.72726         5.83855
| 93>    H       -3.02952         5.61613         7.37404
| 94>    H       -0.97257         9.01090         5.53883
| 95>    H       -2.53468         9.74690         5.17677
| 96>    H       -1.12167        10.17182         4.21355
| 97>    H       -1.26442         9.34070         2.10164
| 98>    H       -1.06440         8.05226        -1.76004
| 99>    H       -1.90282        10.13206         0.33274
|100>    H       -0.73889        13.61877        -2.98970
|101>    H        0.66630        10.41594        -4.96059
|102>    H        0.10995        13.41912        -5.25451
|103>    H        3.01664        13.67340       -10.68740
|104>    H        2.12643        15.93752       -10.51163
|105>    H        0.72897        16.60415        -8.60071
|106>    H        0.24585        15.01025        -6.79384
|107>    H        3.78678         9.33880        -7.40126
|108>    H        5.27519         6.03133        -7.12495
|109>    H        5.14801         8.74475        -5.72484
|110>    H        5.37490         7.09976        -4.96122
|111>    H        5.67830         5.18361        -9.24180
|112>    H        7.11129         6.11147        -8.79798
|113>    H        6.71688         5.85102       -10.50119
|114>    H        5.72010         7.60328       -11.60992
|115>    H        5.28702         8.88345       -13.36137
|116>    H        3.87467        11.50718       -14.06524
|117>    H        4.79179        10.39649       -15.20111
|118> *
|119>
|120>                          ****END OF INPUT****

CARTESIAN COORDINATES (ANGSTROEM)
---------------------------------
  C     -4.489780   -0.851730    2.894010
  N     -4.312150    0.125390    3.827010
  C     -4.568910   -0.000220    5.238820
  C     -6.064750   -0.003410    5.544010
  C     -3.887250    1.330960    3.234460
  O     -3.661340    2.345840    3.880820
  C     -3.805570    1.026290    1.833880
  C     -4.187320   -0.342980    1.663020
  C     -4.099340   -0.659470    0.251620
  O     -4.315680   -1.675650   -0.372810
  N     -3.659960    0.537300   -0.340910
  C     -3.497670    0.647690   -1.769030
  C     -4.683140    1.354260   -2.423540
  C     -3.485970    1.550310    0.581510
  C     -3.048440    2.849170    0.254460
  C     -2.925570    3.812590    1.216530
  C     -2.504040    5.129800    1.021730
  S     -2.036720    5.779460   -0.519600
  C     -1.737700    7.366950    0.127170
  C     -1.936050    7.376680    1.523290
  C     -2.385420    6.120870    2.021330
  C     -2.655380    5.962990    3.385230
  C     -2.444470    7.000820    4.268090
  C     -2.743300    6.830780    5.687170
  C     -2.792050    5.666790    6.324930
  C     -1.927290    8.238810    3.783840
  C     -1.618720    9.356370    4.733220
  C     -1.685430    8.409370    2.444590
  C     -1.385530    8.384180   -0.780200
  C     -1.480440    9.728860   -0.574060
  C     -1.112690   10.689640   -1.538220
  O     -0.527650   10.358020   -2.708850
  C     -0.315620   11.498460   -3.420270
  C     -0.772130   12.589570   -2.697680
  C     -1.276660   12.082400   -1.488020
  C     -1.831790   12.800230   -0.423490
  N     -2.281030   13.383990    0.457110
  C      0.317420   11.400780   -4.681740
  C      0.500360   12.449720   -5.529720
  C      1.170310   12.378340   -6.762760
  C      1.343410   13.398990   -7.714700
  C      2.113060   12.993500   -8.846200
  C      2.398420   13.941260   -9.846710
  C      1.904600   15.212620   -9.743100
  C      1.113640   15.596470   -8.647380
  C      0.841600   14.711370   -7.642360
  C      2.539070   11.647990   -8.769880
  S      1.966970   10.930000   -7.292150
  C      3.268740   10.886070   -9.703930
  S      3.353490   11.361540  -11.376610
  C      4.289900    9.983210  -11.837600
  C      4.546300    9.176160  -10.726680
  C      3.971530    9.676170   -9.518050
  C      4.199060    8.973290   -8.326260
  C      4.939040    7.812300   -8.309560
  C      5.155240    7.103540   -7.050700
  C      5.223230    7.678300   -5.856380
  C      5.484040    7.298140   -9.524410
  C      6.296110    6.038720   -9.516480
  C      5.290630    7.979350  -10.693300
  C      4.710690    9.782140  -13.187000
  C      4.445520   10.604090  -14.204800
  H     -4.809560   -1.836690    3.178370
  H     -4.093320    0.861610    5.715440
  H     -4.102840   -0.918500    5.610100
  H     -6.521260    0.914730    5.182130
  H     -6.223430   -0.073010    6.616730
  H     -6.553140   -0.847820    5.062480
  H     -3.428570   -0.377320   -2.144860
  H     -2.562620    1.169840   -1.992820
  H     -5.596310    0.794170   -2.237010
  H     -4.527750    1.419730   -3.497160
  H     -4.805660    2.358880   -2.024170
  H     -2.806850    3.082650   -0.772990
  H     -3.178810    3.546350    2.233310
  H     -3.036860    5.021070    3.743760
  H     -2.931630    7.739640    6.241960
  H     -2.592680    4.727260    5.838550
  H     -3.029520    5.616130    7.374040
  H     -0.972570    9.010900    5.538830
  H     -2.534680    9.746900    5.176770
  H     -1.121670   10.171820    4.213550
  H     -1.264420    9.340700    2.101640
  H     -1.064400    8.052260   -1.760040
  H     -1.902820   10.132060    0.332740
  H     -0.738890   13.618770   -2.989700
  H      0.666300   10.415940   -4.960590
  H      0.109950   13.419120   -5.254510
  H      3.016640   13.673400  -10.687400
  H      2.126430   15.937520  -10.511630
  H      0.728970   16.604150   -8.600710
  H      0.245850   15.010250   -6.793840
  H      3.786780    9.338800   -7.401260
  H      5.275190    6.031330   -7.124950
  H      5.148010    8.744750   -5.724840
  H      5.374900    7.099760   -4.961220
  H      5.678300    5.183610   -9.241800
  H      7.111290    6.111470   -8.797980
  H      6.716880    5.851020  -10.501190
  H      5.720100    7.603280  -11.609920
  H      5.287020    8.883450  -13.361370
  H      3.874670   11.507180  -14.065240
  H      4.791790   10.396490  -15.201110

 Total Charge           Charge          ....    0
 Multiplicity           Mult            ....    1
 Number of Electrons    NEL             ....  452
 Basis Dimension        Dim             .... 1085

ORBITAL ENERGIES
----------------

  NO   OCC          E(Eh)            E(eV)
   0   2.0000     -88.967269     -2420.9225
   1   2.0000     -88.965503     -2420.8744
   2   2.0000     -88.964462     -2420.8461
   3   2.0000     -19.301998      -525.2341
   4   2.0000     -19.175155      -521.7825
   5   2.0000     -19.175130      -521.7818
   6   2.0000     -14.440623      -392.9493
   7   2.0000     -14.439313      -392.9137
   8   2.0000     -14.402405      -391.9094
   9   2.0000     -10.361221      -281.9432
  10   2.0000     -10.356905      -281.8257
  11   2.0000     -10.349354      -281.6202
  12   2.0000     -10.342472      -281.4330
  13   2.0000     -10.329739      -281.0865
  14   2.0000     -10.316915      -280.7375
  15   2.0000     -10.312320      -280.6125
  16   2.0000     -10.311930      -280.6019
  17   2.0000     -10.311721      -280.5962
  18   2.0000     -10.307332      -280.4768
  19   2.0000     -10.304411      -280.3973
  20   2.0000     -10.302159      -280.3360
  21   2.0000     -10.301236      -280.3109
  22   2.0000     -10.300471      -280.2901
  23   2.0000     -10.299502      -280.2637
  24   2.0000     -10.298555      -280.2379
  25   2.0000     -10.293422      -280.0983
  26   2.0000     -10.292908      -280.0843
  27   2.0000     -10.289871      -280.0016
  28   2.0000     -10.285611      -279.8857
  29   2.0000     -10.285598      -279.8854
  30   2.0000     -10.284690      -279.8607
  31   2.0000     -10.284347      -279.8513
  32   2.0000     -10.284084      -279.8442
  33   2.0000     -10.282941      -279.8130
  34   2.0000     -10.282023      -279.7881
  35   2.0000     -10.281561      -279.7755
  36   2.0000     -10.281195      -279.7655
  37   2.0000     -10.279914      -279.7307
  38   2.0000     -10.279191      -279.7110
  39   2.0000     -10.277744      -279.6716
  40   2.0000     -10.277067      -279.6532
  41   2.0000     -10.276583      -279.6400
  42   2.0000     -10.275941      -279.6226
  43   2.0000     -10.275004      -279.5971
  44   2.0000     -10.274982      -279.5965
  45   2.0000     -10.274216      -279.5756
  46   2.0000     -10.272883      -279.5393
  47   2.0000     -10.272202      -279.5208
  48   2.0000     -10.271580      -279.5039
  49   2.0000     -10.270264      -279.4681
  50   2.0000     -10.267695      -279.3982
  51   2.0000     -10.267528      -279.3936
  52   2.0000     -10.265856      -279.3481
  53   2.0000     -10.265650      -279.3425
  54   2.0000     -10.265139      -279.3286
  55   2.0000     -10.264895      -279.3220
  56   2.0000     -10.260382      -279.1992
  57   2.0000     -10.257611      -279.1238
  58   2.0000     -10.257423      -279.1187
  59   2.0000     -10.255600      -279.0691
  60   2.0000     -10.246160      -278.8122
  61   2.0000     -10.242233      -278.7053
  62   2.0000      -8.061692      -219.3698
  63   2.0000      -8.060530      -219.3382
  64   2.0000      -8.059285      -219.3043
  65   2.0000      -6.030778      -164.1058
  66   2.0000      -6.029404      -164.0684
  67   2.0000      -6.028384      -164.0407
  68   2.0000      -6.026676      -163.9942
  69   2.0000      -6.025538      -163.9632
  70   2.0000      -6.024371      -163.9315
  71   2.0000      -6.024180      -163.9263
  72   2.0000      -6.023371      -163.9043
  73   2.0000      -6.021945      -163.8655
  74   2.0000      -1.219229       -33.1769
  75   2.0000      -1.117851       -30.4183
  76   2.0000      -1.110350       -30.2142
  77   2.0000      -1.048197       -28.5229
  78   2.0000      -1.039861       -28.2961
  79   2.0000      -1.005384       -27.3579
  80   2.0000      -0.996032       -27.1034
  81   2.0000      -0.987741       -26.8778
  82   2.0000      -0.987504       -26.8713
  83   2.0000      -0.942651       -25.6508
  84   2.0000      -0.940743       -25.5989
  85   2.0000      -0.933455       -25.4006
  86   2.0000      -0.926322       -25.2065
  87   2.0000      -0.919963       -25.0335
  88   2.0000      -0.915508       -24.9122
  89   2.0000      -0.909206       -24.7408
  90   2.0000      -0.898373       -24.4460
  91   2.0000      -0.884789       -24.0763
  92   2.0000      -0.876064       -23.8389
  93   2.0000      -0.870643       -23.6914
  94   2.0000      -0.868382       -23.6299
  95   2.0000      -0.861195       -23.4343
  96   2.0000      -0.857827       -23.3427
  97   2.0000      -0.850989       -23.1566
  98   2.0000      -0.839993       -22.8574
  99   2.0000      -0.832040       -22.6410
 100   2.0000      -0.826058       -22.4782
 101   2.0000      -0.820181       -22.3183
 102   2.0000      -0.809934       -22.0394
 103   2.0000      -0.803172       -21.8554
 104   2.0000      -0.799581       -21.7577
 105   2.0000      -0.786298       -21.3963
 106   2.0000      -0.778310       -21.1789
 107   2.0000      -0.768854       -20.9216
 108   2.0000      -0.768046       -20.8996
 109   2.0000      -0.754228       -20.5236
 110   2.0000      -0.750945       -20.4343
 111   2.0000      -0.746549       -20.3146
 112   2.0000      -0.728222       -19.8159
 113   2.0000      -0.718361       -19.5476
 114   2.0000      -0.713007       -19.4019
 115   2.0000      -0.708765       -19.2865
 116   2.0000      -0.705105       -19.1869
 117   2.0000      -0.699369       -19.0308
 118   2.0000      -0.692517       -18.8443
 119   2.0000      -0.686389       -18.6776
 120   2.0000      -0.675590       -18.3837
 121   2.0000      -0.668215       -18.1831
 122   2.0000      -0.666830       -18.1454
 123   2.0000      -0.653314       -17.7776
 124   2.0000      -0.643162       -17.5013
 125   2.0000      -0.640679       -17.4338
 126   2.0000      -0.639524       -17.4023
 127   2.0000      -0.632755       -17.2181
 128   2.0000      -0.629722       -17.1356
 129   2.0000      -0.622657       -16.9434
 130   2.0000      -0.615288       -16.7428
 131   2.0000      -0.612095       -16.6559
 132   2.0000      -0.599629       -16.3167
 133   2.0000      -0.597306       -16.2535
 134   2.0000      -0.586191       -15.9511
 135   2.0000      -0.578776       -15.7493
 136   2.0000      -0.573157       -15.5964
 137   2.0000      -0.570095       -15.5131
 138   2.0000      -0.568334       -15.4652
 139   2.0000      -0.567186       -15.4339
 140   2.0000      -0.566227       -15.4078
 141   2.0000      -0.564031       -15.3481
 142   2.0000      -0.556795       -15.1512
 143   2.0000      -0.551847       -15.0165
 144   2.0000      -0.551455       -15.0058
 145   2.0000      -0.543320       -14.7845
 146   2.0000      -0.539605       -14.6834
 147   2.0000      -0.536293       -14.5933
 148   2.0000      -0.535232       -14.5644
 149   2.0000      -0.533735       -14.5237
 150   2.0000      -0.525532       -14.3004
 151   2.0000      -0.523738       -14.2516
 152   2.0000      -0.522571       -14.2199
 153   2.0000      -0.520582       -14.1658
 154   2.0000      -0.517304       -14.0766
 155   2.0000      -0.516221       -14.0471
 156   2.0000      -0.514264       -13.9938
 157   2.0000      -0.511209       -13.9107
 158   2.0000      -0.506478       -13.7820
 159   2.0000      -0.505575       -13.7574
 160   2.0000      -0.504020       -13.7151
 161   2.0000      -0.503300       -13.6955
 162   2.0000      -0.497837       -13.5468
 163   2.0000      -0.497292       -13.5320
 164   2.0000      -0.493636       -13.4325
 165   2.0000      -0.491629       -13.3779
 166   2.0000      -0.490428       -13.3452
 167   2.0000      -0.487872       -13.2757
 168   2.0000      -0.487008       -13.2522
 169   2.0000      -0.484571       -13.1858
 170   2.0000      -0.484077       -13.1724
 171   2.0000      -0.482477       -13.1289
 172   2.0000      -0.478582       -13.0229
 173   2.0000      -0.474628       -12.9153
 174   2.0000      -0.466708       -12.6998
 175   2.0000      -0.465810       -12.6753
 176   2.0000      -0.464735       -12.6461
 177   2.0000      -0.462317       -12.5803
 178   2.0000      -0.455013       -12.3815
 179   2.0000      -0.454044       -12.3552
 180   2.0000      -0.452818       -12.3218
 181   2.0000      -0.451782       -12.2936
 182   2.0000      -0.448483       -12.2038
 183   2.0000      -0.447169       -12.1681
 184   2.0000      -0.445128       -12.1125
 185   2.0000      -0.440263       -11.9802
 186   2.0000      -0.440135       -11.9767
 187   2.0000      -0.438353       -11.9282
 188   2.0000      -0.433478       -11.7955
 189   2.0000      -0.432507       -11.7691
 190   2.0000      -0.432113       -11.7584
 191   2.0000      -0.429529       -11.6881
 192   2.0000      -0.423653       -11.5282
 193   2.0000      -0.422823       -11.5056
 194   2.0000      -0.421976       -11.4826
 195   2.0000      -0.419014       -11.4020
 196   2.0000      -0.418267       -11.3816
 197   2.0000      -0.417095       -11.3497
 198   2.0000      -0.414540       -11.2802
 199   2.0000      -0.413322       -11.2471
 200   2.0000      -0.409436       -11.1413
 201   2.0000      -0.406571       -11.0634
 202   2.0000      -0.404459       -11.0059
 203   2.0000      -0.403015       -10.9666
 204   2.0000      -0.399506       -10.8711
 205   2.0000      -0.397878       -10.8268
 206   2.0000      -0.391059       -10.6413
 207   2.0000      -0.382491       -10.4081
 208   2.0000      -0.368028       -10.0145
 209   2.0000      -0.364732        -9.9249
 210   2.0000      -0.357444        -9.7266
 211   2.0000      -0.354108        -9.6358
 212   2.0000      -0.337441        -9.1822
 213   2.0000      -0.333066        -9.0632
 214   2.0000      -0.327834        -8.9208
 215   2.0000      -0.322981        -8.7888
 216   2.0000      -0.317405        -8.6370
 217   2.0000      -0.317333        -8.6351
 218   2.0000      -0.300818        -8.1857
 219   2.0000      -0.299970        -8.1626
 220   2.0000      -0.295812        -8.0494
 221   2.0000      -0.289288        -7.8719
 222   2.0000      -0.271261        -7.3814
 223   2.0000      -0.252073        -6.8592
 224   2.0000      -0.224723        -6.1150
 225   2.0000      -0.205840        -5.6012
 226   0.0000      -0.091121        -2.4795
 227   0.0000      -0.073293        -1.9944
 228   0.0000      -0.031483        -0.8567
 229   0.0000      -0.020804        -0.5661
 230   0.0000      -0.008929        -0.2430

MULLIKEN ATOMIC CHARGES
-----------------------
   0 C :    0.023096
   1 N :   -0.250773
   2 C :    0.115228
   3 C :   -0.002630
   4 C :    0.170450
   5 O :   -0.246702
   6 C :   -0.113375
   7 C :    0.010029
   8 C :    0.160697
   9 O :   -0.191855
  10 N :   -0.270031
  11 C :    0.103565
  12 C :    0.003586
  13 C :    0.169351
  14 C :   -0.055328
  15 C :    0.010478
  16 C :   -0.089226
  17 S :    0.150902
  18 C :   -0.109769
  19 C :    0.135286
  20 C :    0.125037
  21 C :   -0.122008
  22 C :    0.103707
  23 C :   -0.043280
  24 C :   -0.006366
  25 C :   -0.077194
  26 C :    0.095250
  27 C :   -0.104295
  28 C :    0.036164
  29 C :   -0.073990
  30 C :    0.156101
  31 O :   -0.199435
  32 C :    0.209651
  33 C :   -0.067731
  34 C :   -0.079229
  35 C :   -0.190587
  36 N :    0.140519
  37 C :   -0.021861
  38 C :    0.002443
  39 C :   -0.091107
  40 C :    0.109283
  41 C :    0.096614
  42 C :   -0.041642
  43 C :    0.021238
  44 C :    0.031675
  45 C :   -0.035480
  46 C :   -0.103012
  47 S :    0.130355
  48 C :   -0.117792
  49 S :    0.134525
  50 C :   -0.115336
  51 C :    0.125018
  52 C :    0.130233
  53 C :   -0.121376
  54 C :    0.088584
  55 C :   -0.039808
  56 C :   -0.013338
  57 C :   -0.077002
  58 C :    0.100532
  59 C :   -0.097941
  60 C :    0.002652
  61 C :   -0.027370
  62 H :    0.007543
  63 H :    0.037116
  64 H :    0.015258
  65 H :    0.028428
  66 H :    0.020656
  67 H :    0.014669
  68 H :    0.040516
  69 H :    0.017975
  70 H :    0.028258
  71 H :    0.019941
  72 H :    0.015030
  73 H :   -0.033412
  74 H :    0.019568
  75 H :   -0.005048
  76 H :   -0.011055
  77 H :    0.037429
  78 H :    0.020165
  79 H :    0.030865
  80 H :    0.035311
  81 H :    0.014136
  82 H :   -0.039260
  83 H :   -0.002022
  84 H :    0.021899
  85 H :   -0.010319
  86 H :   -0.003144
  87 H :   -0.014646
  88 H :   -0.017097
  89 H :   -0.013891
  90 H :   -0.014121
  91 H :   -0.029972
  92 H :   -0.030284
  93 H :   -0.004075
  94 H :    0.023859
  95 H :    0.022628
  96 H :    0.031145
  97 H :    0.031962
  98 H :    0.007176
  99 H :   -0.044426
 100 H :   -0.008553
 101 H :    0.019983
 102 H :    0.024430
Sum of atomic charges:   -0.0000000

LOEWDIN ATOMIC CHARGES
----------------------
   0 C :    0.072666
   1 N :    0.002575
   2 C :    0.037674
   3 C :   -0.061104
   4 C :    0.072964
   5 O :   -0.235206
   6 C :   -0.144686
   7 C :   -0.124181
   8 C :    0.082614
   9 O :   -0.195561
  10 N :   -0.010871
  11 C :    0.035687
  12 C :   -0.062011
  13 C :    0.090470
  14 C :   -0.077351
  15 C :    0.022813
  16 C :   -0.185474
  17 S :    0.469422
  18 C :   -0.158244
  19 C :   -0.042340
  20 C :   -0.026442
  21 C :    0.001351
  22 C :   -0.018170
  23 C :   -0.028404
  24 C :   -0.023961
  25 C :   -0.009779
  26 C :   -0.044724
  27 C :   -0.029585
  28 C :   -0.031042
  29 C :   -0.044213
  30 C :    0.057360
  31 O :    0.016056
  32 C :    0.042828
  33 C :   -0.042170
  34 C :   -0.107057
  35 C :   -0.033960
  36 N :   -0.059803
  37 C :   -0.062636
  38 C :   -0.020897
  39 C :   -0.189046
  40 C :   -0.035321
  41 C :   -0.052387
  42 C :   -0.023655
  43 C :   -0.026296
  44 C :   -0.020316
  45 C :   -0.018284
  46 C :   -0.176273
  47 S :    0.490246
  48 C :   -0.191801
  49 S :    0.492472
  50 C :   -0.181586
  51 C :   -0.040276
  52 C :   -0.048442
  53 C :   -0.017446
  54 C :   -0.024382
  55 C :   -0.022299
  56 C :   -0.036482
  57 C :   -0.016419
  58 C :   -0.044688
  59 C :   -0.026139
  60 C :   -0.039444
  61 C :   -0.051440
  62 H :    0.029127
  63 H :    0.033829
  64 H :    0.023045
  65 H :    0.031004
  66 H :    0.028789
  67 H :    0.022045
  68 H :    0.036458
  69 H :    0.021038
  70 H :    0.031671
  71 H :    0.028790
  72 H :    0.021776
  73 H :    0.019687
  74 H :    0.043324
  75 H :    0.036602
  76 H :    0.027227
  77 H :    0.028317
  78 H :    0.025201
  79 H :    0.035544
  80 H :    0.036890
  81 H :    0.032035
  82 H :    0.025520
  83 H :    0.032394
  84 H :    0.042517
  85 H :    0.035210
  86 H :    0.029454
  87 H :    0.032950
  88 H :    0.012839
  89 H :    0.029528
  90 H :    0.029760
  91 H :    0.026390
  92 H :    0.008437
  93 H :    0.028634
  94 H :    0.022335
  95 H :    0.025417
  96 H :    0.034861
  97 H :    0.035823
  98 H :    0.029715
  99 H :    0.023679
 100 H :    0.034121
 101 H :    0.016461
 102 H :    0.026649

  Mayer bond orders larger than 0.100000
B(  0-C ,  1-N ) :   1.1760 B(  0-C ,  7-C ) :   1.4627 B(  0-C , 62-H ) :   0.9919
B(  1-N ,  2-C ) :   0.9482 B(  1-N ,  4-C ) :   1.0727 B(  2-C ,  3-C ) :   1.1172
B(  2-C , 63-H ) :   0.9343 B(  2-C , 64-H ) :   0.9539 B(  3-C , 65-H ) :   0.9675
B(  3-C , 66-H ) :   0.9687 B(  3-C , 67-H ) :   0.9694 B(  4-C ,  5-O ) :   1.9536
B(  4-C ,  6-C ) :   1.0400 B(  5-O , 74-H ) :   0.1064 B(  6-C ,  7-C ) :   1.2056
B(  6-C , 13-C ) :   1.3288 B(  7-C ,  8-C ) :   0.9459 B(  8-C ,  9-O ) :   2.1734
B(  8-C , 10-N ) :   1.0230 B( 10-N , 11-C ) :   0.9514 B( 10-N , 13-C ) :   1.1457
B( 11-C , 12-C ) :   1.1215 B( 11-C , 68-H ) :   0.9284 B( 11-C , 69-H ) :   0.9495
B( 12-C , 70-H ) :   0.9639 B( 12-C , 71-H ) :   0.9677 B( 12-C , 72-H ) :   0.9681
B( 13-C , 14-C ) :   1.2024 B( 14-C , 15-C ) :   1.5091 B( 14-C , 73-H ) :   0.9687
B( 15-C , 16-C ) :   1.2435 B( 15-C , 74-H ) :   0.9463 B( 16-C , 17-S ) :   1.1096
B( 16-C , 20-C ) :   1.2605 B( 17-S , 18-C ) :   1.1518 B( 18-C , 19-C ) :   1.2998
B( 18-C , 28-C ) :   1.1616 B( 19-C , 20-C ) :   1.2184 B( 19-C , 27-C ) :   1.1945
B( 20-C , 21-C ) :   1.2316 B( 21-C , 22-C ) :   1.4860 B( 21-C , 75-H ) :   0.9911
B( 22-C , 23-C ) :   1.0462 B( 22-C , 25-C ) :   1.2060 B( 23-C , 24-C ) :   1.9665
B( 23-C , 76-H ) :   0.9541 B( 24-C , 77-H ) :   0.9530 B( 24-C , 78-H ) :   0.9486
B( 25-C , 26-C ) :   1.0860 B( 25-C , 27-C ) :   1.5434 B( 26-C , 79-H ) :   0.9446
B( 26-C , 80-H ) :   0.9391 B( 26-C , 81-H ) :   0.9545 B( 27-C , 82-H ) :   0.9872
B( 28-C , 29-C ) :   1.5891 B( 28-C , 83-H ) :   0.9599 B( 29-C , 30-C ) :   1.2405
B( 29-C , 84-H ) :   0.9435 B( 30-C , 31-O ) :   1.1674 B( 30-C , 34-C ) :   1.3721
B( 31-O , 32-C ) :   1.1004 B( 32-C , 33-C ) :   1.4409 B( 32-C , 37-C ) :   1.1480
B( 33-C , 34-C ) :   1.2555 B( 33-C , 85-H ) :   1.0164 B( 34-C , 35-C ) :   1.1038
B( 35-C , 36-N ) :   3.0274 B( 37-C , 38-C ) :   1.5986 B( 37-C , 86-H ) :   0.9586
B( 38-C , 39-C ) :   1.2288 B( 38-C , 87-H ) :   0.9653 B( 39-C , 40-C ) :   1.2937
B( 39-C , 46-C ) :   0.1057 B( 39-C , 47-S ) :   1.1137 B( 40-C , 41-C ) :   1.2192
B( 40-C , 45-C ) :   1.2256 B( 41-C , 42-C ) :   1.2067 B( 41-C , 46-C ) :   1.3094
B( 42-C , 43-C ) :   1.5541 B( 42-C , 88-H ) :   0.9742 B( 43-C , 44-C ) :   1.2266
B( 43-C , 89-H ) :   0.9840 B( 44-C , 45-C ) :   1.5402 B( 44-C , 90-H ) :   0.9846
B( 45-C , 91-H ) :   0.9906 B( 46-C , 47-S ) :   1.1621 B( 46-C , 48-C ) :   1.2090
B( 48-C , 49-S ) :   1.1514 B( 48-C , 50-C ) :   0.1068 B( 48-C , 52-C ) :   1.3105
B( 49-S , 50-C ) :   1.1305 B( 50-C , 51-C ) :   1.3458 B( 50-C , 60-C ) :   1.1460
B( 51-C , 52-C ) :   1.2040 B( 51-C , 59-C ) :   1.1795 B( 52-C , 53-C ) :   1.1883
B( 53-C , 54-C ) :   1.5281 B( 53-C , 92-H ) :   0.9714 B( 54-C , 55-C ) :   1.0388
B( 54-C , 57-C ) :   1.1979 B( 55-C , 56-C ) :   1.9693 B( 55-C , 93-H ) :   0.9516
B( 56-C , 94-H ) :   0.9561 B( 56-C , 95-H ) :   0.9493 B( 57-C , 58-C ) :   1.0858
B( 57-C , 59-C ) :   1.5668 B( 58-C , 96-H ) :   0.9402 B( 58-C , 97-H ) :   0.9438
B( 58-C , 98-H ) :   0.9538 B( 59-C , 99-H ) :   0.9900 B( 60-C , 61-C ) :   1.9001
B( 60-C ,100-H ) :   0.9579 B( 61-C ,101-H ) :   0.9569 B( 61-C ,102-H ) :   0.9486

-----------------------------------------------------------------------------
         ABSORPTION SPECTRUM VIA TRANSITION ELECTRIC DIPOLE MOMENTS
-----------------------------------------------------------------------------
State   Energy  Wavelength   fosc         T2         TX        TY        TZ
        (cm-1)    (nm)                  (au**2)     (au)      (au)      (au)
-----------------------------------------------------------------------------
   0   11763.7    850.1   1.306664050  36.56748   2.81660   2.97808  -4.44582
   1   15649.1    639.0   0.798443692  16.79696  -0.80684   3.75821   1.42190
   2   17278.5    578.8   0.017350301   0.33058  -0.31106   0.38607   0.29116
   3   20560.9    486.4   0.196943708   3.15338  -0.14183   1.76792   0.08794
   4   22072.5    453.1   0.051453024   0.76742   0.32429  -0.04287   0.81266
   5   23005.6    434.7   0.021230841   0.30381   0.06011   0.54009  -0.09219
   6   25352.3    394.4   0.025035241   0.32509   0.08154  -0.47382   0.30651
   7   25712.9    388.9   0.152487725   1.95236  -0.07939  -0.70379   1.20446
   8   27175.0    368.0   0.036835629   0.44625   0.18681   0.27916  -0.57742
   9   27782.3    359.9   0.004841847   0.05737   0.03871   0.02991  -0.23448
  10   28372.7    352.5   0.235286933   2.73006   0.25050   0.56195  -1.53347
  11   29262.7    341.7   0.175790226   1.97768  -0.00281  -0.04480   1.40558
  12   29411.6    340.0   0.047787950   0.53490   0.25926  -0.66732   0.14958
  13   29768.8    335.9   0.000717600   0.00794  -0.06737   0.00681  -0.05788
  14   29879.1    334.7   0.013898613   0.15314   0.06092  -0.37574   0.09080
  15   30313.2    329.9   0.001541341   0.01674  -0.10217  -0.03495   0.07127
  16   31434.5    318.1   0.021600078   0.22622   0.30215   0.36682  -0.01918
  17   32529.3    307.4   0.142859362   1.44580   0.31236   1.06271   0.46786
  18   32889.3    304.1   0.258605656   2.58856   0.13879  -0.62930   1.47421
  19   33315.9    300.2   0.089251450   0.88194  -0.13170   0.30082  -0.87983
  20   33461.9    298.8   0.089475931   0.88030   0.07044   0.54449   0.76083
  21   34084.6    293.4   0.002803214   0.02708   0.00225   0.11923   0.11338
  22   34223.0    292.2   0.105245947   1.01242   0.08513   0.98166  -0.20379
  23   34392.7    290.8   0.160097198   1.53248   0.03247   0.50895   1.12800
  24   35593.6    280.9   0.069998360   0.64743  -0.06092   0.07200   0.79908
  25   35659.1    280.4   0.008575859   0.07917   0.17976   0.10188   0.19100
  26   36214.6    276.1   0.066708993   0.60642   0.11689   0.16398  -0.75224
  27   37165.9    269.1   0.126038845   1.11644   0.21133  -0.41934   0.94654
  28   37389.3    267.5   0.079223453   0.69756  -0.19555  -0.43420   0.68614
  29   37777.2    264.7   0.242791092   2.11582   0.05316  -1.44437  -0.16369
  30   38324.4    260.9   0.206836446   1.77676   0.15005  -0.39886   1.26299
  31   38877.9    257.2   0.044231707   0.37455   0.33768  -0.49615  -0.11978
  32   38894.2    257.1   0.000977620   0.00827  -0.08483   0.03121  -0.01026
  33   39115.6    255.7   0.045782305   0.38532   0.12618  -0.03474   0.60679
  34   39252.4    254.8   0.074133499   0.62176  -0.20300   0.72680   0.22873
  35   39421.1    253.7   0.025788564   0.21536  -0.04304  -0.43222  -0.16339
  36   40029.2    249.8   0.035515073   0.29209   0.40646  -0.32110  -0.15418
  37   40216.6    248.7   0.002696866   0.02208  -0.04521   0.04369   0.13462

FINAL SINGLE POINT ENERGY     -3625.289973393960

DIPOLE MOMENT
-------------
                                X             Y             Z
Electronic contribution:      4.33299      32.39197     -26.21909
Nuclear contribution   :     -2.86327     -31.95475      24.80680
                        -----------------------------------------
Total Dipole Moment    :      1.46973       0.43722      -1.41229
                        -----------------------------------------
Magnitude (a.u.)       :      2.08467
Magnitude (Debye)      :      5.29880

Rotational constants in cm-1:     0.001569     0.000362     0.000311
Rotational constants in MHz :    47.027115    10.862716     9.311279

                             ****ORCA TERMINATED NORMALLY****
TOTAL RUN TIME: 0 days 0 hours 9 minutes 4 seconds 838 msec
