                         Program Version 4.2.0 -  RELEASE  -
|  1> # ORCA input file
|  2> # SCF done       -130.203896223600          0.000366420443
|  3> ! CAM-B3LYP def2-SVP def2/J RIJCOSX Grid4 TightSCF
|  4> %maxcore 5000
|  5> %tddft
|  6>     Mode sTDDFT
|  7>     Ethresh 5.0
|  8>     maxcore 5000
|  9> end
| 10>
| 11> %pal
| 12>   nprocs 6
| 13>   end
| 14> * xyz 0 1
| 15>    C       -4.60585        -1.63039        -0.31220
| 16>    N       -5.62582        -0.90263         0.21429
| 17>    C       -6.83062        -1.43568         0.79894
| 18>    C       -6.57230        -2.02295         2.18393
| 19>    C       -5.34368         0.48556         0.17825
| 20>    O       -6.10461         1.33607         0.59156
| 21>    C       -4.04031         0.55155        -0.43530
| 22>    C       -3.61629        -0.78252        -0.72577
| 23>    C       -2.30841        -0.69528        -1.33804
| 24>    O       -1.53926        -1.53502        -1.74772
| 25>    N       -2.02833         0.69282        -1.37540
| 26>    C       -0.79682         1.14390        -1.97525
| 27>    C       -1.00295         1.61119        -3.41474
| 28>    C       -3.05862         1.43844        -0.84507
| 29>    C       -3.19112         2.84885        -0.66940
| 30>    C       -2.36913         3.85472        -1.03195
| 31>    C       -2.62089         5.24863        -0.76681
| 32>    C       -3.75664         5.76646        -0.12184
| 33>    N       -3.91549         7.04808         0.11261
| 34>    C       -2.95387         7.88252        -0.28587
| 35>    N       -1.84463         7.50594        -0.92391
| 36>    C       -1.68768         6.22329        -1.15595
| 37>    C       -3.12740         9.29837         0.00311
| 38>    C       -4.25205         9.78615         0.67858
| 39>    N       -4.40042        11.06065         0.96312
| 40>    C       -3.43108        11.88983         0.58347
| 41>    N       -2.33208        11.53676        -0.07728
| 42>    C       -2.18223        10.26221        -0.36467
| 43>    C       -3.58861        13.31165         0.93683
| 44>    N       -2.78453        14.18738         0.34076
| 45>    C       -2.93047        15.45402         0.68850
| 46>    C       -3.86395        15.87294         1.62083
| 47>    C       -4.67480        14.87885         2.18809
| 48>    N       -4.51814        13.60314         1.83026
| 49>    C       -5.70775        15.11258         3.17231
| 50>    C       -6.04287        16.30320         3.69784
| 51>    C       -7.05654        16.48653         4.68607
| 52>    S       -7.97609        15.14812         5.31626
| 53>    C       -8.82960        16.18481         6.37799
| 54>    C       -8.44263        17.48762         6.27097
| 55>    C       -7.43660        17.67041         5.28983
| 56>    C       -6.84726        19.00558         4.99950
| 57>    S       -5.10830        19.08550         5.64469
| 58>    C       -7.69662        20.14051         5.56496
| 59>    C       -8.14962        19.85431         6.99337
| 60>    C       -9.05584        18.61706         7.05624
| 61>    O      -10.36860        18.89521         6.61164
| 62>    H       -4.66033        -2.70239        -0.36204
| 63>    H       -7.24710        -2.19769         0.13322
| 64>    H       -7.53258        -0.60063         0.87279
| 65>    H       -5.85414        -2.83821         2.12873
| 66>    H       -7.50011        -2.40271         2.60229
| 67>    H       -6.17873        -1.25676         2.84733
| 68>    H       -0.13101         0.27502        -1.97308
| 69>    H       -0.34884         1.92451        -1.35570
| 70>    H       -1.35754         0.78080        -4.02025
| 71>    H       -0.06184         1.96400        -3.82797
| 72>    H       -1.73627         2.41300        -3.46936
| 73>    H       -4.11609         3.08978        -0.16127
| 74>    H       -1.44421         3.66606        -1.55614
| 75>    H       -4.56384         5.13043         0.21714
| 76>    H       -0.77647         5.94643        -1.67466
| 77>    H       -5.04169         9.11668         0.99273
| 78>    H       -1.28547         9.98244        -0.90138
| 79>    H       -2.26836        16.15537         0.19579
| 80>    H       -3.95405        16.91163         1.89181
| 81>    H       -6.22492        14.21566         3.48558
| 82>    H       -5.52269        17.20243         3.39760
| 83>    H       -9.57975        15.78304         7.02963
| 84>    H       -6.70405        19.14892         3.92504
| 85>    H       -5.38363        18.64817         6.87008
| 86>    H       -8.56923        20.27550         4.91852
| 87>    H       -7.12046        21.06677         5.53684
| 88>    H       -8.70244        20.70876         7.38620
| 89>    H       -7.27951        19.69243         7.63248
| 90>    H       -9.18969        18.31042         8.10001
| 91>    H      -10.33829        19.13204         5.67756
| 92> *
| 93>
| 94>                          ****END OF INPUT****

CARTESIAN COORDINATES (ANGSTROEM)
---------------------------------
  C     -4.605850   -1.630390   -0.312200
  N     -5.625820   -0.902630    0.214290
  C     -6.830620   -1.435680    0.798940
  C     -6.572300   -2.022950    2.183930
  C     -5.343680    0.485560    0.178250
  O     -6.104610    1.336070    0.591560
  C     -4.040310    0.551550   -0.435300
  C     -3.616290   -0.782520   -0.725770
  C     -2.308410   -0.695280   -1.338040
  O     -1.539260   -1.535020   -1.747720
  N     -2.028330    0.692820   -1.375400
  C     -0.796820    1.143900   -1.975250
  C     -1.002950    1.611190   -3.414740
  C     -3.058620    1.438440   -0.845070
  C     -3.191120    2.848850   -0.669400
  C     -2.369130    3.854720   -1.031950
  C     -2.620890    5.248630   -0.766810
  C     -3.756640    5.766460   -0.121840
  N     -3.915490    7.048080    0.112610
  C     -2.953870    7.882520   -0.285870
  N     -1.844630    7.505940   -0.923910
  C     -1.687680    6.223290   -1.155950
  C     -3.127400    9.298370    0.003110
  C     -4.252050    9.786150    0.678580
  N     -4.400420   11.060650    0.963120
  C     -3.431080   11.889830    0.583470
  N     -2.332080   11.536760   -0.077280
  C     -2.182230   10.262210   -0.364670
  C     -3.588610   13.311650    0.936830
  N     -2.784530   14.187380    0.340760
  C     -2.930470   15.454020    0.688500
  C     -3.863950   15.872940    1.620830
  C     -4.674800   14.878850    2.188090
  N     -4.518140   13.603140    1.830260
  C     -5.707750   15.112580    3.172310
  C     -6.042870   16.303200    3.697840
  C     -7.056540   16.486530    4.686070
  S     -7.976090   15.148120    5.316260
  C     -8.829600   16.184810    6.377990
  C     -8.442630   17.487620    6.270970
  C     -7.436600   17.670410    5.289830
  C     -6.847260   19.005580    4.999500
  S     -5.108300   19.085500    5.644690
  C     -7.696620   20.140510    5.564960
  C     -8.149620   19.854310    6.993370
  C     -9.055840   18.617060    7.056240
  O    -10.368600   18.895210    6.611640
  H     -4.660330   -2.702390   -0.362040
  H     -7.247100   -2.197690    0.133220
  H     -7.532580   -0.600630    0.872790
  H     -5.854140   -2.838210    2.128730
  H     -7.500110   -2.402710    2.602290
  H     -6.178730   -1.256760    2.847330
  H     -0.131010    0.275020   -1.973080
  H     -0.348840    1.924510   -1.355700
  H     -1.357540    0.780800   -4.020250
  H     -0.061840    1.964000   -3.827970
  H     -1.736270    2.413000   -3.469360
  H     -4.116090    3.089780   -0.161270
  H     -1.444210    3.666060   -1.556140
  H     -4.563840    5.130430    0.217140
  H     -0.776470    5.946430   -1.674660
  H     -5.041690    9.116680    0.992730
  H     -1.285470    9.982440   -0.901380
  H     -2.268360   16.155370    0.195790
  H     -3.954050   16.911630    1.891810
  H     -6.224920   14.215660    3.485580
  H     -5.522690   17.202430    3.397600
  H     -9.579750   15.783040    7.029630
  H     -6.704050   19.148920    3.925040
  H     -5.383630   18.648170    6.870080
  H     -8.569230   20.275500    4.918520
  H     -7.120460   21.066770    5.536840
  H     -8.702440   20.708760    7.386200
  H     -7.279510   19.692430    7.632480
  H     -9.189690   18.310420    8.100010
  H    -10.338290   19.132040    5.677560

 Total Charge           Charge          ....    0
 Multiplicity           Mult            ....    1
 Number of Electrons    NEL             ....  346
 Basis Dimension        Dim             ....  816

ORBITAL ENERGIES
----------------

  NO   OCC          E(Eh)            E(eV)
   0   2.0000     -88.953172     -2420.5389
   1   2.0000     -88.915184     -2419.5052
   2   2.0000     -19.205644      -522.6121
   3   2.0000     -19.191050      -522.2150
   4   2.0000     -19.186900      -522.1021
   5   2.0000     -14.454576      -393.3290
   6   2.0000     -14.452424      -393.2704
   7   2.0000     -14.418881      -392.3577
   8   2.0000     -14.418572      -392.3493
   9   2.0000     -14.396960      -391.7612
  10   2.0000     -14.396405      -391.7461
  11   2.0000     -14.393175      -391.6582
  12   2.0000     -14.392980      -391.6529
  13   2.0000     -10.373894      -282.2880
  14   2.0000     -10.373199      -282.2691
  15   2.0000     -10.352373      -281.7024
  16   2.0000     -10.342271      -281.4275
  17   2.0000     -10.334301      -281.2106
  18   2.0000     -10.330789      -281.1151
  19   2.0000     -10.330448      -281.1058
  20   2.0000     -10.329002      -281.0664
  21   2.0000     -10.325146      -280.9615
  22   2.0000     -10.318621      -280.7840
  23   2.0000     -10.316528      -280.7270
  24   2.0000     -10.311520      -280.5907
  25   2.0000     -10.310046      -280.5506
  26   2.0000     -10.309134      -280.5258
  27   2.0000     -10.308458      -280.5074
  28   2.0000     -10.308228      -280.5011
  29   2.0000     -10.307182      -280.4727
  30   2.0000     -10.304092      -280.3886
  31   2.0000     -10.302001      -280.3317
  32   2.0000     -10.297735      -280.2156
  33   2.0000     -10.295926      -280.1664
  34   2.0000     -10.291155      -280.0366
  35   2.0000     -10.285398      -279.8799
  36   2.0000     -10.280877      -279.7569
  37   2.0000     -10.280586      -279.7490
  38   2.0000     -10.275816      -279.6192
  39   2.0000     -10.275450      -279.6092
  40   2.0000     -10.270444      -279.4730
  41   2.0000     -10.268172      -279.4112
  42   2.0000     -10.266126      -279.3555
  43   2.0000     -10.265231      -279.3311
  44   2.0000     -10.265053      -279.3263
  45   2.0000     -10.260871      -279.2125
  46   2.0000     -10.260054      -279.1903
  47   2.0000      -8.048853      -219.0204
  48   2.0000      -8.010478      -217.9762
  49   2.0000      -6.017948      -163.7567
  50   2.0000      -6.013774      -163.6431
  51   2.0000      -6.011402      -163.5786
  52   2.0000      -5.980927      -162.7493
  53   2.0000      -5.977089      -162.6449
  54   2.0000      -5.970044      -162.4532
  55   2.0000      -1.132016       -30.8037
  56   2.0000      -1.125273       -30.6202
  57   2.0000      -1.097475       -29.8638
  58   2.0000      -1.093491       -29.7554
  59   2.0000      -1.080996       -29.4154
  60   2.0000      -1.062732       -28.9184
  61   2.0000      -1.058374       -28.7998
  62   2.0000      -1.053254       -28.6605
  63   2.0000      -0.987310       -26.8661
  64   2.0000      -0.987237       -26.8641
  65   2.0000      -0.971785       -26.4436
  66   2.0000      -0.960417       -26.1343
  67   2.0000      -0.938467       -25.5370
  68   2.0000      -0.928135       -25.2558
  69   2.0000      -0.923792       -25.1377
  70   2.0000      -0.907134       -24.6844
  71   2.0000      -0.894648       -24.3446
  72   2.0000      -0.879097       -23.9214
  73   2.0000      -0.871321       -23.7098
  74   2.0000      -0.855841       -23.2886
  75   2.0000      -0.845867       -23.0172
  76   2.0000      -0.825094       -22.4519
  77   2.0000      -0.821375       -22.3508
  78   2.0000      -0.812547       -22.1105
  79   2.0000      -0.803497       -21.8643
  80   2.0000      -0.790126       -21.5004
  81   2.0000      -0.776008       -21.1162
  82   2.0000      -0.764676       -20.8079
  83   2.0000      -0.762821       -20.7574
  84   2.0000      -0.761566       -20.7233
  85   2.0000      -0.739821       -20.1316
  86   2.0000      -0.734196       -19.9785
  87   2.0000      -0.717972       -19.5370
  88   2.0000      -0.712057       -19.3761
  89   2.0000      -0.709963       -19.3191
  90   2.0000      -0.703535       -19.1442
  91   2.0000      -0.686173       -18.6717
  92   2.0000      -0.677561       -18.4374
  93   2.0000      -0.675548       -18.3826
  94   2.0000      -0.670769       -18.2526
  95   2.0000      -0.652887       -17.7660
  96   2.0000      -0.639360       -17.3979
  97   2.0000      -0.633076       -17.2269
  98   2.0000      -0.626835       -17.0571
  99   2.0000      -0.614030       -16.7086
 100   2.0000      -0.604161       -16.4400
 101   2.0000      -0.599585       -16.3155
 102   2.0000      -0.593580       -16.1521
 103   2.0000      -0.589215       -16.0334
 104   2.0000      -0.586829       -15.9684
 105   2.0000      -0.575853       -15.6698
 106   2.0000      -0.572695       -15.5838
 107   2.0000      -0.568333       -15.4651
 108   2.0000      -0.564667       -15.3654
 109   2.0000      -0.560914       -15.2632
 110   2.0000      -0.559164       -15.2156
 111   2.0000      -0.554671       -15.0934
 112   2.0000      -0.538943       -14.6654
 113   2.0000      -0.537705       -14.6317
 114   2.0000      -0.531835       -14.4720
 115   2.0000      -0.529434       -14.4066
 116   2.0000      -0.524272       -14.2662
 117   2.0000      -0.521871       -14.2008
 118   2.0000      -0.521631       -14.1943
 119   2.0000      -0.517721       -14.0879
 120   2.0000      -0.515031       -14.0147
 121   2.0000      -0.513385       -13.9699
 122   2.0000      -0.508164       -13.8279
 123   2.0000      -0.504603       -13.7309
 124   2.0000      -0.501288       -13.6407
 125   2.0000      -0.501005       -13.6330
 126   2.0000      -0.498383       -13.5617
 127   2.0000      -0.496639       -13.5142
 128   2.0000      -0.491424       -13.3723
 129   2.0000      -0.489226       -13.3125
 130   2.0000      -0.483382       -13.1535
 131   2.0000      -0.473561       -12.8863
 132   2.0000      -0.472779       -12.8650
 133   2.0000      -0.470802       -12.8112
 134   2.0000      -0.468455       -12.7473
 135   2.0000      -0.467136       -12.7114
 136   2.0000      -0.457752       -12.4561
 137   2.0000      -0.457100       -12.4383
 138   2.0000      -0.455569       -12.3967
 139   2.0000      -0.454721       -12.3736
 140   2.0000      -0.451142       -12.2762
 141   2.0000      -0.444619       -12.0987
 142   2.0000      -0.444295       -12.0899
 143   2.0000      -0.433113       -11.7856
 144   2.0000      -0.425800       -11.5866
 145   2.0000      -0.424600       -11.5540
 146   2.0000      -0.418530       -11.3888
 147   2.0000      -0.411669       -11.2021
 148   2.0000      -0.410435       -11.1685
 149   2.0000      -0.405967       -11.0469
 150   2.0000      -0.403972       -10.9927
 151   2.0000      -0.401938       -10.9373
 152   2.0000      -0.399334       -10.8664
 153   2.0000      -0.395199       -10.7539
 154   2.0000      -0.384358       -10.4589
 155   2.0000      -0.379235       -10.3195
 156   2.0000      -0.370695       -10.0871
 157   2.0000      -0.364132        -9.9085
 158   2.0000      -0.358504        -9.7554
 159   2.0000      -0.356174        -9.6920
 160   2.0000      -0.346717        -9.4346
 161   2.0000      -0.343538        -9.3482
 162   2.0000      -0.333974        -9.0879
 163   2.0000      -0.330371        -8.9898
 164   2.0000      -0.329819        -8.9748
 165   2.0000      -0.318187        -8.6583
 166   2.0000      -0.316936        -8.6243
 167   2.0000      -0.314639        -8.5618
 168   2.0000      -0.300996        -8.1905
 169   2.0000      -0.298574        -8.1246
 170   2.0000      -0.291339        -7.9277
 171   2.0000      -0.264202        -7.1893
 172   2.0000      -0.249116        -6.7788
 173   0.0000      -0.079336        -2.1589
 174   0.0000      -0.043741        -1.1903
 175   0.0000      -0.031591        -0.8596
 176   0.0000      -0.009912        -0.2697
 177   0.0000       0.006042         0.1644

MULLIKEN ATOMIC CHARGES
-----------------------
   0 C :    0.046649
   1 N :   -0.264924
   2 C :    0.107648
   3 C :   -0.004185
   4 C :    0.164863
   5 O :   -0.195816
   6 C :   -0.087219
   7 C :    0.008761
   8 C :    0.164096
   9 O :   -0.187098
  10 N :   -0.277381
  11 C :    0.097660
  12 C :    0.001152
  13 C :    0.136471
  14 C :   -0.015093
  15 C :    0.016116
  16 C :    0.011993
  17 C :    0.044474
  18 N :   -0.044504
  19 C :   -0.069979
  20 N :   -0.041687
  21 C :    0.028776
  22 C :    0.016459
  23 C :    0.048192
  24 N :   -0.014654
  25 C :   -0.078708
  26 N :   -0.014224
  27 C :    0.046733
  28 C :   -0.077016
  29 N :   -0.031640
  30 C :    0.072804
  31 C :   -0.050812
  32 C :    0.041012
  33 N :   -0.014258
  34 C :    0.018265
  35 C :    0.042204
  36 C :   -0.117821
  37 S :    0.132149
  38 C :   -0.104042
  39 C :   -0.058492
  40 C :    0.051379
  41 C :   -0.187309
  42 S :   -0.039524
  43 C :    0.101452
  44 C :    0.046412
  45 C :    0.221855
  46 O :   -0.298018
  47 H :    0.018610
  48 H :    0.020215
  49 H :    0.045133
  50 H :    0.016098
  51 H :    0.024588
  52 H :    0.031189
  53 H :    0.045054
  54 H :    0.022652
  55 H :    0.030541
  56 H :    0.020821
  57 H :    0.019093
  58 H :    0.008311
  59 H :   -0.018540
  60 H :    0.023927
  61 H :    0.004335
  62 H :    0.016183
  63 H :    0.012744
  64 H :    0.001813
  65 H :   -0.009424
  66 H :   -0.002804
  67 H :   -0.013703
  68 H :    0.020219
  69 H :    0.047756
  70 H :    0.057334
  71 H :   -0.006687
  72 H :    0.014067
  73 H :    0.011039
  74 H :   -0.005395
  75 H :   -0.005776
  76 H :    0.157435
Sum of atomic charges:   -0.0000000

LOEWDIN ATOMIC CHARGES
----------------------
   0 C :    0.099417
   1 N :   -0.003123
   2 C :    0.037658
   3 C :   -0.060663
   4 C :    0.077452
   5 O :   -0.197846
   6 C :   -0.120257
   7 C :   -0.133124
   8 C :    0.084391
   9 O :   -0.189416
  10 N :   -0.011890
  11 C :    0.033515
  12 C :   -0.063779
  13 C :    0.077012
  14 C :   -0.023497
  15 C :   -0.004030
  16 C :   -0.076307
  17 C :    0.066439
  18 N :   -0.072679
  19 C :    0.037768
  20 N :   -0.076371
  21 C :    0.053793
  22 C :   -0.090261
  23 C :    0.068329
  24 N :   -0.059686
  25 C :    0.020266
  26 N :   -0.059533
  27 C :    0.068400
  28 C :    0.007750
  29 N :   -0.069431
  30 C :    0.043614
  31 C :   -0.056220
  32 C :    0.032508
  33 N :   -0.064423
  34 C :   -0.036005
  35 C :   -0.013876
  36 C :   -0.177776
  37 S :    0.456996
  38 C :   -0.169270
  39 C :   -0.092245
  40 C :   -0.077251
  41 C :   -0.115433
  42 S :    0.158961
  43 C :   -0.040790
  44 C :   -0.044131
  45 C :    0.066973
  46 O :   -0.126956
  47 H :    0.033871
  48 H :    0.024922
  49 H :    0.037120
  50 H :    0.022456
  51 H :    0.030787
  52 H :    0.031966
  53 H :    0.038104
  54 H :    0.020094
  55 H :    0.033821
  56 H :    0.029955
  57 H :    0.020783
  58 H :    0.044804
  59 H :    0.030119
  60 H :    0.031425
  61 H :    0.025598
  62 H :    0.027692
  63 H :    0.026966
  64 H :    0.024816
  65 H :    0.030356
  66 H :    0.030043
  67 H :    0.026318
  68 H :    0.026295
  69 H :    0.030741
  70 H :   -0.034344
  71 H :    0.017436
  72 H :    0.028206
  73 H :    0.030366
  74 H :    0.020037
  75 H :    0.027243
  76 H :    0.067034

  Mayer bond orders larger than 0.100000
B(  0-C ,  1-N ) :   1.1981 B(  0-C ,  7-C ) :   1.4527 B(  0-C , 47-H ) :   0.9891
B(  1-N ,  2-C ) :   0.9399 B(  1-N ,  4-C ) :   1.0325 B(  2-C ,  3-C ) :   1.1195
B(  2-C , 48-H ) :   0.9543 B(  2-C , 49-H ) :   0.9344 B(  3-C , 50-H ) :   0.9693
B(  3-C , 51-H ) :   0.9686 B(  3-C , 52-H ) :   0.9674 B(  4-C ,  5-O ) :   2.1169
B(  4-C ,  6-C ) :   0.9912 B(  6-C ,  7-C ) :   1.1890 B(  6-C , 13-C ) :   1.3966
B(  7-C ,  8-C ) :   0.9529 B(  8-C ,  9-O ) :   2.1657 B(  8-C , 10-N ) :   1.0172
B( 10-N , 11-C ) :   0.9455 B( 10-N , 13-C ) :   1.1597 B( 11-C , 12-C ) :   1.1169
B( 11-C , 53-H ) :   0.9235 B( 11-C , 54-H ) :   0.9514 B( 12-C , 55-H ) :   0.9614
B( 12-C , 56-H ) :   0.9684 B( 12-C , 57-H ) :   0.9680 B( 13-C , 14-C ) :   1.1655
B( 14-C , 15-C ) :   1.6282 B( 14-C , 58-H ) :   0.9415 B( 15-C , 16-C ) :   1.0671
B( 15-C , 59-H ) :   0.9856 B( 16-C , 17-C ) :   1.3022 B( 16-C , 21-C ) :   1.3028
B( 17-C , 18-N ) :   1.5827 B( 17-C , 60-H ) :   0.9828 B( 18-N , 19-C ) :   1.5657
B( 19-C , 20-N ) :   1.5719 B( 19-C , 22-C ) :   0.9674 B( 20-N , 21-C ) :   1.5725
B( 21-C , 61-H ) :   0.9883 B( 22-C , 23-C ) :   1.3364 B( 22-C , 27-C ) :   1.3372
B( 23-C , 24-N ) :   1.5586 B( 23-C , 62-H ) :   0.9775 B( 24-N , 25-C ) :   1.6012
B( 25-C , 26-N ) :   1.6001 B( 25-C , 28-C ) :   0.8928 B( 26-N , 27-C ) :   1.5563
B( 27-C , 63-H ) :   0.9791 B( 28-C , 29-N ) :   1.6125 B( 28-C , 33-N ) :   1.6200
B( 29-N , 30-C ) :   1.5364 B( 30-C , 31-C ) :   1.3945 B( 30-C , 64-H ) :   0.9793
B( 31-C , 32-C ) :   1.3428 B( 31-C , 65-H ) :   0.9678 B( 32-C , 33-N ) :   1.5014
B( 32-C , 34-C ) :   1.0663 B( 34-C , 35-C ) :   1.6751 B( 34-C , 66-H ) :   0.9799
B( 35-C , 36-C ) :   1.1528 B( 35-C , 67-H ) :   0.9547 B( 36-C , 37-S ) :   1.1338
B( 36-C , 40-C ) :   1.4884 B( 37-S , 38-C ) :   1.1761 B( 38-C , 39-C ) :   1.5678
B( 38-C , 68-H ) :   0.9679 B( 39-C , 40-C ) :   1.3111 B( 39-C , 45-C ) :   0.9621
B( 40-C , 41-C ) :   0.9596 B( 41-C , 42-S ) :   1.0412 B( 41-C , 43-C ) :   1.0202
B( 41-C , 69-H ) :   0.9159 B( 42-S , 70-H ) :   0.9524 B( 43-C , 44-C ) :   1.0570
B( 43-C , 71-H ) :   0.9344 B( 43-C , 72-H ) :   0.9277 B( 44-C , 45-C ) :   1.0475
B( 44-C , 73-H ) :   0.9280 B( 44-C , 74-H ) :   0.9345 B( 45-C , 46-O ) :   1.0562
B( 45-C , 75-H ) :   0.9085 B( 46-O , 76-H ) :   0.9816

-----------------------------------------------------------------------------
         ABSORPTION SPECTRUM VIA TRANSITION ELECTRIC DIPOLE MOMENTS
-----------------------------------------------------------------------------
State   Energy  Wavelength   fosc         T2         TX        TY        TZ
        (cm-1)    (nm)                  (au**2)     (au)      (au)      (au)
-----------------------------------------------------------------------------
   0   21435.4    466.5   0.617370929   9.48179   1.44525   2.69063  -0.39184
   1   26823.9    372.8   0.000214204   0.00263   0.04759  -0.01459  -0.01228
   2   28854.0    346.6   0.014454728   0.16492  -0.22109  -0.33457   0.06404
   3   30504.2    327.8   0.096106812   1.03722   0.48770   0.74656  -0.49195
   4   30558.2    327.2   0.043602912   0.46975  -0.50000   0.12888   0.45070
   5   30969.6    322.9   0.054593234   0.58034   0.34043  -0.64115  -0.23101
   6   31420.3    318.3   1.493463383  15.64806   1.43504  -3.22897  -1.77833
   7   31912.0    313.4   0.003401266   0.03509   0.14692   0.10276   0.05424
   8   32428.8    308.4   0.411166439   4.17409   1.54691  -0.46479  -1.25105
   9   33140.0    301.8   0.389354511   3.86784  -0.14501  -1.93415   0.32536
  10   34160.3    292.7   0.008385180   0.08081  -0.13465   0.24777  -0.03595
  11   34507.2    289.8   0.002095904   0.02000   0.00707  -0.14120  -0.00295
  12   35779.6    279.5   0.018479106   0.17003  -0.36568  -0.12388   0.14477
  13   36524.1    273.8   0.008727273   0.07866  -0.06469   0.03832  -0.27021
  14   36936.2    270.7   0.062345655   0.55569  -0.34732   0.54057   0.37794
  15   37116.8    269.4   0.071976237   0.63840   0.59832   0.18101  -0.49765
  16   37192.0    268.9   0.003579616   0.03169  -0.09127  -0.12842   0.08285
  17   37911.9    263.8   0.007343393   0.06377  -0.12246  -0.07828   0.20650
  18   38575.1    259.2   0.016609564   0.14175   0.18941  -0.01897   0.32483
  19   40270.6    248.3   0.013772313   0.11259  -0.18827   0.19069   0.20193

FINAL SINGLE POINT ENERGY     -2771.053530101387

DIPOLE MOMENT
-------------
                                X             Y             Z
Electronic contribution:      7.37014      13.96062      -5.03471
Nuclear contribution   :     -7.80056     -14.26727       5.29664
                        -----------------------------------------
Total Dipole Moment    :     -0.43042      -0.30665       0.26193
                        -----------------------------------------
Magnitude (a.u.)       :      0.58983
Magnitude (Debye)      :      1.49924

Rotational constants in cm-1:     0.004003     0.000400     0.000367
Rotational constants in MHz :   119.994422    11.998444    11.002831

                             ****ORCA TERMINATED NORMALLY****
TOTAL RUN TIME: 0 days 0 hours 5 minutes 51 seconds 107 msec
