                         Program Version 4.2.0 -  RELEASE  -
|  1> # ORCA input file
|  2> # SCF done       -160.310868793356          0.000745857138
|  3> ! CAM-B3LYP def2-SVP def2/J RIJCOSX Grid4 TightSCF
|  4> %maxcore 5000
|  5> %tddft
|  6>     Mode sTDDFT
|  7>     Ethresh 5.0
|  8>     maxcore 5000
|  9> end
| 10>
| 11> %pal
| 12>   nprocs 6
| 13>   end
| 14> * xyz 0 1
| 15>    C        5.48157         4.71113         0.67528
| 16>    N        4.87674         5.05513         1.83905
| 17>    C        5.49148         5.07548         3.14232
| 18>    C        5.62869         3.66875         3.71912
| 19>    C        3.49782         5.33614         1.64340
| 20>    O        2.75030         5.66558         2.53936
| 21>    C        3.31036         5.14104         0.22759
| 22>    C        4.56014         4.75482        -0.33835
| 23>    C        4.35630         4.57414        -1.75988
| 24>    O        5.10425         4.26305        -2.65956
| 25>    N        2.98736         4.86445        -1.95911
| 26>    C        2.43556         4.75413        -3.28674
| 27>    C        1.71681         3.42273        -3.49883
| 28>    C        2.35127         5.19978        -0.77931
| 29>    C        1.00953         5.56751        -0.53106
| 30>    C       -0.05693         5.61959        -1.37932
| 31>    C       -1.34868         6.02023        -0.99602
| 32>    C       -2.49066         6.06131        -1.82090
| 33>    C       -3.65529         6.52267        -1.13576
| 34>    N       -4.85269         6.64002        -1.72869
| 35>    C       -4.93784         6.31277        -2.98928
| 36>    C       -3.85642         5.84647        -3.76027
| 37>    C       -2.62264         5.71744        -3.17698
| 38>    C       -3.40475         6.83865         0.21791
| 39>    S       -1.74352         6.55383         0.60977
| 40>    C       -4.31458         7.32859         1.17510
| 41>    C       -4.05812         7.65740         2.49245
| 42>    C       -5.25513         8.12783         3.09713
| 43>    C       -6.29466         8.05912         2.04880
| 44>    C       -5.72513         7.58243         0.91352
| 45>    C       -7.64686         8.39519         2.17680
| 46>    N       -8.76497         8.65246         2.24266
| 47>    C       -5.43326         8.56760         4.38706
| 48>    C       -6.62799         9.09319         4.97450
| 49>    C       -6.38307         9.44098         6.27442
| 50>    C       -4.99939         9.11054         6.57144
| 51>    C       -4.41957         8.59104         5.45386
| 52>    C       -3.09958         8.14179         5.37070
| 53>    N       -2.00862         7.78142         5.33660
| 54>    C       -7.37339         9.97834         7.19912
| 55>    C       -7.12088        11.06181         8.05212
| 56>    C       -5.78261        11.74443         8.08020
| 57>    C       -5.00005        11.40503         9.35023
| 58>    C       -8.15333        11.50268         8.88631
| 59>    C       -9.38567        10.85624         8.90007
| 60>    C       -9.62705         9.79444         8.04949
| 61>    C       -8.63242         9.37202         7.19337
| 62>    C       -7.99936        12.66140         9.77172
| 63>    S       -8.05287        12.45683        11.49512
| 64>    C       -7.93360        14.17000        11.76211
| 65>    C       -7.89073        14.84186        10.56521
| 66>    C       -7.93515        13.98578         9.43310
| 67>    S       -8.05884        14.47808         7.74098
| 68>    C       -6.89247        15.90724         7.62239
| 69>    C       -5.85456        15.80257         8.70428
| 70>    O       -4.94968        15.00974         8.67806
| 71>    C       -6.07109        16.73438         9.86965
| 72>    S       -7.79817        16.60392        10.46387
| 73>    C       -7.89820        14.74216        13.07930
| 74>    C       -7.96592        14.04352        14.20835
| 75>    H        6.52750         4.46675         0.64431
| 76>    H        4.84049         5.67725         3.78224
| 77>    H        6.47135         5.55620         3.06954
| 78>    H        4.64898         3.20608         3.80843
| 79>    H        6.08203         3.71670         4.70512
| 80>    H        6.25074         3.04853         3.07721
| 81>    H        3.29069         4.80863        -3.96811
| 82>    H        1.78140         5.60683        -3.48577
| 83>    H        2.42702         2.60609        -3.39690
| 84>    H        1.28994         3.38631        -4.49784
| 85>    H        0.92378         3.27857        -2.76791
| 86>    H        0.83960         5.83382         0.50602
| 87>    H        0.04213         5.33817        -2.41546
| 88>    H       -5.91815         6.41996        -3.43452
| 89>    H       -4.00968         5.59653        -4.79825
| 90>    H       -1.77412         5.36087        -3.74252
| 91>    H       -3.10812         7.58107         2.98530
| 92>    H       -6.19616         7.40558        -0.03389
| 93>    H       -7.55284         9.23027         4.45006
| 94>    H       -4.52728         9.21393         7.52998
| 95>    H       -5.91251        12.82564         8.03983
| 96>    H       -5.20197        11.45817         7.20261
| 97>    H       -5.51788        11.77248        10.23270
| 98>    H       -4.01944        11.87236         9.31243
| 99>    H       -4.87515        10.32964         9.46060
|100>    H      -10.15724        11.20880         9.56893
|101>    H      -10.58847         9.30416         8.05270
|102>    H       -8.80915         8.54315         6.52462
|103>    H       -7.47119        16.82710         7.68288
|104>    H       -6.43459        15.79632         6.63987
|105>    H       -5.94739        17.77194         9.55852
|106>    H       -5.38332        16.50149        10.68350
|107>    H       -7.81457        15.82110        13.09934
|108>    H       -8.05907        12.96983        14.20070
|109>    H       -7.93401        14.52338        15.16986
|110> *
|111>
|112>                          ****END OF INPUT****

CARTESIAN COORDINATES (ANGSTROEM)
---------------------------------
  C      5.481570    4.711130    0.675280
  N      4.876740    5.055130    1.839050
  C      5.491480    5.075480    3.142320
  C      5.628690    3.668750    3.719120
  C      3.497820    5.336140    1.643400
  O      2.750300    5.665580    2.539360
  C      3.310360    5.141040    0.227590
  C      4.560140    4.754820   -0.338350
  C      4.356300    4.574140   -1.759880
  O      5.104250    4.263050   -2.659560
  N      2.987360    4.864450   -1.959110
  C      2.435560    4.754130   -3.286740
  C      1.716810    3.422730   -3.498830
  C      2.351270    5.199780   -0.779310
  C      1.009530    5.567510   -0.531060
  C     -0.056930    5.619590   -1.379320
  C     -1.348680    6.020230   -0.996020
  C     -2.490660    6.061310   -1.820900
  C     -3.655290    6.522670   -1.135760
  N     -4.852690    6.640020   -1.728690
  C     -4.937840    6.312770   -2.989280
  C     -3.856420    5.846470   -3.760270
  C     -2.622640    5.717440   -3.176980
  C     -3.404750    6.838650    0.217910
  S     -1.743520    6.553830    0.609770
  C     -4.314580    7.328590    1.175100
  C     -4.058120    7.657400    2.492450
  C     -5.255130    8.127830    3.097130
  C     -6.294660    8.059120    2.048800
  C     -5.725130    7.582430    0.913520
  C     -7.646860    8.395190    2.176800
  N     -8.764970    8.652460    2.242660
  C     -5.433260    8.567600    4.387060
  C     -6.627990    9.093190    4.974500
  C     -6.383070    9.440980    6.274420
  C     -4.999390    9.110540    6.571440
  C     -4.419570    8.591040    5.453860
  C     -3.099580    8.141790    5.370700
  N     -2.008620    7.781420    5.336600
  C     -7.373390    9.978340    7.199120
  C     -7.120880   11.061810    8.052120
  C     -5.782610   11.744430    8.080200
  C     -5.000050   11.405030    9.350230
  C     -8.153330   11.502680    8.886310
  C     -9.385670   10.856240    8.900070
  C     -9.627050    9.794440    8.049490
  C     -8.632420    9.372020    7.193370
  C     -7.999360   12.661400    9.771720
  S     -8.052870   12.456830   11.495120
  C     -7.933600   14.170000   11.762110
  C     -7.890730   14.841860   10.565210
  C     -7.935150   13.985780    9.433100
  S     -8.058840   14.478080    7.740980
  C     -6.892470   15.907240    7.622390
  C     -5.854560   15.802570    8.704280
  O     -4.949680   15.009740    8.678060
  C     -6.071090   16.734380    9.869650
  S     -7.798170   16.603920   10.463870
  C     -7.898200   14.742160   13.079300
  C     -7.965920   14.043520   14.208350
  H      6.527500    4.466750    0.644310
  H      4.840490    5.677250    3.782240
  H      6.471350    5.556200    3.069540
  H      4.648980    3.206080    3.808430
  H      6.082030    3.716700    4.705120
  H      6.250740    3.048530    3.077210
  H      3.290690    4.808630   -3.968110
  H      1.781400    5.606830   -3.485770
  H      2.427020    2.606090   -3.396900
  H      1.289940    3.386310   -4.497840
  H      0.923780    3.278570   -2.767910
  H      0.839600    5.833820    0.506020
  H      0.042130    5.338170   -2.415460
  H     -5.918150    6.419960   -3.434520
  H     -4.009680    5.596530   -4.798250
  H     -1.774120    5.360870   -3.742520
  H     -3.108120    7.581070    2.985300
  H     -6.196160    7.405580   -0.033890
  H     -7.552840    9.230270    4.450060
  H     -4.527280    9.213930    7.529980
  H     -5.912510   12.825640    8.039830
  H     -5.201970   11.458170    7.202610
  H     -5.517880   11.772480   10.232700
  H     -4.019440   11.872360    9.312430
  H     -4.875150   10.329640    9.460600
  H    -10.157240   11.208800    9.568930
  H    -10.588470    9.304160    8.052700
  H     -8.809150    8.543150    6.524620
  H     -7.471190   16.827100    7.682880
  H     -6.434590   15.796320    6.639870
  H     -5.947390   17.771940    9.558520
  H     -5.383320   16.501490   10.683500
  H     -7.814570   15.821100   13.099340
  H     -8.059070   12.969830   14.200700
  H     -7.934010   14.523380   15.169860

 Total Charge           Charge          ....    0
 Multiplicity           Mult            ....    1
 Number of Electrons    NEL             ....  446
 Basis Dimension        Dim             .... 1031

ORBITAL ENERGIES
----------------

  NO   OCC          E(Eh)            E(eV)
   0   2.0000     -88.981950     -2421.3220
   1   2.0000     -88.957938     -2420.6685
   2   2.0000     -88.937150     -2420.1029
   3   2.0000     -88.931611     -2419.9522
   4   2.0000     -19.220583      -523.0186
   5   2.0000     -19.188294      -522.1400
   6   2.0000     -19.183752      -522.0164
   7   2.0000     -14.452145      -393.2628
   8   2.0000     -14.450092      -393.2070
   9   2.0000     -14.419395      -392.3717
  10   2.0000     -14.396774      -391.7561
  11   2.0000     -14.393840      -391.6763
  12   2.0000     -10.373094      -282.2662
  13   2.0000     -10.370523      -282.1963
  14   2.0000     -10.370332      -282.1911
  15   2.0000     -10.339240      -281.3450
  16   2.0000     -10.332234      -281.1544
  17   2.0000     -10.324807      -280.9523
  18   2.0000     -10.323274      -280.9106
  19   2.0000     -10.322190      -280.8811
  20   2.0000     -10.319347      -280.8037
  21   2.0000     -10.310385      -280.5598
  22   2.0000     -10.309811      -280.5442
  23   2.0000     -10.308366      -280.5049
  24   2.0000     -10.306989      -280.4674
  25   2.0000     -10.306955      -280.4665
  26   2.0000     -10.306773      -280.4616
  27   2.0000     -10.306647      -280.4581
  28   2.0000     -10.305951      -280.4392
  29   2.0000     -10.303100      -280.3616
  30   2.0000     -10.302895      -280.3560
  31   2.0000     -10.302186      -280.3367
  32   2.0000     -10.302124      -280.3350
  33   2.0000     -10.301166      -280.3090
  34   2.0000     -10.300728      -280.2971
  35   2.0000     -10.299849      -280.2731
  36   2.0000     -10.299371      -280.2601
  37   2.0000     -10.298163      -280.2273
  38   2.0000     -10.296426      -280.1800
  39   2.0000     -10.296324      -280.1772
  40   2.0000     -10.294440      -280.1260
  41   2.0000     -10.293108      -280.0897
  42   2.0000     -10.291841      -280.0552
  43   2.0000     -10.284650      -279.8595
  44   2.0000     -10.280045      -279.7343
  45   2.0000     -10.278303      -279.6869
  46   2.0000     -10.275260      -279.6041
  47   2.0000     -10.274217      -279.5756
  48   2.0000     -10.273643      -279.5600
  49   2.0000     -10.268747      -279.4268
  50   2.0000     -10.267995      -279.4063
  51   2.0000     -10.266463      -279.3647
  52   2.0000     -10.266101      -279.3548
  53   2.0000     -10.265955      -279.3508
  54   2.0000     -10.262773      -279.2643
  55   2.0000     -10.262518      -279.2573
  56   2.0000     -10.259733      -279.1815
  57   2.0000     -10.257588      -279.1231
  58   2.0000     -10.249134      -278.8931
  59   2.0000     -10.243152      -278.7303
  60   2.0000      -8.076288      -219.7670
  61   2.0000      -8.053210      -219.1390
  62   2.0000      -8.031640      -218.5520
  63   2.0000      -8.026064      -218.4003
  64   2.0000      -6.045201      -164.4983
  65   2.0000      -6.041140      -164.3878
  66   2.0000      -6.039243      -164.3362
  67   2.0000      -6.022440      -163.8789
  68   2.0000      -6.018443      -163.7702
  69   2.0000      -6.015276      -163.6840
  70   2.0000      -6.002305      -163.3310
  71   2.0000      -5.998452      -163.2262
  72   2.0000      -5.996925      -163.1846
  73   2.0000      -5.992739      -163.0707
  74   2.0000      -5.990752      -163.0167
  75   2.0000      -5.984999      -162.8601
  76   2.0000      -1.139222       -30.9998
  77   2.0000      -1.129375       -30.7318
  78   2.0000      -1.122630       -30.5483
  79   2.0000      -1.060214       -28.8499
  80   2.0000      -1.059368       -28.8269
  81   2.0000      -1.050685       -28.5906
  82   2.0000      -1.003923       -27.3181
  83   2.0000      -0.999144       -27.1881
  84   2.0000      -0.992200       -26.9991
  85   2.0000      -0.985849       -26.8263
  86   2.0000      -0.972428       -26.4611
  87   2.0000      -0.968968       -26.3670
  88   2.0000      -0.951271       -25.8854
  89   2.0000      -0.926755       -25.2183
  90   2.0000      -0.924090       -25.1458
  91   2.0000      -0.921852       -25.0849
  92   2.0000      -0.906633       -24.6707
  93   2.0000      -0.903196       -24.5772
  94   2.0000      -0.876448       -23.8494
  95   2.0000      -0.874040       -23.7838
  96   2.0000      -0.871062       -23.7028
  97   2.0000      -0.865524       -23.5521
  98   2.0000      -0.860891       -23.4260
  99   2.0000      -0.853260       -23.2184
 100   2.0000      -0.844994       -22.9935
 101   2.0000      -0.839641       -22.8478
 102   2.0000      -0.830160       -22.5898
 103   2.0000      -0.823250       -22.4018
 104   2.0000      -0.819703       -22.3052
 105   2.0000      -0.806055       -21.9339
 106   2.0000      -0.797630       -21.7046
 107   2.0000      -0.792742       -21.5716
 108   2.0000      -0.779349       -21.2072
 109   2.0000      -0.760453       -20.6930
 110   2.0000      -0.755782       -20.5659
 111   2.0000      -0.751745       -20.4560
 112   2.0000      -0.741064       -20.1654
 113   2.0000      -0.739289       -20.1171
 114   2.0000      -0.723531       -19.6883
 115   2.0000      -0.718575       -19.5534
 116   2.0000      -0.713878       -19.4256
 117   2.0000      -0.709794       -19.3145
 118   2.0000      -0.706631       -19.2284
 119   2.0000      -0.696385       -18.9496
 120   2.0000      -0.687525       -18.7085
 121   2.0000      -0.681340       -18.5402
 122   2.0000      -0.661894       -18.0111
 123   2.0000      -0.654885       -17.8203
 124   2.0000      -0.651198       -17.7200
 125   2.0000      -0.649725       -17.6799
 126   2.0000      -0.646353       -17.5882
 127   2.0000      -0.638236       -17.3673
 128   2.0000      -0.631338       -17.1796
 129   2.0000      -0.621663       -16.9163
 130   2.0000      -0.613238       -16.6871
 131   2.0000      -0.608225       -16.5506
 132   2.0000      -0.601615       -16.3708
 133   2.0000      -0.593369       -16.1464
 134   2.0000      -0.592416       -16.1205
 135   2.0000      -0.584891       -15.9157
 136   2.0000      -0.578476       -15.7411
 137   2.0000      -0.577178       -15.7058
 138   2.0000      -0.569582       -15.4991
 139   2.0000      -0.567520       -15.4430
 140   2.0000      -0.564183       -15.3522
 141   2.0000      -0.557285       -15.1645
 142   2.0000      -0.555957       -15.1284
 143   2.0000      -0.551055       -14.9950
 144   2.0000      -0.546734       -14.8774
 145   2.0000      -0.544240       -14.8095
 146   2.0000      -0.543195       -14.7811
 147   2.0000      -0.541832       -14.7440
 148   2.0000      -0.534246       -14.5376
 149   2.0000      -0.531568       -14.4647
 150   2.0000      -0.526897       -14.3376
 151   2.0000      -0.523709       -14.2508
 152   2.0000      -0.522381       -14.2147
 153   2.0000      -0.517751       -14.0887
 154   2.0000      -0.516776       -14.0622
 155   2.0000      -0.509207       -13.8562
 156   2.0000      -0.506800       -13.7907
 157   2.0000      -0.505353       -13.7513
 158   2.0000      -0.503873       -13.7111
 159   2.0000      -0.503177       -13.6921
 160   2.0000      -0.499155       -13.5827
 161   2.0000      -0.498518       -13.5654
 162   2.0000      -0.498082       -13.5535
 163   2.0000      -0.496298       -13.5049
 164   2.0000      -0.494845       -13.4654
 165   2.0000      -0.492198       -13.3934
 166   2.0000      -0.484554       -13.1854
 167   2.0000      -0.480333       -13.0705
 168   2.0000      -0.479734       -13.0542
 169   2.0000      -0.476190       -12.9578
 170   2.0000      -0.475447       -12.9376
 171   2.0000      -0.473051       -12.8724
 172   2.0000      -0.471237       -12.8230
 173   2.0000      -0.467471       -12.7205
 174   2.0000      -0.464298       -12.6342
 175   2.0000      -0.462767       -12.5925
 176   2.0000      -0.460498       -12.5308
 177   2.0000      -0.456629       -12.4255
 178   2.0000      -0.455989       -12.4081
 179   2.0000      -0.455295       -12.3892
 180   2.0000      -0.453618       -12.3436
 181   2.0000      -0.450834       -12.2678
 182   2.0000      -0.449774       -12.2390
 183   2.0000      -0.447871       -12.1872
 184   2.0000      -0.439593       -11.9619
 185   2.0000      -0.438839       -11.9414
 186   2.0000      -0.430813       -11.7230
 187   2.0000      -0.429830       -11.6963
 188   2.0000      -0.429475       -11.6866
 189   2.0000      -0.427497       -11.6328
 190   2.0000      -0.425602       -11.5812
 191   2.0000      -0.424281       -11.5453
 192   2.0000      -0.423969       -11.5368
 193   2.0000      -0.419854       -11.4248
 194   2.0000      -0.418393       -11.3851
 195   2.0000      -0.415062       -11.2944
 196   2.0000      -0.409310       -11.1379
 197   2.0000      -0.404159       -10.9977
 198   2.0000      -0.402998       -10.9661
 199   2.0000      -0.402147       -10.9430
 200   2.0000      -0.400194       -10.8898
 201   2.0000      -0.393973       -10.7205
 202   2.0000      -0.392617       -10.6836
 203   2.0000      -0.383490       -10.4353
 204   2.0000      -0.376758       -10.2521
 205   2.0000      -0.365495        -9.9456
 206   2.0000      -0.346192        -9.4204
 207   2.0000      -0.344761        -9.3814
 208   2.0000      -0.343556        -9.3486
 209   2.0000      -0.339079        -9.2268
 210   2.0000      -0.335581        -9.1316
 211   2.0000      -0.333418        -9.0728
 212   2.0000      -0.327325        -8.9070
 213   2.0000      -0.318377        -8.6635
 214   2.0000      -0.315994        -8.5986
 215   2.0000      -0.312690        -8.5087
 216   2.0000      -0.309479        -8.4213
 217   2.0000      -0.307066        -8.3557
 218   2.0000      -0.291039        -7.9196
 219   2.0000      -0.282209        -7.6793
 220   2.0000      -0.266934        -7.2636
 221   2.0000      -0.265572        -7.2266
 222   2.0000      -0.231824        -6.3082
 223   0.0000      -0.115640        -3.1467
 224   0.0000      -0.075540        -2.0555
 225   0.0000      -0.038933        -1.0594
 226   0.0000      -0.019367        -0.5270
 227   0.0000      -0.001354        -0.0369

MULLIKEN ATOMIC CHARGES
-----------------------
   0 C :    0.051154
   1 N :   -0.266093
   2 C :    0.109472
   3 C :    0.000280
   4 C :    0.159418
   5 O :   -0.184664
   6 C :   -0.075254
   7 C :    0.002868
   8 C :    0.162033
   9 O :   -0.192012
  10 N :   -0.281128
  11 C :    0.100633
  12 C :   -0.000370
  13 C :    0.142643
  14 C :   -0.050641
  15 C :    0.004555
  16 C :   -0.078373
  17 C :    0.079522
  18 C :    0.035599
  19 N :   -0.048548
  20 C :    0.037505
  21 C :    0.000783
  22 C :    0.016595
  23 C :   -0.108857
  24 S :    0.207429
  25 C :    0.073038
  26 C :   -0.145835
  27 C :    0.125452
  28 C :   -0.093457
  29 C :   -0.005408
  30 C :   -0.170521
  31 N :    0.128451
  32 C :    0.102670
  33 C :   -0.102922
  34 C :    0.051244
  35 C :    0.001420
  36 C :   -0.112771
  37 C :   -0.179617
  38 N :    0.135585
  39 C :    0.019381
  40 C :   -0.021302
  41 C :    0.099103
  42 C :    0.017533
  43 C :   -0.039035
  44 C :    0.018134
  45 C :    0.031627
  46 C :   -0.002193
  47 C :   -0.205168
  48 S :    0.153917
  49 C :   -0.084584
  50 C :   -0.100062
  51 C :    0.041597
  52 S :    0.034171
  53 C :    0.007419
  54 C :   -0.029368
  55 O :   -0.156623
  56 C :    0.014194
  57 S :   -0.012877
  58 C :    0.003002
  59 C :   -0.022303
  60 H :    0.017428
  61 H :    0.046357
  62 H :    0.017652
  63 H :    0.032634
  64 H :    0.023880
  65 H :    0.013536
  66 H :    0.043631
  67 H :    0.019449
  68 H :    0.032288
  69 H :    0.017561
  70 H :    0.019677
  71 H :    0.018541
  72 H :   -0.025948
  73 H :    0.010113
  74 H :    0.002230
  75 H :   -0.007720
  76 H :    0.004747
  77 H :    0.005533
  78 H :   -0.000079
  79 H :   -0.014368
  80 H :    0.011413
  81 H :    0.005892
  82 H :    0.009437
  83 H :    0.023395
  84 H :    0.004196
  85 H :   -0.021562
  86 H :   -0.015321
  87 H :   -0.015849
  88 H :    0.064053
  89 H :    0.071809
  90 H :    0.071607
  91 H :    0.061434
  92 H :    0.001781
  93 H :    0.024108
  94 H :    0.028022
Sum of atomic charges:   -0.0000000

LOEWDIN ATOMIC CHARGES
----------------------
   0 C :    0.099604
   1 N :   -0.001453
   2 C :    0.038303
   3 C :   -0.060277
   4 C :    0.076660
   5 O :   -0.187304
   6 C :   -0.114663
   7 C :   -0.134819
   8 C :    0.082837
   9 O :   -0.194143
  10 N :   -0.014324
  11 C :    0.033078
  12 C :   -0.065059
  13 C :    0.072235
  14 C :   -0.032501
  15 C :   -0.027716
  16 C :   -0.166842
  17 C :   -0.058133
  18 C :   -0.021625
  19 N :   -0.061258
  20 C :    0.034202
  21 C :   -0.046116
  22 C :    0.020581
  23 C :   -0.170995
  24 S :    0.524735
  25 C :   -0.028202
  26 C :   -0.038721
  27 C :    0.036954
  28 C :   -0.083887
  29 C :    0.062918
  30 C :   -0.028062
  31 N :   -0.069863
  32 C :    0.033427
  33 C :   -0.028471
  34 C :   -0.004134
  35 C :    0.049316
  36 C :   -0.091105
  37 C :   -0.032011
  38 N :   -0.070336
  39 C :   -0.030181
  40 C :    0.011865
  41 C :   -0.034370
  42 C :   -0.049340
  43 C :   -0.058082
  44 C :   -0.009034
  45 C :   -0.026852
  46 C :   -0.000403
  47 C :   -0.173223
  48 S :    0.456042
  49 C :   -0.175005
  50 C :   -0.223791
  51 C :   -0.216394
  52 S :    0.321654
  53 C :   -0.157990
  54 C :    0.044525
  55 O :   -0.118574
  56 C :   -0.147392
  57 S :    0.295168
  58 C :   -0.042570
  59 C :   -0.041098
  60 H :    0.033727
  61 H :    0.038033
  62 H :    0.024659
  63 H :    0.032479
  64 H :    0.030655
  65 H :    0.021784
  66 H :    0.038039
  67 H :    0.018762
  68 H :    0.034800
  69 H :    0.028193
  70 H :    0.020483
  71 H :    0.041350
  72 H :    0.032067
  73 H :    0.025756
  74 H :    0.035838
  75 H :    0.032876
  76 H :    0.029822
  77 H :    0.034293
  78 H :    0.033749
  79 H :    0.035372
  80 H :    0.024480
  81 H :    0.027062
  82 H :    0.017451
  83 H :    0.029838
  84 H :    0.013908
  85 H :    0.027597
  86 H :    0.030292
  87 H :    0.031854
  88 H :    0.023174
  89 H :    0.042010
  90 H :    0.041954
  91 H :    0.034655
  92 H :    0.028736
  93 H :    0.018146
  94 H :    0.028328

  Mayer bond orders larger than 0.100000
B(  0-C ,  1-N ) :   1.2101 B(  0-C ,  7-C ) :   1.4326 B(  0-C , 60-H ) :   0.9894
B(  1-N ,  2-C ) :   0.9411 B(  1-N ,  4-C ) :   1.0209 B(  2-C ,  3-C ) :   1.1189
B(  2-C , 61-H ) :   0.9345 B(  2-C , 62-H ) :   0.9538 B(  3-C , 63-H ) :   0.9673
B(  3-C , 64-H ) :   0.9688 B(  3-C , 65-H ) :   0.9687 B(  4-C ,  5-O ) :   2.1264
B(  4-C ,  6-C ) :   0.9934 B(  6-C ,  7-C ) :   1.2051 B(  6-C , 13-C ) :   1.3704
B(  7-C ,  8-C ) :   0.9564 B(  8-C ,  9-O ) :   2.1616 B(  8-C , 10-N ) :   1.0213
B( 10-N , 11-C ) :   0.9503 B( 10-N , 13-C ) :   1.1471 B( 11-C , 12-C ) :   1.1140
B( 11-C , 66-H ) :   0.9225 B( 11-C , 67-H ) :   0.9509 B( 12-C , 68-H ) :   0.9611
B( 12-C , 69-H ) :   0.9687 B( 12-C , 70-H ) :   0.9675 B( 13-C , 14-C ) :   1.2117
B( 14-C , 15-C ) :   1.5286 B( 14-C , 71-H ) :   0.9476 B( 15-C , 16-C ) :   1.2209
B( 15-C , 72-H ) :   0.9698 B( 16-C , 17-C ) :   1.2829 B( 16-C , 23-C ) :   0.1209
B( 16-C , 24-S ) :   1.1386 B( 17-C , 18-C ) :   1.2015 B( 17-C , 22-C ) :   1.2460
B( 18-C , 19-N ) :   1.4026 B( 18-C , 23-C ) :   1.3097 B( 19-N , 20-C ) :   1.6711
B( 20-C , 21-C ) :   1.2159 B( 20-C , 73-H ) :   0.9775 B( 21-C , 22-C ) :   1.5621
B( 21-C , 74-H ) :   0.9705 B( 22-C , 75-H ) :   0.9785 B( 23-C , 24-S ) :   1.1790
B( 23-C , 25-C ) :   1.1508 B( 25-C , 26-C ) :   1.4955 B( 25-C , 29-C ) :   1.0731
B( 26-C , 27-C ) :   1.1449 B( 26-C , 76-H ) :   0.9973 B( 27-C , 28-C ) :   1.1004
B( 27-C , 32-C ) :   1.3975 B( 28-C , 29-C ) :   1.6436 B( 28-C , 30-C ) :   1.0874
B( 29-C , 77-H ) :   1.0119 B( 30-C , 31-N ) :   2.9685 B( 32-C , 33-C ) :   1.0983
B( 32-C , 36-C ) :   1.1166 B( 33-C , 34-C ) :   1.6188 B( 33-C , 78-H ) :   1.0049
B( 34-C , 35-C ) :   1.0661 B( 34-C , 39-C ) :   0.9336 B( 35-C , 36-C ) :   1.6428
B( 35-C , 79-H ) :   1.0222 B( 36-C , 37-C ) :   1.0960 B( 37-C , 38-N ) :   2.9638
B( 39-C , 40-C ) :   1.3912 B( 39-C , 46-C ) :   1.3829 B( 40-C , 41-C ) :   1.0794
B( 40-C , 43-C ) :   1.3974 B( 41-C , 42-C ) :   1.1026 B( 41-C , 80-H ) :   0.8867
B( 41-C , 81-H ) :   0.9070 B( 42-C , 82-H ) :   0.9643 B( 42-C , 83-H ) :   0.9640
B( 42-C , 84-H ) :   0.9603 B( 43-C , 44-C ) :   1.3994 B( 43-C , 47-C ) :   0.9552
B( 44-C , 45-C ) :   1.3548 B( 44-C , 85-H ) :   0.9985 B( 45-C , 46-C ) :   1.3748
B( 45-C , 86-H ) :   0.9911 B( 46-C , 87-H ) :   0.9985 B( 47-C , 48-S ) :   1.1447
B( 47-C , 49-C ) :   0.1041 B( 47-C , 51-C ) :   1.6413 B( 48-S , 49-C ) :   1.1154
B( 49-C , 50-C ) :   1.5911 B( 49-C , 58-C ) :   1.1215 B( 50-C , 51-C ) :   1.1993
B( 50-C , 57-S ) :   1.0340 B( 51-C , 52-S ) :   1.0439 B( 52-S , 53-C ) :   0.9708
B( 53-C , 54-C ) :   0.9571 B( 53-C , 88-H ) :   0.9371 B( 53-C , 89-H ) :   0.9307
B( 54-C , 55-O ) :   2.1668 B( 54-C , 56-C ) :   0.9817 B( 56-C , 57-S ) :   0.9868
B( 56-C , 90-H ) :   0.9300 B( 56-C , 91-H ) :   0.9346 B( 58-C , 59-C ) :   1.9193
B( 58-C , 92-H ) :   0.9549 B( 59-C , 93-H ) :   0.9571 B( 59-C , 94-H ) :   0.9504

-----------------------------------------------------------------------------
         ABSORPTION SPECTRUM VIA TRANSITION ELECTRIC DIPOLE MOMENTS
-----------------------------------------------------------------------------
State   Energy  Wavelength   fosc         T2         TX        TY        TZ
        (cm-1)    (nm)                  (au**2)     (au)      (au)      (au)
-----------------------------------------------------------------------------
   0   11441.8    874.0   0.576604056  16.59044   3.14869  -1.48223  -2.11640
   1   17184.9    581.9   0.134304166   2.57288  -0.66836  -0.24744  -1.43699
   2   18153.3    550.9   0.229874766   4.16881  -1.60282   0.09539  -1.26123
   3   19545.5    511.6   0.205304476   3.45802  -1.80092   0.43445  -0.16108
   4   20890.7    478.7   0.001854172   0.02922   0.13951   0.03816  -0.09111
   5   23635.0    423.1   0.456324815   6.35614  -1.20226   0.90019   2.02494
   6   25616.7    390.4   0.278429135   3.57822  -0.44546  -0.32883  -1.80877
   7   26290.8    380.4   0.015369837   0.19246   0.26726   0.20364   0.28207
   8   26783.6    373.4   0.040475791   0.49751   0.12329   0.09756   0.68760
   9   27127.0    368.6   0.019822027   0.24056  -0.47307   0.08349   0.09896
  10   27690.6    361.1   0.058107835   0.69084  -0.18954   0.30496   0.74961
  11   28101.1    355.9   0.001239566   0.01452   0.01017   0.07714   0.09202
  12   29231.7    342.1   0.059341760   0.66832   0.01727  -0.22227  -0.78652
  13   30340.6    329.6   0.000680660   0.00739   0.02101   0.08296   0.00782
  14   30923.9    323.4   0.007156500   0.07619  -0.19040  -0.02325  -0.19848
  15   31324.1    319.2   0.102387254   1.07607  -0.81234   0.01770  -0.64488
  16   32631.4    306.5   0.010611215   0.10705   0.20656   0.03264   0.25164
  17   32814.1    304.7   0.006217431   0.06238   0.09787   0.07829   0.21603
  18   33273.7    300.5   0.119927086   1.18656   0.40479   0.16857   0.99714
  19   33478.2    298.7   0.000281123   0.00276  -0.02344   0.00012  -0.04706
  20   33625.4    297.4   0.187848633   1.83915   1.17843   0.01898   0.67088
  21   34395.2    290.7   0.205101989   1.96312  -0.16689   0.42384   1.32500
  22   34420.4    290.5   0.002646584   0.02531  -0.02145   0.03889  -0.15278
  23   35432.2    282.2   0.042358722   0.39357   0.02504  -0.17003  -0.60335
  24   36292.7    275.5   0.002069050   0.01877  -0.07113   0.09188  -0.07257
  25   36498.6    274.0   0.001366497   0.01233  -0.01795  -0.10734   0.02196
  26   37050.9    269.9   0.023699707   0.21058  -0.41981  -0.05851  -0.17583
  27   37372.0    267.6   0.008798274   0.07750  -0.17080   0.18738   0.11498
  28   37417.5    267.3   0.323375907   2.84517   0.04165  -1.40261  -0.93602
  29   37990.4    263.2   0.000928520   0.00805  -0.07202   0.05214  -0.01189
  30   38048.2    262.8   0.118775035   1.02770   0.47198  -0.39914  -0.80351
  31   38216.1    261.7   0.004537845   0.03909  -0.00288   0.12962  -0.14927
  32   38623.6    258.9   0.045168680   0.38500   0.37108  -0.00868   0.49721
  33   38674.1    258.6   0.031863402   0.27124  -0.41240   0.09213   0.30443
  34   38833.2    257.5   0.071107078   0.60282  -0.71546   0.23318   0.19121
  35   38964.3    256.6   0.068596290   0.57957   0.52646  -0.21796  -0.50488
  36   39280.5    254.6   0.004027515   0.03375  -0.03145  -0.03738  -0.17711
  37   39469.2    253.4   0.005687160   0.04744   0.09863  -0.06873  -0.18162

FINAL SINGLE POINT ENERGY     -3938.827816034581

DIPOLE MOMENT
-------------
                                X             Y             Z
Electronic contribution:    -31.36881      14.01023      -0.03361
Nuclear contribution   :     31.97611     -13.62305      -0.64078
                        -----------------------------------------
Total Dipole Moment    :      0.60730       0.38718      -0.67439
                        -----------------------------------------
Magnitude (a.u.)       :      0.98668
Magnitude (Debye)      :      2.50793

Rotational constants in cm-1:     0.002071     0.000366     0.000331
Rotational constants in MHz :    62.089681    10.961661     9.921326

                             ****ORCA TERMINATED NORMALLY****
TOTAL RUN TIME: 0 days 0 hours 8 minutes 2 seconds 503 msec
