                         Program Version 4.2.0 -  RELEASE  -
|  1> # ORCA input file
|  2> # SCF done       -168.870673143458          0.000449272646
|  3> ! CAM-B3LYP def2-SVP def2/J RIJCOSX Grid4 TightSCF
|  4> %maxcore 5000
|  5> %tddft
|  6>     Mode sTDDFT
|  7>     Ethresh 5.0
|  8>     maxcore 5000
|  9> end
| 10>
| 11> %pal
| 12>   nprocs 6
| 13>   end
| 14> * xyz 0 1
| 15>    C       -4.33762        -1.56429        -2.18105
| 16>    N       -3.57137        -0.77273        -2.97915
| 17>    C       -2.87156        -1.19384        -4.16560
| 18>    C       -1.60028        -1.96665        -3.82274
| 19>    C       -3.47293         0.53860        -2.46332
| 20>    O       -2.84280         1.42429        -3.01635
| 21>    C       -4.25928         0.50130        -1.26002
| 22>    C       -4.78385        -0.82454        -1.12262
| 23>    C       -5.57659        -0.86899         0.08788
| 24>    O       -6.20742        -1.75527         0.62188
| 25>    N       -5.47377         0.43353         0.61105
| 26>    C       -6.17909         0.80616         1.81148
| 27>    C       -7.45357         1.59067         1.50679
| 28>    C       -4.69663         1.25915        -0.17895
| 29>    C       -4.42030         2.60758         0.14438
| 30>    C       -3.67815         3.40752        -0.67372
| 31>    C       -3.31615         4.75275        -0.46411
| 32>    S       -2.72907         5.61956        -1.85134
| 33>    C       -2.55593         7.09341        -0.97774
| 34>    C       -2.90785         6.92304         0.37344
| 35>    C       -3.33065         5.59410         0.66916
| 36>    C       -3.64479         5.28129         2.00334
| 37>    C       -3.59796         6.23853         2.98544
| 38>    C       -3.93704         5.87776         4.39821
| 39>    C       -3.22157         7.57220         2.67024
| 40>    C       -3.18507         8.61403         3.74335
| 41>    C       -2.87256         7.89598         1.38492
| 42>    C       -2.11932         8.27604        -1.61064
| 43>    S       -1.80065         8.36824        -3.34629
| 44>    C       -1.39523        10.06077        -3.04366
| 45>    N       -1.51789        10.38265        -1.78434
| 46>    N       -1.91181         9.41714        -1.00713
| 47>    C       -1.00263        10.93814        -4.08072
| 48>    C       -0.65389        12.23046        -3.84477
| 49>    C       -0.28897        13.16200        -4.83365
| 50>    S       -0.29039        12.75633        -6.52031
| 51>    C        0.24463        14.33502        -6.99995
| 52>    C        0.38438        15.16901        -5.87817
| 53>    C        0.09269        14.50313        -4.65332
| 54>    C        0.20076        15.21110        -3.44453
| 55>    C        0.55819        16.53431        -3.44219
| 56>    C        0.68869        17.27439        -2.14834
| 57>    C        0.78234        17.21558        -4.67176
| 58>    C        1.12397        18.67147        -4.66296
| 59>    C        0.68164        16.54220        -5.86043
| 60>    C        0.58266        14.65622        -8.33907
| 61>    N       -0.04251        14.15382        -9.46176
| 62>    C       -1.24903        13.36441        -9.50885
| 63>    C       -2.46423        14.14481        -9.01670
| 64>    C        0.52992        14.64980       -10.64683
| 65>    O        0.11220        14.36892       -11.75401
| 66>    C        1.62140        15.47905       -10.19973
| 67>    C        1.61742        15.47801        -8.77307
| 68>    C        2.77960        16.20969        -8.32815
| 69>    O        3.23615        16.45306        -7.22794
| 70>    N        3.39429        16.63794        -9.52393
| 71>    C        4.57251        17.46766        -9.49101
| 72>    C        4.24349        18.93532        -9.75610
| 73>    C        2.71824        16.20289       -10.63898
| 74>    C        3.15318        16.46880       -11.98040
| 75>    C        2.47898        16.06161       -13.05773
| 76>    H       -4.51536        -2.59431        -2.42873
| 77>    H       -2.61632        -0.28305        -4.71420
| 78>    H       -3.53846        -1.80860        -4.77753
| 79>    H       -0.93257        -1.34153        -3.23499
| 80>    H       -1.08900        -2.26242        -4.73457
| 81>    H       -1.83712        -2.85951        -3.24810
| 82>    H       -5.51601         1.37903         2.46702
| 83>    H       -6.43849        -0.13255         2.30983
| 84>    H       -7.22831         2.50994         0.97031
| 85>    H       -7.96446         1.84040         2.43290
| 86>    H       -8.11908         0.98779         0.89401
| 87>    H       -4.84210         2.99640         1.05660
| 88>    H       -3.35060         2.98838        -1.61784
| 89>    H       -3.89980         4.26922         2.27136
| 90>    H       -4.19797         4.82553         4.47788
| 91>    H       -4.77839         6.47142         4.75383
| 92>    H       -3.09213         6.07504         5.05686
| 93>    H       -4.16771         8.73111         4.19921
| 94>    H       -2.87644         9.57089         3.33182
| 95>    H       -2.48646         8.33198         4.53038
| 96>    H       -2.55646         8.89304         1.12334
| 97>    H       -0.99460        10.53953        -5.08544
| 98>    H       -0.66116        12.57443        -2.82043
| 99>    H       -0.00218        14.70384        -2.51348
|100>    H        0.49221        16.61574        -1.30645
|101>    H       -0.01279        18.10707        -2.10861
|102>    H        1.69293        17.68259        -2.04343
|103>    H        0.34248        19.25205        -4.17354
|104>    H        1.25021        19.03784        -5.67783
|105>    H        2.05350        18.83773        -4.12055
|106>    H        0.82254        17.06271        -6.79255
|107>    H       -1.11976        12.44570        -8.93023
|108>    H       -1.37980        13.09905       -10.56227
|109>    H       -2.34780        14.43257        -7.97404
|110>    H       -3.35573        13.53123        -9.10979
|111>    H       -2.59618        15.04508        -9.61243
|112>    H        5.30651        17.09758       -10.21259
|113>    H        4.98483        17.36015        -8.48328
|114>    H        3.78601        19.06163       -10.73500
|115>    H        5.15136        19.53092        -9.71340
|116>    H        3.55143        19.30185        -9.00181
|117>    H        4.07477        17.02352       -12.09239
|118>    H        1.56118        15.50489       -12.97096
|119>    H        2.83634        16.27279       -14.05088
|120> *
|121>
|122>                          ****END OF INPUT****

CARTESIAN COORDINATES (ANGSTROEM)
---------------------------------
  C     -4.337620   -1.564290   -2.181050
  N     -3.571370   -0.772730   -2.979150
  C     -2.871560   -1.193840   -4.165600
  C     -1.600280   -1.966650   -3.822740
  C     -3.472930    0.538600   -2.463320
  O     -2.842800    1.424290   -3.016350
  C     -4.259280    0.501300   -1.260020
  C     -4.783850   -0.824540   -1.122620
  C     -5.576590   -0.868990    0.087880
  O     -6.207420   -1.755270    0.621880
  N     -5.473770    0.433530    0.611050
  C     -6.179090    0.806160    1.811480
  C     -7.453570    1.590670    1.506790
  C     -4.696630    1.259150   -0.178950
  C     -4.420300    2.607580    0.144380
  C     -3.678150    3.407520   -0.673720
  C     -3.316150    4.752750   -0.464110
  S     -2.729070    5.619560   -1.851340
  C     -2.555930    7.093410   -0.977740
  C     -2.907850    6.923040    0.373440
  C     -3.330650    5.594100    0.669160
  C     -3.644790    5.281290    2.003340
  C     -3.597960    6.238530    2.985440
  C     -3.937040    5.877760    4.398210
  C     -3.221570    7.572200    2.670240
  C     -3.185070    8.614030    3.743350
  C     -2.872560    7.895980    1.384920
  C     -2.119320    8.276040   -1.610640
  S     -1.800650    8.368240   -3.346290
  C     -1.395230   10.060770   -3.043660
  N     -1.517890   10.382650   -1.784340
  N     -1.911810    9.417140   -1.007130
  C     -1.002630   10.938140   -4.080720
  C     -0.653890   12.230460   -3.844770
  C     -0.288970   13.162000   -4.833650
  S     -0.290390   12.756330   -6.520310
  C      0.244630   14.335020   -6.999950
  C      0.384380   15.169010   -5.878170
  C      0.092690   14.503130   -4.653320
  C      0.200760   15.211100   -3.444530
  C      0.558190   16.534310   -3.442190
  C      0.688690   17.274390   -2.148340
  C      0.782340   17.215580   -4.671760
  C      1.123970   18.671470   -4.662960
  C      0.681640   16.542200   -5.860430
  C      0.582660   14.656220   -8.339070
  N     -0.042510   14.153820   -9.461760
  C     -1.249030   13.364410   -9.508850
  C     -2.464230   14.144810   -9.016700
  C      0.529920   14.649800  -10.646830
  O      0.112200   14.368920  -11.754010
  C      1.621400   15.479050  -10.199730
  C      1.617420   15.478010   -8.773070
  C      2.779600   16.209690   -8.328150
  O      3.236150   16.453060   -7.227940
  N      3.394290   16.637940   -9.523930
  C      4.572510   17.467660   -9.491010
  C      4.243490   18.935320   -9.756100
  C      2.718240   16.202890  -10.638980
  C      3.153180   16.468800  -11.980400
  C      2.478980   16.061610  -13.057730
  H     -4.515360   -2.594310   -2.428730
  H     -2.616320   -0.283050   -4.714200
  H     -3.538460   -1.808600   -4.777530
  H     -0.932570   -1.341530   -3.234990
  H     -1.089000   -2.262420   -4.734570
  H     -1.837120   -2.859510   -3.248100
  H     -5.516010    1.379030    2.467020
  H     -6.438490   -0.132550    2.309830
  H     -7.228310    2.509940    0.970310
  H     -7.964460    1.840400    2.432900
  H     -8.119080    0.987790    0.894010
  H     -4.842100    2.996400    1.056600
  H     -3.350600    2.988380   -1.617840
  H     -3.899800    4.269220    2.271360
  H     -4.197970    4.825530    4.477880
  H     -4.778390    6.471420    4.753830
  H     -3.092130    6.075040    5.056860
  H     -4.167710    8.731110    4.199210
  H     -2.876440    9.570890    3.331820
  H     -2.486460    8.331980    4.530380
  H     -2.556460    8.893040    1.123340
  H     -0.994600   10.539530   -5.085440
  H     -0.661160   12.574430   -2.820430
  H     -0.002180   14.703840   -2.513480
  H      0.492210   16.615740   -1.306450
  H     -0.012790   18.107070   -2.108610
  H      1.692930   17.682590   -2.043430
  H      0.342480   19.252050   -4.173540
  H      1.250210   19.037840   -5.677830
  H      2.053500   18.837730   -4.120550
  H      0.822540   17.062710   -6.792550
  H     -1.119760   12.445700   -8.930230
  H     -1.379800   13.099050  -10.562270
  H     -2.347800   14.432570   -7.974040
  H     -3.355730   13.531230   -9.109790
  H     -2.596180   15.045080   -9.612430
  H      5.306510   17.097580  -10.212590
  H      4.984830   17.360150   -8.483280
  H      3.786010   19.061630  -10.735000
  H      5.151360   19.530920   -9.713400
  H      3.551430   19.301850   -9.001810
  H      4.074770   17.023520  -12.092390
  H      1.561180   15.504890  -12.970960
  H      2.836340   16.272790  -14.050880

 Total Charge           Charge          ....    0
 Multiplicity           Mult            ....    1
 Number of Electrons    NEL             ....  454
 Basis Dimension        Dim             .... 1086

ORBITAL ENERGIES
----------------

  NO   OCC          E(Eh)            E(eV)
   0   2.0000     -88.970397     -2421.0076
   1   2.0000     -88.969802     -2420.9914
   2   2.0000     -88.964476     -2420.8465
   3   2.0000     -19.182454      -521.9811
   4   2.0000     -19.181420      -521.9530
   5   2.0000     -19.175776      -521.7994
   6   2.0000     -19.175529      -521.7927
   7   2.0000     -14.447133      -393.1265
   8   2.0000     -14.446720      -393.1152
   9   2.0000     -14.441409      -392.9707
  10   2.0000     -14.440048      -392.9337
  11   2.0000     -14.431879      -392.7114
  12   2.0000     -14.428427      -392.6175
  13   2.0000     -10.366024      -282.0739
  14   2.0000     -10.365474      -282.0589
  15   2.0000     -10.361662      -281.9552
  16   2.0000     -10.358063      -281.8572
  17   2.0000     -10.340399      -281.3766
  18   2.0000     -10.337552      -281.2991
  19   2.0000     -10.335040      -281.2307
  20   2.0000     -10.331636      -281.1381
  21   2.0000     -10.330147      -281.0976
  22   2.0000     -10.315268      -280.6927
  23   2.0000     -10.311949      -280.6024
  24   2.0000     -10.310699      -280.5684
  25   2.0000     -10.307806      -280.4897
  26   2.0000     -10.306726      -280.4603
  27   2.0000     -10.304072      -280.3881
  28   2.0000     -10.300010      -280.2775
  29   2.0000     -10.300010      -280.2775
  30   2.0000     -10.299992      -280.2770
  31   2.0000     -10.292597      -280.0758
  32   2.0000     -10.289489      -279.9912
  33   2.0000     -10.286376      -279.9065
  34   2.0000     -10.283413      -279.8259
  35   2.0000     -10.283143      -279.8185
  36   2.0000     -10.281352      -279.7698
  37   2.0000     -10.281348      -279.7697
  38   2.0000     -10.281105      -279.7631
  39   2.0000     -10.278325      -279.6874
  40   2.0000     -10.278197      -279.6840
  41   2.0000     -10.275224      -279.6031
  42   2.0000     -10.274344      -279.5791
  43   2.0000     -10.273365      -279.5525
  44   2.0000     -10.271595      -279.5043
  45   2.0000     -10.268945      -279.4322
  46   2.0000     -10.266058      -279.3537
  47   2.0000     -10.265695      -279.3438
  48   2.0000     -10.262222      -279.2492
  49   2.0000     -10.261985      -279.2428
  50   2.0000     -10.261742      -279.2362
  51   2.0000     -10.260561      -279.2040
  52   2.0000     -10.259087      -279.1639
  53   2.0000     -10.258363      -279.1442
  54   2.0000     -10.257212      -279.1129
  55   2.0000     -10.256955      -279.1059
  56   2.0000     -10.256951      -279.1058
  57   2.0000     -10.256512      -279.0939
  58   2.0000     -10.251906      -278.9685
  59   2.0000     -10.247306      -278.8434
  60   2.0000     -10.244401      -278.7643
  61   2.0000      -8.065474      -219.4727
  62   2.0000      -8.064278      -219.4402
  63   2.0000      -8.060892      -219.3480
  64   2.0000      -6.034366      -164.2035
  65   2.0000      -6.033310      -164.1747
  66   2.0000      -6.030310      -164.0931
  67   2.0000      -6.029714      -164.0768
  68   2.0000      -6.029264      -164.0646
  69   2.0000      -6.028360      -164.0400
  70   2.0000      -6.027023      -164.0036
  71   2.0000      -6.026382      -163.9862
  72   2.0000      -6.022905      -163.8916
  73   2.0000      -1.133732       -30.8504
  74   2.0000      -1.125667       -30.6310
  75   2.0000      -1.118903       -30.4469
  76   2.0000      -1.118641       -30.4398
  77   2.0000      -1.111881       -30.2558
  78   2.0000      -1.056349       -28.7447
  79   2.0000      -1.049422       -28.5562
  80   2.0000      -1.048459       -28.5300
  81   2.0000      -1.041180       -28.3320
  82   2.0000      -0.999666       -27.2023
  83   2.0000      -0.995793       -27.0969
  84   2.0000      -0.942902       -25.6577
  85   2.0000      -0.939781       -25.5728
  86   2.0000      -0.932864       -25.3845
  87   2.0000      -0.922102       -25.0917
  88   2.0000      -0.918726       -24.9998
  89   2.0000      -0.913977       -24.8706
  90   2.0000      -0.893853       -24.3230
  91   2.0000      -0.891977       -24.2719
  92   2.0000      -0.885473       -24.0949
  93   2.0000      -0.866280       -23.5727
  94   2.0000      -0.864715       -23.5301
  95   2.0000      -0.860161       -23.4062
  96   2.0000      -0.857616       -23.3369
  97   2.0000      -0.856416       -23.3043
  98   2.0000      -0.849367       -23.1124
  99   2.0000      -0.832808       -22.6618
 100   2.0000      -0.825664       -22.4675
 101   2.0000      -0.814792       -22.1716
 102   2.0000      -0.810718       -22.0608
 103   2.0000      -0.795612       -21.6497
 104   2.0000      -0.791114       -21.5273
 105   2.0000      -0.775663       -21.1069
 106   2.0000      -0.773300       -21.0426
 107   2.0000      -0.770022       -20.9534
 108   2.0000      -0.768380       -20.9087
 109   2.0000      -0.761862       -20.7313
 110   2.0000      -0.755666       -20.5627
 111   2.0000      -0.753100       -20.4929
 112   2.0000      -0.751775       -20.4568
 113   2.0000      -0.716428       -19.4950
 114   2.0000      -0.710007       -19.3203
 115   2.0000      -0.703880       -19.1536
 116   2.0000      -0.700178       -19.0528
 117   2.0000      -0.691160       -18.8074
 118   2.0000      -0.686746       -18.6873
 119   2.0000      -0.686085       -18.6693
 120   2.0000      -0.684461       -18.6251
 121   2.0000      -0.670022       -18.2322
 122   2.0000      -0.663865       -18.0647
 123   2.0000      -0.652694       -17.7607
 124   2.0000      -0.650571       -17.7029
 125   2.0000      -0.641869       -17.4662
 126   2.0000      -0.641308       -17.4509
 127   2.0000      -0.634901       -17.2765
 128   2.0000      -0.626742       -17.0545
 129   2.0000      -0.606586       -16.5060
 130   2.0000      -0.597381       -16.2556
 131   2.0000      -0.596631       -16.2352
 132   2.0000      -0.591620       -16.0988
 133   2.0000      -0.586937       -15.9714
 134   2.0000      -0.580606       -15.7991
 135   2.0000      -0.577949       -15.7268
 136   2.0000      -0.573011       -15.5924
 137   2.0000      -0.571676       -15.5561
 138   2.0000      -0.564023       -15.3478
 139   2.0000      -0.563143       -15.3239
 140   2.0000      -0.557593       -15.1729
 141   2.0000      -0.552347       -15.0301
 142   2.0000      -0.549213       -14.9448
 143   2.0000      -0.545786       -14.8516
 144   2.0000      -0.543406       -14.7868
 145   2.0000      -0.541752       -14.7418
 146   2.0000      -0.537598       -14.6288
 147   2.0000      -0.527751       -14.3608
 148   2.0000      -0.524926       -14.2840
 149   2.0000      -0.521830       -14.1997
 150   2.0000      -0.520253       -14.1568
 151   2.0000      -0.519320       -14.1314
 152   2.0000      -0.518683       -14.1141
 153   2.0000      -0.517730       -14.0882
 154   2.0000      -0.516289       -14.0489
 155   2.0000      -0.515562       -14.0292
 156   2.0000      -0.510867       -13.9014
 157   2.0000      -0.508935       -13.8488
 158   2.0000      -0.505507       -13.7555
 159   2.0000      -0.504046       -13.7158
 160   2.0000      -0.503275       -13.6948
 161   2.0000      -0.501837       -13.6557
 162   2.0000      -0.497834       -13.5468
 163   2.0000      -0.494517       -13.4565
 164   2.0000      -0.491502       -13.3745
 165   2.0000      -0.490775       -13.3547
 166   2.0000      -0.489101       -13.3091
 167   2.0000      -0.488202       -13.2847
 168   2.0000      -0.486330       -13.2337
 169   2.0000      -0.482450       -13.1281
 170   2.0000      -0.476945       -12.9783
 171   2.0000      -0.476392       -12.9633
 172   2.0000      -0.474210       -12.9039
 173   2.0000      -0.473075       -12.8730
 174   2.0000      -0.471066       -12.8184
 175   2.0000      -0.468514       -12.7489
 176   2.0000      -0.463045       -12.6001
 177   2.0000      -0.461449       -12.5567
 178   2.0000      -0.461120       -12.5477
 179   2.0000      -0.460135       -12.5209
 180   2.0000      -0.457427       -12.4472
 181   2.0000      -0.456457       -12.4208
 182   2.0000      -0.454457       -12.3664
 183   2.0000      -0.452426       -12.3111
 184   2.0000      -0.450161       -12.2495
 185   2.0000      -0.446983       -12.1630
 186   2.0000      -0.445958       -12.1351
 187   2.0000      -0.444415       -12.0932
 188   2.0000      -0.438334       -11.9277
 189   2.0000      -0.436238       -11.8706
 190   2.0000      -0.432802       -11.7771
 191   2.0000      -0.430987       -11.7278
 192   2.0000      -0.429541       -11.6884
 193   2.0000      -0.425531       -11.5793
 194   2.0000      -0.423796       -11.5321
 195   2.0000      -0.422995       -11.5103
 196   2.0000      -0.420936       -11.4542
 197   2.0000      -0.420672       -11.4471
 198   2.0000      -0.418205       -11.3799
 199   2.0000      -0.415950       -11.3186
 200   2.0000      -0.413953       -11.2642
 201   2.0000      -0.408817       -11.1245
 202   2.0000      -0.405713       -11.0400
 203   2.0000      -0.402366       -10.9489
 204   2.0000      -0.401896       -10.9362
 205   2.0000      -0.394102       -10.7241
 206   2.0000      -0.391874       -10.6634
 207   2.0000      -0.379603       -10.3295
 208   2.0000      -0.378446       -10.2980
 209   2.0000      -0.362093        -9.8531
 210   2.0000      -0.349409        -9.5079
 211   2.0000      -0.344468        -9.3734
 212   2.0000      -0.338023        -9.1981
 213   2.0000      -0.333705        -9.0806
 214   2.0000      -0.327587        -8.9141
 215   2.0000      -0.323801        -8.8111
 216   2.0000      -0.317676        -8.6444
 217   2.0000      -0.316921        -8.6239
 218   2.0000      -0.310439        -8.4475
 219   2.0000      -0.309031        -8.4092
 220   2.0000      -0.304764        -8.2930
 221   2.0000      -0.302539        -8.2325
 222   2.0000      -0.301440        -8.2026
 223   2.0000      -0.268541        -7.3074
 224   2.0000      -0.256914        -6.9910
 225   2.0000      -0.231913        -6.3107
 226   2.0000      -0.218095        -5.9347
 227   0.0000      -0.090174        -2.4537
 228   0.0000      -0.070375        -1.9150
 229   0.0000      -0.034472        -0.9380
 230   0.0000      -0.021429        -0.5831
 231   0.0000       0.006007         0.1635

MULLIKEN ATOMIC CHARGES
-----------------------
   0 C :    0.029451
   1 N :   -0.255919
   2 C :    0.112325
   3 C :    0.000288
   4 C :    0.170329
   5 O :   -0.227682
   6 C :   -0.109128
   7 C :    0.008592
   8 C :    0.159487
   9 O :   -0.192016
  10 N :   -0.273649
  11 C :    0.102585
  12 C :    0.003698
  13 C :    0.158763
  14 C :   -0.055714
  15 C :    0.066854
  16 C :   -0.126529
  17 S :    0.199630
  18 C :   -0.068732
  19 C :    0.072238
  20 C :    0.131026
  21 C :   -0.110304
  22 C :   -0.066492
  23 C :    0.117807
  24 C :   -0.071140
  25 C :    0.121964
  26 C :   -0.085948
  27 C :   -0.100767
  28 S :    0.083308
  29 C :   -0.078983
  30 N :   -0.056001
  31 N :   -0.054380
  32 C :    0.031634
  33 C :    0.007195
  34 C :   -0.073458
  35 S :    0.142705
  36 C :   -0.197499
  37 C :    0.152067
  38 C :    0.122621
  39 C :   -0.105087
  40 C :   -0.068458
  41 C :    0.119653
  42 C :   -0.086073
  43 C :    0.124744
  44 C :   -0.043098
  45 C :    0.111880
  46 N :   -0.259213
  47 C :    0.091578
  48 C :    0.002195
  49 C :    0.161321
  50 O :   -0.210226
  51 C :   -0.084389
  52 C :   -0.042852
  53 C :    0.123508
  54 O :   -0.197638
  55 N :   -0.263846
  56 C :    0.099938
  57 C :    0.005391
  58 C :    0.118290
  59 C :   -0.038055
  60 C :    0.012323
  61 H :    0.009734
  62 H :    0.039951
  63 H :    0.015733
  64 H :    0.030394
  65 H :    0.019952
  66 H :    0.013573
  67 H :    0.015549
  68 H :    0.041465
  69 H :    0.017675
  70 H :    0.018827
  71 H :    0.028768
  72 H :   -0.031060
  73 H :    0.008045
  74 H :   -0.049412
  75 H :    0.006827
  76 H :    0.022073
  77 H :    0.024095
  78 H :    0.018264
  79 H :    0.016396
  80 H :    0.019355
  81 H :   -0.016177
  82 H :   -0.009386
  83 H :    0.018357
  84 H :   -0.039718
  85 H :    0.010130
  86 H :    0.020911
  87 H :    0.022544
  88 H :    0.016006
  89 H :    0.009115
  90 H :    0.022544
  91 H :   -0.037648
  92 H :    0.025418
  93 H :    0.044891
  94 H :    0.028375
  95 H :    0.020977
  96 H :    0.023786
  97 H :    0.023012
  98 H :    0.042822
  99 H :    0.014778
 100 H :    0.021748
 101 H :    0.024370
 102 H :   -0.020049
 103 H :    0.056829
 104 H :    0.028049
Sum of atomic charges:   -0.0000000

LOEWDIN ATOMIC CHARGES
----------------------
   0 C :    0.078787
   1 N :    0.000807
   2 C :    0.037700
   3 C :   -0.060973
   4 C :    0.072621
   5 O :   -0.218555
   6 C :   -0.140191
   7 C :   -0.126799
   8 C :    0.081672
   9 O :   -0.196013
  10 N :   -0.011642
  11 C :    0.034647
  12 C :   -0.062150
  13 C :    0.088214
  14 C :   -0.068516
  15 C :    0.012425
  16 C :   -0.176119
  17 S :    0.502100
  18 C :   -0.207535
  19 C :   -0.030179
  20 C :   -0.034193
  21 C :   -0.034486
  22 C :   -0.011874
  23 C :   -0.043144
  24 C :   -0.020059
  25 C :   -0.042797
  26 C :   -0.013481
  27 C :   -0.160900
  28 S :    0.366194
  29 C :   -0.142168
  30 N :   -0.086619
  31 N :   -0.074088
  32 C :   -0.074415
  33 C :    0.005586
  34 C :   -0.172625
  35 S :    0.485171
  36 C :   -0.190135
  37 C :   -0.025424
  38 C :   -0.033125
  39 C :   -0.030767
  40 C :   -0.011779
  41 C :   -0.042581
  42 C :   -0.014071
  43 C :   -0.040907
  44 C :   -0.004014
  45 C :    0.053594
  46 N :   -0.004893
  47 C :    0.026997
  48 C :   -0.062956
  49 C :    0.080490
  50 O :   -0.203079
  51 C :   -0.129045
  52 C :   -0.122493
  53 C :    0.074286
  54 O :   -0.196370
  55 N :   -0.002403
  56 C :    0.035230
  57 C :   -0.061559
  58 C :    0.079191
  59 C :   -0.055157
  60 C :    0.022923
  61 H :    0.030226
  62 H :    0.035280
  63 H :    0.023358
  64 H :    0.031567
  65 H :    0.028599
  66 H :    0.021966
  67 H :    0.019368
  68 H :    0.036875
  69 H :    0.022144
  70 H :    0.028573
  71 H :    0.032114
  72 H :    0.024178
  73 H :    0.037001
  74 H :    0.022094
  75 H :    0.028509
  76 H :    0.035131
  77 H :    0.035753
  78 H :    0.033389
  79 H :    0.033498
  80 H :    0.033696
  81 H :    0.029362
  82 H :    0.023655
  83 H :    0.043345
  84 H :    0.025795
  85 H :    0.030242
  86 H :    0.034322
  87 H :    0.035668
  88 H :    0.031555
  89 H :    0.031033
  90 H :    0.036233
  91 H :    0.027785
  92 H :    0.008899
  93 H :    0.037351
  94 H :    0.021835
  95 H :    0.030340
  96 H :    0.029677
  97 H :    0.022426
  98 H :    0.036854
  99 H :    0.022068
 100 H :    0.029764
 101 H :    0.029873
 102 H :    0.028953
 103 H :    0.032622
 104 H :    0.028664

  Mayer bond orders larger than 0.100000
B(  0-C ,  1-N ) :   1.1846 B(  0-C ,  7-C ) :   1.4580 B(  0-C , 61-H ) :   0.9910
B(  1-N ,  2-C ) :   0.9466 B(  1-N ,  4-C ) :   1.0600 B(  2-C ,  3-C ) :   1.1199
B(  2-C , 62-H ) :   0.9338 B(  2-C , 63-H ) :   0.9538 B(  3-C , 64-H ) :   0.9672
B(  3-C , 65-H ) :   0.9686 B(  3-C , 66-H ) :   0.9687 B(  4-C ,  5-O ) :   1.9957
B(  4-C ,  6-C ) :   1.0203 B(  5-O , 73-H ) :   0.1214 B(  6-C ,  7-C ) :   1.2061
B(  6-C , 13-C ) :   1.3481 B(  7-C ,  8-C ) :   0.9487 B(  8-C ,  9-O ) :   2.1715
B(  8-C , 10-N ) :   1.0216 B( 10-N , 11-C ) :   0.9517 B( 10-N , 13-C ) :   1.1446
B( 11-C , 12-C ) :   1.1214 B( 11-C , 67-H ) :   0.9491 B( 11-C , 68-H ) :   0.9268
B( 12-C , 69-H ) :   0.9682 B( 12-C , 70-H ) :   0.9674 B( 12-C , 71-H ) :   0.9632
B( 13-C , 14-C ) :   1.1907 B( 14-C , 15-C ) :   1.5673 B( 14-C , 72-H ) :   0.9566
B( 15-C , 16-C ) :   1.1854 B( 15-C , 73-H ) :   0.9194 B( 16-C , 17-S ) :   1.1526
B( 16-C , 18-C ) :   0.1186 B( 16-C , 20-C ) :   1.2819 B( 17-S , 18-C ) :   1.1772
B( 18-C , 19-C ) :   1.3238 B( 18-C , 27-C ) :   1.1307 B( 19-C , 20-C ) :   1.2232
B( 19-C , 26-C ) :   1.2365 B( 20-C , 21-C ) :   1.2009 B( 21-C , 22-C ) :   1.5354
B( 21-C , 74-H ) :   0.9897 B( 22-C , 23-C ) :   1.0916 B( 22-C , 24-C ) :   1.2312
B( 23-C , 75-H ) :   0.9516 B( 23-C , 76-H ) :   0.9404 B( 23-C , 77-H ) :   0.9411
B( 24-C , 25-C ) :   1.0937 B( 24-C , 26-C ) :   1.4968 B( 25-C , 78-H ) :   0.9409
B( 25-C , 79-H ) :   0.9510 B( 25-C , 80-H ) :   0.9407 B( 26-C , 81-H ) :   0.9855
B( 27-C , 28-S ) :   1.0875 B( 27-C , 31-N ) :   1.6642 B( 28-S , 29-C ) :   1.0699
B( 29-C , 30-N ) :   1.6600 B( 29-C , 32-C ) :   1.1334 B( 30-N , 31-N ) :   1.2269
B( 32-C , 33-C ) :   1.6490 B( 32-C , 82-H ) :   0.9480 B( 33-C , 34-C ) :   1.1839
B( 33-C , 83-H ) :   0.9712 B( 34-C , 35-S ) :   1.1183 B( 34-C , 36-C ) :   0.1162
B( 34-C , 38-C ) :   1.2989 B( 35-S , 36-C ) :   1.1433 B( 36-C , 37-C ) :   1.3391
B( 36-C , 45-C ) :   1.1091 B( 37-C , 38-C ) :   1.2054 B( 37-C , 44-C ) :   1.2069
B( 38-C , 39-C ) :   1.1962 B( 39-C , 40-C ) :   1.5453 B( 39-C , 84-H ) :   0.9917
B( 40-C , 41-C ) :   1.0924 B( 40-C , 42-C ) :   1.2198 B( 41-C , 85-H ) :   0.9517
B( 41-C , 86-H ) :   0.9406 B( 41-C , 87-H ) :   0.9405 B( 42-C , 43-C ) :   1.0926
B( 42-C , 44-C ) :   1.5522 B( 43-C , 88-H ) :   0.9424 B( 43-C , 89-H ) :   0.9504
B( 43-C , 90-H ) :   0.9392 B( 44-C , 91-H ) :   0.9809 B( 45-C , 46-N ) :   1.1876
B( 45-C , 52-C ) :   1.4031 B( 46-N , 47-C ) :   0.9487 B( 46-N , 49-C ) :   1.0487
B( 47-C , 48-C ) :   1.1152 B( 47-C , 92-H ) :   0.9446 B( 47-C , 93-H ) :   0.9236
B( 48-C , 94-H ) :   0.9674 B( 48-C , 95-H ) :   0.9670 B( 48-C , 96-H ) :   0.9639
B( 49-C , 50-O ) :   2.0431 B( 49-C , 51-C ) :   0.9941 B( 51-C , 52-C ) :   1.2068
B( 51-C , 58-C ) :   1.3829 B( 52-C , 53-C ) :   0.9762 B( 53-C , 54-O ) :   2.1122
B( 53-C , 55-N ) :   1.0357 B( 55-N , 56-C ) :   0.9485 B( 55-N , 58-C ) :   1.1659
B( 56-C , 57-C ) :   1.1190 B( 56-C , 97-H ) :   0.9504 B( 56-C , 98-H ) :   0.9272
B( 57-C , 99-H ) :   0.9691 B( 57-C ,100-H ) :   0.9679 B( 57-C ,101-H ) :   0.9639
B( 58-C , 59-C ) :   1.1238 B( 59-C , 60-C ) :   1.8895 B( 59-C ,102-H ) :   0.9535
B( 60-C ,103-H ) :   0.9265 B( 60-C ,104-H ) :   0.9451

-----------------------------------------------------------------------------
         ABSORPTION SPECTRUM VIA TRANSITION ELECTRIC DIPOLE MOMENTS
-----------------------------------------------------------------------------
State   Energy  Wavelength   fosc         T2         TX        TY        TZ
        (cm-1)    (nm)                  (au**2)     (au)      (au)      (au)
-----------------------------------------------------------------------------
   0   13932.7    717.7   1.579206733  37.31455   2.14191   5.08711  -2.61687
   1   17297.1    578.1   0.369209943   7.02708   0.83824  -1.09690  -2.26302
   2   20252.0    493.8   0.082509819   1.34126   0.08547  -0.73932  -0.88734
   3   21134.0    473.2   0.149178368   2.32380  -0.22147  -1.00978   1.12031
   4   23027.7    434.3   0.028299716   0.40458  -0.33193  -0.51330   0.17586
   5   23769.0    420.7   0.059523107   0.82442  -0.43885  -0.58700  -0.53597
   6   26392.1    378.9   0.025825922   0.32215  -0.33409   0.29381  -0.35243
   7   27656.5    361.6   0.183997147   2.19023   0.95038   0.25075  -1.10640
   8   28240.8    354.1   0.002415599   0.02816  -0.11882  -0.11301   0.03563
   9   28399.4    352.1   0.004978118   0.05771   0.12226   0.05205  -0.20013
  10   28536.2    350.4   0.004337805   0.05004  -0.10400  -0.09753   0.17238
  11   29110.9    343.5   0.026478377   0.29944   0.10773  -0.43761   0.31038
  12   29765.9    336.0   0.053969309   0.59690   0.35850   0.63985  -0.24284
  13   30009.2    333.2   0.000435125   0.00477  -0.06438   0.00329  -0.02486
  14   30462.2    328.3   0.036676936   0.39638   0.31773   0.54187   0.04245
  15   30724.2    325.5   0.024136923   0.25863  -0.03041  -0.49935  -0.09137
  16   31505.4    317.4   0.335531404   3.50609  -0.04815  -1.02823  -1.56413
  17   31826.7    314.2   0.010204501   0.10555   0.20513   0.25192  -0.00378
  18   32905.1    303.9   0.020728990   0.20739  -0.31666  -0.16325   0.28367
  19   33117.1    302.0   0.136415795   1.35609  -0.27370  -1.04476   0.43549
  20   33801.3    295.8   0.095281671   0.92801  -0.32269  -0.81719   0.39506
  21   34701.2    288.2   0.005969649   0.05663   0.23141   0.03310  -0.04459
  22   34809.0    287.3   0.148633308   1.40572  -0.48856  -1.04069  -0.28982
  23   34927.8    286.3   0.080075027   0.75475  -0.07350  -0.27303  -0.82146
  24   35352.3    282.9   0.131623585   1.22572  -0.37602  -1.03847  -0.07693
  25   35562.9    281.2   0.029728100   0.27520   0.22741   0.47185  -0.02898
  26   35885.6    278.7   0.001117621   0.01025  -0.05581  -0.08416  -0.00747
  27   36738.1    272.2   0.027397341   0.24551   0.12786   0.12108   0.46314
  28   37332.1    267.9   0.021497006   0.18957   0.32177   0.15398  -0.24964
  29   37532.0    266.4   0.024333194   0.21344  -0.22098  -0.34277  -0.21706
  30   38285.5    261.2   0.010929257   0.09398  -0.13697  -0.27233   0.03245
  31   38482.7    259.9   0.046465838   0.39751  -0.12025  -0.02460   0.61842
  32   38742.3    258.1   0.008196509   0.06965  -0.21583  -0.14461   0.04642
  33   38811.4    257.7   0.008197883   0.06954  -0.22949  -0.04233  -0.12280
  34   39129.8    255.6   0.009772683   0.08222   0.17227   0.02942  -0.22733
  35   39486.8    253.2   0.070377580   0.58676   0.37282   0.65529  -0.13549

FINAL SINGLE POINT ENERGY     -3676.113164777149

DIPOLE MOMENT
-------------
                                X             Y             Z
Electronic contribution:     -1.20939     -22.22112     -12.21019
Nuclear contribution   :      1.72873      23.98861      12.33479
                        -----------------------------------------
Total Dipole Moment    :      0.51934       1.76749       0.12459
                        -----------------------------------------
Magnitude (a.u.)       :      1.84642
Magnitude (Debye)      :      4.69323

Rotational constants in cm-1:     0.002173     0.000325     0.000291
Rotational constants in MHz :    65.136685     9.737231     8.723471

                             ****ORCA TERMINATED NORMALLY****
TOTAL RUN TIME: 0 days 0 hours 8 minutes 4 seconds 975 msec
