                         Program Version 4.2.0 -  RELEASE  -
|  1> # ORCA input file
|  2> # SCF done       -182.040846274251          0.000350669435
|  3> ! CAM-B3LYP def2-SVP def2/J RIJCOSX Grid4 TightSCF
|  4> %maxcore 5000
|  5> %tddft
|  6>     Mode sTDDFT
|  7>     Ethresh 5.0
|  8>     maxcore 5000
|  9> end
| 10>
| 11> %pal
| 12>   nprocs 6
| 13>   end
| 14> * xyz 0 1
| 15>    C        1.70264         2.72323        -8.55729
| 16>    N        0.88136         3.59158        -9.20306
| 17>    C        0.50144         3.52326       -10.59148
| 18>    C       -0.58308         2.47421       -10.82446
| 19>    C        0.35827         4.56716        -8.31652
| 20>    O       -0.40206         5.44649        -8.66244
| 21>    C        0.95125         4.22505        -7.04714
| 22>    C        1.77847         3.07444        -7.23812
| 23>    C        2.37031         2.75214        -5.95908
| 24>    O        3.13526         1.88139        -5.60764
| 25>    N        1.86389         3.73680        -5.07725
| 26>    C        2.22330         3.67322        -3.68230
| 27>    C        1.12038         3.03839        -2.83720
| 28>    C        1.01416         4.61460        -5.71950
| 29>    C        0.30470         5.74962        -5.22473
| 30>    C        0.24731         6.25639        -3.97532
| 31>    C       -0.50072         7.42421        -3.57635
| 32>    C       -1.27056         8.19446        -4.44813
| 33>    C       -1.97475         9.29732        -3.99547
| 34>    N       -2.79622         9.97095        -4.96986
| 35>    O       -2.45304         9.89682        -6.13016
| 36>    O       -3.79041        10.54981        -4.58214
| 37>    C       -1.93051         9.71506        -2.64874
| 38>    C       -1.14706         8.93028        -1.78718
| 39>    C       -0.46711         7.82319        -2.22900
| 40>    C       -2.57774        10.91146        -2.17805
| 41>    C       -2.92347        11.13830        -0.89294
| 42>    C       -3.54055        12.33521        -0.44021
| 43>    O       -3.77037        13.38014        -1.26803
| 44>    C       -4.36096        14.36272        -0.56191
| 45>    C       -4.54295        13.95084         0.75426
| 46>    C       -4.00762        12.64073         0.83746
| 47>    O       -3.88815        11.78532         1.87218
| 48>    C       -4.35889        12.21498         3.13426
| 49>    O       -5.14148        14.66548         1.76304
| 50>    C       -6.55588        14.71724         1.67584
| 51>    C       -4.66858        15.60908        -1.22093
| 52>    C       -4.65719        15.68560        -2.61437
| 53>    C       -4.96186        16.87452        -3.25035
| 54>    N       -5.03161        16.85012        -4.69192
| 55>    O       -4.31692        16.06092        -5.26723
| 56>    O       -5.82507        17.59343        -5.22910
| 57>    C       -5.26538        18.04759        -2.53475
| 58>    C       -5.25500        17.94956        -1.13647
| 59>    C       -4.96855        16.76883        -0.49231
| 60>    C       -5.49427        19.31024        -3.19517
| 61>    C       -6.31675        20.27145        -2.72498
| 62>    C       -6.49481        21.50973        -3.40633
| 63>    N       -7.42710        22.45686        -3.04657
| 64>    C       -8.40588        22.34798        -1.99416
| 65>    C       -9.57162        21.44501        -2.39165
| 66>    C       -7.40547        23.57523        -3.90747
| 67>    O       -8.14054        24.53215        -3.77877
| 68>    C       -6.35486        23.26913        -4.84904
| 69>    C       -5.81185        21.99966        -4.51012
| 70>    C       -4.74473        21.72634        -5.44062
| 71>    O       -3.95918        20.80363        -5.53445
| 72>    N       -4.72977        22.84367        -6.30448
| 73>    C       -3.79467        22.87319        -7.40189
| 74>    C       -4.42733        22.36248        -8.69485
| 75>    C       -5.69082        23.76404        -5.96052
| 76>    C       -6.00916        25.03233        -6.55737
| 77>    C       -5.56849        25.58727        -7.68704
| 78>    H        2.18323         1.92036        -9.08578
| 79>    H        1.38635         3.29909       -11.19425
| 80>    H        0.12375         4.51365       -10.85964
| 81>    H       -0.23444         1.48797       -10.52489
| 82>    H       -0.85025         2.44621       -11.87706
| 83>    H       -1.46996         2.72133       -10.24610
| 84>    H        2.48844         4.67003        -3.32147
| 85>    H        3.11615         3.04120        -3.63776
| 86>    H        0.18436         3.58431        -2.93351
| 87>    H        1.41625         3.02467        -1.79153
| 88>    H        0.95502         2.01467        -3.16360
| 89>    H       -0.25032         6.23547        -6.01669
| 90>    H        0.78462         5.78664        -3.16618
| 91>    H       -1.34999         7.94208        -5.49464
| 92>    H       -1.06122         9.22614        -0.75367
| 93>    H        0.11984         7.24839        -1.52670
| 94>    H       -2.82488        11.67088        -2.90533
| 95>    H       -2.78830        10.39668        -0.11966
| 96>    H       -3.94374        13.18783         3.40495
| 97>    H       -4.02694        11.45906         3.84379
| 98>    H       -5.45093        12.27187         3.15158
| 99>    H       -6.99338        13.71700         1.76266
|100>    H       -6.88350        15.16690         0.73399
|101>    H       -6.88454        15.33156         2.51175
|102>    H       -4.43290        14.81098        -3.20607
|103>    H       -5.44146        18.83869        -0.55427
|104>    H       -4.94132        16.73828         0.58523
|105>    H       -4.97665        19.48480        -4.12908
|106>    H       -6.90249        20.10223        -1.83213
|107>    H       -8.77224        23.36373        -1.81894
|108>    H       -7.92569        21.98532        -1.08027
|109>    H      -10.07230        21.85308        -3.26599
|110>    H      -10.28802        21.38533        -1.57669
|111>    H       -9.22428        20.44211        -2.63060
|112>    H       -2.97627        22.20451        -7.11706
|113>    H       -3.39754        23.88414        -7.51586
|114>    H       -4.72513        21.32452        -8.56937
|115>    H       -3.70867        22.42171        -9.50785
|116>    H       -5.30880        22.94335        -8.95748
|117>    H       -6.73882        25.57070        -5.96413
|118>    H       -4.87058        25.12264        -8.35872
|119>    H       -5.92529        26.55931        -7.98271
|120> *
|121>
|122>                          ****END OF INPUT****

CARTESIAN COORDINATES (ANGSTROEM)
---------------------------------
  C      1.702640    2.723230   -8.557290
  N      0.881360    3.591580   -9.203060
  C      0.501440    3.523260  -10.591480
  C     -0.583080    2.474210  -10.824460
  C      0.358270    4.567160   -8.316520
  O     -0.402060    5.446490   -8.662440
  C      0.951250    4.225050   -7.047140
  C      1.778470    3.074440   -7.238120
  C      2.370310    2.752140   -5.959080
  O      3.135260    1.881390   -5.607640
  N      1.863890    3.736800   -5.077250
  C      2.223300    3.673220   -3.682300
  C      1.120380    3.038390   -2.837200
  C      1.014160    4.614600   -5.719500
  C      0.304700    5.749620   -5.224730
  C      0.247310    6.256390   -3.975320
  C     -0.500720    7.424210   -3.576350
  C     -1.270560    8.194460   -4.448130
  C     -1.974750    9.297320   -3.995470
  N     -2.796220    9.970950   -4.969860
  O     -2.453040    9.896820   -6.130160
  O     -3.790410   10.549810   -4.582140
  C     -1.930510    9.715060   -2.648740
  C     -1.147060    8.930280   -1.787180
  C     -0.467110    7.823190   -2.229000
  C     -2.577740   10.911460   -2.178050
  C     -2.923470   11.138300   -0.892940
  C     -3.540550   12.335210   -0.440210
  O     -3.770370   13.380140   -1.268030
  C     -4.360960   14.362720   -0.561910
  C     -4.542950   13.950840    0.754260
  C     -4.007620   12.640730    0.837460
  O     -3.888150   11.785320    1.872180
  C     -4.358890   12.214980    3.134260
  O     -5.141480   14.665480    1.763040
  C     -6.555880   14.717240    1.675840
  C     -4.668580   15.609080   -1.220930
  C     -4.657190   15.685600   -2.614370
  C     -4.961860   16.874520   -3.250350
  N     -5.031610   16.850120   -4.691920
  O     -4.316920   16.060920   -5.267230
  O     -5.825070   17.593430   -5.229100
  C     -5.265380   18.047590   -2.534750
  C     -5.255000   17.949560   -1.136470
  C     -4.968550   16.768830   -0.492310
  C     -5.494270   19.310240   -3.195170
  C     -6.316750   20.271450   -2.724980
  C     -6.494810   21.509730   -3.406330
  N     -7.427100   22.456860   -3.046570
  C     -8.405880   22.347980   -1.994160
  C     -9.571620   21.445010   -2.391650
  C     -7.405470   23.575230   -3.907470
  O     -8.140540   24.532150   -3.778770
  C     -6.354860   23.269130   -4.849040
  C     -5.811850   21.999660   -4.510120
  C     -4.744730   21.726340   -5.440620
  O     -3.959180   20.803630   -5.534450
  N     -4.729770   22.843670   -6.304480
  C     -3.794670   22.873190   -7.401890
  C     -4.427330   22.362480   -8.694850
  C     -5.690820   23.764040   -5.960520
  C     -6.009160   25.032330   -6.557370
  C     -5.568490   25.587270   -7.687040
  H      2.183230    1.920360   -9.085780
  H      1.386350    3.299090  -11.194250
  H      0.123750    4.513650  -10.859640
  H     -0.234440    1.487970  -10.524890
  H     -0.850250    2.446210  -11.877060
  H     -1.469960    2.721330  -10.246100
  H      2.488440    4.670030   -3.321470
  H      3.116150    3.041200   -3.637760
  H      0.184360    3.584310   -2.933510
  H      1.416250    3.024670   -1.791530
  H      0.955020    2.014670   -3.163600
  H     -0.250320    6.235470   -6.016690
  H      0.784620    5.786640   -3.166180
  H     -1.349990    7.942080   -5.494640
  H     -1.061220    9.226140   -0.753670
  H      0.119840    7.248390   -1.526700
  H     -2.824880   11.670880   -2.905330
  H     -2.788300   10.396680   -0.119660
  H     -3.943740   13.187830    3.404950
  H     -4.026940   11.459060    3.843790
  H     -5.450930   12.271870    3.151580
  H     -6.993380   13.717000    1.762660
  H     -6.883500   15.166900    0.733990
  H     -6.884540   15.331560    2.511750
  H     -4.432900   14.810980   -3.206070
  H     -5.441460   18.838690   -0.554270
  H     -4.941320   16.738280    0.585230
  H     -4.976650   19.484800   -4.129080
  H     -6.902490   20.102230   -1.832130
  H     -8.772240   23.363730   -1.818940
  H     -7.925690   21.985320   -1.080270
  H    -10.072300   21.853080   -3.265990
  H    -10.288020   21.385330   -1.576690
  H     -9.224280   20.442110   -2.630600
  H     -2.976270   22.204510   -7.117060
  H     -3.397540   23.884140   -7.515860
  H     -4.725130   21.324520   -8.569370
  H     -3.708670   22.421710   -9.507850
  H     -5.308800   22.943350   -8.957480
  H     -6.738820   25.570700   -5.964130
  H     -4.870580   25.122640   -8.358720
  H     -5.925290   26.559310   -7.982710

 Total Charge           Charge          ....    0
 Multiplicity           Mult            ....    1
 Number of Electrons    NEL             ....  448
 Basis Dimension        Dim             .... 1092

ORBITAL ENERGIES
----------------

  NO   OCC          E(Eh)            E(eV)
   0   2.0000     -19.299453      -525.1648
   1   2.0000     -19.260637      -524.1086
   2   2.0000     -19.258944      -524.0625
   3   2.0000     -19.237303      -523.4736
   4   2.0000     -19.235821      -523.4333
   5   2.0000     -19.235140      -523.4148
   6   2.0000     -19.233943      -523.3822
   7   2.0000     -19.184009      -522.0234
   8   2.0000     -19.181248      -521.9483
   9   2.0000     -19.181104      -521.9444
  10   2.0000     -19.180743      -521.9346
  11   2.0000     -14.641374      -398.4120
  12   2.0000     -14.639996      -398.3745
  13   2.0000     -14.448347      -393.1595
  14   2.0000     -14.446527      -393.1100
  15   2.0000     -14.445055      -393.0699
  16   2.0000     -14.444248      -393.0480
  17   2.0000     -10.367417      -282.1118
  18   2.0000     -10.366897      -282.0976
  19   2.0000     -10.364979      -282.0454
  20   2.0000     -10.363275      -281.9990
  21   2.0000     -10.342848      -281.4432
  22   2.0000     -10.342105      -281.4230
  23   2.0000     -10.339756      -281.3591
  24   2.0000     -10.335724      -281.2494
  25   2.0000     -10.334784      -281.2238
  26   2.0000     -10.332927      -281.1733
  27   2.0000     -10.330158      -281.0979
  28   2.0000     -10.330039      -281.0947
  29   2.0000     -10.329612      -281.0830
  30   2.0000     -10.328226      -281.0453
  31   2.0000     -10.327645      -281.0295
  32   2.0000     -10.325496      -280.9710
  33   2.0000     -10.307852      -280.4909
  34   2.0000     -10.307427      -280.4793
  35   2.0000     -10.306737      -280.4606
  36   2.0000     -10.304870      -280.4098
  37   2.0000     -10.304067      -280.3879
  38   2.0000     -10.303506      -280.3727
  39   2.0000     -10.297830      -280.2182
  40   2.0000     -10.296577      -280.1841
  41   2.0000     -10.295312      -280.1497
  42   2.0000     -10.294686      -280.1327
  43   2.0000     -10.294639      -280.1314
  44   2.0000     -10.293825      -280.1092
  45   2.0000     -10.293222      -280.0928
  46   2.0000     -10.291929      -280.0576
  47   2.0000     -10.288916      -279.9756
  48   2.0000     -10.288673      -279.9690
  49   2.0000     -10.286901      -279.9208
  50   2.0000     -10.286586      -279.9122
  51   2.0000     -10.286517      -279.9104
  52   2.0000     -10.282168      -279.7920
  53   2.0000     -10.276295      -279.6322
  54   2.0000     -10.275990      -279.6239
  55   2.0000     -10.261308      -279.2244
  56   2.0000     -10.260635      -279.2061
  57   2.0000     -10.260067      -279.1906
  58   2.0000     -10.254114      -279.0286
  59   2.0000     -10.253806      -279.0202
  60   2.0000     -10.253588      -279.0143
  61   2.0000     -10.250213      -278.9225
  62   2.0000     -10.249422      -278.9010
  63   2.0000      -1.317905       -35.8620
  64   2.0000      -1.315715       -35.8024
  65   2.0000      -1.221071       -33.2270
  66   2.0000      -1.166023       -31.7291
  67   2.0000      -1.151967       -31.3466
  68   2.0000      -1.137216       -30.9452
  69   2.0000      -1.134075       -30.8598
  70   2.0000      -1.125770       -30.6337
  71   2.0000      -1.123669       -30.5766
  72   2.0000      -1.119121       -30.4528
  73   2.0000      -1.117000       -30.3951
  74   2.0000      -1.056388       -28.7458
  75   2.0000      -1.053885       -28.6777
  76   2.0000      -1.046976       -28.4897
  77   2.0000      -1.044984       -28.4355
  78   2.0000      -0.989895       -26.9364
  79   2.0000      -0.985330       -26.8122
  80   2.0000      -0.928522       -25.2664
  81   2.0000      -0.923530       -25.1305
  82   2.0000      -0.921414       -25.0730
  83   2.0000      -0.918680       -24.9985
  84   2.0000      -0.907050       -24.6821
  85   2.0000      -0.903479       -24.5849
  86   2.0000      -0.896604       -24.3978
  87   2.0000      -0.887577       -24.1522
  88   2.0000      -0.883330       -24.0366
  89   2.0000      -0.874615       -23.7995
  90   2.0000      -0.867881       -23.6162
  91   2.0000      -0.862486       -23.4694
  92   2.0000      -0.852092       -23.1866
  93   2.0000      -0.827360       -22.5136
  94   2.0000      -0.816034       -22.2054
  95   2.0000      -0.812573       -22.1112
  96   2.0000      -0.809906       -22.0387
  97   2.0000      -0.803892       -21.8750
  98   2.0000      -0.795456       -21.6454
  99   2.0000      -0.790684       -21.5156
 100   2.0000      -0.784297       -21.3418
 101   2.0000      -0.782466       -21.2920
 102   2.0000      -0.775749       -21.1092
 103   2.0000      -0.757530       -20.6134
 104   2.0000      -0.756147       -20.5758
 105   2.0000      -0.753212       -20.4959
 106   2.0000      -0.737011       -20.0551
 107   2.0000      -0.724079       -19.7032
 108   2.0000      -0.707057       -19.2400
 109   2.0000      -0.703523       -19.1438
 110   2.0000      -0.701989       -19.1021
 111   2.0000      -0.689489       -18.7620
 112   2.0000      -0.683052       -18.5868
 113   2.0000      -0.680736       -18.5238
 114   2.0000      -0.676544       -18.4097
 115   2.0000      -0.674907       -18.3651
 116   2.0000      -0.669226       -18.2106
 117   2.0000      -0.657081       -17.8801
 118   2.0000      -0.653017       -17.7695
 119   2.0000      -0.652369       -17.7519
 120   2.0000      -0.646725       -17.5983
 121   2.0000      -0.642258       -17.4767
 122   2.0000      -0.633387       -17.2353
 123   2.0000      -0.627284       -17.0693
 124   2.0000      -0.623364       -16.9626
 125   2.0000      -0.618821       -16.8390
 126   2.0000      -0.608844       -16.5675
 127   2.0000      -0.602256       -16.3882
 128   2.0000      -0.599430       -16.3113
 129   2.0000      -0.595933       -16.2162
 130   2.0000      -0.589877       -16.0514
 131   2.0000      -0.588137       -16.0040
 132   2.0000      -0.587086       -15.9754
 133   2.0000      -0.582930       -15.8623
 134   2.0000      -0.580814       -15.8048
 135   2.0000      -0.578875       -15.7520
 136   2.0000      -0.574716       -15.6388
 137   2.0000      -0.573922       -15.6172
 138   2.0000      -0.570505       -15.5242
 139   2.0000      -0.568071       -15.4580
 140   2.0000      -0.566794       -15.4233
 141   2.0000      -0.560593       -15.2545
 142   2.0000      -0.553949       -15.0737
 143   2.0000      -0.548891       -14.9361
 144   2.0000      -0.547600       -14.9009
 145   2.0000      -0.545036       -14.8312
 146   2.0000      -0.544072       -14.8049
 147   2.0000      -0.543275       -14.7833
 148   2.0000      -0.540854       -14.7174
 149   2.0000      -0.539453       -14.6793
 150   2.0000      -0.538198       -14.6451
 151   2.0000      -0.536514       -14.5993
 152   2.0000      -0.532457       -14.4889
 153   2.0000      -0.531310       -14.4577
 154   2.0000      -0.529254       -14.4017
 155   2.0000      -0.527287       -14.3482
 156   2.0000      -0.522724       -14.2241
 157   2.0000      -0.522125       -14.2077
 158   2.0000      -0.514832       -14.0093
 159   2.0000      -0.512270       -13.9396
 160   2.0000      -0.507618       -13.8130
 161   2.0000      -0.506558       -13.7841
 162   2.0000      -0.502166       -13.6646
 163   2.0000      -0.495942       -13.4953
 164   2.0000      -0.494554       -13.4575
 165   2.0000      -0.494231       -13.4487
 166   2.0000      -0.491741       -13.3809
 167   2.0000      -0.490178       -13.3384
 168   2.0000      -0.486126       -13.2282
 169   2.0000      -0.482483       -13.1290
 170   2.0000      -0.480577       -13.0772
 171   2.0000      -0.472498       -12.8573
 172   2.0000      -0.469434       -12.7740
 173   2.0000      -0.465936       -12.6788
 174   2.0000      -0.459393       -12.5007
 175   2.0000      -0.458648       -12.4804
 176   2.0000      -0.457094       -12.4381
 177   2.0000      -0.453712       -12.3461
 178   2.0000      -0.452367       -12.3095
 179   2.0000      -0.451628       -12.2894
 180   2.0000      -0.451211       -12.2781
 181   2.0000      -0.448889       -12.2149
 182   2.0000      -0.448550       -12.2057
 183   2.0000      -0.447395       -12.1743
 184   2.0000      -0.445921       -12.1341
 185   2.0000      -0.444779       -12.1030
 186   2.0000      -0.440252       -11.9799
 187   2.0000      -0.438929       -11.9439
 188   2.0000      -0.438127       -11.9220
 189   2.0000      -0.436462       -11.8767
 190   2.0000      -0.434947       -11.8355
 191   2.0000      -0.432703       -11.7745
 192   2.0000      -0.430419       -11.7123
 193   2.0000      -0.427374       -11.6294
 194   2.0000      -0.422896       -11.5076
 195   2.0000      -0.420364       -11.4387
 196   2.0000      -0.419713       -11.4210
 197   2.0000      -0.410381       -11.1670
 198   2.0000      -0.406461       -11.0604
 199   2.0000      -0.399679       -10.8758
 200   2.0000      -0.393378       -10.7044
 201   2.0000      -0.379887       -10.3372
 202   2.0000      -0.377611       -10.2753
 203   2.0000      -0.373505       -10.1636
 204   2.0000      -0.372016       -10.1231
 205   2.0000      -0.370145       -10.0722
 206   2.0000      -0.366251        -9.9662
 207   2.0000      -0.363258        -9.8848
 208   2.0000      -0.359082        -9.7711
 209   2.0000      -0.345117        -9.3911
 210   2.0000      -0.342985        -9.3331
 211   2.0000      -0.340188        -9.2570
 212   2.0000      -0.339591        -9.2407
 213   2.0000      -0.338567        -9.2129
 214   2.0000      -0.333252        -9.0683
 215   2.0000      -0.323881        -8.8133
 216   2.0000      -0.321998        -8.7620
 217   2.0000      -0.318596        -8.6694
 218   2.0000      -0.308943        -8.4068
 219   2.0000      -0.306427        -8.3383
 220   2.0000      -0.304834        -8.2950
 221   2.0000      -0.255738        -6.9590
 222   2.0000      -0.239751        -6.5240
 223   2.0000      -0.231922        -6.3109
 224   0.0000      -0.078184        -2.1275
 225   0.0000      -0.068389        -1.8610
 226   0.0000      -0.043288        -1.1779
 227   0.0000      -0.036728        -0.9994
 228   0.0000      -0.026321        -0.7162

MULLIKEN ATOMIC CHARGES
-----------------------
   0 C :    0.045634
   1 N :   -0.265168
   2 C :    0.111693
   3 C :   -0.000972
   4 C :    0.165293
   5 O :   -0.192985
   6 C :   -0.084767
   7 C :    0.008737
   8 C :    0.164430
   9 O :   -0.192653
  10 N :   -0.279741
  11 C :    0.101307
  12 C :    0.003229
  13 C :    0.135968
  14 C :   -0.014832
  15 C :    0.008014
  16 C :    0.102290
  17 C :   -0.051810
  18 C :    0.136154
  19 N :    0.242539
  20 O :   -0.226070
  21 O :   -0.233344
  22 C :    0.068970
  23 C :   -0.033989
  24 C :    0.010091
  25 C :   -0.005688
  26 C :   -0.025883
  27 C :    0.075320
  28 O :   -0.195193
  29 C :    0.151532
  30 C :    0.009547
  31 C :    0.164276
  32 O :   -0.301499
  33 C :    0.188760
  34 O :   -0.346432
  35 C :    0.194146
  36 C :    0.034574
  37 C :   -0.058488
  38 C :    0.149114
  39 N :    0.243080
  40 O :   -0.224130
  41 O :   -0.224893
  42 C :    0.063984
  43 C :   -0.029246
  44 C :   -0.004022
  45 C :    0.025938
  46 C :   -0.038186
  47 C :    0.138595
  48 N :   -0.268438
  49 C :    0.101586
  50 C :    0.001211
  51 C :    0.150294
  52 O :   -0.197476
  53 C :   -0.043378
  54 C :   -0.064212
  55 C :    0.163692
  56 O :   -0.211042
  57 N :   -0.261020
  58 C :    0.099178
  59 C :    0.001445
  60 C :    0.076038
  61 C :   -0.022475
  62 C :   -0.008103
  63 H :    0.015666
  64 H :    0.017343
  65 H :    0.042713
  66 H :    0.012858
  67 H :    0.023550
  68 H :    0.031643
  69 H :    0.021306
  70 H :    0.042553
  71 H :    0.019050
  72 H :    0.017851
  73 H :    0.028086
  74 H :    0.008768
  75 H :   -0.031296
  76 H :    0.014330
  77 H :   -0.015797
  78 H :   -0.017438
  79 H :    0.013135
  80 H :    0.003719
  81 H :    0.038209
  82 H :    0.036414
  83 H :    0.013750
  84 H :    0.020403
  85 H :    0.029684
  86 H :    0.038073
  87 H :    0.016311
  88 H :   -0.014570
  89 H :    0.002626
  90 H :    0.037817
  91 H :   -0.028039
  92 H :    0.041665
  93 H :    0.015744
  94 H :    0.031008
  95 H :    0.019898
  96 H :    0.018849
  97 H :    0.040541
  98 H :    0.020583
  99 H :    0.034134
 100 H :    0.020244
 101 H :    0.018504
 102 H :    0.016221
 103 H :    0.021943
 104 H :    0.031427
Sum of atomic charges:   -0.0000000

LOEWDIN ATOMIC CHARGES
----------------------
   0 C :    0.097298
   1 N :   -0.003274
   2 C :    0.038391
   3 C :   -0.060692
   4 C :    0.077057
   5 O :   -0.194995
   6 C :   -0.121447
   7 C :   -0.134040
   8 C :    0.084074
   9 O :   -0.193339
  10 N :   -0.013291
  11 C :    0.033356
  12 C :   -0.064007
  13 C :    0.078192
  14 C :   -0.026544
  15 C :   -0.001227
  16 C :   -0.033602
  17 C :    0.019016
  18 C :   -0.026290
  19 N :    0.284064
  20 O :   -0.195843
  21 O :   -0.195012
  22 C :    0.001594
  23 C :   -0.011780
  24 C :    0.005181
  25 C :   -0.025101
  26 C :   -0.019805
  27 C :   -0.002067
  28 O :    0.028149
  29 C :    0.016943
  30 C :   -0.026855
  31 C :    0.004283
  32 O :   -0.098924
  33 C :    0.082820
  34 O :   -0.129570
  35 C :    0.080335
  36 C :   -0.033649
  37 C :    0.012985
  38 C :   -0.014775
  39 N :    0.283962
  40 O :   -0.191428
  41 O :   -0.186294
  42 C :   -0.013034
  43 C :   -0.005922
  44 C :   -0.000571
  45 C :    0.040175
  46 C :   -0.049593
  47 C :    0.083240
  48 N :   -0.007112
  49 C :    0.035076
  50 C :   -0.061912
  51 C :    0.080274
  52 O :   -0.200112
  53 C :   -0.118642
  54 C :   -0.127430
  55 C :    0.082282
  56 O :   -0.198917
  57 N :    0.000081
  58 C :    0.035261
  59 C :   -0.063042
  60 C :    0.070623
  61 C :   -0.028732
  62 C :   -0.023346
  63 H :    0.032993
  64 H :    0.024470
  65 H :    0.036974
  66 H :    0.021765
  67 H :    0.030100
  68 H :    0.032097
  69 H :    0.019184
  70 H :    0.037298
  71 H :    0.020893
  72 H :    0.028652
  73 H :    0.032997
  74 H :    0.045761
  75 H :    0.028047
  76 H :    0.042535
  77 H :    0.032679
  78 H :    0.031101
  79 H :    0.030635
  80 H :    0.037353
  81 H :    0.020995
  82 H :    0.027144
  83 H :    0.014189
  84 H :    0.013199
  85 H :    0.015739
  86 H :    0.026645
  87 H :    0.045539
  88 H :    0.033215
  89 H :    0.034967
  90 H :    0.037598
  91 H :    0.025326
  92 H :    0.037136
  93 H :    0.019632
  94 H :    0.032999
  95 H :    0.028779
  96 H :    0.022865
  97 H :    0.036453
  98 H :    0.021590
  99 H :    0.034751
 100 H :    0.029270
 101 H :    0.021617
 102 H :    0.048317
 103 H :    0.022316
 104 H :    0.031691

  Mayer bond orders larger than 0.100000
B(  0-C ,  1-N ) :   1.1995 B(  0-C ,  7-C ) :   1.4490 B(  0-C , 63-H ) :   0.9900
B(  1-N ,  2-C ) :   0.9426 B(  1-N ,  4-C ) :   1.0273 B(  2-C ,  3-C ) :   1.1194
B(  2-C , 64-H ) :   0.9538 B(  2-C , 65-H ) :   0.9348 B(  3-C , 66-H ) :   0.9688
B(  3-C , 67-H ) :   0.9688 B(  3-C , 68-H ) :   0.9675 B(  4-C ,  5-O ) :   2.1203
B(  4-C ,  6-C ) :   0.9916 B(  6-C ,  7-C ) :   1.1893 B(  6-C , 13-C ) :   1.3959
B(  7-C ,  8-C ) :   0.9554 B(  8-C ,  9-O ) :   2.1600 B(  8-C , 10-N ) :   1.0182
B( 10-N , 11-C ) :   0.9480 B( 10-N , 13-C ) :   1.1549 B( 11-C , 12-C ) :   1.1164
B( 11-C , 69-H ) :   0.9510 B( 11-C , 70-H ) :   0.9223 B( 12-C , 71-H ) :   0.9680
B( 12-C , 72-H ) :   0.9683 B( 12-C , 73-H ) :   0.9612 B( 13-C , 14-C ) :   1.1632
B( 14-C , 15-C ) :   1.6108 B( 14-C , 74-H ) :   0.9437 B( 15-C , 16-C ) :   1.0736
B( 15-C , 75-H ) :   0.9886 B( 16-C , 17-C ) :   1.3053 B( 16-C , 24-C ) :   1.2979
B( 17-C , 18-C ) :   1.3920 B( 17-C , 76-H ) :   0.9851 B( 18-C , 19-N ) :   0.8770
B( 18-C , 22-C ) :   1.3321 B( 19-N , 20-O ) :   1.5520 B( 19-N , 21-O ) :   1.5213
B( 20-O , 21-O ) :   0.2661 B( 22-C , 23-C ) :   1.3301 B( 22-C , 25-C ) :   1.0717
B( 23-C , 24-C ) :   1.4116 B( 23-C , 77-H ) :   0.9862 B( 24-C , 78-H ) :   0.9969
B( 25-C , 26-C ) :   1.6551 B( 25-C , 79-H ) :   0.9649 B( 26-C , 27-C ) :   1.1734
B( 26-C , 80-H ) :   0.9588 B( 27-C , 28-O ) :   1.1218 B( 27-C , 29-C ) :   0.1302
B( 27-C , 31-C ) :   1.3778 B( 28-O , 29-C ) :   1.1768 B( 29-C , 30-C ) :   1.4042
B( 29-C , 36-C ) :   1.0566 B( 30-C , 31-C ) :   1.2156 B( 30-C , 34-O ) :   1.1185
B( 31-C , 32-O ) :   1.2022 B( 32-O , 33-C ) :   0.9409 B( 33-C , 81-H ) :   0.9707
B( 33-C , 82-H ) :   0.9796 B( 33-C , 83-H ) :   0.9737 B( 34-O , 35-C ) :   0.9295
B( 35-C , 84-H ) :   0.9645 B( 35-C , 85-H ) :   0.9693 B( 35-C , 86-H ) :   0.9834
B( 36-C , 37-C ) :   1.2762 B( 36-C , 44-C ) :   1.3420 B( 37-C , 38-C ) :   1.3737
B( 37-C , 87-H ) :   1.0067 B( 38-C , 39-N ) :   0.8703 B( 38-C , 42-C ) :   1.3459
B( 39-N , 40-O ) :   1.5595 B( 39-N , 41-O ) :   1.5286 B( 40-O , 41-O ) :   0.2716
B( 42-C , 43-C ) :   1.3381 B( 42-C , 45-C ) :   1.0510 B( 43-C , 44-C ) :   1.3907
B( 43-C , 88-H ) :   0.9910 B( 44-C , 89-H ) :   0.9888 B( 45-C , 46-C ) :   1.6827
B( 45-C , 90-H ) :   0.9215 B( 46-C , 47-C ) :   1.1375 B( 46-C , 91-H ) :   0.9630
B( 47-C , 48-N ) :   1.1589 B( 47-C , 54-C ) :   1.3706 B( 48-N , 49-C ) :   0.9527
B( 48-N , 51-C ) :   1.0287 B( 49-C , 50-C ) :   1.1179 B( 49-C , 92-H ) :   0.9279
B( 49-C , 93-H ) :   0.9502 B( 50-C , 94-H ) :   0.9640 B( 50-C , 95-H ) :   0.9679
B( 50-C , 96-H ) :   0.9687 B( 51-C , 52-O ) :   2.1308 B( 51-C , 53-C ) :   0.9785
B( 53-C , 54-C ) :   1.2188 B( 53-C , 60-C ) :   1.3905 B( 54-C , 55-C ) :   0.9911
B( 55-C , 56-O ) :   2.0263 B( 55-C , 57-N ) :   1.0557 B( 56-O , 90-H ) :   0.1041
B( 57-N , 58-C ) :   0.9464 B( 57-N , 60-C ) :   1.1690 B( 58-C , 59-C ) :   1.1162
B( 58-C , 97-H ) :   0.9260 B( 58-C , 98-H ) :   0.9521 B( 59-C , 99-H ) :   0.9618
B( 59-C ,100-H ) :   0.9686 B( 59-C ,101-H ) :   0.9677 B( 60-C , 61-C ) :   1.1504
B( 61-C , 62-C ) :   1.8778 B( 61-C ,102-H ) :   0.9361 B( 62-C ,103-H ) :   0.9602
B( 62-C ,104-H ) :   0.9402

-----------------------------------------------------------------------------
         ABSORPTION SPECTRUM VIA TRANSITION ELECTRIC DIPOLE MOMENTS
-----------------------------------------------------------------------------
State   Energy  Wavelength   fosc         T2         TX        TY        TZ
        (cm-1)    (nm)                  (au**2)     (au)      (au)      (au)
-----------------------------------------------------------------------------
   0   18642.9    536.4   0.861782954  15.21810   0.39070  -3.80625   0.76021
   1   20916.8    478.1   1.162395563  18.29505  -1.49120   2.20574   3.34755
   2   23707.4    421.8   0.290720006   4.03708  -1.14446   1.57039  -0.51103
   3   25020.8    399.7   0.021900320   0.28815  -0.06342  -0.19833   0.49477
   4   25607.5    390.5   0.163080014   2.09657   0.64083   0.07745  -1.29611
   5   25900.4    386.1   0.118204215   1.50246  -0.66923   0.98307  -0.29692
   6   27930.2    358.0   0.011777122   0.13882  -0.26029  -0.01319  -0.26626
   7   28268.0    353.8   0.011876430   0.13831   0.00781   0.09267   0.36009
   8   29220.3    342.2   0.005168139   0.05823   0.06671  -0.09956   0.20944
   9   29542.5    338.5   0.054677669   0.60931  -0.59749   0.46931  -0.17906
  10   30034.0    333.0   0.072495769   0.79465   0.51536  -0.71515   0.13275
  11   30462.2    328.3   0.000651303   0.00704  -0.04994  -0.00505  -0.06723
  12   31167.7    320.8   0.026538185   0.28031  -0.35454   0.06185   0.38831
  13   31406.4    318.4   0.114570298   1.20096   0.62508  -0.90012   0.00528
  14   32657.6    306.2   0.083331398   0.84004   0.38678  -0.66986   0.49166
  15   34103.5    293.2   0.071707067   0.69221   0.26170  -0.63355   0.47153
  16   34927.1    286.3   0.041360749   0.38985  -0.11175   0.32035  -0.52416
  17   35467.9    281.9   0.083147932   0.77178   0.29286  -0.77269  -0.29825
  18   35908.4    278.5   0.018739162   0.17180   0.34138   0.23493  -0.00845
  19   36253.3    275.8   0.218147803   1.98097   0.43001  -1.17260   0.64890
  20   36283.8    275.6   0.344107442   3.12217   0.83919  -1.45654  -0.54446
  21   37438.0    267.1   0.006199271   0.05451  -0.00874   0.21175  -0.09798
  22   37627.8    265.8   0.046593294   0.40765  -0.23709  -0.02729   0.59220
  23   38149.1    262.1   0.003516375   0.03034   0.05409  -0.14508   0.07983
  24   38243.0    261.5   0.140868719   1.21266   0.26535  -0.40883   0.98748
  25   38878.8    257.2   0.007382840   0.06252   0.11841   0.00587  -0.22014
  26   39400.6    253.8   0.180331098   1.50676   0.43510  -0.53852  -1.01362
  27   40306.3    248.1   0.074103069   0.60526   0.27367  -0.67127   0.28241

FINAL SINGLE POINT ENERGY     -2930.341294019991

DIPOLE MOMENT
-------------
                                X             Y             Z
Electronic contribution:      7.82099      -0.46900       1.58556
Nuclear contribution   :     -8.14886      -0.01810       1.71643
                        -----------------------------------------
Total Dipole Moment    :     -0.32788      -0.48711       3.30198
                        -----------------------------------------
Magnitude (a.u.)       :      3.35379
Magnitude (Debye)      :      8.52465

Rotational constants in cm-1:     0.001863     0.000314     0.000276
Rotational constants in MHz :    55.848830     9.425669     8.285783

                             ****ORCA TERMINATED NORMALLY****
TOTAL RUN TIME: 0 days 0 hours 8 minutes 56 seconds 559 msec
