                         Program Version 4.2.0 -  RELEASE  -
|  1> # ORCA input file
|  2> # SCF done       -179.513166497201          0.000643132415
|  3> ! CAM-B3LYP def2-SVP def2/J RIJCOSX Grid4 TightSCF
|  4> %maxcore 5000
|  5> %tddft
|  6>     Mode sTDDFT
|  7>     Ethresh 5.0
|  8>     maxcore 5000
|  9> end
| 10>
| 11> %pal
| 12>   nprocs 6
| 13>   end
| 14> * xyz 0 1
| 15>    C        0.44771         0.13302         4.32131
| 16>    N        0.02671        -0.04486         3.04090
| 17>    C       -0.18310        -1.31209         2.38689
| 18>    C       -1.47153        -1.98010         2.85920
| 19>    C       -0.25947         1.18855         2.41824
| 20>    O       -0.64984         1.28502         1.26772
| 21>    C        0.03123         2.16860         3.43159
| 22>    C        0.46912         1.47197         4.60083
| 23>    C        0.76515         2.45755         5.62212
| 24>    O        1.15744         2.35997         6.76315
| 25>    N        0.47888         3.68920         5.00131
| 26>    C        0.69539         4.93853         5.68792
| 27>    C        1.99885         5.60753         5.25762
| 28>    C        0.04842         3.53362         3.70043
| 29>    C       -0.30462         4.60417         2.85023
| 30>    C       -0.70962         4.40296         1.56248
| 31>    C       -1.05730         5.42326         0.66600
| 32>    S       -1.00822         7.10359         1.09732
| 33>    C       -1.51918         7.62257        -0.47610
| 34>    C       -1.73760         6.51786        -1.31863
| 35>    C       -1.47395         5.27079        -0.67500
| 36>    C       -1.64016         4.07134        -1.37983
| 37>    C       -2.06603         4.11278        -2.69274
| 38>    C       -2.24200         2.86496        -3.44561
| 39>    O       -2.03371         1.75617        -3.02528
| 40>    C       -2.33899         5.35196        -3.32073
| 41>    C       -2.18134         6.53364        -2.65732
| 42>    C       -1.66508         8.98351        -0.80963
| 43>    C       -1.54866        10.02345         0.05632
| 44>    C       -1.71262        11.37860        -0.34035
| 45>    S       -2.01546        12.63274         0.82158
| 46>    C       -2.14185        13.83325        -0.43161
| 47>    C       -2.42481        15.18239        -0.06617
| 48>    O       -2.43215        16.13506        -0.82276
| 49>    C       -1.97868        13.26712        -1.70592
| 50>    C       -1.70286        11.88793        -1.61981
| 51>    C       -2.09151        13.94460        -2.96274
| 52>    S       -1.72129        15.60517        -3.19138
| 53>    C       -1.82578        15.48547        -4.91970
| 54>    C       -2.26841        14.20898        -5.31210
| 55>    C       -2.41871        13.32993        -4.19112
| 56>    C       -2.92017        12.03978        -4.39650
| 57>    C       -3.18995        11.58818        -5.67314
| 58>    C       -3.61891        10.20332        -5.85572
| 59>    O       -3.63960         9.36496        -4.98460
| 60>    C       -3.04966        12.46225        -6.77525
| 61>    C       -2.62710        13.74810        -6.59617
| 62>    C       -1.45874        16.63217        -5.66145
| 63>    C       -1.11815        16.67507        -6.97845
| 64>    C       -0.74004        17.87369        -7.62959
| 65>    N       -0.40769        17.93463        -8.96822
| 66>    C       -0.47249        16.85498        -9.92106
| 67>    C       -1.90775        16.56840       -10.35825
| 68>    C       -0.06129        19.23500        -9.37090
| 69>    O        0.25877        19.51597       -10.51012
| 70>    C       -0.18198        20.02515        -8.16806
| 71>    C       -0.60508        19.16024        -7.11864
| 72>    C       -0.71071        19.94514        -5.91539
| 73>    O       -1.02456        19.66088        -4.77407
| 74>    N       -0.33920        21.24352        -6.31322
| 75>    C       -0.37391        22.34133        -5.37906
| 76>    C       -1.63156        23.19123        -5.54658
| 77>    C       -0.02692        21.30244        -7.65089
| 78>    C        0.39624        22.50397        -8.31105
| 79>    C        0.67723        22.55607        -9.61474
| 80>    H        0.71016        -0.70541         4.93940
| 81>    H        0.67617        -1.96158         2.57853
| 82>    H       -0.24397        -1.10143         1.31586
| 83>    H       -1.43894        -2.16413         3.93092
| 84>    H       -1.60566        -2.92763         2.34541
| 85>    H       -2.32418        -1.34176         2.64101
| 86>    H        0.74494         4.69202         6.75229
| 87>    H       -0.15724         5.60278         5.51893
| 88>    H        2.83909         4.95231         5.47331
| 89>    H        2.13371         6.53720         5.80348
| 90>    H        1.99374         5.82396         4.19162
| 91>    H       -0.24903         5.61245         3.23746
| 92>    H       -0.76556         3.39075         1.18504
| 93>    H       -1.44454         3.11517        -0.91773
| 94>    H       -2.60184         3.02290        -4.48289
| 95>    H       -2.68111         5.35169        -4.34510
| 96>    H       -2.40550         7.46725        -3.14917
| 97>    H       -1.91093         9.18252        -1.84289
| 98>    H       -1.37229         9.83213         1.10594
| 99>    H       -2.64227        15.31592         1.00948
|100>    H       -1.42110        11.29206        -2.46655
|101>    H       -3.14901        11.38558        -3.57060
|102>    H       -3.91008         9.94945        -6.89347
|103>    H       -3.30683        12.10424        -7.76127
|104>    H       -2.59549        14.42150        -7.43622
|105>    H       -1.39557        17.55009        -5.08924
|106>    H       -1.08656        15.76875        -7.56181
|107>    H       -0.00648        15.96004        -9.49789
|108>    H        0.11414        17.18035       -10.78503
|109>    H       -2.53134        16.30935        -9.50503
|110>    H       -1.92213        15.74604       -11.06851
|111>    H       -2.33022        17.44873       -10.83610
|112>    H        0.52683        22.95147        -5.49252
|113>    H       -0.36917        21.88800        -4.38342
|114>    H       -1.68410        23.61821        -6.54585
|115>    H       -1.63088        23.99840        -4.81919
|116>    H       -2.51509        22.57848        -5.38555
|117>    H        0.48673        23.39076        -7.69874
|118>    H        0.59540        21.68578       -10.24388
|119>    H        0.99673        23.47293       -10.07969
|120> *
|121>
|122>                          ****END OF INPUT****

CARTESIAN COORDINATES (ANGSTROEM)
---------------------------------
  C      0.447710    0.133020    4.321310
  N      0.026710   -0.044860    3.040900
  C     -0.183100   -1.312090    2.386890
  C     -1.471530   -1.980100    2.859200
  C     -0.259470    1.188550    2.418240
  O     -0.649840    1.285020    1.267720
  C      0.031230    2.168600    3.431590
  C      0.469120    1.471970    4.600830
  C      0.765150    2.457550    5.622120
  O      1.157440    2.359970    6.763150
  N      0.478880    3.689200    5.001310
  C      0.695390    4.938530    5.687920
  C      1.998850    5.607530    5.257620
  C      0.048420    3.533620    3.700430
  C     -0.304620    4.604170    2.850230
  C     -0.709620    4.402960    1.562480
  C     -1.057300    5.423260    0.666000
  S     -1.008220    7.103590    1.097320
  C     -1.519180    7.622570   -0.476100
  C     -1.737600    6.517860   -1.318630
  C     -1.473950    5.270790   -0.675000
  C     -1.640160    4.071340   -1.379830
  C     -2.066030    4.112780   -2.692740
  C     -2.242000    2.864960   -3.445610
  O     -2.033710    1.756170   -3.025280
  C     -2.338990    5.351960   -3.320730
  C     -2.181340    6.533640   -2.657320
  C     -1.665080    8.983510   -0.809630
  C     -1.548660   10.023450    0.056320
  C     -1.712620   11.378600   -0.340350
  S     -2.015460   12.632740    0.821580
  C     -2.141850   13.833250   -0.431610
  C     -2.424810   15.182390   -0.066170
  O     -2.432150   16.135060   -0.822760
  C     -1.978680   13.267120   -1.705920
  C     -1.702860   11.887930   -1.619810
  C     -2.091510   13.944600   -2.962740
  S     -1.721290   15.605170   -3.191380
  C     -1.825780   15.485470   -4.919700
  C     -2.268410   14.208980   -5.312100
  C     -2.418710   13.329930   -4.191120
  C     -2.920170   12.039780   -4.396500
  C     -3.189950   11.588180   -5.673140
  C     -3.618910   10.203320   -5.855720
  O     -3.639600    9.364960   -4.984600
  C     -3.049660   12.462250   -6.775250
  C     -2.627100   13.748100   -6.596170
  C     -1.458740   16.632170   -5.661450
  C     -1.118150   16.675070   -6.978450
  C     -0.740040   17.873690   -7.629590
  N     -0.407690   17.934630   -8.968220
  C     -0.472490   16.854980   -9.921060
  C     -1.907750   16.568400  -10.358250
  C     -0.061290   19.235000   -9.370900
  O      0.258770   19.515970  -10.510120
  C     -0.181980   20.025150   -8.168060
  C     -0.605080   19.160240   -7.118640
  C     -0.710710   19.945140   -5.915390
  O     -1.024560   19.660880   -4.774070
  N     -0.339200   21.243520   -6.313220
  C     -0.373910   22.341330   -5.379060
  C     -1.631560   23.191230   -5.546580
  C     -0.026920   21.302440   -7.650890
  C      0.396240   22.503970   -8.311050
  C      0.677230   22.556070   -9.614740
  H      0.710160   -0.705410    4.939400
  H      0.676170   -1.961580    2.578530
  H     -0.243970   -1.101430    1.315860
  H     -1.438940   -2.164130    3.930920
  H     -1.605660   -2.927630    2.345410
  H     -2.324180   -1.341760    2.641010
  H      0.744940    4.692020    6.752290
  H     -0.157240    5.602780    5.518930
  H      2.839090    4.952310    5.473310
  H      2.133710    6.537200    5.803480
  H      1.993740    5.823960    4.191620
  H     -0.249030    5.612450    3.237460
  H     -0.765560    3.390750    1.185040
  H     -1.444540    3.115170   -0.917730
  H     -2.601840    3.022900   -4.482890
  H     -2.681110    5.351690   -4.345100
  H     -2.405500    7.467250   -3.149170
  H     -1.910930    9.182520   -1.842890
  H     -1.372290    9.832130    1.105940
  H     -2.642270   15.315920    1.009480
  H     -1.421100   11.292060   -2.466550
  H     -3.149010   11.385580   -3.570600
  H     -3.910080    9.949450   -6.893470
  H     -3.306830   12.104240   -7.761270
  H     -2.595490   14.421500   -7.436220
  H     -1.395570   17.550090   -5.089240
  H     -1.086560   15.768750   -7.561810
  H     -0.006480   15.960040   -9.497890
  H      0.114140   17.180350  -10.785030
  H     -2.531340   16.309350   -9.505030
  H     -1.922130   15.746040  -11.068510
  H     -2.330220   17.448730  -10.836100
  H      0.526830   22.951470   -5.492520
  H     -0.369170   21.888000   -4.383420
  H     -1.684100   23.618210   -6.545850
  H     -1.630880   23.998400   -4.819190
  H     -2.515090   22.578480   -5.385550
  H      0.486730   23.390760   -7.698740
  H      0.595400   21.685780  -10.243880
  H      0.996730   23.472930  -10.079690

 Total Charge           Charge          ....    0
 Multiplicity           Mult            ....    1
 Number of Electrons    NEL             ....  478
 Basis Dimension        Dim             .... 1122

ORBITAL ENERGIES
----------------

  NO   OCC          E(Eh)            E(eV)
   0   2.0000     -88.979584     -2421.2576
   1   2.0000     -88.975001     -2421.1329
   2   2.0000     -88.974535     -2421.1202
   3   2.0000     -19.220396      -523.0136
   4   2.0000     -19.212956      -522.8111
   5   2.0000     -19.205845      -522.6176
   6   2.0000     -19.184960      -522.0493
   7   2.0000     -19.181179      -521.9464
   8   2.0000     -19.180920      -521.9394
   9   2.0000     -19.180755      -521.9349
  10   2.0000     -14.448447      -393.1622
  11   2.0000     -14.446352      -393.1052
  12   2.0000     -14.444505      -393.0550
  13   2.0000     -14.444327      -393.0501
  14   2.0000     -10.367847      -282.1235
  15   2.0000     -10.366003      -282.0733
  16   2.0000     -10.364231      -282.0251
  17   2.0000     -10.362947      -281.9901
  18   2.0000     -10.362722      -281.9840
  19   2.0000     -10.362418      -281.9757
  20   2.0000     -10.349143      -281.6145
  21   2.0000     -10.337059      -281.2857
  22   2.0000     -10.329652      -281.0841
  23   2.0000     -10.327116      -281.0151
  24   2.0000     -10.326993      -281.0118
  25   2.0000     -10.322919      -280.9009
  26   2.0000     -10.320250      -280.8283
  27   2.0000     -10.319326      -280.8031
  28   2.0000     -10.317855      -280.7631
  29   2.0000     -10.315736      -280.7054
  30   2.0000     -10.307115      -280.4709
  31   2.0000     -10.305226      -280.4194
  32   2.0000     -10.305009      -280.4136
  33   2.0000     -10.304344      -280.3955
  34   2.0000     -10.303840      -280.3817
  35   2.0000     -10.303672      -280.3772
  36   2.0000     -10.301467      -280.3172
  37   2.0000     -10.300135      -280.2809
  38   2.0000     -10.296910      -280.1932
  39   2.0000     -10.295952      -280.1671
  40   2.0000     -10.295756      -280.1618
  41   2.0000     -10.294974      -280.1405
  42   2.0000     -10.293843      -280.1097
  43   2.0000     -10.293459      -280.0993
  44   2.0000     -10.290378      -280.0154
  45   2.0000     -10.290196      -280.0105
  46   2.0000     -10.289129      -279.9814
  47   2.0000     -10.288897      -279.9751
  48   2.0000     -10.287542      -279.9383
  49   2.0000     -10.287257      -279.9305
  50   2.0000     -10.285342      -279.8784
  51   2.0000     -10.283806      -279.8366
  52   2.0000     -10.282798      -279.8092
  53   2.0000     -10.282266      -279.7947
  54   2.0000     -10.280389      -279.7436
  55   2.0000     -10.279973      -279.7323
  56   2.0000     -10.270497      -279.4744
  57   2.0000     -10.262382      -279.2536
  58   2.0000     -10.262066      -279.2450
  59   2.0000     -10.260046      -279.1900
  60   2.0000     -10.258323      -279.1432
  61   2.0000     -10.254154      -279.0297
  62   2.0000     -10.252799      -278.9928
  63   2.0000     -10.249268      -278.8968
  64   2.0000     -10.248990      -278.8892
  65   2.0000      -8.074474      -219.7176
  66   2.0000      -8.070228      -219.6021
  67   2.0000      -8.068349      -219.5509
  68   2.0000      -6.043296      -164.4464
  69   2.0000      -6.039430      -164.3412
  70   2.0000      -6.039342      -164.3389
  71   2.0000      -6.037417      -164.2865
  72   2.0000      -6.037167      -164.2797
  73   2.0000      -6.035399      -164.2316
  74   2.0000      -6.032762      -164.1598
  75   2.0000      -6.032499      -164.1526
  76   2.0000      -6.031732      -164.1318
  77   2.0000      -1.131008       -30.7763
  78   2.0000      -1.126260       -30.6471
  79   2.0000      -1.126042       -30.6412
  80   2.0000      -1.123599       -30.5747
  81   2.0000      -1.119366       -30.4595
  82   2.0000      -1.118601       -30.4387
  83   2.0000      -1.116925       -30.3931
  84   2.0000      -1.056886       -28.7593
  85   2.0000      -1.053595       -28.6698
  86   2.0000      -1.048572       -28.5331
  87   2.0000      -1.045701       -28.4550
  88   2.0000      -1.012294       -27.5459
  89   2.0000      -1.009438       -27.4682
  90   2.0000      -0.995768       -27.0962
  91   2.0000      -0.945678       -25.7332
  92   2.0000      -0.944443       -25.6996
  93   2.0000      -0.930023       -25.3072
  94   2.0000      -0.921376       -25.0719
  95   2.0000      -0.920169       -25.0391
  96   2.0000      -0.911435       -24.8014
  97   2.0000      -0.899658       -24.4809
  98   2.0000      -0.885733       -24.1020
  99   2.0000      -0.877027       -23.8651
 100   2.0000      -0.873663       -23.7736
 101   2.0000      -0.865311       -23.5463
 102   2.0000      -0.862849       -23.4793
 103   2.0000      -0.854633       -23.2557
 104   2.0000      -0.852144       -23.1880
 105   2.0000      -0.848570       -23.0908
 106   2.0000      -0.839943       -22.8560
 107   2.0000      -0.821190       -22.3457
 108   2.0000      -0.816082       -22.2067
 109   2.0000      -0.814915       -22.1750
 110   2.0000      -0.813978       -22.1495
 111   2.0000      -0.792943       -21.5771
 112   2.0000      -0.780241       -21.2315
 113   2.0000      -0.774356       -21.0713
 114   2.0000      -0.762612       -20.7517
 115   2.0000      -0.756768       -20.5927
 116   2.0000      -0.755080       -20.5468
 117   2.0000      -0.749178       -20.3862
 118   2.0000      -0.745134       -20.2761
 119   2.0000      -0.736196       -20.0329
 120   2.0000      -0.724050       -19.7024
 121   2.0000      -0.712261       -19.3816
 122   2.0000      -0.705828       -19.2066
 123   2.0000      -0.703446       -19.1417
 124   2.0000      -0.699923       -19.0459
 125   2.0000      -0.690067       -18.7777
 126   2.0000      -0.686798       -18.6887
 127   2.0000      -0.684536       -18.6272
 128   2.0000      -0.666433       -18.1346
 129   2.0000      -0.656938       -17.8762
 130   2.0000      -0.651903       -17.7392
 131   2.0000      -0.650722       -17.7070
 132   2.0000      -0.647828       -17.6283
 133   2.0000      -0.645798       -17.5731
 134   2.0000      -0.641497       -17.4560
 135   2.0000      -0.636427       -17.3181
 136   2.0000      -0.626598       -17.0506
 137   2.0000      -0.614205       -16.7134
 138   2.0000      -0.612321       -16.6621
 139   2.0000      -0.605120       -16.4662
 140   2.0000      -0.602472       -16.3941
 141   2.0000      -0.593069       -16.1382
 142   2.0000      -0.586512       -15.9598
 143   2.0000      -0.582641       -15.8545
 144   2.0000      -0.581103       -15.8126
 145   2.0000      -0.577319       -15.7096
 146   2.0000      -0.571188       -15.5428
 147   2.0000      -0.570063       -15.5122
 148   2.0000      -0.568525       -15.4704
 149   2.0000      -0.563335       -15.3291
 150   2.0000      -0.558689       -15.2027
 151   2.0000      -0.558247       -15.1907
 152   2.0000      -0.555349       -15.1118
 153   2.0000      -0.546688       -14.8761
 154   2.0000      -0.542082       -14.7508
 155   2.0000      -0.541097       -14.7240
 156   2.0000      -0.539668       -14.6851
 157   2.0000      -0.536142       -14.5892
 158   2.0000      -0.531882       -14.4732
 159   2.0000      -0.528675       -14.3860
 160   2.0000      -0.526927       -14.3384
 161   2.0000      -0.526104       -14.3160
 162   2.0000      -0.524684       -14.2774
 163   2.0000      -0.523450       -14.2438
 164   2.0000      -0.522914       -14.2292
 165   2.0000      -0.520431       -14.1617
 166   2.0000      -0.515840       -14.0367
 167   2.0000      -0.514310       -13.9951
 168   2.0000      -0.513640       -13.9769
 169   2.0000      -0.512944       -13.9579
 170   2.0000      -0.512386       -13.9427
 171   2.0000      -0.508853       -13.8466
 172   2.0000      -0.507407       -13.8073
 173   2.0000      -0.505291       -13.7497
 174   2.0000      -0.504096       -13.7171
 175   2.0000      -0.502858       -13.6835
 176   2.0000      -0.500140       -13.6095
 177   2.0000      -0.498146       -13.5552
 178   2.0000      -0.493228       -13.4214
 179   2.0000      -0.491526       -13.3751
 180   2.0000      -0.487693       -13.2708
 181   2.0000      -0.485675       -13.2159
 182   2.0000      -0.481694       -13.1075
 183   2.0000      -0.478771       -13.0280
 184   2.0000      -0.474877       -12.9220
 185   2.0000      -0.473017       -12.8715
 186   2.0000      -0.470991       -12.8163
 187   2.0000      -0.468175       -12.7397
 188   2.0000      -0.466182       -12.6855
 189   2.0000      -0.464401       -12.6370
 190   2.0000      -0.462321       -12.5804
 191   2.0000      -0.459746       -12.5103
 192   2.0000      -0.454462       -12.3665
 193   2.0000      -0.453065       -12.3285
 194   2.0000      -0.452416       -12.3109
 195   2.0000      -0.450983       -12.2719
 196   2.0000      -0.449735       -12.2379
 197   2.0000      -0.448936       -12.2162
 198   2.0000      -0.446199       -12.1417
 199   2.0000      -0.441766       -12.0211
 200   2.0000      -0.440909       -11.9977
 201   2.0000      -0.438491       -11.9319
 202   2.0000      -0.434930       -11.8351
 203   2.0000      -0.433375       -11.7927
 204   2.0000      -0.430849       -11.7240
 205   2.0000      -0.429544       -11.6885
 206   2.0000      -0.427665       -11.6373
 207   2.0000      -0.426787       -11.6135
 208   2.0000      -0.425066       -11.5666
 209   2.0000      -0.424602       -11.5540
 210   2.0000      -0.421147       -11.4600
 211   2.0000      -0.420556       -11.4439
 212   2.0000      -0.419104       -11.4044
 213   2.0000      -0.414462       -11.2781
 214   2.0000      -0.411402       -11.1948
 215   2.0000      -0.407003       -11.0751
 216   2.0000      -0.399094       -10.8599
 217   2.0000      -0.391310       -10.6481
 218   2.0000      -0.368230       -10.0201
 219   2.0000      -0.346783        -9.4365
 220   2.0000      -0.342569        -9.3218
 221   2.0000      -0.341265        -9.2863
 222   2.0000      -0.340592        -9.2680
 223   2.0000      -0.340323        -9.2607
 224   2.0000      -0.339451        -9.2369
 225   2.0000      -0.338362        -9.2073
 226   2.0000      -0.333150        -9.0655
 227   2.0000      -0.328103        -8.9281
 228   2.0000      -0.325536        -8.8583
 229   2.0000      -0.324374        -8.8267
 230   2.0000      -0.322235        -8.7685
 231   2.0000      -0.317711        -8.6454
 232   2.0000      -0.312153        -8.4941
 233   2.0000      -0.308203        -8.3866
 234   2.0000      -0.305686        -8.3181
 235   2.0000      -0.268111        -7.2957
 236   2.0000      -0.262631        -7.1466
 237   2.0000      -0.230103        -6.2614
 238   2.0000      -0.225345        -6.1319
 239   0.0000      -0.099844        -2.7169
 240   0.0000      -0.082445        -2.2434
 241   0.0000      -0.053565        -1.4576
 242   0.0000      -0.043564        -1.1854
 243   0.0000      -0.030523        -0.8306

MULLIKEN ATOMIC CHARGES
-----------------------
   0 C :    0.037145
   1 N :   -0.253778
   2 C :    0.108641
   3 C :   -0.001192
   4 C :    0.170433
   5 O :   -0.218207
   6 C :   -0.107218
   7 C :    0.003749
   8 C :    0.160114
   9 O :   -0.186768
  10 N :   -0.270042
  11 C :    0.099052
  12 C :    0.003778
  13 C :    0.164444
  14 C :   -0.042821
  15 C :    0.005317
  16 C :   -0.078847
  17 S :    0.142535
  18 C :   -0.085039
  19 C :    0.124279
  20 C :    0.125950
  21 C :   -0.062623
  22 C :   -0.009058
  23 C :    0.161096
  24 O :   -0.168823
  25 C :    0.017740
  26 C :   -0.038018
  27 C :   -0.000513
  28 C :    0.042767
  29 C :   -0.061616
  30 S :    0.152743
  31 C :   -0.221833
  32 C :    0.188589
  33 O :   -0.213713
  34 C :    0.162441
  35 C :   -0.073067
  36 C :   -0.151674
  37 S :    0.281987
  38 C :   -0.139863
  39 C :    0.121433
  40 C :    0.126055
  41 C :   -0.082926
  42 C :   -0.012666
  43 C :    0.166025
  44 O :   -0.193548
  45 C :    0.017182
  46 C :   -0.029536
  47 C :    0.058575
  48 C :   -0.047754
  49 C :    0.133152
  50 N :   -0.263493
  51 C :    0.100352
  52 C :   -0.001661
  53 C :    0.158282
  54 O :   -0.212113
  55 C :   -0.062236
  56 C :   -0.070285
  57 C :    0.160399
  58 O :   -0.215822
  59 N :   -0.258564
  60 C :    0.097223
  61 C :    0.005611
  62 C :    0.103376
  63 C :   -0.032096
  64 C :    0.007109
  65 H :    0.012894
  66 H :    0.018358
  67 H :    0.047592
  68 H :    0.014085
  69 H :    0.023237
  70 H :    0.030801
  71 H :    0.043760
  72 H :    0.020016
  73 H :    0.030164
  74 H :    0.021020
  75 H :    0.013169
  76 H :   -0.027112
  77 H :    0.024911
  78 H :    0.017325
  79 H :   -0.025001
  80 H :   -0.012480
  81 H :   -0.012574
  82 H :    0.005593
  83 H :   -0.007836
  84 H :   -0.014241
  85 H :    0.008299
  86 H :   -0.004964
  87 H :   -0.017689
  88 H :   -0.020210
  89 H :   -0.029834
  90 H :    0.014726
  91 H :   -0.035721
  92 H :    0.022357
  93 H :    0.041933
  94 H :    0.016108
  95 H :    0.020988
  96 H :    0.030347
  97 H :    0.022667
  98 H :    0.043200
  99 H :    0.014233
 100 H :    0.021404
 101 H :    0.028409
 102 H :   -0.021441
 103 H :    0.055181
 104 H :    0.026162
Sum of atomic charges:   -0.0000000

LOEWDIN ATOMIC CHARGES
----------------------
   0 C :    0.084880
   1 N :    0.003202
   2 C :    0.038398
   3 C :   -0.060473
   4 C :    0.074980
   5 O :   -0.209226
   6 C :   -0.133042
   7 C :   -0.127286
   8 C :    0.081931
   9 O :   -0.192416
  10 N :   -0.010942
  11 C :    0.035330
  12 C :   -0.061811
  13 C :    0.082807
  14 C :   -0.059948
  15 C :    0.014491
  16 C :   -0.164123
  17 S :    0.481002
  18 C :   -0.170420
  19 C :   -0.030680
  20 C :   -0.036068
  21 C :    0.042600
  22 C :   -0.087467
  23 C :    0.107401
  24 O :   -0.126773
  25 C :   -0.005134
  26 C :   -0.012731
  27 C :   -0.013951
  28 C :   -0.054214
  29 C :   -0.144344
  30 S :    0.455635
  31 C :   -0.247516
  32 C :    0.077269
  33 O :   -0.168411
  34 C :   -0.026403
  35 C :   -0.057267
  36 C :   -0.180361
  37 S :    0.598098
  38 C :   -0.188480
  39 C :   -0.033241
  40 C :   -0.043010
  41 C :    0.031702
  42 C :   -0.097555
  43 C :    0.116847
  44 O :   -0.153565
  45 C :   -0.012851
  46 C :   -0.016215
  47 C :    0.008577
  48 C :   -0.063974
  49 C :    0.076921
  50 N :   -0.004198
  51 C :    0.035438
  52 C :   -0.062941
  53 C :    0.080444
  54 O :   -0.205014
  55 C :   -0.124883
  56 C :   -0.127965
  57 C :    0.076820
  58 O :   -0.207299
  59 N :    0.000621
  60 C :    0.035435
  61 C :   -0.061283
  62 C :    0.074397
  63 C :   -0.054214
  64 C :    0.017817
  65 H :    0.031723
  66 H :    0.024380
  67 H :    0.038111
  68 H :    0.021910
  69 H :    0.030236
  70 H :    0.031937
  71 H :    0.037721
  72 H :    0.021261
  73 H :    0.032622
  74 H :    0.029515
  75 H :    0.020787
  76 H :    0.019803
  77 H :    0.044160
  78 H :    0.044723
  79 H :   -0.007499
  80 H :    0.032359
  81 H :    0.034509
  82 H :    0.039615
  83 H :    0.024027
  84 H :   -0.001684
  85 H :    0.034056
  86 H :    0.032522
  87 H :   -0.003508
  88 H :    0.029333
  89 H :    0.028873
  90 H :    0.037736
  91 H :    0.024113
  92 H :    0.021558
  93 H :    0.037188
  94 H :    0.019698
  95 H :    0.028880
  96 H :    0.033121
  97 H :    0.022180
  98 H :    0.037245
  99 H :    0.021831
 100 H :    0.029506
 101 H :    0.031884
 102 H :    0.028483
 103 H :    0.031914
 104 H :    0.027828

  Mayer bond orders larger than 0.100000
B(  0-C ,  1-N ) :   1.1892 B(  0-C ,  7-C ) :   1.4526 B(  0-C , 65-H ) :   0.9904
B(  1-N ,  2-C ) :   0.9417 B(  1-N ,  4-C ) :   1.0634 B(  2-C ,  3-C ) :   1.1207
B(  2-C , 66-H ) :   0.9539 B(  2-C , 67-H ) :   0.9342 B(  3-C , 68-H ) :   0.9690
B(  3-C , 69-H ) :   0.9684 B(  3-C , 70-H ) :   0.9673 B(  4-C ,  5-O ) :   1.9986
B(  4-C ,  6-C ) :   1.0166 B(  5-O , 77-H ) :   0.1076 B(  6-C ,  7-C ) :   1.2082
B(  6-C , 13-C ) :   1.3571 B(  7-C ,  8-C ) :   0.9485 B(  8-C ,  9-O ) :   2.1761
B(  8-C , 10-N ) :   1.0198 B( 10-N , 11-C ) :   0.9499 B( 10-N , 13-C ) :   1.1489
B( 11-C , 12-C ) :   1.1213 B( 11-C , 71-H ) :   0.9277 B( 11-C , 72-H ) :   0.9499
B( 12-C , 73-H ) :   0.9641 B( 12-C , 74-H ) :   0.9675 B( 12-C , 75-H ) :   0.9683
B( 13-C , 14-C ) :   1.1847 B( 14-C , 15-C ) :   1.5328 B( 14-C , 76-H ) :   0.9635
B( 15-C , 16-C ) :   1.2242 B( 15-C , 77-H ) :   0.9471 B( 16-C , 17-S ) :   1.1349
B( 16-C , 18-C ) :   0.1024 B( 16-C , 20-C ) :   1.2751 B( 17-S , 18-C ) :   1.1345
B( 18-C , 19-C ) :   1.3096 B( 18-C , 27-C ) :   1.2061 B( 19-C , 20-C ) :   1.2061
B( 19-C , 26-C ) :   1.1948 B( 20-C , 21-C ) :   1.2115 B( 21-C , 22-C ) :   1.4704
B( 21-C , 78-H ) :   0.9963 B( 22-C , 23-C ) :   0.9628 B( 22-C , 25-C ) :   1.1797
B( 23-C , 24-O ) :   2.1849 B( 23-C , 79-H ) :   0.9566 B( 25-C , 26-C ) :   1.5597
B( 25-C , 80-H ) :   0.9861 B( 26-C , 81-H ) :   0.9925 B( 27-C , 28-C ) :   1.6457
B( 27-C , 82-H ) :   0.9644 B( 28-C , 29-C ) :   1.1144 B( 28-C , 83-H ) :   0.9654
B( 29-C , 30-S ) :   1.1472 B( 29-C , 35-C ) :   1.4725 B( 30-S , 31-C ) :   1.0825
B( 31-C , 32-C ) :   1.0727 B( 31-C , 34-C ) :   1.4044 B( 32-C , 33-O ) :   2.0536
B( 32-C , 84-H ) :   0.9596 B( 34-C , 35-C ) :   1.2803 B( 34-C , 36-C ) :   1.0910
B( 35-C , 85-H ) :   0.9915 B( 36-C , 37-S ) :   1.2304 B( 36-C , 38-C ) :   0.1113
B( 36-C , 40-C ) :   1.2870 B( 37-S , 38-C ) :   1.1628 B( 38-C , 39-C ) :   1.2852
B( 38-C , 47-C ) :   1.1639 B( 39-C , 40-C ) :   1.2276 B( 39-C , 46-C ) :   1.2141
B( 40-C , 41-C ) :   1.2041 B( 41-C , 42-C ) :   1.4592 B( 41-C , 86-H ) :   0.9957
B( 42-C , 43-C ) :   0.9769 B( 42-C , 45-C ) :   1.1949 B( 43-C , 44-O ) :   2.1295
B( 43-C , 87-H ) :   0.9592 B( 45-C , 46-C ) :   1.5309 B( 45-C , 88-H ) :   0.9874
B( 46-C , 89-H ) :   0.9915 B( 47-C , 48-C ) :   1.5881 B( 47-C , 90-H ) :   0.9234
B( 48-C , 49-C ) :   1.1815 B( 48-C , 91-H ) :   0.9572 B( 49-C , 50-N ) :   1.1459
B( 49-C , 56-C ) :   1.3450 B( 50-N , 51-C ) :   0.9542 B( 50-N , 53-C ) :   1.0558
B( 51-C , 52-C ) :   1.1186 B( 51-C , 92-H ) :   0.9492 B( 51-C , 93-H ) :   0.9271
B( 52-C , 94-H ) :   0.9678 B( 52-C , 95-H ) :   0.9681 B( 52-C , 96-H ) :   0.9621
B( 53-C , 54-O ) :   2.0456 B( 53-C , 55-C ) :   0.9832 B( 55-C , 56-C ) :   1.2358
B( 55-C , 62-C ) :   1.3792 B( 56-C , 57-C ) :   0.9979 B( 57-C , 58-O ) :   2.0160
B( 57-C , 59-N ) :   1.0567 B( 58-O , 90-H ) :   0.1157 B( 59-N , 60-C ) :   0.9488
B( 59-N , 62-C ) :   1.1652 B( 60-C , 61-C ) :   1.1204 B( 60-C , 97-H ) :   0.9504
B( 60-C , 98-H ) :   0.9282 B( 61-C , 99-H ) :   0.9687 B( 61-C ,100-H ) :   0.9678
B( 61-C ,101-H ) :   0.9640 B( 62-C , 63-C ) :   1.1265 B( 63-C , 64-C ) :   1.8891
B( 63-C ,102-H ) :   0.9526 B( 64-C ,103-H ) :   0.9273 B( 64-C ,104-H ) :   0.9445

-----------------------------------------------------------------------------
         ABSORPTION SPECTRUM VIA TRANSITION ELECTRIC DIPOLE MOMENTS
-----------------------------------------------------------------------------
State   Energy  Wavelength   fosc         T2         TX        TY        TZ
        (cm-1)    (nm)                  (au**2)     (au)      (au)      (au)
-----------------------------------------------------------------------------
   0   13731.8    728.2   1.235189764  29.61295  -0.57708   4.80042  -2.49718
   1   15608.6    640.7   0.272236272   5.74192  -0.85762  -1.74328   1.40263
   2   18042.9    554.2   0.132169377   2.41157   0.27865   1.51106  -0.22502
   3   20156.8    496.1   0.168218235   2.74744   0.47831  -1.35154   0.83187
   4   21029.8    475.5   0.068858728   1.07795  -0.21832  -0.38018  -0.94114
   5   21975.0    455.1   0.252989196   3.79008  -0.47159  -1.86741  -0.28363
   6   23200.0    431.0   0.232579540   3.30034   0.16860   0.51800  -1.73309
   7   25407.6    393.6   0.104504461   1.35409  -0.01283  -1.08296  -0.42558
   8   26174.4    382.1   0.029558310   0.37177   0.21546  -0.01145  -0.57028
   9   26526.6    377.0   0.084289371   1.04608   0.08971   0.95801   0.34676
  10   26971.0    370.8   0.002251658   0.02748   0.04692   0.07613   0.13959
  11   27085.8    369.2   0.020070727   0.24395   0.07525   0.40623  -0.27067
  12   28043.2    356.6   0.002384450   0.02799   0.04210   0.07247  -0.14480
  13   28325.4    353.0   0.035550047   0.41318  -0.18320   0.04242   0.61467
  14   28422.1    351.8   0.001887829   0.02187  -0.06800   0.02676   0.12856
  15   28529.7    350.5   0.018153085   0.20947  -0.03210  -0.32145  -0.32421
  16   29404.4    340.1   0.073894888   0.82733  -0.16991   0.39813   0.79997
  17   29819.2    335.4   0.057579608   0.63569  -0.40715  -0.45142   0.51590
  18   30184.0    331.3   0.169905946   1.85314  -0.06676  -1.29556  -0.41255
  19   30267.3    330.4   0.158825058   1.72751   0.14840   1.17101   0.57812
  20   30315.7    329.9   0.013756795   0.14939   0.04866   0.34902   0.15878
  21   31331.3    319.2   0.095802606   1.00664   0.22036   0.85946   0.46842
  22   32279.6    309.8   0.082351565   0.83988   0.20288   0.34763   0.82333
  23   33152.0    301.6   0.001310719   0.01302  -0.02090  -0.00234  -0.11213
  24   33272.3    300.6   0.033916321   0.33558  -0.01779   0.16474   0.55509
  25   33423.3    299.2   0.059394139   0.58502  -0.11165  -0.31889  -0.68619
  26   33798.0    295.9   0.086152157   0.83917   0.35819   0.43190   0.72411
  27   33916.8    294.8   0.005549608   0.05387   0.04472   0.08310  -0.21204
  28   34197.3    292.4   0.092942649   0.89474   0.14987  -0.49041   0.79484
  29   34769.4    287.6   0.039458080   0.37361  -0.41085  -0.44388  -0.08820
  30   34939.9    286.2   0.098242418   0.92566  -0.16850   0.52850  -0.78610
  31   35233.8    283.8   0.309094427   2.88807   0.57471   0.94857   1.28763
  32   35449.7    282.1   0.032945397   0.30596   0.08372   0.21987   0.50060
  33   35558.0    281.2   0.028598774   0.26478  -0.10146  -0.49899  -0.07414
  34   35938.8    278.3   0.134900156   1.23573   0.00210  -1.07469  -0.28420
  35   36041.9    277.5   0.071422049   0.65238  -0.21229  -0.66797  -0.40141
  36   36990.2    270.3   0.001373128   0.01222  -0.00160   0.09764   0.05181
  37   37076.0    269.7   0.034449647   0.30589   0.12454   0.38434   0.37771
  38   37377.3    267.5   0.106261155   0.93593  -0.38311  -0.73674   0.49636
  39   37803.1    264.5   0.084577862   0.73655  -0.14095  -0.40906   0.74119
  40   38106.2    262.4   0.164395752   1.42027  -0.38060  -0.33079  -1.07981
  41   38147.8    262.1   0.012265138   0.10585  -0.01324   0.12813  -0.29875
  42   38332.8    260.9   0.072716105   0.62450  -0.26661  -0.58207  -0.46326
  43   38797.7    257.7   0.003782770   0.03210  -0.02501   0.16626   0.06188
  44   38963.0    256.7   0.130894750   1.10598   0.30365   0.35970   0.94042
  45   39054.0    256.1   0.000977464   0.00824  -0.07207  -0.00340   0.05508
  46   39194.1    255.1   0.003247549   0.02728   0.11142  -0.09691  -0.07398
  47   40072.6    249.5   0.019981142   0.16415  -0.18912  -0.28640   0.21531
  48   40166.6    249.0   0.003825787   0.03136  -0.04976   0.00533   0.16986
  49   40302.3    248.1   0.054574924   0.44580  -0.02673  -0.12175   0.65594

FINAL SINGLE POINT ENERGY     -3903.913047388757

DIPOLE MOMENT
-------------
                                X             Y             Z
Electronic contribution:     -5.82959      -4.65966      18.22784
Nuclear contribution   :      5.67923       5.23861     -18.50546
                        -----------------------------------------
Total Dipole Moment    :     -0.15036       0.57896      -0.27761
                        -----------------------------------------
Magnitude (a.u.)       :      0.65944
Magnitude (Debye)      :      1.67617

Rotational constants in cm-1:     0.002469     0.000279     0.000260
Rotational constants in MHz :    74.013019     8.374635     7.780966

                             ****ORCA TERMINATED NORMALLY****
TOTAL RUN TIME: 0 days 0 hours 9 minutes 7 seconds 395 msec
