                         Program Version 4.2.0 -  RELEASE  -
|  1> # ORCA input file
|  2> # SCF done       -200.925468862718          0.000508835939
|  3> ! CAM-B3LYP def2-SVP def2/J RIJCOSX Grid4 TightSCF
|  4> %maxcore 5000
|  5> %tddft
|  6>     Mode sTDDFT
|  7>     Ethresh 5.0
|  8>     maxcore 5000
|  9> end
| 10>
| 11> %pal
| 12>   nprocs 6
| 13>   end
| 14> * xyz 0 1
| 15>    C      -10.56148         2.45413        -1.85351
| 16>    N      -10.34444         3.64681        -2.46940
| 17>    C      -11.22789         4.28282        -3.41388
| 18>    C      -11.15546         3.61961        -4.78685
| 19>    C       -9.08737         4.18959        -2.11683
| 20>    O       -8.67925         5.25108        -2.54565
| 21>    C       -8.53317         3.21948        -1.20338
| 22>    C       -9.48528         2.15517        -1.06837
| 23>    C       -8.93475         1.17838        -0.15113
| 24>    O       -9.35300         0.12230         0.26767
| 25>    N       -7.68180         1.71692         0.20612
| 26>    C       -6.82808         1.04816         1.15729
| 27>    C       -6.91113         1.68355         2.54319
| 28>    C       -7.43873         2.92559        -0.40761
| 29>    C       -6.23791         3.67034        -0.21207
| 30>    C       -5.99422         4.85255        -0.80973
| 31>    C       -4.76037         5.57902        -0.59254
| 32>    N       -3.87666         5.09540         0.28956
| 33>    C       -2.76498         5.78440         0.46098
| 34>    C       -2.48734         6.95200        -0.23338
| 35>    C       -3.46270         7.38164        -1.14367
| 36>    N       -4.59173         6.68895        -1.29992
| 37>    C       -3.36095         8.55539        -1.98686
| 38>    C       -2.27118         9.34355        -2.07517
| 39>    C       -2.03163        10.47474        -2.90700
| 40>    N       -2.87629        11.16544        -3.74400
| 41>    C       -4.28131        10.94883        -3.99612
| 42>    C       -4.50903         9.89593        -5.07853
| 43>    C       -2.20023        12.19731        -4.42484
| 44>    O       -2.74559        12.94161        -5.21896
| 45>    C       -0.83943        12.12660        -3.94657
| 46>    C       -0.77824        11.07270        -3.00884
| 47>    C        0.58043        10.98019        -2.51467
| 48>    O        1.09624        10.24648        -1.69863
| 49>    N        1.26236        12.00021        -3.20243
| 50>    C        2.67783        12.21697        -3.01406
| 51>    C        3.50795        11.54884        -4.10640
| 52>    C        0.43879        12.68190        -4.06739
| 53>    C        0.87809        13.71530        -4.92199
| 54>    C        0.02568        14.37547        -5.75955
| 55>    C        0.48101        15.35116        -6.66989
| 56>    N       -0.34062        16.04159        -7.52943
| 57>    C       -1.77448        15.90768        -7.64259
| 58>    C       -2.17343        14.67729        -8.45226
| 59>    C        0.38046        16.91900        -8.35777
| 60>    O       -0.12164        17.64605        -9.18940
| 61>    C        1.75769        16.73099        -7.95090
| 62>    C        1.79274        15.78314        -6.91178
| 63>    C        3.17370        15.64569        -6.50174
| 64>    O        3.70120        14.95642        -5.64880
| 65>    N        3.88487        16.53509        -7.32709
| 66>    C        5.31214        16.67986        -7.17742
| 67>    C        6.07837        15.85253        -8.20719
| 68>    C        3.05270        17.18434        -8.20822
| 69>    C        3.30996        18.16655        -9.18848
| 70>    C        4.46891        18.74552        -9.60788
| 71>    C        4.49783        19.74692       -10.60944
| 72>    C        3.51225        20.59884       -11.01864
| 73>    C        3.65808        21.24100       -12.36404
| 74>    O        4.65407        21.25139       -13.04784
| 75>    C        2.32810        21.78549       -12.65769
| 76>    C        1.69809        22.39080       -13.70311
| 77>    S        0.03502        22.74379       -13.29466
| 78>    C        0.21614        22.07994       -11.71087
| 79>    C        1.47653        21.61097       -11.51761
| 80>    C        2.23804        20.99279       -10.44658
| 81>    C        1.85807        21.02119        -9.12922
| 82>    C        0.60918        21.54129        -8.73144
| 83>    N       -0.39840        21.96603        -8.38451
| 84>    C        2.66366        20.61819        -8.04972
| 85>    N        3.29517        20.32951        -7.13498
| 86>   Cl        2.33582        22.78885       -15.22141
| 87>    H      -11.47264         1.90735        -2.01263
| 88>    H      -10.90465         5.32481        -3.48607
| 89>    H      -12.25097         4.24920        -3.02760
| 90>    H      -10.14057         3.67209        -5.17317
| 91>    H      -11.81901         4.13008        -5.47919
| 92>    H      -11.45104         2.57455        -4.72518
| 93>    H       -5.79783         1.04901         0.79051
| 94>    H       -7.18530         0.01536         1.20581
| 95>    H       -6.59120         2.72270         2.51615
| 96>    H       -6.27501         1.13902         3.23554
| 97>    H       -7.93477         1.64481         2.90770
| 98>    H       -5.48213         3.26454         0.44496
| 99>    H       -6.70137         5.31151        -1.48534
|100>    H       -2.06740         5.38000         1.18428
|101>    H       -1.56902         7.49043        -0.07349
|102>    H       -4.24693         8.71455        -2.58000
|103>    H       -1.39865         9.10512        -1.47944
|104>    H       -4.67712        11.90850        -4.34296
|105>    H       -4.77966        10.68139        -3.06253
|106>    H       -4.09166        10.24229        -6.02094
|107>    H       -5.57426         9.72852        -5.21007
|108>    H       -4.03539         8.95243        -4.81743
|109>    H        2.92379        11.77628        -2.04384
|110>    H        2.88272        13.28944        -2.98362
|111>    H        3.29745        10.48234        -4.13823
|112>    H        4.56378        11.69135        -3.89614
|113>    H        3.28973        11.98285        -5.07871
|114>    H        1.92787        13.97207        -4.92066
|115>    H       -1.02784        14.13582        -5.74548
|116>    H       -2.12069        16.81214        -8.15061
|117>    H       -2.21745        15.86568        -6.64489
|118>    H       -1.70703        14.70639        -9.43430
|119>    H       -3.25203        14.66228        -8.57775
|120>    H       -1.87475        13.76419        -7.94420
|121>    H        5.54889        16.31376        -6.17392
|122>    H        5.57104        17.73941        -7.23279
|123>    H        5.86176        14.79645        -8.06524
|124>    H        7.14681        16.00628        -8.08331
|125>    H        5.79749        16.12628        -9.22190
|126>    H        2.39601        18.46896        -9.68687
|127>    H        5.42844        18.40484        -9.25170
|128>    H        5.41354        19.82092       -11.18940
|129>    H       -0.62287        22.06997       -11.04407
|130> *
|131>
|132>                          ****END OF INPUT****

CARTESIAN COORDINATES (ANGSTROEM)
---------------------------------
  C    -10.561480    2.454130   -1.853510
  N    -10.344440    3.646810   -2.469400
  C    -11.227890    4.282820   -3.413880
  C    -11.155460    3.619610   -4.786850
  C     -9.087370    4.189590   -2.116830
  O     -8.679250    5.251080   -2.545650
  C     -8.533170    3.219480   -1.203380
  C     -9.485280    2.155170   -1.068370
  C     -8.934750    1.178380   -0.151130
  O     -9.353000    0.122300    0.267670
  N     -7.681800    1.716920    0.206120
  C     -6.828080    1.048160    1.157290
  C     -6.911130    1.683550    2.543190
  C     -7.438730    2.925590   -0.407610
  C     -6.237910    3.670340   -0.212070
  C     -5.994220    4.852550   -0.809730
  C     -4.760370    5.579020   -0.592540
  N     -3.876660    5.095400    0.289560
  C     -2.764980    5.784400    0.460980
  C     -2.487340    6.952000   -0.233380
  C     -3.462700    7.381640   -1.143670
  N     -4.591730    6.688950   -1.299920
  C     -3.360950    8.555390   -1.986860
  C     -2.271180    9.343550   -2.075170
  C     -2.031630   10.474740   -2.907000
  N     -2.876290   11.165440   -3.744000
  C     -4.281310   10.948830   -3.996120
  C     -4.509030    9.895930   -5.078530
  C     -2.200230   12.197310   -4.424840
  O     -2.745590   12.941610   -5.218960
  C     -0.839430   12.126600   -3.946570
  C     -0.778240   11.072700   -3.008840
  C      0.580430   10.980190   -2.514670
  O      1.096240   10.246480   -1.698630
  N      1.262360   12.000210   -3.202430
  C      2.677830   12.216970   -3.014060
  C      3.507950   11.548840   -4.106400
  C      0.438790   12.681900   -4.067390
  C      0.878090   13.715300   -4.921990
  C      0.025680   14.375470   -5.759550
  C      0.481010   15.351160   -6.669890
  N     -0.340620   16.041590   -7.529430
  C     -1.774480   15.907680   -7.642590
  C     -2.173430   14.677290   -8.452260
  C      0.380460   16.919000   -8.357770
  O     -0.121640   17.646050   -9.189400
  C      1.757690   16.730990   -7.950900
  C      1.792740   15.783140   -6.911780
  C      3.173700   15.645690   -6.501740
  O      3.701200   14.956420   -5.648800
  N      3.884870   16.535090   -7.327090
  C      5.312140   16.679860   -7.177420
  C      6.078370   15.852530   -8.207190
  C      3.052700   17.184340   -8.208220
  C      3.309960   18.166550   -9.188480
  C      4.468910   18.745520   -9.607880
  C      4.497830   19.746920  -10.609440
  C      3.512250   20.598840  -11.018640
  C      3.658080   21.241000  -12.364040
  O      4.654070   21.251390  -13.047840
  C      2.328100   21.785490  -12.657690
  C      1.698090   22.390800  -13.703110
  S      0.035020   22.743790  -13.294660
  C      0.216140   22.079940  -11.710870
  C      1.476530   21.610970  -11.517610
  C      2.238040   20.992790  -10.446580
  C      1.858070   21.021190   -9.129220
  C      0.609180   21.541290   -8.731440
  N     -0.398400   21.966030   -8.384510
  C      2.663660   20.618190   -8.049720
  N      3.295170   20.329510   -7.134980
  Cl     2.335820   22.788850  -15.221410
  H    -11.472640    1.907350   -2.012630
  H    -10.904650    5.324810   -3.486070
  H    -12.250970    4.249200   -3.027600
  H    -10.140570    3.672090   -5.173170
  H    -11.819010    4.130080   -5.479190
  H    -11.451040    2.574550   -4.725180
  H     -5.797830    1.049010    0.790510
  H     -7.185300    0.015360    1.205810
  H     -6.591200    2.722700    2.516150
  H     -6.275010    1.139020    3.235540
  H     -7.934770    1.644810    2.907700
  H     -5.482130    3.264540    0.444960
  H     -6.701370    5.311510   -1.485340
  H     -2.067400    5.380000    1.184280
  H     -1.569020    7.490430   -0.073490
  H     -4.246930    8.714550   -2.580000
  H     -1.398650    9.105120   -1.479440
  H     -4.677120   11.908500   -4.342960
  H     -4.779660   10.681390   -3.062530
  H     -4.091660   10.242290   -6.020940
  H     -5.574260    9.728520   -5.210070
  H     -4.035390    8.952430   -4.817430
  H      2.923790   11.776280   -2.043840
  H      2.882720   13.289440   -2.983620
  H      3.297450   10.482340   -4.138230
  H      4.563780   11.691350   -3.896140
  H      3.289730   11.982850   -5.078710
  H      1.927870   13.972070   -4.920660
  H     -1.027840   14.135820   -5.745480
  H     -2.120690   16.812140   -8.150610
  H     -2.217450   15.865680   -6.644890
  H     -1.707030   14.706390   -9.434300
  H     -3.252030   14.662280   -8.577750
  H     -1.874750   13.764190   -7.944200
  H      5.548890   16.313760   -6.173920
  H      5.571040   17.739410   -7.232790
  H      5.861760   14.796450   -8.065240
  H      7.146810   16.006280   -8.083310
  H      5.797490   16.126280   -9.221900
  H      2.396010   18.468960   -9.686870
  H      5.428440   18.404840   -9.251700
  H      5.413540   19.820920  -11.189400
  H     -0.622870   22.069970  -11.044070

 Total Charge           Charge          ....    0
 Multiplicity           Mult            ....    1
 Number of Electrons    NEL             ....  520
 Basis Dimension        Dim             .... 1231

ORBITAL ENERGIES
----------------

  NO   OCC          E(Eh)            E(eV)
   0   2.0000    -101.613000     -2765.0303
   1   2.0000     -88.987659     -2421.4773
   2   2.0000     -19.214757      -522.8601
   3   2.0000     -19.204387      -522.5779
   4   2.0000     -19.202785      -522.5343
   5   2.0000     -19.200728      -522.4784
   6   2.0000     -19.196277      -522.3572
   7   2.0000     -19.185740      -522.0705
   8   2.0000     -19.180836      -521.9371
   9   2.0000     -14.463439      -393.5702
  10   2.0000     -14.461892      -393.5281
  11   2.0000     -14.461125      -393.5072
  12   2.0000     -14.458583      -393.4380
  13   2.0000     -14.448990      -393.1770
  14   2.0000     -14.445471      -393.0812
  15   2.0000     -14.418101      -392.3365
  16   2.0000     -14.413811      -392.2197
  17   2.0000     -14.413519      -392.2118
  18   2.0000     -14.412730      -392.1903
  19   2.0000     -10.384961      -282.5892
  20   2.0000     -10.384944      -282.5887
  21   2.0000     -10.383232      -282.5421
  22   2.0000     -10.380389      -282.4647
  23   2.0000     -10.371183      -282.2142
  24   2.0000     -10.371078      -282.2114
  25   2.0000     -10.367827      -282.1229
  26   2.0000     -10.367030      -282.1012
  27   2.0000     -10.352494      -281.7057
  28   2.0000     -10.348332      -281.5924
  29   2.0000     -10.347635      -281.5735
  30   2.0000     -10.344870      -281.4982
  31   2.0000     -10.344555      -281.4897
  32   2.0000     -10.343909      -281.4721
  33   2.0000     -10.342407      -281.4312
  34   2.0000     -10.335156      -281.2339
  35   2.0000     -10.334774      -281.2235
  36   2.0000     -10.325848      -280.9806
  37   2.0000     -10.325645      -280.9751
  38   2.0000     -10.323209      -280.9088
  39   2.0000     -10.319363      -280.8042
  40   2.0000     -10.315933      -280.7108
  41   2.0000     -10.315782      -280.7067
  42   2.0000     -10.312387      -280.6143
  43   2.0000     -10.310812      -280.5715
  44   2.0000     -10.309929      -280.5474
  45   2.0000     -10.307249      -280.4745
  46   2.0000     -10.307182      -280.4727
  47   2.0000     -10.306072      -280.4425
  48   2.0000     -10.306064      -280.4423
  49   2.0000     -10.303573      -280.3745
  50   2.0000     -10.303514      -280.3729
  51   2.0000     -10.302343      -280.3410
  52   2.0000     -10.301602      -280.3209
  53   2.0000     -10.301258      -280.3115
  54   2.0000     -10.301061      -280.3061
  55   2.0000     -10.297042      -280.1968
  56   2.0000     -10.295124      -280.1446
  57   2.0000     -10.291654      -280.0501
  58   2.0000     -10.284683      -279.8605
  59   2.0000     -10.278162      -279.6830
  60   2.0000     -10.275705      -279.6162
  61   2.0000     -10.272499      -279.5289
  62   2.0000     -10.272436      -279.5272
  63   2.0000     -10.270785      -279.4823
  64   2.0000     -10.267869      -279.4029
  65   2.0000     -10.265008      -279.3251
  66   2.0000     -10.262724      -279.2629
  67   2.0000     -10.259016      -279.1620
  68   2.0000     -10.258249      -279.1411
  69   2.0000     -10.257945      -279.1329
  70   2.0000     -10.254582      -279.0414
  71   2.0000     -10.254213      -279.0313
  72   2.0000      -9.567783      -260.3526
  73   2.0000      -8.083395      -219.9604
  74   2.0000      -7.338383      -199.6876
  75   2.0000      -7.327842      -199.4007
  76   2.0000      -7.327313      -199.3863
  77   2.0000      -6.052788      -164.7047
  78   2.0000      -6.048207      -164.5801
  79   2.0000      -6.045598      -164.5091
  80   2.0000      -1.142872       -31.0991
  81   2.0000      -1.142625       -31.0924
  82   2.0000      -1.135931       -30.9103
  83   2.0000      -1.133995       -30.8576
  84   2.0000      -1.131474       -30.7890
  85   2.0000      -1.126492       -30.6534
  86   2.0000      -1.119572       -30.4651
  87   2.0000      -1.086579       -29.5673
  88   2.0000      -1.072855       -29.1939
  89   2.0000      -1.071486       -29.1566
  90   2.0000      -1.063387       -28.9362
  91   2.0000      -1.061950       -28.8971
  92   2.0000      -1.057163       -28.7669
  93   2.0000      -1.048373       -28.5277
  94   2.0000      -1.032981       -28.1088
  95   2.0000      -1.013069       -27.5670
  96   2.0000      -0.994145       -27.0521
  97   2.0000      -0.985975       -26.8298
  98   2.0000      -0.983559       -26.7640
  99   2.0000      -0.951551       -25.8930
 100   2.0000      -0.937888       -25.5212
 101   2.0000      -0.935621       -25.4595
 102   2.0000      -0.926748       -25.2181
 103   2.0000      -0.925688       -25.1893
 104   2.0000      -0.921349       -25.0712
 105   2.0000      -0.919822       -25.0296
 106   2.0000      -0.901710       -24.5368
 107   2.0000      -0.901019       -24.5180
 108   2.0000      -0.881315       -23.9818
 109   2.0000      -0.877289       -23.8723
 110   2.0000      -0.871809       -23.7231
 111   2.0000      -0.864021       -23.5112
 112   2.0000      -0.862813       -23.4783
 113   2.0000      -0.842050       -22.9133
 114   2.0000      -0.827629       -22.5209
 115   2.0000      -0.824452       -22.4345
 116   2.0000      -0.823023       -22.3956
 117   2.0000      -0.815740       -22.1974
 118   2.0000      -0.815354       -22.1869
 119   2.0000      -0.810946       -22.0670
 120   2.0000      -0.806606       -21.9489
 121   2.0000      -0.783290       -21.3144
 122   2.0000      -0.771803       -21.0018
 123   2.0000      -0.764448       -20.8017
 124   2.0000      -0.762863       -20.7586
 125   2.0000      -0.759006       -20.6536
 126   2.0000      -0.756393       -20.5825
 127   2.0000      -0.745586       -20.2884
 128   2.0000      -0.741266       -20.1709
 129   2.0000      -0.731990       -19.9185
 130   2.0000      -0.716149       -19.4874
 131   2.0000      -0.712973       -19.4010
 132   2.0000      -0.710410       -19.3312
 133   2.0000      -0.707109       -19.2414
 134   2.0000      -0.704997       -19.1839
 135   2.0000      -0.698422       -19.0050
 136   2.0000      -0.692710       -18.8496
 137   2.0000      -0.685017       -18.6403
 138   2.0000      -0.679714       -18.4960
 139   2.0000      -0.670433       -18.2434
 140   2.0000      -0.666126       -18.1262
 141   2.0000      -0.655827       -17.8460
 142   2.0000      -0.653831       -17.7916
 143   2.0000      -0.648321       -17.6417
 144   2.0000      -0.643337       -17.5061
 145   2.0000      -0.637004       -17.3338
 146   2.0000      -0.628303       -17.0970
 147   2.0000      -0.619570       -16.8594
 148   2.0000      -0.615109       -16.7380
 149   2.0000      -0.608329       -16.5535
 150   2.0000      -0.602810       -16.4033
 151   2.0000      -0.599374       -16.3098
 152   2.0000      -0.597340       -16.2545
 153   2.0000      -0.593920       -16.1614
 154   2.0000      -0.590094       -16.0573
 155   2.0000      -0.584621       -15.9083
 156   2.0000      -0.583971       -15.8906
 157   2.0000      -0.581468       -15.8226
 158   2.0000      -0.578170       -15.7328
 159   2.0000      -0.570679       -15.5290
 160   2.0000      -0.566427       -15.4133
 161   2.0000      -0.562206       -15.2984
 162   2.0000      -0.559179       -15.2160
 163   2.0000      -0.556869       -15.1532
 164   2.0000      -0.555689       -15.1211
 165   2.0000      -0.555144       -15.1062
 166   2.0000      -0.550523       -14.9805
 167   2.0000      -0.548678       -14.9303
 168   2.0000      -0.544899       -14.8274
 169   2.0000      -0.541378       -14.7316
 170   2.0000      -0.540521       -14.7083
 171   2.0000      -0.536736       -14.6053
 172   2.0000      -0.534370       -14.5410
 173   2.0000      -0.530733       -14.4420
 174   2.0000      -0.529043       -14.3960
 175   2.0000      -0.526726       -14.3330
 176   2.0000      -0.526198       -14.3186
 177   2.0000      -0.524758       -14.2794
 178   2.0000      -0.523291       -14.2395
 179   2.0000      -0.521614       -14.1938
 180   2.0000      -0.520608       -14.1665
 181   2.0000      -0.519219       -14.1287
 182   2.0000      -0.518026       -14.0962
 183   2.0000      -0.516287       -14.0489
 184   2.0000      -0.512972       -13.9587
 185   2.0000      -0.510700       -13.8968
 186   2.0000      -0.508852       -13.8466
 187   2.0000      -0.506553       -13.7840
 188   2.0000      -0.502230       -13.6664
 189   2.0000      -0.501987       -13.6598
 190   2.0000      -0.499898       -13.6029
 191   2.0000      -0.497640       -13.5415
 192   2.0000      -0.494173       -13.4471
 193   2.0000      -0.491234       -13.3671
 194   2.0000      -0.487503       -13.2656
 195   2.0000      -0.483229       -13.1493
 196   2.0000      -0.479797       -13.0559
 197   2.0000      -0.478775       -13.0281
 198   2.0000      -0.477937       -13.0053
 199   2.0000      -0.470193       -12.7946
 200   2.0000      -0.469423       -12.7736
 201   2.0000      -0.469031       -12.7630
 202   2.0000      -0.467770       -12.7287
 203   2.0000      -0.463580       -12.6147
 204   2.0000      -0.462178       -12.5765
 205   2.0000      -0.461056       -12.5460
 206   2.0000      -0.459328       -12.4989
 207   2.0000      -0.458386       -12.4733
 208   2.0000      -0.457256       -12.4426
 209   2.0000      -0.455156       -12.3854
 210   2.0000      -0.453498       -12.3403
 211   2.0000      -0.452936       -12.3250
 212   2.0000      -0.451166       -12.2769
 213   2.0000      -0.450816       -12.2673
 214   2.0000      -0.450029       -12.2459
 215   2.0000      -0.448948       -12.2165
 216   2.0000      -0.448717       -12.2102
 217   2.0000      -0.445890       -12.1333
 218   2.0000      -0.444208       -12.0875
 219   2.0000      -0.441123       -12.0036
 220   2.0000      -0.438616       -11.9354
 221   2.0000      -0.437384       -11.9018
 222   2.0000      -0.431973       -11.7546
 223   2.0000      -0.431377       -11.7384
 224   2.0000      -0.430908       -11.7256
 225   2.0000      -0.429266       -11.6809
 226   2.0000      -0.429076       -11.6757
 227   2.0000      -0.428086       -11.6488
 228   2.0000      -0.424640       -11.5550
 229   2.0000      -0.421771       -11.4770
 230   2.0000      -0.419331       -11.4106
 231   2.0000      -0.416068       -11.3218
 232   2.0000      -0.414246       -11.2722
 233   2.0000      -0.410308       -11.1651
 234   2.0000      -0.406389       -11.0584
 235   2.0000      -0.400554       -10.8996
 236   2.0000      -0.398930       -10.8554
 237   2.0000      -0.386666       -10.5217
 238   2.0000      -0.383349       -10.4315
 239   2.0000      -0.378883       -10.3099
 240   2.0000      -0.359900        -9.7934
 241   2.0000      -0.356796        -9.7089
 242   2.0000      -0.353633        -9.6229
 243   2.0000      -0.344878        -9.3846
 244   2.0000      -0.342617        -9.3231
 245   2.0000      -0.340714        -9.2713
 246   2.0000      -0.339733        -9.2446
 247   2.0000      -0.339227        -9.2308
 248   2.0000      -0.332022        -9.0348
 249   2.0000      -0.328964        -8.9516
 250   2.0000      -0.324483        -8.8296
 251   2.0000      -0.324007        -8.8167
 252   2.0000      -0.322945        -8.7878
 253   2.0000      -0.321345        -8.7442
 254   2.0000      -0.318858        -8.6766
 255   2.0000      -0.308101        -8.3839
 256   2.0000      -0.304772        -8.2933
 257   2.0000      -0.266136        -7.2419
 258   2.0000      -0.245959        -6.6929
 259   2.0000      -0.238165        -6.4808
 260   0.0000      -0.121955        -3.3186
 261   0.0000      -0.087854        -2.3906
 262   0.0000      -0.069681        -1.8961
 263   0.0000      -0.056725        -1.5436
 264   0.0000      -0.041831        -1.1383

MULLIKEN ATOMIC CHARGES
-----------------------
   0 C :    0.038880
   1 N :   -0.259969
   2 C :    0.114540
   3 C :   -0.002365
   4 C :    0.167518
   5 O :   -0.203345
   6 C :   -0.099886
   7 C :    0.001662
   8 C :    0.161729
   9 O :   -0.185546
  10 N :   -0.269749
  11 C :    0.100826
  12 C :    0.003356
  13 C :    0.167254
  14 C :    0.000604
  15 C :    0.046036
  16 C :   -0.079644
  17 N :   -0.072353
  18 C :    0.078306
  19 C :   -0.052836
  20 C :    0.026022
  21 N :   -0.031965
  22 C :    0.038736
  23 C :    0.003076
  24 C :    0.110202
  25 N :   -0.261607
  26 C :    0.101526
  27 C :    0.002629
  28 C :    0.164984
  29 O :   -0.215506
  30 C :   -0.055131
  31 C :   -0.047651
  32 C :    0.155371
  33 O :   -0.192901
  34 N :   -0.261064
  35 C :    0.098112
  36 C :    0.011543
  37 C :    0.144604
  38 C :   -0.008890
  39 C :   -0.019322
  40 C :    0.151340
  41 N :   -0.260457
  42 C :    0.098163
  43 C :    0.010923
  44 C :    0.156697
  45 O :   -0.186300
  46 C :   -0.033856
  47 C :   -0.058163
  48 C :    0.167022
  49 O :   -0.218816
  50 N :   -0.257754
  51 C :    0.103449
  52 C :   -0.002190
  53 C :    0.112282
  54 C :   -0.024755
  55 C :    0.023716
  56 C :    0.036934
  57 C :   -0.132525
  58 C :    0.127514
  59 O :   -0.133267
  60 C :    0.098780
  61 C :   -0.175720
  62 S :    0.181040
  63 C :   -0.124435
  64 C :    0.004656
  65 C :    0.276334
  66 C :   -0.324185
  67 C :   -0.173867
  68 N :    0.155328
  69 C :   -0.192846
  70 N :    0.167631
  71 Cl:   -0.003616
  72 H :    0.014318
  73 H :    0.040838
  74 H :    0.016822
  75 H :    0.030645
  76 H :    0.022467
  77 H :    0.014174
  78 H :    0.024085
  79 H :    0.041522
  80 H :    0.018280
  81 H :    0.021541
  82 H :    0.027362
  83 H :   -0.005794
  84 H :    0.014432
  85 H :    0.009298
  86 H :    0.011036
  87 H :   -0.006479
  88 H :    0.007676
  89 H :    0.039330
  90 H :    0.030955
  91 H :    0.025814
  92 H :    0.030458
  93 H :    0.024325
  94 H :    0.038223
  95 H :    0.039110
  96 H :    0.021971
  97 H :    0.025749
  98 H :    0.019315
  99 H :    0.000702
 100 H :   -0.000874
 101 H :    0.042247
 102 H :    0.039376
 103 H :    0.019558
 104 H :    0.026633
 105 H :    0.021271
 106 H :    0.040835
 107 H :    0.038099
 108 H :    0.028144
 109 H :    0.025688
 110 H :    0.018468
 111 H :    0.031226
 112 H :   -0.001108
 113 H :    0.028805
 114 H :    0.056620
Sum of atomic charges:   -0.0000000

LOEWDIN ATOMIC CHARGES
----------------------
   0 C :    0.090589
   1 N :   -0.001525
   2 C :    0.038189
   3 C :   -0.060795
   4 C :    0.078031
   5 O :   -0.198325
   6 C :   -0.127072
   7 C :   -0.128641
   8 C :    0.080781
   9 O :   -0.191626
  10 N :   -0.007681
  11 C :    0.035668
  12 C :   -0.061178
  13 C :    0.083544
  14 C :   -0.020326
  15 C :    0.017450
  16 C :    0.024599
  17 N :   -0.087091
  18 C :    0.050427
  19 C :   -0.053158
  20 C :    0.030458
  21 N :   -0.078938
  22 C :   -0.006817
  23 C :   -0.013986
  24 C :    0.072750
  25 N :    0.002676
  26 C :    0.036615
  27 C :   -0.061453
  28 C :    0.084214
  29 O :   -0.201450
  30 C :   -0.114840
  31 C :   -0.108943
  32 C :    0.079633
  33 O :   -0.194587
  34 N :    0.002026
  35 C :    0.038039
  36 C :   -0.058252
  37 C :    0.075858
  38 C :    0.008384
  39 C :   -0.003946
  40 C :    0.087445
  41 N :    0.003633
  42 C :    0.038817
  43 C :   -0.058475
  44 C :    0.083260
  45 O :   -0.186041
  46 C :   -0.089450
  47 C :   -0.119278
  48 C :    0.083601
  49 O :   -0.205961
  50 N :    0.005927
  51 C :    0.037882
  52 C :   -0.063410
  53 C :    0.061129
  54 C :    0.017827
  55 C :   -0.030041
  56 C :    0.061282
  57 C :   -0.082524
  58 C :    0.080071
  59 O :   -0.136614
  60 C :   -0.118081
  61 C :   -0.273139
  62 S :    0.470627
  63 C :   -0.149357
  64 C :   -0.055286
  65 C :    0.065254
  66 C :   -0.134035
  67 C :   -0.013810
  68 N :   -0.051445
  69 C :   -0.012769
  70 N :   -0.048093
  71 Cl:    0.188838
  72 H :    0.032372
  73 H :    0.035763
  74 H :    0.024029
  75 H :    0.031628
  76 H :    0.029672
  77 H :    0.022232
  78 H :    0.023651
  79 H :    0.036835
  80 H :    0.023373
  81 H :    0.030014
  82 H :    0.031205
  83 H :    0.032112
  84 H :    0.040117
  85 H :    0.027993
  86 H :    0.037641
  87 H :    0.036605
  88 H :    0.045256
  89 H :    0.036615
  90 H :    0.026089
  91 H :    0.031244
  92 H :    0.034130
  93 H :    0.023807
  94 H :    0.036309
  95 H :    0.030457
  96 H :    0.028068
  97 H :    0.033112
  98 H :    0.023805
  99 H :    0.037947
 100 H :    0.037203
 101 H :    0.037706
 102 H :    0.030901
 103 H :    0.027475
 104 H :    0.033604
 105 H :    0.024109
 106 H :    0.037625
 107 H :    0.027688
 108 H :    0.032262
 109 H :    0.031572
 110 H :    0.021007
 111 H :    0.049083
 112 H :    0.034222
 113 H :    0.047732
 114 H :    0.038644

  Mayer bond orders larger than 0.100000
B(  0-C ,  1-N ) :   1.1888 B(  0-C ,  7-C ) :   1.4617 B(  0-C , 72-H ) :   0.9898
B(  1-N ,  2-C ) :   0.9444 B(  1-N ,  4-C ) :   1.0498 B(  2-C ,  3-C ) :   1.1188
B(  2-C , 73-H ) :   0.9342 B(  2-C , 74-H ) :   0.9538 B(  3-C , 75-H ) :   0.9673
B(  3-C , 76-H ) :   0.9687 B(  3-C , 77-H ) :   0.9694 B(  4-C ,  5-O ) :   2.0496
B(  4-C ,  6-C ) :   0.9956 B(  6-C ,  7-C ) :   1.1977 B(  6-C , 13-C ) :   1.4023
B(  7-C ,  8-C ) :   0.9486 B(  8-C ,  9-O ) :   2.1769 B(  8-C , 10-N ) :   1.0200
B( 10-N , 11-C ) :   0.9474 B( 10-N , 13-C ) :   1.1592 B( 11-C , 12-C ) :   1.1213
B( 11-C , 78-H ) :   0.9499 B( 11-C , 79-H ) :   0.9279 B( 12-C , 80-H ) :   0.9689
B( 12-C , 81-H ) :   0.9674 B( 12-C , 82-H ) :   0.9637 B( 13-C , 14-C ) :   1.1012
B( 14-C , 15-C ) :   1.6558 B( 14-C , 83-H ) :   0.9614 B( 15-C , 16-C ) :   1.0182
B( 15-C , 84-H ) :   0.9564 B( 16-C , 17-N ) :   1.5160 B( 16-C , 21-N ) :   1.5547
B( 17-N , 18-C ) :   1.5530 B( 18-C , 19-C ) :   1.3750 B( 18-C , 85-H ) :   0.9792
B( 19-C , 20-C ) :   1.3556 B( 19-C , 86-H ) :   0.9679 B( 20-C , 21-N ) :   1.5142
B( 20-C , 22-C ) :   1.0445 B( 22-C , 23-C ) :   1.5965 B( 22-C , 87-H ) :   0.9826
B( 23-C , 24-C ) :   1.1720 B( 23-C , 88-H ) :   0.9406 B( 24-C , 25-N ) :   1.1706
B( 24-C , 31-C ) :   1.3463 B( 25-N , 26-C ) :   0.9372 B( 25-N , 28-C ) :   1.0680
B( 26-C , 27-C ) :   1.1187 B( 26-C , 89-H ) :   0.9272 B( 26-C , 90-H ) :   0.9513
B( 27-C , 91-H ) :   0.9613 B( 27-C , 92-H ) :   0.9685 B( 27-C , 93-H ) :   0.9679
B( 28-C , 29-O ) :   2.0059 B( 28-C , 30-C ) :   0.9899 B( 29-O ,100-H ) :   0.1037
B( 30-C , 31-C ) :   1.2553 B( 30-C , 37-C ) :   1.3081 B( 31-C , 32-C ) :   0.9691
B( 32-C , 33-O ) :   2.1291 B( 32-C , 34-N ) :   1.0437 B( 34-N , 35-C ) :   0.9356
B( 34-N , 37-C ) :   1.1710 B( 35-C , 36-C ) :   1.1252 B( 35-C , 94-H ) :   0.9286
B( 35-C , 95-H ) :   0.9482 B( 36-C , 96-H ) :   0.9635 B( 36-C , 97-H ) :   0.9672
B( 36-C , 98-H ) :   0.9664 B( 37-C , 38-C ) :   1.1614 B( 38-C , 39-C ) :   1.5201
B( 38-C , 99-H ) :   0.9483 B( 39-C , 40-C ) :   1.1673 B( 39-C ,100-H ) :   0.9500
B( 40-C , 41-N ) :   1.1774 B( 40-C , 47-C ) :   1.2850 B( 41-N , 42-C ) :   0.9323
B( 41-N , 44-C ) :   1.0448 B( 42-C , 43-C ) :   1.1266 B( 42-C ,101-H ) :   0.9291
B( 42-C ,102-H ) :   0.9478 B( 43-C ,103-H ) :   0.9630 B( 43-C ,104-H ) :   0.9669
B( 43-C ,105-H ) :   0.9659 B( 44-C , 45-O ) :   2.1247 B( 44-C , 46-C ) :   0.9617
B( 46-C , 47-C ) :   1.2762 B( 46-C , 53-C ) :   1.3348 B( 47-C , 48-C ) :   0.9907
B( 48-C , 49-O ) :   2.0058 B( 48-C , 50-N ) :   1.0751 B( 49-O , 99-H ) :   0.1067
B( 50-N , 51-C ) :   0.9401 B( 50-N , 53-C ) :   1.1614 B( 51-C , 52-C ) :   1.1134
B( 51-C ,106-H ) :   0.9272 B( 51-C ,107-H ) :   0.9502 B( 52-C ,108-H ) :   0.9620
B( 52-C ,109-H ) :   0.9695 B( 52-C ,110-H ) :   0.9682 B( 53-C , 54-C ) :   1.2339
B( 54-C , 55-C ) :   1.5377 B( 54-C ,111-H ) :   0.9306 B( 55-C , 56-C ) :   1.1661
B( 55-C ,112-H ) :   0.9675 B( 56-C , 57-C ) :   1.6573 B( 56-C ,113-H ) :   0.9269
B( 57-C , 58-C ) :   0.9464 B( 57-C , 65-C ) :   1.0405 B( 58-C , 59-O ) :   2.2691
B( 58-C , 60-C ) :   0.9247 B( 60-C , 61-C ) :   1.4839 B( 60-C , 64-C ) :   1.2211
B( 61-C , 62-S ) :   1.1497 B( 61-C , 71-Cl) :   1.1255 B( 62-S , 63-C ) :   1.1553
B( 63-C , 64-C ) :   1.5608 B( 63-C ,114-H ) :   0.9546 B( 64-C , 65-C ) :   1.0073
B( 65-C , 66-C ) :   1.6566 B( 66-C , 67-C ) :   1.1307 B( 66-C , 69-C ) :   1.1763
B( 67-C , 68-N ) :   2.9992 B( 69-C , 70-N ) :   2.9750

-----------------------------------------------------------------------------
         ABSORPTION SPECTRUM VIA TRANSITION ELECTRIC DIPOLE MOMENTS
-----------------------------------------------------------------------------
State   Energy  Wavelength   fosc         T2         TX        TY        TZ
        (cm-1)    (nm)                  (au**2)     (au)      (au)      (au)
-----------------------------------------------------------------------------
   0   10529.2    949.7   0.937799042  29.32172   2.71376   3.94431  -2.52976
   1   16049.1    623.1   0.066265082   1.35928  -1.01179  -0.49475   0.30131
   2   18096.4    552.6   0.095975908   1.74600   1.29412   0.17393  -0.20252
   3   18735.8    533.7   0.020308558   0.35685  -0.52225  -0.06441  -0.28276
   4   21670.3    461.5   0.269688778   4.09708   1.79512   0.25138   0.90079
   5   23327.0    428.7   0.005392332   0.07610   0.08423  -0.26240  -0.01235
   6   23873.7    418.9   0.007094125   0.09783   0.30811  -0.05031   0.01898
   7   24123.0    414.5   0.061539144   0.83984  -0.27262   0.84732   0.21810
   8   24818.6    402.9   0.009333348   0.12380   0.14166  -0.27990  -0.15935
   9   26116.5    382.9   0.008720877   0.10993   0.29458  -0.12040   0.09307
  10   26258.2    380.8   0.058610398   0.73483   0.65114  -0.39939   0.38902
  11   26467.2    377.8   0.009894074   0.12307  -0.18030   0.21774   0.20773
  12   26939.3    371.2   0.006382558   0.07800  -0.20304   0.01031   0.19148
  13   27193.7    367.7   0.001330360   0.01611   0.05352  -0.11075  -0.03122
  14   27386.0    365.1   0.014415682   0.17329   0.30019  -0.28043   0.06738
  15   27752.4    360.3   0.081836068   0.97078  -0.43598   0.67412  -0.57120
  16   28620.0    349.4   0.268774359   3.09167  -0.26264  -1.38339   1.05305
  17   28758.0    347.7   0.012206976   0.13974  -0.09496   0.25545  -0.25587
  18   29128.4    343.3   0.002534788   0.02865   0.04396  -0.10239  -0.12740
  19   29627.6    337.5   0.008771442   0.09747   0.03009  -0.19263   0.24383
  20   30264.9    330.4   0.001974568   0.02148  -0.07904  -0.11154  -0.05282
  21   30572.8    327.1   0.213598798   2.30006  -0.44105   0.95440  -1.09300
  22   30843.1    324.2   0.044703172   0.47715  -0.01116   0.54188  -0.42824
  23   31158.1    320.9   0.067175616   0.70977   0.51875  -0.51660   0.41687
  24   31615.1    316.3   0.320759620   3.34011  -0.67542  -1.34728   1.03380
  25   32485.4    307.8   0.024382053   0.24709   0.04560   0.38360  -0.31283
  26   32675.8    306.0   0.175203360   1.76519   0.18744   0.96147  -0.89757
  27   33155.3    301.6   0.001232063   0.01223   0.09060  -0.04385  -0.04584
  28   33248.4    300.8   0.005633580   0.05578   0.04258   0.15020  -0.17722
  29   33399.2    299.4   0.178773113   1.76215   0.04277   0.30327  -1.29164
  30   33858.5    295.3   0.081391296   0.79138   0.23097   0.54410  -0.66482
  31   34260.4    291.9   0.001562699   0.01502   0.11338  -0.01073  -0.04523
  32   34420.8    290.5   0.003957594   0.03785   0.16124   0.08351   0.06985
  33   34778.0    287.5   0.115642865   1.09469   0.76467  -0.23075   0.67581
  34   35417.1    282.3   0.038988277   0.36241   0.01657   0.06764   0.59796
  35   35465.8    282.0   0.231287050   2.14693  -1.13751  -0.92282  -0.03735
  36   35814.3    279.2   0.072549213   0.66689   0.79292   0.16440   0.10557
  37   36278.6    275.6   0.009753253   0.08851   0.16907   0.21280  -0.12099
  38   36300.5    275.5   0.020610659   0.18692  -0.17027  -0.31114   0.24722
  39   36439.4    274.4   0.012032618   0.10871  -0.25388  -0.20422   0.05048
  40   36810.3    271.7   0.188046010   1.68178   0.61532   1.12474  -0.19522
  41   37161.6    269.1   0.016086994   0.14251   0.05770   0.25045  -0.27651
  42   37303.9    268.1   0.348026843   3.07138  -0.01829  -1.11456   1.35233
  43   37884.1    264.0   0.104382648   0.90708   0.49569   0.81323  -0.00567
  44   38084.4    262.6   0.097601375   0.84369   0.24899   0.86194  -0.19689
  45   38499.1    259.7   0.398336419   3.40624   0.79234   1.47149  -0.78304
  46   38842.1    257.5   0.003558778   0.03016   0.07620  -0.05594   0.14569
  47   38898.6    257.1   0.285792714   2.41876  -0.75577   0.24691  -1.33664
  48   39714.0    251.8   0.003245945   0.02691  -0.06167   0.05164   0.14296
  49   39940.8    250.4   0.116708090   0.96197   0.08825   0.10847  -0.97078
  50   40165.1    249.0   0.002569229   0.02106   0.00578  -0.10905   0.09556
  51   40295.9    248.2   0.022922588   0.18727   0.18770  -0.29506   0.25492

FINAL SINGLE POINT ENERGY     -3973.859129035029

DIPOLE MOMENT
-------------
                                X             Y             Z
Electronic contribution:     38.61680     112.94097     -64.95001
Nuclear contribution   :    -38.62888    -113.78957      64.28066
                        -----------------------------------------
Total Dipole Moment    :     -0.01207      -0.84860      -0.66935
                        -----------------------------------------
Magnitude (a.u.)       :      1.08088
Magnitude (Debye)      :      2.74737

Rotational constants in cm-1:     0.002043     0.000203     0.000189
Rotational constants in MHz :    61.262341     6.076332     5.655449

                             ****ORCA TERMINATED NORMALLY****
TOTAL RUN TIME: 0 days 0 hours 11 minutes 35 seconds 191 msec
