                         Program Version 4.2.0 -  RELEASE  -
|  1> # ORCA input file
|  2> # SCF done       -181.369695576619          0.000628275556
|  3> ! CAM-B3LYP def2-SVP def2/J RIJCOSX Grid4 TightSCF
|  4> %maxcore 5000
|  5> %tddft
|  6>     Mode sTDDFT
|  7>     Ethresh 5.0
|  8>     maxcore 5000
|  9> end
| 10>
| 11> %pal
| 12>   nprocs 6
| 13>   end
| 14> * xyz 0 1
| 15>    C        4.06612         2.34354        -2.20604
| 16>    N        4.28018         3.64307        -1.86599
| 17>    C        5.56173         4.29873        -1.80156
| 18>    C        6.09008         4.64039        -3.19242
| 19>    C        3.06055         4.32603        -1.63727
| 20>    O        2.99654         5.49790        -1.32256
| 21>    C        2.05834         3.31585        -1.86098
| 22>    C        2.72173         2.09866        -2.21260
| 23>    C        1.69994         1.09521        -2.41661
| 24>    O        1.75384        -0.07354        -2.72804
| 25>    N        0.48290         1.77073        -2.15619
| 26>    C       -0.76361         1.07032        -2.34811
| 27>    C       -1.47329         1.50213        -3.62925
| 28>    C        0.69150         3.09344        -1.82727
| 29>    C       -0.23375         4.12037        -1.47506
| 30>    C       -1.56519         4.05402        -1.26649
| 31>    C       -2.40078         5.16532        -0.88078
| 32>    C       -3.73543         4.92087        -0.56174
| 33>    C       -4.59079         5.94210        -0.17909
| 34>    N       -5.95526         5.57018         0.06904
| 35>    O       -6.17192         4.40836         0.35626
| 36>    O       -6.82199         6.41496        -0.03808
| 37>    C       -4.14734         7.27844        -0.08702
| 38>    C       -2.80229         7.50758        -0.42598
| 39>    C       -1.95735         6.49770        -0.81095
| 40>    C       -4.98044         8.34581         0.39471
| 41>    C       -4.82027         9.64685         0.06852
| 42>    C       -5.65013        10.68359         0.57199
| 43>    O       -5.54998        11.93418         0.05791
| 44>    C       -6.43237        12.74524         0.66887
| 45>    C       -7.16677        12.00038         1.60572
| 46>    C       -6.64639        10.68126         1.54271
| 47>    O       -6.98509         9.61480         2.29865
| 48>    C       -8.25605        12.40293         2.50385
| 49>    O       -8.36064        13.45840         3.06448
| 50>    O       -9.17918        11.42683         2.72524
| 51>    C       -6.48359        14.08408         0.20395
| 52>    C       -7.25061        15.07435         0.72539
| 53>    C       -7.30903        16.38719         0.20138
| 54>    S       -8.37606        17.54633         0.99023
| 55>    C       -6.69395        17.00168        -0.87090
| 56>    C       -5.73126        16.65963        -1.93035
| 57>    O       -5.14933        15.62362        -2.16313
| 58>    N       -5.60047        17.81382        -2.68538
| 59>    C       -4.71326        17.91711        -3.82193
| 60>    C       -3.31705        18.35992        -3.39684
| 61>    C       -6.37729        18.88132        -2.22281
| 62>    O       -6.42087        19.97056        -2.74809
| 63>    C       -7.06833        18.35147        -1.05483
| 64>    C       -7.98071        18.83898        -0.13410
| 65>    C       -8.53120        20.12934        -0.07100
| 66>    C       -9.41701        20.52494         0.88668
| 67>    C      -10.00502        21.79876         1.02601
| 68>    C      -10.47165        22.31143         2.24613
| 69>    C      -10.75404        23.70976         2.08292
| 70>    C      -10.46606        24.06579         0.80606
| 71>    C      -10.06290        22.89145         0.06675
| 72>    C       -9.97836        22.86284        -1.30530
| 73>    C      -10.07921        21.67595        -2.16982
| 74>    C       -9.99104        22.07407        -3.44602
| 75>    C       -9.80204        23.52700        -3.46283
| 76>    C       -9.84546        23.98424        -2.17428
| 77>    N       -9.68022        24.23812        -4.61077
| 78>    N      -10.62376        21.65171         3.41383
| 79>    H        4.88932         1.68363        -2.40955
| 80>    H        6.26938         3.65325        -1.27255
| 81>    H        5.41143         5.21576        -1.22526
| 82>    H        6.21511         3.73830        -3.78752
| 83>    H        7.05034         5.14177        -3.11082
| 84>    H        5.39359         5.30074        -3.70319
| 85>    H       -1.40357         1.19874        -1.47126
| 86>    H       -0.49338         0.01209        -2.42290
| 87>    H       -1.68749         2.56848        -3.62194
| 88>    H       -2.40720         0.95663        -3.73402
| 89>    H       -0.84534         1.28265        -4.48926
| 90>    H        0.27402         5.06592        -1.33589
| 91>    H       -2.09242         3.11714        -1.35824
| 92>    H       -4.13521         3.91813        -0.61486
| 93>    H       -2.42018         8.51328        -0.34922
| 94>    H       -0.93542         6.73656        -1.05918
| 95>    H       -5.80764         8.08296         1.03626
| 96>    H       -4.08035         9.96749        -0.65094
| 97>    H       -7.54738         9.88486         3.03877
| 98>    H       -9.14794        10.72217         2.06299
| 99>    H       -5.83755        14.28677        -0.64049
|100>    H       -7.86443        14.88773         1.59438
|101>    H       -5.15005        18.64571        -4.50954
|102>    H       -4.67117        16.93393        -4.29744
|103>    H       -3.36477        19.33265        -2.91250
|104>    H       -2.67063        18.43210        -4.26716
|105>    H       -2.89170        17.63900        -2.70240
|106>    H       -8.18772        20.81551        -0.83140
|107>    H       -9.64307        19.80009         1.66364
|108>    H      -11.12706        24.34558         2.86547
|109>    H      -10.60768        25.03533         0.36877
|110>    H      -10.27920        20.68557        -1.81229
|111>    H      -10.05253        21.46846        -4.33116
|112>    H       -9.71844        25.00193        -1.86062
|113>    H       -9.42752        23.74537        -5.45051
|114>    H       -9.39832        25.20188        -4.54785
|115>    H      -10.33011        20.69543         3.50005
|116>    H      -10.84408        22.16163         4.24986
|117> *
|118>
|119>                          ****END OF INPUT****

CARTESIAN COORDINATES (ANGSTROEM)
---------------------------------
  C      4.066120    2.343540   -2.206040
  N      4.280180    3.643070   -1.865990
  C      5.561730    4.298730   -1.801560
  C      6.090080    4.640390   -3.192420
  C      3.060550    4.326030   -1.637270
  O      2.996540    5.497900   -1.322560
  C      2.058340    3.315850   -1.860980
  C      2.721730    2.098660   -2.212600
  C      1.699940    1.095210   -2.416610
  O      1.753840   -0.073540   -2.728040
  N      0.482900    1.770730   -2.156190
  C     -0.763610    1.070320   -2.348110
  C     -1.473290    1.502130   -3.629250
  C      0.691500    3.093440   -1.827270
  C     -0.233750    4.120370   -1.475060
  C     -1.565190    4.054020   -1.266490
  C     -2.400780    5.165320   -0.880780
  C     -3.735430    4.920870   -0.561740
  C     -4.590790    5.942100   -0.179090
  N     -5.955260    5.570180    0.069040
  O     -6.171920    4.408360    0.356260
  O     -6.821990    6.414960   -0.038080
  C     -4.147340    7.278440   -0.087020
  C     -2.802290    7.507580   -0.425980
  C     -1.957350    6.497700   -0.810950
  C     -4.980440    8.345810    0.394710
  C     -4.820270    9.646850    0.068520
  C     -5.650130   10.683590    0.571990
  O     -5.549980   11.934180    0.057910
  C     -6.432370   12.745240    0.668870
  C     -7.166770   12.000380    1.605720
  C     -6.646390   10.681260    1.542710
  O     -6.985090    9.614800    2.298650
  C     -8.256050   12.402930    2.503850
  O     -8.360640   13.458400    3.064480
  O     -9.179180   11.426830    2.725240
  C     -6.483590   14.084080    0.203950
  C     -7.250610   15.074350    0.725390
  C     -7.309030   16.387190    0.201380
  S     -8.376060   17.546330    0.990230
  C     -6.693950   17.001680   -0.870900
  C     -5.731260   16.659630   -1.930350
  O     -5.149330   15.623620   -2.163130
  N     -5.600470   17.813820   -2.685380
  C     -4.713260   17.917110   -3.821930
  C     -3.317050   18.359920   -3.396840
  C     -6.377290   18.881320   -2.222810
  O     -6.420870   19.970560   -2.748090
  C     -7.068330   18.351470   -1.054830
  C     -7.980710   18.838980   -0.134100
  C     -8.531200   20.129340   -0.071000
  C     -9.417010   20.524940    0.886680
  C    -10.005020   21.798760    1.026010
  C    -10.471650   22.311430    2.246130
  C    -10.754040   23.709760    2.082920
  C    -10.466060   24.065790    0.806060
  C    -10.062900   22.891450    0.066750
  C     -9.978360   22.862840   -1.305300
  C    -10.079210   21.675950   -2.169820
  C     -9.991040   22.074070   -3.446020
  C     -9.802040   23.527000   -3.462830
  C     -9.845460   23.984240   -2.174280
  N     -9.680220   24.238120   -4.610770
  N    -10.623760   21.651710    3.413830
  H      4.889320    1.683630   -2.409550
  H      6.269380    3.653250   -1.272550
  H      5.411430    5.215760   -1.225260
  H      6.215110    3.738300   -3.787520
  H      7.050340    5.141770   -3.110820
  H      5.393590    5.300740   -3.703190
  H     -1.403570    1.198740   -1.471260
  H     -0.493380    0.012090   -2.422900
  H     -1.687490    2.568480   -3.621940
  H     -2.407200    0.956630   -3.734020
  H     -0.845340    1.282650   -4.489260
  H      0.274020    5.065920   -1.335890
  H     -2.092420    3.117140   -1.358240
  H     -4.135210    3.918130   -0.614860
  H     -2.420180    8.513280   -0.349220
  H     -0.935420    6.736560   -1.059180
  H     -5.807640    8.082960    1.036260
  H     -4.080350    9.967490   -0.650940
  H     -7.547380    9.884860    3.038770
  H     -9.147940   10.722170    2.062990
  H     -5.837550   14.286770   -0.640490
  H     -7.864430   14.887730    1.594380
  H     -5.150050   18.645710   -4.509540
  H     -4.671170   16.933930   -4.297440
  H     -3.364770   19.332650   -2.912500
  H     -2.670630   18.432100   -4.267160
  H     -2.891700   17.639000   -2.702400
  H     -8.187720   20.815510   -0.831400
  H     -9.643070   19.800090    1.663640
  H    -11.127060   24.345580    2.865470
  H    -10.607680   25.035330    0.368770
  H    -10.279200   20.685570   -1.812290
  H    -10.052530   21.468460   -4.331160
  H     -9.718440   25.001930   -1.860620
  H     -9.427520   23.745370   -5.450510
  H     -9.398320   25.201880   -4.547850
  H    -10.330110   20.695430    3.500050
  H    -10.844080   22.161630    4.249860

 Total Charge           Charge          ....    0
 Multiplicity           Mult            ....    1
 Number of Electrons    NEL             ....  458
 Basis Dimension        Dim             .... 1090

ORBITAL ENERGIES
----------------

  NO   OCC          E(Eh)            E(eV)
   0   2.0000     -88.951599     -2420.4961
   1   2.0000     -19.295943      -525.0693
   2   2.0000     -19.271305      -524.3989
   3   2.0000     -19.270634      -524.3806
   4   2.0000     -19.237344      -523.4747
   5   2.0000     -19.235157      -523.4152
   6   2.0000     -19.209702      -522.7226
   7   2.0000     -19.196543      -522.3645
   8   2.0000     -19.190127      -522.1899
   9   2.0000     -19.184294      -522.0312
  10   2.0000     -19.181985      -521.9683
  11   2.0000     -14.642147      -398.4331
  12   2.0000     -14.448910      -393.1748
  13   2.0000     -14.446749      -393.1160
  14   2.0000     -14.436671      -392.8418
  15   2.0000     -14.435795      -392.8179
  16   2.0000     -14.427850      -392.6018
  17   2.0000     -10.415499      -283.4201
  18   2.0000     -10.378238      -282.4062
  19   2.0000     -10.372181      -282.2414
  20   2.0000     -10.368100      -282.1303
  21   2.0000     -10.367448      -282.1126
  22   2.0000     -10.350188      -281.6429
  23   2.0000     -10.347354      -281.5658
  24   2.0000     -10.336317      -281.2655
  25   2.0000     -10.327903      -281.0365
  26   2.0000     -10.327063      -281.0137
  27   2.0000     -10.324726      -280.9501
  28   2.0000     -10.317075      -280.7419
  29   2.0000     -10.309709      -280.5414
  30   2.0000     -10.307731      -280.4876
  31   2.0000     -10.307428      -280.4794
  32   2.0000     -10.306571      -280.4561
  33   2.0000     -10.305999      -280.4405
  34   2.0000     -10.301836      -280.3272
  35   2.0000     -10.294764      -280.1348
  36   2.0000     -10.294439      -280.1259
  37   2.0000     -10.293496      -280.1003
  38   2.0000     -10.292507      -280.0734
  39   2.0000     -10.290435      -280.0170
  40   2.0000     -10.289449      -279.9901
  41   2.0000     -10.288119      -279.9540
  42   2.0000     -10.285969      -279.8954
  43   2.0000     -10.285852      -279.8923
  44   2.0000     -10.280049      -279.7344
  45   2.0000     -10.278911      -279.7034
  46   2.0000     -10.276560      -279.6394
  47   2.0000     -10.274945      -279.5955
  48   2.0000     -10.272577      -279.5310
  49   2.0000     -10.272289      -279.5232
  50   2.0000     -10.269025      -279.4344
  51   2.0000     -10.267892      -279.4035
  52   2.0000     -10.264377      -279.3079
  53   2.0000     -10.264119      -279.3009
  54   2.0000     -10.262294      -279.2512
  55   2.0000     -10.261869      -279.2397
  56   2.0000     -10.259040      -279.1627
  57   2.0000     -10.257927      -279.1324
  58   2.0000     -10.254571      -279.0411
  59   2.0000     -10.253960      -279.0244
  60   2.0000     -10.253952      -279.0242
  61   2.0000     -10.248105      -278.8651
  62   2.0000     -10.246497      -278.8214
  63   2.0000     -10.227258      -278.2978
  64   2.0000      -8.046920      -218.9678
  65   2.0000      -6.016255      -163.7106
  66   2.0000      -6.012237      -163.6013
  67   2.0000      -6.008832      -163.5086
  68   2.0000      -1.316409       -35.8213
  69   2.0000      -1.217384       -33.1267
  70   2.0000      -1.191592       -32.4249
  71   2.0000      -1.161498       -31.6060
  72   2.0000      -1.139048       -30.9951
  73   2.0000      -1.133862       -30.8540
  74   2.0000      -1.125979       -30.6394
  75   2.0000      -1.119297       -30.4576
  76   2.0000      -1.114034       -30.3144
  77   2.0000      -1.106068       -30.0976
  78   2.0000      -1.056594       -28.7514
  79   2.0000      -1.047358       -28.5001
  80   2.0000      -1.030350       -28.0372
  81   2.0000      -1.022854       -27.8333
  82   2.0000      -1.012300       -27.5461
  83   2.0000      -0.985217       -26.8091
  84   2.0000      -0.979064       -26.6417
  85   2.0000      -0.951416       -25.8893
  86   2.0000      -0.926210       -25.2035
  87   2.0000      -0.925478       -25.1835
  88   2.0000      -0.922241       -25.0955
  89   2.0000      -0.916467       -24.9383
  90   2.0000      -0.907880       -24.7047
  91   2.0000      -0.896450       -24.3937
  92   2.0000      -0.889186       -24.1960
  93   2.0000      -0.885153       -24.0862
  94   2.0000      -0.875661       -23.8280
  95   2.0000      -0.867293       -23.6003
  96   2.0000      -0.855531       -23.2802
  97   2.0000      -0.833971       -22.6935
  98   2.0000      -0.817366       -22.2417
  99   2.0000      -0.816135       -22.2082
 100   2.0000      -0.811596       -22.0846
 101   2.0000      -0.811202       -22.0739
 102   2.0000      -0.801375       -21.8065
 103   2.0000      -0.783037       -21.3075
 104   2.0000      -0.777558       -21.1584
 105   2.0000      -0.775087       -21.0912
 106   2.0000      -0.767229       -20.8774
 107   2.0000      -0.759343       -20.6628
 108   2.0000      -0.756699       -20.5908
 109   2.0000      -0.734957       -19.9992
 110   2.0000      -0.733983       -19.9727
 111   2.0000      -0.729643       -19.8546
 112   2.0000      -0.720744       -19.6124
 113   2.0000      -0.718961       -19.5639
 114   2.0000      -0.708345       -19.2750
 115   2.0000      -0.705619       -19.2009
 116   2.0000      -0.698540       -19.0083
 117   2.0000      -0.683249       -18.5922
 118   2.0000      -0.681473       -18.5438
 119   2.0000      -0.675423       -18.3792
 120   2.0000      -0.666835       -18.1455
 121   2.0000      -0.664314       -18.0769
 122   2.0000      -0.655829       -17.8460
 123   2.0000      -0.652061       -17.7435
 124   2.0000      -0.647722       -17.6254
 125   2.0000      -0.645738       -17.5714
 126   2.0000      -0.637758       -17.3543
 127   2.0000      -0.632125       -17.2010
 128   2.0000      -0.626646       -17.0519
 129   2.0000      -0.625773       -17.0281
 130   2.0000      -0.619900       -16.8683
 131   2.0000      -0.616914       -16.7871
 132   2.0000      -0.607521       -16.5315
 133   2.0000      -0.598382       -16.2828
 134   2.0000      -0.596143       -16.2219
 135   2.0000      -0.591799       -16.1037
 136   2.0000      -0.590496       -16.0682
 137   2.0000      -0.587704       -15.9922
 138   2.0000      -0.585398       -15.9295
 139   2.0000      -0.582832       -15.8597
 140   2.0000      -0.578949       -15.7540
 141   2.0000      -0.573539       -15.6068
 142   2.0000      -0.573385       -15.6026
 143   2.0000      -0.571625       -15.5547
 144   2.0000      -0.562555       -15.3079
 145   2.0000      -0.560560       -15.2536
 146   2.0000      -0.552521       -15.0349
 147   2.0000      -0.543777       -14.7969
 148   2.0000      -0.543180       -14.7807
 149   2.0000      -0.541956       -14.7474
 150   2.0000      -0.540360       -14.7039
 151   2.0000      -0.537553       -14.6276
 152   2.0000      -0.537081       -14.6147
 153   2.0000      -0.532940       -14.5020
 154   2.0000      -0.529932       -14.4202
 155   2.0000      -0.526948       -14.3390
 156   2.0000      -0.526010       -14.3135
 157   2.0000      -0.523731       -14.2514
 158   2.0000      -0.517988       -14.0952
 159   2.0000      -0.512342       -13.9415
 160   2.0000      -0.510458       -13.8903
 161   2.0000      -0.502400       -13.6710
 162   2.0000      -0.502061       -13.6618
 163   2.0000      -0.499729       -13.5983
 164   2.0000      -0.498955       -13.5773
 165   2.0000      -0.498350       -13.5608
 166   2.0000      -0.495697       -13.4886
 167   2.0000      -0.494551       -13.4574
 168   2.0000      -0.492857       -13.4113
 169   2.0000      -0.491707       -13.3800
 170   2.0000      -0.485616       -13.2143
 171   2.0000      -0.482681       -13.1344
 172   2.0000      -0.480264       -13.0687
 173   2.0000      -0.478705       -13.0262
 174   2.0000      -0.475340       -12.9347
 175   2.0000      -0.472270       -12.8511
 176   2.0000      -0.469365       -12.7721
 177   2.0000      -0.469133       -12.7658
 178   2.0000      -0.468265       -12.7421
 179   2.0000      -0.464438       -12.6380
 180   2.0000      -0.462327       -12.5806
 181   2.0000      -0.460170       -12.5219
 182   2.0000      -0.458822       -12.4852
 183   2.0000      -0.455753       -12.4017
 184   2.0000      -0.452850       -12.3227
 185   2.0000      -0.450294       -12.2531
 186   2.0000      -0.448921       -12.2157
 187   2.0000      -0.445089       -12.1115
 188   2.0000      -0.443741       -12.0748
 189   2.0000      -0.441764       -12.0210
 190   2.0000      -0.439865       -11.9693
 191   2.0000      -0.438511       -11.9325
 192   2.0000      -0.438000       -11.9186
 193   2.0000      -0.433706       -11.8017
 194   2.0000      -0.432633       -11.7725
 195   2.0000      -0.428716       -11.6660
 196   2.0000      -0.428516       -11.6605
 197   2.0000      -0.419253       -11.4085
 198   2.0000      -0.417789       -11.3686
 199   2.0000      -0.414902       -11.2900
 200   2.0000      -0.412806       -11.2330
 201   2.0000      -0.409962       -11.1556
 202   2.0000      -0.402279       -10.9466
 203   2.0000      -0.400975       -10.9111
 204   2.0000      -0.399932       -10.8827
 205   2.0000      -0.394082       -10.7235
 206   2.0000      -0.380161       -10.3447
 207   2.0000      -0.377322       -10.2675
 208   2.0000      -0.373979       -10.1765
 209   2.0000      -0.363408        -9.8888
 210   2.0000      -0.363132        -9.8813
 211   2.0000      -0.360347        -9.8055
 212   2.0000      -0.353949        -9.6314
 213   2.0000      -0.343447        -9.3457
 214   2.0000      -0.341034        -9.2800
 215   2.0000      -0.340776        -9.2730
 216   2.0000      -0.340073        -9.2539
 217   2.0000      -0.332973        -9.0607
 218   2.0000      -0.327323        -8.9069
 219   2.0000      -0.324417        -8.8278
 220   2.0000      -0.318028        -8.6540
 221   2.0000      -0.312685        -8.5086
 222   2.0000      -0.308916        -8.4060
 223   2.0000      -0.296989        -8.0815
 224   2.0000      -0.285245        -7.7619
 225   2.0000      -0.256467        -6.9788
 226   2.0000      -0.243801        -6.6342
 227   2.0000      -0.234672        -6.3857
 228   2.0000      -0.210866        -5.7380
 229   0.0000      -0.075494        -2.0543
 230   0.0000      -0.060159        -1.6370
 231   0.0000      -0.053825        -1.4647
 232   0.0000      -0.042119        -1.1461
 233   0.0000      -0.022870        -0.6223

MULLIKEN ATOMIC CHARGES
-----------------------
   0 C :    0.047241
   1 N :   -0.265616
   2 C :    0.108857
   3 C :    0.000092
   4 C :    0.161751
   5 O :   -0.201427
   6 C :   -0.085724
   7 C :    0.007116
   8 C :    0.162218
   9 O :   -0.186603
  10 N :   -0.277979
  11 C :    0.097481
  12 C :   -0.001022
  13 C :    0.137849
  14 C :   -0.022223
  15 C :    0.016660
  16 C :    0.100252
  17 C :   -0.075445
  18 C :    0.138528
  19 N :    0.243581
  20 O :   -0.241921
  21 O :   -0.233486
  22 C :    0.076856
  23 C :   -0.036693
  24 C :    0.027438
  25 C :   -0.028881
  26 C :   -0.008226
  27 C :    0.120963
  28 O :   -0.178219
  29 C :    0.169714
  30 C :   -0.125076
  31 C :    0.051565
  32 O :   -0.182102
  33 C :    0.163741
  34 O :   -0.165843
  35 O :   -0.194642
  36 C :   -0.030925
  37 C :    0.046744
  38 C :   -0.155339
  39 S :    0.111475
  40 C :    0.020449
  41 C :    0.198033
  42 O :   -0.188533
  43 N :   -0.309069
  44 C :    0.137255
  45 C :   -0.006554
  46 C :    0.173806
  47 O :   -0.181260
  48 C :    0.002367
  49 C :   -0.104707
  50 C :   -0.071356
  51 C :   -0.037107
  52 C :    0.035701
  53 C :   -0.015046
  54 C :   -0.017478
  55 C :    0.020790
  56 C :    0.022474
  57 C :    0.046263
  58 C :    0.016149
  59 C :    0.001699
  60 C :    0.045303
  61 C :   -0.134845
  62 N :   -0.026986
  63 N :   -0.011125
  64 H :    0.014759
  65 H :    0.018462
  66 H :    0.041791
  67 H :    0.014436
  68 H :    0.022598
  69 H :    0.031012
  70 H :    0.026145
  71 H :    0.044884
  72 H :    0.021468
  73 H :    0.021612
  74 H :    0.025860
  75 H :    0.004065
  76 H :   -0.025132
  77 H :   -0.000551
  78 H :   -0.012186
  79 H :   -0.001628
  80 H :    0.019383
  81 H :   -0.001760
  82 H :    0.184746
  83 H :    0.190319
  84 H :    0.015422
  85 H :   -0.006111
  86 H :    0.025109
  87 H :    0.026102
  88 H :    0.024089
  89 H :    0.017398
  90 H :    0.026054
  91 H :    0.023625
  92 H :   -0.036039
  93 H :   -0.039348
  94 H :   -0.021898
  95 H :    0.000376
  96 H :   -0.032504
  97 H :   -0.058523
  98 H :    0.121592
  99 H :    0.122015
 100 H :    0.120430
 101 H :    0.122973
Sum of atomic charges:   -0.0000000

LOEWDIN ATOMIC CHARGES
----------------------
   0 C :    0.095333
   1 N :   -0.003783
   2 C :    0.037735
   3 C :   -0.060834
   4 C :    0.076100
   5 O :   -0.204155
   6 C :   -0.123559
   7 C :   -0.132461
   8 C :    0.084593
   9 O :   -0.189588
  10 N :   -0.012944
  11 C :    0.033612
  12 C :   -0.063633
  13 C :    0.080370
  14 C :   -0.031984
  15 C :    0.003990
  16 C :   -0.034547
  17 C :    0.010776
  18 C :   -0.034470
  19 N :    0.286199
  20 O :   -0.209592
  21 O :   -0.195283
  22 C :    0.005692
  23 C :   -0.008002
  24 C :    0.017350
  25 C :   -0.027916
  26 C :   -0.017516
  27 C :   -0.013745
  28 O :    0.034127
  29 C :    0.076275
  30 C :   -0.167783
  31 C :    0.020341
  32 O :   -0.036804
  33 C :    0.086622
  34 O :   -0.143315
  35 O :   -0.044846
  36 C :   -0.038159
  37 C :   -0.022014
  38 C :   -0.144425
  39 S :    0.423653
  40 C :   -0.086728
  41 C :    0.092275
  42 O :   -0.175189
  43 N :   -0.035131
  44 C :    0.041822
  45 C :   -0.060909
  46 C :    0.089230
  47 O :   -0.180539
  48 C :   -0.121368
  49 C :   -0.111095
  50 C :   -0.091537
  51 C :    0.009323
  52 C :   -0.131496
  53 C :    0.054662
  54 C :   -0.058858
  55 C :    0.014117
  56 C :   -0.011186
  57 C :    0.028038
  58 C :   -0.001157
  59 C :   -0.029811
  60 C :    0.044215
  61 C :   -0.153463
  62 N :    0.005995
  63 N :    0.016834
  64 H :    0.032617
  65 H :    0.024426
  66 H :    0.036256
  67 H :    0.022199
  68 H :    0.029900
  69 H :    0.031779
  70 H :    0.019589
  71 H :    0.037802
  72 H :    0.021696
  73 H :    0.030457
  74 H :    0.031753
  75 H :    0.043124
  76 H :    0.029736
  77 H :    0.037973
  78 H :    0.034469
  79 H :    0.037522
  80 H :    0.028556
  81 H :    0.036511
  82 H :    0.089270
  83 H :    0.092491
  84 H :    0.040319
  85 H :    0.029147
  86 H :    0.029550
  87 H :    0.029790
  88 H :    0.027510
  89 H :    0.027551
  90 H :    0.027689
  91 H :    0.041337
  92 H :    0.012543
  93 H :    0.020034
  94 H :    0.025612
  95 H :    0.029529
  96 H :    0.022160
  97 H :    0.011120
  98 H :    0.078254
  99 H :    0.080387
 100 H :    0.078613
 101 H :    0.081276

  Mayer bond orders larger than 0.100000
B(  0-C ,  1-N ) :   1.1932 B(  0-C ,  7-C ) :   1.4573 B(  0-C , 64-H ) :   0.9894
B(  1-N ,  2-C ) :   0.9429 B(  1-N ,  4-C ) :   1.0335 B(  2-C ,  3-C ) :   1.1196
B(  2-C , 65-H ) :   0.9540 B(  2-C , 66-H ) :   0.9345 B(  3-C , 67-H ) :   0.9686
B(  3-C , 68-H ) :   0.9686 B(  3-C , 69-H ) :   0.9673 B(  4-C ,  5-O ) :   2.1121
B(  4-C ,  6-C ) :   0.9961 B(  6-C ,  7-C ) :   1.1879 B(  6-C , 13-C ) :   1.3936
B(  7-C ,  8-C ) :   0.9538 B(  8-C ,  9-O ) :   2.1666 B(  8-C , 10-N ) :   1.0165
B( 10-N , 11-C ) :   0.9453 B( 10-N , 13-C ) :   1.1606 B( 11-C , 12-C ) :   1.1164
B( 11-C , 70-H ) :   0.9513 B( 11-C , 71-H ) :   0.9219 B( 12-C , 72-H ) :   0.9682
B( 12-C , 73-H ) :   0.9676 B( 12-C , 74-H ) :   0.9625 B( 13-C , 14-C ) :   1.1668
B( 14-C , 15-C ) :   1.6035 B( 14-C , 75-H ) :   0.9427 B( 15-C , 16-C ) :   1.0770
B( 15-C , 76-H ) :   0.9908 B( 16-C , 17-C ) :   1.2933 B( 16-C , 24-C ) :   1.2997
B( 17-C , 18-C ) :   1.3599 B( 17-C , 77-H ) :   0.9981 B( 18-C , 19-N ) :   0.8868
B( 18-C , 22-C ) :   1.3355 B( 19-N , 20-O ) :   1.5454 B( 19-N , 21-O ) :   1.5243
B( 20-O , 21-O ) :   0.2620 B( 22-C , 23-C ) :   1.3116 B( 22-C , 25-C ) :   1.0880
B( 23-C , 24-C ) :   1.4408 B( 23-C , 78-H ) :   0.9864 B( 24-C , 79-H ) :   0.9888
B( 25-C , 26-C ) :   1.6744 B( 25-C , 80-H ) :   0.9445 B( 26-C , 27-C ) :   1.1504
B( 26-C , 81-H ) :   0.9569 B( 27-C , 28-O ) :   1.0964 B( 27-C , 29-C ) :   0.1000
B( 27-C , 31-C ) :   1.4295 B( 28-O , 29-C ) :   1.1949 B( 29-C , 30-C ) :   1.3772
B( 29-C , 36-C ) :   1.1890 B( 30-C , 31-C ) :   1.2100 B( 30-C , 33-C ) :   0.9051
B( 31-C , 32-O ) :   1.2252 B( 32-O , 82-H ) :   0.9344 B( 33-C , 34-O ) :   2.1290
B( 33-C , 35-O ) :   1.1844 B( 35-O , 83-H ) :   0.9470 B( 36-C , 37-C ) :   1.6260
B( 36-C , 84-H ) :   0.9309 B( 37-C , 38-C ) :   1.1603 B( 37-C , 85-H ) :   0.9387
B( 38-C , 39-S ) :   1.0975 B( 38-C , 40-C ) :   1.4958 B( 39-S , 49-C ) :   1.0947
B( 40-C , 41-C ) :   0.9016 B( 40-C , 48-C ) :   1.2534 B( 41-C , 42-O ) :   2.0816
B( 41-C , 43-N ) :   1.1014 B( 43-N , 44-C ) :   0.9279 B( 43-N , 46-C ) :   1.0485
B( 44-C , 45-C ) :   1.1284 B( 44-C , 86-H ) :   0.9396 B( 44-C , 87-H ) :   0.9411
B( 45-C , 88-H ) :   0.9687 B( 45-C , 89-H ) :   0.9698 B( 45-C , 90-H ) :   0.9687
B( 46-C , 47-O ) :   2.1633 B( 46-C , 48-C ) :   0.9240 B( 48-C , 49-C ) :   1.4474
B( 49-C , 50-C ) :   1.2325 B( 50-C , 51-C ) :   1.5626 B( 50-C , 91-H ) :   0.9680
B( 51-C , 52-C ) :   1.1763 B( 51-C , 92-H ) :   0.9578 B( 52-C , 53-C ) :   1.3768
B( 52-C , 56-C ) :   1.0632 B( 53-C , 54-C ) :   1.1157 B( 53-C , 63-N ) :   1.3233
B( 54-C , 55-C ) :   1.5857 B( 54-C , 93-H ) :   1.0109 B( 55-C , 56-C ) :   1.1264
B( 55-C , 94-H ) :   1.0034 B( 56-C , 57-C ) :   1.4870 B( 57-C , 58-C ) :   1.0556
B( 57-C , 61-C ) :   1.1393 B( 58-C , 59-C ) :   1.7066 B( 58-C , 95-H ) :   0.9995
B( 59-C , 60-C ) :   1.0480 B( 59-C , 96-H ) :   1.0086 B( 60-C , 61-C ) :   1.5162
B( 60-C , 62-N ) :   1.2700 B( 61-C , 97-H ) :   1.0197 B( 62-N , 98-H ) :   0.9464
B( 62-N , 99-H ) :   0.9490 B( 63-N ,100-H ) :   0.9444 B( 63-N ,101-H ) :   0.9423

-----------------------------------------------------------------------------
         ABSORPTION SPECTRUM VIA TRANSITION ELECTRIC DIPOLE MOMENTS
-----------------------------------------------------------------------------
State   Energy  Wavelength   fosc         T2         TX        TY        TZ
        (cm-1)    (nm)                  (au**2)     (au)      (au)      (au)
-----------------------------------------------------------------------------
   0   15249.1    655.8   0.116614759   2.51758   0.57312  -0.92790  -1.15244
   1   16975.7    589.1   1.599758820  31.02442   2.33431  -5.05280   0.21128
   2   20384.5    490.6   0.146646783   2.36836  -0.42393  -0.15769   1.47098
   3   20874.1    479.1   0.267756153   4.22287   1.96196  -0.57044  -0.21945
   4   22977.5    435.2   0.231699549   3.31969  -1.80419   0.12532   0.22108
   5   23868.5    419.0   0.291258087   4.01724   1.02053  -1.20866  -1.23082
   6   23942.8    417.7   0.301791502   4.14962   0.82869   1.84697  -0.22715
   7   24998.0    400.0   0.245711883   3.23592   0.93973  -1.53111  -0.09226
   8   27112.4    368.8   0.003472653   0.04217  -0.01659   0.13130   0.15701
   9   27576.1    362.6   0.071970995   0.85921  -0.74992  -0.27504   0.47030
  10   28883.7    346.2   0.037600910   0.42857   0.26658   0.19486   0.56527
  11   29173.9    342.8   0.004500768   0.05079   0.11022   0.18813   0.05700
  12   29312.2    341.2   0.027387091   0.30759   0.36620   0.40414   0.10078
  13   30140.8    331.8   0.076758760   0.83840  -0.64337   0.65112   0.02275
  14   30936.3    323.2   0.010739317   0.11428  -0.12917   0.23172   0.20953
  15   31046.0    322.1   0.092313225   0.97889  -0.38951   0.79983   0.43294
  16   32160.3    310.9   0.466807175   4.77852   0.38625   0.00559  -2.15158
  17   32354.1    309.1   0.040123457   0.40827   0.41698  -0.28027  -0.39477
  18   32851.9    304.4   0.125300827   1.25565  -0.30585   0.93525   0.53611
  19   33117.5    302.0   0.034925991   0.34719  -0.45328  -0.06574   0.37069
  20   33999.3    294.1   0.013481337   0.13054  -0.23110   0.08005   0.26594
  21   34664.0    288.5   0.010267624   0.09751  -0.02627  -0.31033   0.02276
  22   34750.5    287.8   0.007245088   0.06864  -0.06201  -0.25230  -0.03372
  23   34764.4    287.7   0.040763751   0.38602  -0.41219   0.44877   0.12138
  24   35186.6    284.2   0.093760762   0.87724   0.90608  -0.16427  -0.17112
  25   35248.6    283.7   0.019206004   0.17938   0.41363  -0.08891   0.01951
  26   36007.4    277.7   0.143963512   1.31624  -0.61237   0.54106   0.80529
  27   36714.8    272.4   0.286962561   2.57312   0.64129  -0.76403  -1.25623
  28   36826.5    271.5   0.091630667   0.81914   0.54598  -0.70079   0.17301
  29   37224.3    268.6   0.095935652   0.84846   0.61190  -0.30591  -0.61681
  30   37506.2    266.6   0.130738750   1.14756   0.29471  -0.97719   0.32530
  31   38424.3    260.3   0.046180584   0.39567  -0.40784   0.20804   0.43134
  32   38561.6    259.3   0.058962788   0.50338   0.04192  -0.21391   0.67518
  33   39349.0    254.1   0.051773666   0.43316   0.22637  -0.22506  -0.57556
  34   39415.1    253.7   0.022293919   0.18621  -0.07835  -0.40904  -0.11293
  35   39787.0    251.3   0.008703067   0.07201   0.12663  -0.15926  -0.17496
  36   40022.4    249.9   0.072583356   0.59705   0.39873   0.02359  -0.66144

FINAL SINGLE POINT ENERGY     -3289.034330953821

DIPOLE MOMENT
-------------
                                X             Y             Z
Electronic contribution:    -33.84398       2.28771      25.98434
Nuclear contribution   :     33.68753       0.61776     -26.16252
                        -----------------------------------------
Total Dipole Moment    :     -0.15645       2.90547      -0.17818
                        -----------------------------------------
Magnitude (a.u.)       :      2.91513
Magnitude (Debye)      :      7.40967

Rotational constants in cm-1:     0.002174     0.000256     0.000238
Rotational constants in MHz :    65.187729     7.672466     7.148878

                             ****ORCA TERMINATED NORMALLY****
TOTAL RUN TIME: 0 days 0 hours 8 minutes 0 seconds 818 msec
