                         Program Version 4.2.0 -  RELEASE  -
|  1> # ORCA input file
|  2> # SCF done       -199.019084349230          0.000566962956
|  3> ! CAM-B3LYP def2-SVP def2/J RIJCOSX Grid4 TightSCF
|  4> %maxcore 5000
|  5> %tddft
|  6>     Mode sTDDFT
|  7>     Ethresh 5.0
|  8>     maxcore 5000
|  9> end
| 10>
| 11> %pal
| 12>   nprocs 6
| 13>   end
| 14> * xyz 0 1
| 15>    C       -2.60553        -1.57199         0.87554
| 16>    N       -2.76030        -0.56899         1.77256
| 17>    C       -3.15953        -0.71633         3.15071
| 18>    C       -4.66200        -0.95257         3.27626
| 19>    C       -2.54965         0.69376         1.17193
| 20>    O       -2.64763         1.74474         1.77881
| 21>    C       -2.22234         0.38157        -0.19906
| 22>    C       -2.27305        -1.03414        -0.34243
| 23>    C       -1.93384        -1.36012        -1.71803
| 24>    O       -1.84605        -2.41217        -2.30414
| 25>    N       -1.68697        -0.10557        -2.31254
| 26>    C       -1.35200         0.00229        -3.71428
| 27>    C       -2.53549         0.47558        -4.55300
| 28>    C       -1.85140         0.93300        -1.43130
| 29>    C       -1.63272         2.28579        -1.77633
| 30>    C       -1.80206         3.28730        -0.86317
| 31>    C       -1.64249         4.67928        -1.03982
| 32>    C       -1.68283         5.52617        -2.15457
| 33>    N       -1.73446         5.24562        -3.52980
| 34>    O       -1.46382         4.12281        -3.93153
| 35>    O       -2.04802         6.16272        -4.26965
| 36>    C       -1.74525         6.88813        -1.70649
| 37>    C       -1.76332         6.91491        -0.34764
| 38>    C       -1.66509         5.57129         0.13488
| 39>    C       -1.45063         5.18516         1.44688
| 40>    C       -0.65483         4.08807         1.88607
| 41>    C       -0.44087         4.20642         3.23075
| 42>    C       -1.15032         5.34446         3.71624
| 43>    N       -1.20093         5.68632         5.07852
| 44>    O       -1.89676         6.62895         5.42119
| 45>    O       -0.53523         5.01353         5.84697
| 46>    C       -1.81297         5.96302         2.65114
| 47>    C       -2.74412         7.00974         2.72320
| 48>    C       -3.74412         7.22718         1.80831
| 49>    C       -4.61558         8.33137         1.82166
| 50>    C       -4.55669         9.48648         2.59228
| 51>    C       -5.60674        10.35584         2.20986
| 52>    C       -6.36078         9.65308         1.15135
| 53>    C       -5.75364         8.46062         0.92377
| 54>    C       -7.49778        10.11501         0.47850
| 55>    N       -8.43180        10.46005        -0.09423
| 56>    C       -5.86350        11.62916         2.67936
| 57>    C       -6.90473        12.50796         2.28816
| 58>    C       -6.77419        13.70710         2.96300
| 59>    C       -5.60839        13.59926         3.83414
| 60>    C       -5.05935        12.36864         3.67624
| 61>    C       -3.90512        11.91859         4.32779
| 62>    N       -2.94654        11.59096         4.86884
| 63>    C       -7.61005        14.83797         2.79488
| 64>    C       -7.42347        16.02740         3.42152
| 65>    C       -8.22548        17.19533         3.22413
| 66>    C       -7.92000        18.37560         3.89688
| 67>    F       -6.88342        18.38812         4.74994
| 68>    C       -8.63588        19.57297         3.74264
| 69>    F       -8.25733        20.62196         4.48377
| 70>    C       -9.72536        19.67798         2.90171
| 71>    C      -10.08067        18.50699         2.19654
| 72>    C       -9.34787        17.27687         2.35120
| 73>    N       -9.85160        16.31306         1.58449
| 74>    S      -11.10197        16.89286         0.75621
| 75>    N      -11.07135        18.39196         1.31354
| 76>    C      -10.46234        20.92925         2.72573
| 77>    C      -11.83228        21.00663         2.83824
| 78>    F      -12.54166        19.92059         3.17070
| 79>    C      -12.53258        22.22474         2.66865
| 80>    F      -13.86468        22.20192         2.81057
| 81>    C      -11.90253        23.40226         2.37915
| 82>    C      -10.50590        23.36553         2.24605
| 83>    C       -9.78448        22.13096         2.41603
| 84>    N       -8.47620        22.28598         2.22065
| 85>    S       -8.18532        23.82699         1.88753
| 86>    N       -9.68994        24.37782         1.95115
| 87>    H       -2.73197        -2.59988         1.16109
| 88>    H       -2.88503         0.21304         3.65667
| 89>    H       -2.60378        -1.54657         3.59485
| 90>    H       -5.20957        -0.11451         2.85223
| 91>    H       -4.93201        -1.04977         4.32370
| 92>    H       -4.95391        -1.86093         2.75382
| 93>    H       -1.05583        -1.00298        -4.02662
| 94>    H       -0.50188         0.67809        -3.83743
| 95>    H       -3.38771        -0.18368        -4.40554
| 96>    H       -2.26209         0.46048        -5.60386
| 97>    H       -2.82230         1.48987        -4.28830
| 98>    H       -1.30952         2.50975        -2.77986
| 99>    H       -2.09793         2.99997         0.13768
|100>    H       -1.76185         7.72630        -2.37713
|101>    H       -1.73646         7.79053         0.27091
|102>    H       -0.19155         3.36856         1.24014
|103>    H        0.15593         3.56738         3.85387
|104>    H       -2.70674         7.62290         3.61503
|105>    H       -3.91138         6.49287         1.03028
|106>    H       -3.83095         9.70229         3.35112
|107>    H       -6.05134         7.71761         0.20685
|108>    H       -7.66987        12.27769         1.57323
|109>    H       -5.24469        14.36789         4.48950
|110>    H       -8.43283        14.73399         2.10153
|111>    H       -6.60525        16.14618         4.11831
|112>    H      -12.45227        24.32004         2.25802
|113> *
|114>
|115>                          ****END OF INPUT****

CARTESIAN COORDINATES (ANGSTROEM)
---------------------------------
  C     -2.605530   -1.571990    0.875540
  N     -2.760300   -0.568990    1.772560
  C     -3.159530   -0.716330    3.150710
  C     -4.662000   -0.952570    3.276260
  C     -2.549650    0.693760    1.171930
  O     -2.647630    1.744740    1.778810
  C     -2.222340    0.381570   -0.199060
  C     -2.273050   -1.034140   -0.342430
  C     -1.933840   -1.360120   -1.718030
  O     -1.846050   -2.412170   -2.304140
  N     -1.686970   -0.105570   -2.312540
  C     -1.352000    0.002290   -3.714280
  C     -2.535490    0.475580   -4.553000
  C     -1.851400    0.933000   -1.431300
  C     -1.632720    2.285790   -1.776330
  C     -1.802060    3.287300   -0.863170
  C     -1.642490    4.679280   -1.039820
  C     -1.682830    5.526170   -2.154570
  N     -1.734460    5.245620   -3.529800
  O     -1.463820    4.122810   -3.931530
  O     -2.048020    6.162720   -4.269650
  C     -1.745250    6.888130   -1.706490
  C     -1.763320    6.914910   -0.347640
  C     -1.665090    5.571290    0.134880
  C     -1.450630    5.185160    1.446880
  C     -0.654830    4.088070    1.886070
  C     -0.440870    4.206420    3.230750
  C     -1.150320    5.344460    3.716240
  N     -1.200930    5.686320    5.078520
  O     -1.896760    6.628950    5.421190
  O     -0.535230    5.013530    5.846970
  C     -1.812970    5.963020    2.651140
  C     -2.744120    7.009740    2.723200
  C     -3.744120    7.227180    1.808310
  C     -4.615580    8.331370    1.821660
  C     -4.556690    9.486480    2.592280
  C     -5.606740   10.355840    2.209860
  C     -6.360780    9.653080    1.151350
  C     -5.753640    8.460620    0.923770
  C     -7.497780   10.115010    0.478500
  N     -8.431800   10.460050   -0.094230
  C     -5.863500   11.629160    2.679360
  C     -6.904730   12.507960    2.288160
  C     -6.774190   13.707100    2.963000
  C     -5.608390   13.599260    3.834140
  C     -5.059350   12.368640    3.676240
  C     -3.905120   11.918590    4.327790
  N     -2.946540   11.590960    4.868840
  C     -7.610050   14.837970    2.794880
  C     -7.423470   16.027400    3.421520
  C     -8.225480   17.195330    3.224130
  C     -7.920000   18.375600    3.896880
  F     -6.883420   18.388120    4.749940
  C     -8.635880   19.572970    3.742640
  F     -8.257330   20.621960    4.483770
  C     -9.725360   19.677980    2.901710
  C    -10.080670   18.506990    2.196540
  C     -9.347870   17.276870    2.351200
  N     -9.851600   16.313060    1.584490
  S    -11.101970   16.892860    0.756210
  N    -11.071350   18.391960    1.313540
  C    -10.462340   20.929250    2.725730
  C    -11.832280   21.006630    2.838240
  F    -12.541660   19.920590    3.170700
  C    -12.532580   22.224740    2.668650
  F    -13.864680   22.201920    2.810570
  C    -11.902530   23.402260    2.379150
  C    -10.505900   23.365530    2.246050
  C     -9.784480   22.130960    2.416030
  N     -8.476200   22.285980    2.220650
  S     -8.185320   23.826990    1.887530
  N     -9.689940   24.377820    1.951150
  H     -2.731970   -2.599880    1.161090
  H     -2.885030    0.213040    3.656670
  H     -2.603780   -1.546570    3.594850
  H     -5.209570   -0.114510    2.852230
  H     -4.932010   -1.049770    4.323700
  H     -4.953910   -1.860930    2.753820
  H     -1.055830   -1.002980   -4.026620
  H     -0.501880    0.678090   -3.837430
  H     -3.387710   -0.183680   -4.405540
  H     -2.262090    0.460480   -5.603860
  H     -2.822300    1.489870   -4.288300
  H     -1.309520    2.509750   -2.779860
  H     -2.097930    2.999970    0.137680
  H     -1.761850    7.726300   -2.377130
  H     -1.736460    7.790530    0.270910
  H     -0.191550    3.368560    1.240140
  H      0.155930    3.567380    3.853870
  H     -2.706740    7.622900    3.615030
  H     -3.911380    6.492870    1.030280
  H     -3.830950    9.702290    3.351120
  H     -6.051340    7.717610    0.206850
  H     -7.669870   12.277690    1.573230
  H     -5.244690   14.367890    4.489500
  H     -8.432830   14.733990    2.101530
  H     -6.605250   16.146180    4.118310
  H    -12.452270   24.320040    2.258020

 Total Charge           Charge          ....    0
 Multiplicity           Mult            ....    1
 Number of Electrons    NEL             ....  512
 Basis Dimension        Dim             .... 1146

ORBITAL ENERGIES
----------------

  NO   OCC          E(Eh)            E(eV)
   0   2.0000     -89.036766     -2422.8136
   1   2.0000     -89.030343     -2422.6388
   2   2.0000     -24.812299      -675.1770
   3   2.0000     -24.807092      -675.0353
   4   2.0000     -24.805191      -674.9836
   5   2.0000     -24.800475      -674.8552
   6   2.0000     -19.244228      -523.6621
   7   2.0000     -19.241821      -523.5966
   8   2.0000     -19.232841      -523.3522
   9   2.0000     -19.232517      -523.3434
  10   2.0000     -19.203540      -522.5549
  11   2.0000     -19.191094      -522.2162
  12   2.0000     -14.651785      -398.6953
  13   2.0000     -14.642127      -398.4325
  14   2.0000     -14.463846      -393.5813
  15   2.0000     -14.455985      -393.3673
  16   2.0000     -14.451459      -393.2442
  17   2.0000     -14.450653      -393.2223
  18   2.0000     -14.444228      -393.0474
  19   2.0000     -14.443518      -393.0281
  20   2.0000     -14.412292      -392.1784
  21   2.0000     -14.410971      -392.1425
  22   2.0000     -10.393945      -282.8336
  23   2.0000     -10.393594      -282.8241
  24   2.0000     -10.390937      -282.7518
  25   2.0000     -10.387198      -282.6500
  26   2.0000     -10.383588      -282.5518
  27   2.0000     -10.377608      -282.3891
  28   2.0000     -10.347574      -281.5718
  29   2.0000     -10.343169      -281.4519
  30   2.0000     -10.341901      -281.4174
  31   2.0000     -10.338918      -281.3362
  32   2.0000     -10.336296      -281.2649
  33   2.0000     -10.336101      -281.2596
  34   2.0000     -10.334994      -281.2295
  35   2.0000     -10.331294      -281.1288
  36   2.0000     -10.329711      -281.0857
  37   2.0000     -10.329680      -281.0849
  38   2.0000     -10.326363      -280.9946
  39   2.0000     -10.325338      -280.9667
  40   2.0000     -10.324192      -280.9356
  41   2.0000     -10.323982      -280.9298
  42   2.0000     -10.321845      -280.8717
  43   2.0000     -10.321789      -280.8702
  44   2.0000     -10.321138      -280.8524
  45   2.0000     -10.320898      -280.8459
  46   2.0000     -10.318607      -280.7836
  47   2.0000     -10.316538      -280.7273
  48   2.0000     -10.313950      -280.6569
  49   2.0000     -10.313836      -280.6538
  50   2.0000     -10.313117      -280.6342
  51   2.0000     -10.310648      -280.5670
  52   2.0000     -10.308231      -280.5012
  53   2.0000     -10.307559      -280.4829
  54   2.0000     -10.306460      -280.4530
  55   2.0000     -10.306113      -280.4436
  56   2.0000     -10.304825      -280.4085
  57   2.0000     -10.304770      -280.4071
  58   2.0000     -10.302488      -280.3449
  59   2.0000     -10.302210      -280.3374
  60   2.0000     -10.298729      -280.2427
  61   2.0000     -10.297370      -280.2057
  62   2.0000     -10.297020      -280.1962
  63   2.0000     -10.293828      -280.1093
  64   2.0000     -10.292113      -280.0626
  65   2.0000     -10.289780      -279.9991
  66   2.0000     -10.285997      -279.8962
  67   2.0000     -10.285928      -279.8943
  68   2.0000     -10.270655      -279.4787
  69   2.0000     -10.270626      -279.4779
  70   2.0000     -10.267366      -279.3892
  71   2.0000     -10.259125      -279.1650
  72   2.0000      -8.128590      -221.1902
  73   2.0000      -8.122263      -221.0180
  74   2.0000      -6.099858      -165.9856
  75   2.0000      -6.093399      -165.8098
  76   2.0000      -6.091979      -165.7712
  77   2.0000      -6.090941      -165.7429
  78   2.0000      -6.085692      -165.6001
  79   2.0000      -6.084733      -165.5740
  80   2.0000      -1.333647       -36.2904
  81   2.0000      -1.326848       -36.1054
  82   2.0000      -1.321821       -35.9686
  83   2.0000      -1.315879       -35.8069
  84   2.0000      -1.311938       -35.6997
  85   2.0000      -1.309961       -35.6458
  86   2.0000      -1.141439       -31.0601
  87   2.0000      -1.139496       -31.0073
  88   2.0000      -1.137919       -30.9643
  89   2.0000      -1.132495       -30.8167
  90   2.0000      -1.131852       -30.7993
  91   2.0000      -1.129221       -30.7277
  92   2.0000      -1.071574       -29.1590
  93   2.0000      -1.061249       -28.8781
  94   2.0000      -1.020600       -27.7719
  95   2.0000      -1.019122       -27.7317
  96   2.0000      -1.003904       -27.3176
  97   2.0000      -0.999914       -27.2091
  98   2.0000      -0.998268       -27.1643
  99   2.0000      -0.994051       -27.0495
 100   2.0000      -0.988787       -26.9062
 101   2.0000      -0.984836       -26.7987
 102   2.0000      -0.983513       -26.7628
 103   2.0000      -0.973740       -26.4968
 104   2.0000      -0.933313       -25.3967
 105   2.0000      -0.923832       -25.1388
 106   2.0000      -0.918462       -24.9926
 107   2.0000      -0.916620       -24.9425
 108   2.0000      -0.910869       -24.7860
 109   2.0000      -0.893265       -24.3070
 110   2.0000      -0.882568       -24.0159
 111   2.0000      -0.876862       -23.8606
 112   2.0000      -0.874616       -23.7995
 113   2.0000      -0.869682       -23.6653
 114   2.0000      -0.867086       -23.5946
 115   2.0000      -0.861086       -23.4313
 116   2.0000      -0.852003       -23.1842
 117   2.0000      -0.848610       -23.0919
 118   2.0000      -0.835067       -22.7233
 119   2.0000      -0.824164       -22.4266
 120   2.0000      -0.819200       -22.2916
 121   2.0000      -0.807880       -21.9835
 122   2.0000      -0.801072       -21.7983
 123   2.0000      -0.786266       -21.3954
 124   2.0000      -0.770205       -20.9583
 125   2.0000      -0.764137       -20.7932
 126   2.0000      -0.764032       -20.7904
 127   2.0000      -0.758505       -20.6400
 128   2.0000      -0.737457       -20.0672
 129   2.0000      -0.733923       -19.9711
 130   2.0000      -0.732344       -19.9281
 131   2.0000      -0.725577       -19.7439
 132   2.0000      -0.720884       -19.6162
 133   2.0000      -0.718794       -19.5594
 134   2.0000      -0.713323       -19.4105
 135   2.0000      -0.710425       -19.3316
 136   2.0000      -0.708945       -19.2914
 137   2.0000      -0.685187       -18.6449
 138   2.0000      -0.681362       -18.5408
 139   2.0000      -0.675009       -18.3679
 140   2.0000      -0.674745       -18.3607
 141   2.0000      -0.664852       -18.0915
 142   2.0000      -0.662173       -18.0186
 143   2.0000      -0.655724       -17.8432
 144   2.0000      -0.653203       -17.7746
 145   2.0000      -0.648917       -17.6579
 146   2.0000      -0.644630       -17.5413
 147   2.0000      -0.642453       -17.4820
 148   2.0000      -0.641497       -17.4560
 149   2.0000      -0.636649       -17.3241
 150   2.0000      -0.632699       -17.2166
 151   2.0000      -0.631362       -17.1802
 152   2.0000      -0.630430       -17.1549
 153   2.0000      -0.624609       -16.9965
 154   2.0000      -0.623470       -16.9655
 155   2.0000      -0.619281       -16.8515
 156   2.0000      -0.615411       -16.7462
 157   2.0000      -0.611775       -16.6472
 158   2.0000      -0.604963       -16.4619
 159   2.0000      -0.598392       -16.2831
 160   2.0000      -0.595599       -16.2071
 161   2.0000      -0.592360       -16.1189
 162   2.0000      -0.589198       -16.0329
 163   2.0000      -0.585107       -15.9216
 164   2.0000      -0.582505       -15.8508
 165   2.0000      -0.580911       -15.8074
 166   2.0000      -0.575809       -15.6686
 167   2.0000      -0.571655       -15.5555
 168   2.0000      -0.568883       -15.4801
 169   2.0000      -0.561921       -15.2907
 170   2.0000      -0.558698       -15.2029
 171   2.0000      -0.557732       -15.1767
 172   2.0000      -0.554093       -15.0776
 173   2.0000      -0.553784       -15.0692
 174   2.0000      -0.553001       -15.0479
 175   2.0000      -0.550863       -14.9897
 176   2.0000      -0.549561       -14.9543
 177   2.0000      -0.548267       -14.9191
 178   2.0000      -0.546038       -14.8584
 179   2.0000      -0.544159       -14.8073
 180   2.0000      -0.536816       -14.6075
 181   2.0000      -0.534962       -14.5570
 182   2.0000      -0.533930       -14.5290
 183   2.0000      -0.530452       -14.4343
 184   2.0000      -0.525279       -14.2936
 185   2.0000      -0.522911       -14.2291
 186   2.0000      -0.519755       -14.1433
 187   2.0000      -0.516849       -14.0642
 188   2.0000      -0.511783       -13.9263
 189   2.0000      -0.510045       -13.8790
 190   2.0000      -0.507644       -13.8137
 191   2.0000      -0.507009       -13.7964
 192   2.0000      -0.505713       -13.7612
 193   2.0000      -0.503608       -13.7039
 194   2.0000      -0.502752       -13.6806
 195   2.0000      -0.500987       -13.6325
 196   2.0000      -0.496600       -13.5132
 197   2.0000      -0.493809       -13.4372
 198   2.0000      -0.489541       -13.3211
 199   2.0000      -0.487254       -13.2589
 200   2.0000      -0.483577       -13.1588
 201   2.0000      -0.483451       -13.1554
 202   2.0000      -0.480728       -13.0813
 203   2.0000      -0.479056       -13.0358
 204   2.0000      -0.473121       -12.8743
 205   2.0000      -0.471343       -12.8259
 206   2.0000      -0.470570       -12.8049
 207   2.0000      -0.467103       -12.7105
 208   2.0000      -0.465143       -12.6572
 209   2.0000      -0.463277       -12.6064
 210   2.0000      -0.462235       -12.5781
 211   2.0000      -0.459949       -12.5158
 212   2.0000      -0.458433       -12.4746
 213   2.0000      -0.457958       -12.4617
 214   2.0000      -0.450187       -12.2502
 215   2.0000      -0.447012       -12.1638
 216   2.0000      -0.445957       -12.1351
 217   2.0000      -0.441723       -12.0199
 218   2.0000      -0.440613       -11.9897
 219   2.0000      -0.439281       -11.9535
 220   2.0000      -0.438760       -11.9393
 221   2.0000      -0.436597       -11.8804
 222   2.0000      -0.435781       -11.8582
 223   2.0000      -0.428312       -11.6550
 224   2.0000      -0.423414       -11.5217
 225   2.0000      -0.419869       -11.4252
 226   2.0000      -0.418423       -11.3859
 227   2.0000      -0.414036       -11.2665
 228   2.0000      -0.411314       -11.1924
 229   2.0000      -0.406044       -11.0490
 230   2.0000      -0.402836       -10.9617
 231   2.0000      -0.400137       -10.8883
 232   2.0000      -0.391997       -10.6668
 233   2.0000      -0.385928       -10.5016
 234   2.0000      -0.383045       -10.4232
 235   2.0000      -0.378665       -10.3040
 236   2.0000      -0.377941       -10.2843
 237   2.0000      -0.375751       -10.2247
 238   2.0000      -0.374004       -10.1772
 239   2.0000      -0.371147       -10.0994
 240   2.0000      -0.366721        -9.9790
 241   2.0000      -0.359761        -9.7896
 242   2.0000      -0.354980        -9.6595
 243   2.0000      -0.345872        -9.4117
 244   2.0000      -0.339242        -9.2312
 245   2.0000      -0.338341        -9.2067
 246   2.0000      -0.336233        -9.1494
 247   2.0000      -0.332071        -9.0361
 248   2.0000      -0.330239        -8.9863
 249   2.0000      -0.321213        -8.7407
 250   2.0000      -0.320521        -8.7218
 251   2.0000      -0.314281        -8.5520
 252   2.0000      -0.305384        -8.3099
 253   2.0000      -0.284520        -7.7422
 254   2.0000      -0.264035        -7.1848
 255   2.0000      -0.248384        -6.7589
 256   0.0000      -0.147568        -4.0155
 257   0.0000      -0.123589        -3.3630
 258   0.0000      -0.083282        -2.2662
 259   0.0000      -0.075698        -2.0599
 260   0.0000      -0.060701        -1.6518

MULLIKEN ATOMIC CHARGES
-----------------------
   0 C :    0.046316
   1 N :   -0.251066
   2 C :    0.109962
   3 C :   -0.001230
   4 C :    0.175465
   5 O :   -0.211578
   6 C :   -0.100941
   7 C :   -0.005898
   8 C :    0.166726
   9 O :   -0.178112
  10 N :   -0.266780
  11 C :    0.095427
  12 C :    0.005826
  13 C :    0.154086
  14 C :   -0.004710
  15 C :   -0.091803
  16 C :    0.093383
  17 C :    0.070430
  18 N :    0.278578
  19 O :   -0.255241
  20 O :   -0.244268
  21 C :    0.011711
  22 C :    0.010564
  23 C :   -0.013879
  24 C :    0.048573
  25 C :    0.030181
  26 C :    0.018624
  27 C :    0.090178
  28 N :    0.273405
  29 O :   -0.251772
  30 O :   -0.249720
  31 C :    0.046060
  32 C :   -0.032625
  33 C :   -0.006392
  34 C :    0.095084
  35 C :   -0.105586
  36 C :    0.110166
  37 C :   -0.094011
  38 C :   -0.003779
  39 C :   -0.172640
  40 N :    0.132362
  41 C :    0.129334
  42 C :   -0.114088
  43 C :    0.123599
  44 C :   -0.004053
  45 C :   -0.098799
  46 C :   -0.170883
  47 N :    0.141326
  48 C :    0.021381
  49 C :   -0.052593
  50 C :    0.033454
  51 C :    0.173138
  52 F :   -0.168747
  53 C :    0.190493
  54 F :   -0.156704
  55 C :   -0.044857
  56 C :    0.025651
  57 C :    0.021740
  58 N :   -0.287953
  59 S :    0.532336
  60 N :   -0.257489
  61 C :   -0.032735
  62 C :    0.180861
  63 F :   -0.158117
  64 C :    0.262603
  65 F :   -0.173636
  66 C :   -0.116116
  67 C :    0.060811
  68 C :    0.007046
  69 N :   -0.264505
  70 S :    0.511976
  71 N :   -0.269137
  72 H :    0.020827
  73 H :    0.043142
  74 H :    0.022119
  75 H :    0.031272
  76 H :    0.027448
  77 H :    0.016020
  78 H :    0.042852
  79 H :    0.031914
  80 H :    0.023866
  81 H :    0.026987
  82 H :    0.019917
  83 H :    0.004775
  84 H :    0.032686
  85 H :    0.005699
  86 H :    0.006185
  87 H :   -0.003652
  88 H :    0.005303
  89 H :    0.039710
  90 H :    0.014079
  91 H :    0.011060
  92 H :   -0.000231
  93 H :    0.005361
  94 H :    0.005602
  95 H :    0.014674
  96 H :   -0.012421
  97 H :   -0.001608
Sum of atomic charges:   -0.0000000

LOEWDIN ATOMIC CHARGES
----------------------
   0 C :    0.095163
   1 N :    0.005245
   2 C :    0.039223
   3 C :   -0.059514
   4 C :    0.077747
   5 O :   -0.197146
   6 C :   -0.122629
   7 C :   -0.127071
   8 C :    0.081552
   9 O :   -0.182357
  10 N :   -0.003529
  11 C :    0.036927
  12 C :   -0.059592
  13 C :    0.079521
  14 C :   -0.014404
  15 C :    0.009121
  16 C :   -0.001054
  17 C :   -0.040007
  18 N :    0.287604
  19 O :   -0.216473
  20 O :   -0.207723
  21 C :    0.001139
  22 C :   -0.036709
  23 C :    0.036195
  24 C :    0.053213
  25 C :   -0.029294
  26 C :    0.030243
  27 C :   -0.047998
  28 N :    0.285054
  29 O :   -0.215186
  30 O :   -0.214520
  31 C :    0.010304
  32 C :    0.006687
  33 C :    0.010156
  34 C :   -0.026006
  35 C :   -0.006852
  36 C :    0.027120
  37 C :   -0.080225
  38 C :    0.050376
  39 C :   -0.030341
  40 N :   -0.063120
  41 C :    0.047042
  42 C :   -0.027892
  43 C :   -0.004106
  44 C :    0.055220
  45 C :   -0.075420
  46 C :   -0.032700
  47 N :   -0.055453
  48 C :    0.002397
  49 C :   -0.005236
  50 C :   -0.051648
  51 C :    0.078806
  52 F :   -0.043558
  53 C :    0.081570
  54 F :   -0.035815
  55 C :   -0.043252
  56 C :   -0.045619
  57 C :   -0.039583
  58 N :   -0.281026
  59 S :    0.660933
  60 N :   -0.277662
  61 C :   -0.050532
  62 C :    0.084070
  63 F :   -0.037368
  64 C :    0.070063
  65 F :   -0.048094
  66 C :   -0.036434
  67 C :   -0.054446
  68 C :   -0.049031
  69 N :   -0.288198
  70 S :    0.652517
  71 N :   -0.286269
  72 H :    0.035080
  73 H :    0.036673
  74 H :    0.026567
  75 H :    0.031932
  76 H :    0.032011
  77 H :    0.023165
  78 H :    0.037302
  79 H :    0.026696
  80 H :    0.029541
  81 H :    0.033372
  82 H :    0.023580
  83 H :    0.028988
  84 H :    0.040232
  85 H :    0.037976
  86 H :    0.033614
  87 H :    0.031418
  88 H :    0.039519
  89 H :    0.044786
  90 H :    0.035998
  91 H :    0.036237
  92 H :    0.037966
  93 H :    0.036940
  94 H :    0.037356
  95 H :    0.037075
  96 H :    0.030078
  97 H :    0.051782

  Mayer bond orders larger than 0.100000
B(  0-C ,  1-N ) :   1.2014 B(  0-C ,  7-C ) :   1.4365 B(  0-C , 72-H ) :   0.9907
B(  1-N ,  2-C ) :   0.9382 B(  1-N ,  4-C ) :   1.0591 B(  2-C ,  3-C ) :   1.1197
B(  2-C , 73-H ) :   0.9353 B(  2-C , 74-H ) :   0.9536 B(  3-C , 75-H ) :   0.9674
B(  3-C , 76-H ) :   0.9688 B(  3-C , 77-H ) :   0.9690 B(  4-C ,  5-O ) :   1.9953
B(  4-C ,  6-C ) :   1.0057 B(  5-O , 84-H ) :   0.1095 B(  6-C ,  7-C ) :   1.2279
B(  6-C , 13-C ) :   1.3349 B(  7-C ,  8-C ) :   0.9459 B(  8-C ,  9-O ) :   2.1850
B(  8-C , 10-N ) :   1.0175 B( 10-N , 11-C ) :   0.9371 B( 10-N , 13-C ) :   1.1696
B( 11-C , 12-C ) :   1.1248 B( 11-C , 78-H ) :   0.9276 B( 11-C , 79-H ) :   0.9491
B( 12-C , 80-H ) :   0.9630 B( 12-C , 81-H ) :   0.9669 B( 12-C , 82-H ) :   0.9660
B( 13-C , 14-C ) :   1.1487 B( 14-C , 15-C ) :   1.5678 B( 14-C , 83-H ) :   0.9523
B( 15-C , 16-C ) :   1.1559 B( 15-C , 84-H ) :   0.9376 B( 16-C , 17-C ) :   1.4495
B( 16-C , 23-C ) :   1.0368 B( 17-C , 18-N ) :   0.9604 B( 17-C , 21-C ) :   1.1517
B( 18-N , 19-O ) :   1.4640 B( 18-N , 20-O ) :   1.5383 B( 19-O , 20-O ) :   0.2527
B( 21-C , 22-C ) :   1.5607 B( 21-C , 85-H ) :   1.0084 B( 22-C , 23-C ) :   1.1402
B( 22-C , 86-H ) :   0.9963 B( 23-C , 24-C ) :   1.4634 B( 24-C , 25-C ) :   1.1778
B( 24-C , 31-C ) :   1.0037 B( 25-C , 26-C ) :   1.5245 B( 25-C , 87-H ) :   1.0041
B( 26-C , 27-C ) :   1.1554 B( 26-C , 88-H ) :   1.0111 B( 27-C , 28-N ) :   0.9524
B( 27-C , 31-C ) :   1.4636 B( 28-N , 29-O ) :   1.4939 B( 28-N , 30-O ) :   1.5304
B( 29-O , 30-O ) :   0.2597 B( 31-C , 32-C ) :   1.2224 B( 32-C , 33-C ) :   1.5208
B( 32-C , 89-H ) :   0.9511 B( 33-C , 34-C ) :   1.1514 B( 33-C , 90-H ) :   0.9619
B( 34-C , 35-C ) :   1.4996 B( 34-C , 38-C ) :   1.0397 B( 35-C , 36-C ) :   1.1459
B( 35-C , 91-H ) :   0.9976 B( 36-C , 37-C ) :   1.1071 B( 36-C , 41-C ) :   1.3786
B( 37-C , 38-C ) :   1.6637 B( 37-C , 39-C ) :   1.0874 B( 38-C , 92-H ) :   1.0251
B( 39-C , 40-N ) :   2.9659 B( 41-C , 42-C ) :   1.1283 B( 41-C , 45-C ) :   1.0970
B( 42-C , 43-C ) :   1.5043 B( 42-C , 93-H ) :   1.0110 B( 43-C , 44-C ) :   1.0290
B( 43-C , 48-C ) :   1.1128 B( 44-C , 45-C ) :   1.6930 B( 44-C , 94-H ) :   1.0154
B( 45-C , 46-C ) :   1.0881 B( 46-C , 47-N ) :   2.9705 B( 48-C , 49-C ) :   1.6037
B( 48-C , 95-H ) :   0.9621 B( 49-C , 50-C ) :   1.1439 B( 49-C , 96-H ) :   0.9716
B( 50-C , 51-C ) :   1.3813 B( 50-C , 55-C ) :   0.1310 B( 50-C , 57-C ) :   1.1463
B( 51-C , 52-F ) :   1.1431 B( 51-C , 53-C ) :   1.1262 B( 53-C , 54-F ) :   1.1851
B( 53-C , 55-C ) :   1.4593 B( 55-C , 56-C ) :   1.2376 B( 55-C , 61-C ) :   0.9116
B( 56-C , 57-C ) :   1.1518 B( 56-C , 60-N ) :   1.5522 B( 57-C , 58-N ) :   1.5345
B( 58-N , 59-S ) :   1.2559 B( 58-N , 60-N ) :   0.1442 B( 59-S , 60-N ) :   1.2770
B( 61-C , 62-C ) :   1.4834 B( 61-C , 66-C ) :   0.1276 B( 61-C , 68-C ) :   1.2284
B( 62-C , 63-F ) :   1.1839 B( 62-C , 64-C ) :   1.1193 B( 64-C , 65-F ) :   1.1115
B( 64-C , 66-C ) :   1.4592 B( 66-C , 67-C ) :   1.1421 B( 66-C , 97-H ) :   1.0519
B( 67-C , 68-C ) :   1.1617 B( 67-C , 71-N ) :   1.5142 B( 68-C , 69-N ) :   1.5508
B( 69-N , 70-S ) :   1.2671 B( 69-N , 71-N ) :   0.1495 B( 70-S , 71-N ) :   1.2804

-----------------------------------------------------------------------------
         ABSORPTION SPECTRUM VIA TRANSITION ELECTRIC DIPOLE MOMENTS
-----------------------------------------------------------------------------
State   Energy  Wavelength   fosc         T2         TX        TY        TZ
        (cm-1)    (nm)                  (au**2)     (au)      (au)      (au)
-----------------------------------------------------------------------------
   0    6351.2   1574.5   0.256416141  13.29119  -0.83215   3.50252   0.57540
   1   10147.6    985.5   0.177877518   5.77079   1.60093  -1.60721  -0.79038
   2   12950.6    772.2   0.302201016   7.68215   1.22725  -2.44955  -0.41914
   3   14742.7    678.3   0.124873595   2.78848   0.17951  -1.64478   0.22571
   4   16609.2    602.1   0.044114094   0.87439  -0.14007  -0.76889   0.51340
   5   16830.3    594.2   0.005915385   0.11571   0.08237   0.31601   0.09521
   6   20017.2    499.6   0.019673220   0.32356   0.08451   0.55757  -0.07433
   7   20912.1    478.2   0.086336291   1.35916   0.63630   0.65104  -0.72831
   8   21380.3    467.7   0.180019299   2.77192   1.00753  -1.32498  -0.03505
   9   22188.0    450.7   0.000189165   0.00281   0.03957  -0.01262  -0.03289
  10   22581.0    442.9   0.626186238   9.12927   1.24468  -2.75285   0.04313
  11   23515.6    425.3   0.018360858   0.25705   0.12234   0.38893  -0.30135
  12   24423.5    409.4   0.251446076   3.38932   0.90148  -1.59792   0.15266
  13   24603.7    406.4   0.051300365   0.68643  -0.69347   0.39226   0.22729
  14   25333.2    394.7   0.108034227   1.40393  -0.04817   0.54922   1.04879
  15   25458.3    392.8   0.023587650   0.30502   0.14780   0.01720   0.53187
  16   25937.3    385.5   0.129273004   1.64081   0.42507  -0.84377   0.86497
  17   26138.4    382.6   0.064399593   0.81111  -0.18449   0.65803   0.58658
  18   26723.3    374.2   0.055267444   0.68086  -0.00952  -0.27185   0.77901
  19   27750.6    360.4   0.091310917   1.08324   0.29632   0.04984   0.99647
  20   28481.4    351.1   0.003917246   0.04528   0.03564  -0.07092   0.19743
  21   29134.3    343.2   0.212785450   2.40443   0.27112  -0.29793   1.49739
  22   29143.7    343.1   0.017095979   0.19312  -0.10888  -0.27998  -0.32074
  23   29810.9    335.4   0.062485210   0.69005  -0.11030  -0.62648  -0.53423
  24   29964.5    333.7   0.010231874   0.11241   0.29518  -0.14846  -0.05697
  25   30092.6    332.3   0.023404044   0.25604  -0.04284  -0.13594  -0.48552
  26   30163.4    331.5   0.009411797   0.10272   0.12819   0.16290   0.24444
  27   30202.5    331.1   0.004428625   0.04827  -0.15509   0.14181  -0.06409
  28   30701.6    325.7   0.021955545   0.23543   0.24791  -0.40504  -0.09957
  29   31021.6    322.4   0.108342610   1.14977   0.28060   0.03783   1.03422
  30   31095.1    321.6   0.157078949   1.66303   0.07873  -1.28717  -0.00595
  31   31349.9    319.0   0.042229304   0.44346   0.31480   0.58273  -0.06913
  32   31449.1    318.0   0.008686719   0.09093   0.00893  -0.29178   0.07563
  33   31609.6    316.4   0.059282059   0.61742  -0.18436  -0.56199  -0.51729
  34   32033.1    312.2   0.170538503   1.75267  -0.29455   1.01967  -0.79131
  35   32230.8    310.3   0.095390775   0.97434   0.07313   0.29946  -0.93772
  36   32525.1    307.5   0.186919440   1.89196  -0.48795   0.65535  -1.10651
  37   32626.0    306.5   0.057764473   0.58287  -0.04501  -0.24921   0.72024
  38   32868.2    304.2   0.218713820   2.19067   0.38641  -0.96220   1.05619
  39   33237.6    300.9   0.123395440   1.22221   0.60630   0.11662   0.91706
  40   33934.3    294.7   0.012434131   0.12063  -0.33151   0.04689  -0.09236
  41   34015.4    294.0   0.006377477   0.06172   0.06865   0.13897   0.19416
  42   34469.1    290.1   0.007170545   0.06849  -0.22331  -0.09546   0.09749
  43   34567.2    289.3   0.000367133   0.00350  -0.03519  -0.04581   0.01262
  44   34805.8    287.3   0.025307717   0.23937  -0.33359   0.25616  -0.24995
  45   35325.9    283.1   0.001945480   0.01813  -0.01763  -0.13032  -0.02891
  46   35499.4    281.7   0.022736317   0.21085  -0.28471   0.31918  -0.16708
  47   35805.3    279.3   0.004930904   0.04534  -0.02236  -0.21168   0.00531
  48   36091.4    277.1   0.002535805   0.02313  -0.05374  -0.04161   0.13605
  49   36146.7    276.7   0.007222674   0.06578   0.20342  -0.15267   0.03307
  50   36332.0    275.2   0.073449583   0.66554  -0.41991  -0.69140   0.10577
  51   36537.0    273.7   0.020514271   0.18484  -0.06555   0.00904   0.42481
  52   36594.3    273.3   0.054611405   0.49130  -0.44994   0.53521   0.04900
  53   36873.7    271.2   0.100784018   0.89981  -0.50974  -0.41803  -0.68208
  54   37011.7    270.2   0.006315466   0.05617   0.11097  -0.15795  -0.13752
  55   37308.9    268.0   0.070928885   0.62587   0.37629  -0.64785   0.25410
  56   37613.3    265.9   0.046590836   0.40779   0.08209  -0.62825  -0.07971
  57   37741.7    265.0   0.323201844   2.81921   0.71483  -1.48214  -0.33393
  58   38189.4    261.9   0.014310073   0.12336  -0.25588   0.19898  -0.13525
  59   38383.6    260.5   0.007260964   0.06228  -0.13244   0.20964  -0.02803
  60   38589.3    259.1   0.005921348   0.05052   0.05782  -0.14316   0.16334
  61   39009.8    256.3   0.015442386   0.13032  -0.21260  -0.22045  -0.19111
  62   39034.9    256.2   0.060234734   0.50801   0.44706   0.32039   0.45331
  63   39155.5    255.4   0.121746376   1.02362   0.39628   0.79572   0.48313
  64   39331.9    254.2   0.052550751   0.43985   0.49262   0.22049  -0.38544
  65   39378.3    253.9   0.008287299   0.06928  -0.01623  -0.26204   0.01889
  66   39542.7    252.9   0.289354542   2.40901  -0.42770   1.12737   0.97731
  67   39676.8    252.0   0.038529625   0.31969   0.17816  -0.53638  -0.01576
  68   40015.0    249.9   0.025839406   0.21259  -0.32953   0.27448  -0.16927
  69   40303.2    248.1   0.045293785   0.36998  -0.43265  -0.28181  -0.32152

FINAL SINGLE POINT ENERGY     -4110.902601622276

DIPOLE MOMENT
-------------
                                X             Y             Z
Electronic contribution:    -62.65690     169.25306      27.29931
Nuclear contribution   :     61.90190    -168.63630     -27.35355
                        -----------------------------------------
Total Dipole Moment    :     -0.75500       0.61676      -0.05423
                        -----------------------------------------
Magnitude (a.u.)       :      0.97640
Magnitude (Debye)      :      2.48181

Rotational constants in cm-1:     0.002212     0.000205     0.000199
Rotational constants in MHz :    66.322736     6.145499     5.980347

                             ****ORCA TERMINATED NORMALLY****
TOTAL RUN TIME: 0 days 0 hours 10 minutes 35 seconds 795 msec
