                         Program Version 4.2.0 -  RELEASE  -
|  1> # ORCA input file
|  2> # SCF done       -203.457621099915          0.000940475181
|  3> ! CAM-B3LYP def2-SVP def2/J RIJCOSX Grid4 TightSCF
|  4> %maxcore 5000
|  5> %tddft
|  6>     Mode sTDDFT
|  7>     Ethresh 5.0
|  8>     maxcore 5000
|  9> end
| 10>
| 11> %pal
| 12>   nprocs 6
| 13>   end
| 14> * xyz 0 1
| 15>    C        2.58944         1.60660         4.17784
| 16>    N        1.44186         1.01333         3.76608
| 17>    C        1.18444        -0.40473         3.73544
| 18>    C        1.94588        -1.09036         2.60438
| 19>    C        0.50777         1.96997         3.29788
| 20>    O       -0.59410         1.67391         2.87721
| 21>    C        1.18692         3.23040         3.46643
| 22>    C        2.47467         2.96288         4.01314
| 23>    C        3.15669         4.23540         4.19736
| 24>    O        4.25288         4.50912         4.62429
| 25>    N        2.22000         5.19003         3.75568
| 26>    C        2.53632         6.60082         3.72908
| 27>    C        2.92931         7.06465         2.32946
| 28>    C        1.05499         4.61362         3.31896
| 29>    C       -0.05244         5.35413         2.85223
| 30>    C       -1.22669         4.78887         2.44972
| 31>    C       -2.33134         5.56886         2.06151
| 32>    S       -2.25355         7.30091         1.93960
| 33>    C       -3.95632         7.43757         1.62169
| 34>    C       -4.54448         6.17153         1.60132
| 35>    C       -3.63655         5.12547         1.81334
| 36>    O       -3.97219         3.82672         1.81200
| 37>    O       -5.89987         5.93663         1.44953
| 38>    C       -6.58812         5.80117         2.69890
| 39>    C       -4.50295         8.73368         1.55295
| 40>    S       -3.41944        10.03731         1.93768
| 41>    C       -4.74026        11.16852         2.06284
| 42>    C       -5.94741        10.57070         1.59412
| 43>    C       -5.80812         9.19415         1.33026
| 44>    O       -6.82360         8.43374         0.88340
| 45>    O       -7.00512        11.35005         1.41580
| 46>    C       -8.26810        10.80789         1.06432
| 47>    C       -4.52634        12.45663         2.53448
| 48>    C       -5.45639        13.52440         2.69445
| 49>    N       -6.77599        13.43681         3.12642
| 50>    O       -7.50138        14.40829         2.99658
| 51>    O       -7.11845        12.40339         3.69724
| 52>    C       -4.75156        14.73429         2.59522
| 53>    C       -3.39736        14.46386         2.44032
| 54>    C       -3.18991        13.08590         2.53010
| 55>    C       -1.92951        12.45409         2.57775
| 56>    C       -0.84717        12.86255         1.76480
| 57>    C        0.21842        12.01838         1.96582
| 58>    C       -0.12972        11.10050         2.98334
| 59>    N        0.71159        10.06946         3.38790
| 60>    O        1.86714        10.08241         2.98312
| 61>    O        0.26684         9.17017         4.09658
| 62>    C       -1.44750        11.37185         3.43338
| 63>    C       -1.96071        10.92146         4.66408
| 64>    C       -3.21906        11.12757         5.16896
| 65>    C       -3.57823        10.89027         6.50353
| 66>    C       -4.85985        11.00815         6.98803
| 67>    C       -5.15854        11.41945         8.38302
| 68>    O       -4.39775        11.43011         9.32321
| 69>    C       -6.57006        11.87500         8.34902
| 70>    C       -7.30997        12.48447         9.31985
| 71>    C       -8.63750        12.87695         9.02573
| 72>    C       -9.17303        12.64080         7.72547
| 73>    C      -10.48856        13.05523         7.43926
| 74>    C      -11.24261        13.66781         8.40056
| 75>    C      -10.71544        13.89557         9.68672
| 76>    C       -9.44038        13.51014         9.99382
| 77>    F      -11.47713        14.49768        10.61162
| 78>    F      -12.49638        14.05670         8.12899
| 79>    C       -8.38986        11.99228         6.74233
| 80>    C       -7.11656        11.61167         7.06013
| 81>    C       -6.10278        10.92780         6.27198
| 82>    C       -6.34496        10.10543         5.19980
| 83>    C       -5.39403         9.21080         4.68967
| 84>    N       -4.71790         8.38474         4.25935
| 85>    C       -7.60305         9.88980         4.60473
| 86>    N       -8.58114         9.60203         4.07631
| 87>    H        3.40593         1.02806         4.56868
| 88>    H        0.10757        -0.51888         3.58502
| 89>    H        1.46096        -0.84128         4.69976
| 90>    H        1.65508        -0.66644         1.64642
| 91>    H        1.71900        -2.15267         2.59851
| 92>    H        3.01879        -0.96323         2.73010
| 93>    H        3.37885         6.73856         4.41089
| 94>    H        1.68593         7.17729         4.10095
| 95>    H        3.85324         6.58491         2.01580
| 96>    H        3.07346         8.14134         2.34037
| 97>    H        2.14943         6.82497         1.60882
| 98>    H        0.02790         6.43321         2.85496
| 99>    H       -1.36308         3.71449         2.45661
|100>    H       -4.89805         3.73306         1.54544
|101>    H       -6.44698         6.69178         3.31597
|102>    H       -6.23290         4.92837         3.25105
|103>    H       -7.64026         5.68239         2.45024
|104>    H       -6.56905         7.48827         0.88513
|105>    H       -8.64046        10.15981         1.86038
|106>    H       -8.21618        10.25599         0.12531
|107>    H       -8.92217        11.67160         0.95969
|108>    H       -5.20693        15.70273         2.68825
|109>    H       -2.61517        15.19715         2.40001
|110>    H       -0.90539        13.64886         1.03665
|111>    H        1.15679        12.01645         1.44488
|112>    H       -1.26528        10.36232         5.27860
|113>    H       -3.97919        11.56699         4.53795
|114>    H       -2.78899        10.75204         7.23358
|115>    H       -6.89256        12.67142        10.29762
|116>    H      -10.90433        12.88835         6.45801
|117>    H       -9.05157        13.69510        10.98296
|118>    H       -8.79049        11.83654         5.75285
|119> *
|120>
|121>                          ****END OF INPUT****

CARTESIAN COORDINATES (ANGSTROEM)
---------------------------------
  C      2.589440    1.606600    4.177840
  N      1.441860    1.013330    3.766080
  C      1.184440   -0.404730    3.735440
  C      1.945880   -1.090360    2.604380
  C      0.507770    1.969970    3.297880
  O     -0.594100    1.673910    2.877210
  C      1.186920    3.230400    3.466430
  C      2.474670    2.962880    4.013140
  C      3.156690    4.235400    4.197360
  O      4.252880    4.509120    4.624290
  N      2.220000    5.190030    3.755680
  C      2.536320    6.600820    3.729080
  C      2.929310    7.064650    2.329460
  C      1.054990    4.613620    3.318960
  C     -0.052440    5.354130    2.852230
  C     -1.226690    4.788870    2.449720
  C     -2.331340    5.568860    2.061510
  S     -2.253550    7.300910    1.939600
  C     -3.956320    7.437570    1.621690
  C     -4.544480    6.171530    1.601320
  C     -3.636550    5.125470    1.813340
  O     -3.972190    3.826720    1.812000
  O     -5.899870    5.936630    1.449530
  C     -6.588120    5.801170    2.698900
  C     -4.502950    8.733680    1.552950
  S     -3.419440   10.037310    1.937680
  C     -4.740260   11.168520    2.062840
  C     -5.947410   10.570700    1.594120
  C     -5.808120    9.194150    1.330260
  O     -6.823600    8.433740    0.883400
  O     -7.005120   11.350050    1.415800
  C     -8.268100   10.807890    1.064320
  C     -4.526340   12.456630    2.534480
  C     -5.456390   13.524400    2.694450
  N     -6.775990   13.436810    3.126420
  O     -7.501380   14.408290    2.996580
  O     -7.118450   12.403390    3.697240
  C     -4.751560   14.734290    2.595220
  C     -3.397360   14.463860    2.440320
  C     -3.189910   13.085900    2.530100
  C     -1.929510   12.454090    2.577750
  C     -0.847170   12.862550    1.764800
  C      0.218420   12.018380    1.965820
  C     -0.129720   11.100500    2.983340
  N      0.711590   10.069460    3.387900
  O      1.867140   10.082410    2.983120
  O      0.266840    9.170170    4.096580
  C     -1.447500   11.371850    3.433380
  C     -1.960710   10.921460    4.664080
  C     -3.219060   11.127570    5.168960
  C     -3.578230   10.890270    6.503530
  C     -4.859850   11.008150    6.988030
  C     -5.158540   11.419450    8.383020
  O     -4.397750   11.430110    9.323210
  C     -6.570060   11.875000    8.349020
  C     -7.309970   12.484470    9.319850
  C     -8.637500   12.876950    9.025730
  C     -9.173030   12.640800    7.725470
  C    -10.488560   13.055230    7.439260
  C    -11.242610   13.667810    8.400560
  C    -10.715440   13.895570    9.686720
  C     -9.440380   13.510140    9.993820
  F    -11.477130   14.497680   10.611620
  F    -12.496380   14.056700    8.128990
  C     -8.389860   11.992280    6.742330
  C     -7.116560   11.611670    7.060130
  C     -6.102780   10.927800    6.271980
  C     -6.344960   10.105430    5.199800
  C     -5.394030    9.210800    4.689670
  N     -4.717900    8.384740    4.259350
  C     -7.603050    9.889800    4.604730
  N     -8.581140    9.602030    4.076310
  H      3.405930    1.028060    4.568680
  H      0.107570   -0.518880    3.585020
  H      1.460960   -0.841280    4.699760
  H      1.655080   -0.666440    1.646420
  H      1.719000   -2.152670    2.598510
  H      3.018790   -0.963230    2.730100
  H      3.378850    6.738560    4.410890
  H      1.685930    7.177290    4.100950
  H      3.853240    6.584910    2.015800
  H      3.073460    8.141340    2.340370
  H      2.149430    6.824970    1.608820
  H      0.027900    6.433210    2.854960
  H     -1.363080    3.714490    2.456610
  H     -4.898050    3.733060    1.545440
  H     -6.446980    6.691780    3.315970
  H     -6.232900    4.928370    3.251050
  H     -7.640260    5.682390    2.450240
  H     -6.569050    7.488270    0.885130
  H     -8.640460   10.159810    1.860380
  H     -8.216180   10.255990    0.125310
  H     -8.922170   11.671600    0.959690
  H     -5.206930   15.702730    2.688250
  H     -2.615170   15.197150    2.400010
  H     -0.905390   13.648860    1.036650
  H      1.156790   12.016450    1.444880
  H     -1.265280   10.362320    5.278600
  H     -3.979190   11.566990    4.537950
  H     -2.788990   10.752040    7.233580
  H     -6.892560   12.671420   10.297620
  H    -10.904330   12.888350    6.458010
  H     -9.051570   13.695100   10.982960
  H     -8.790490   11.836540    5.752850

 Total Charge           Charge          ....    0
 Multiplicity           Mult            ....    1
 Number of Electrons    NEL             ....  518
 Basis Dimension        Dim             .... 1176

ORBITAL ENERGIES
----------------

  NO   OCC          E(Eh)            E(eV)
   0   2.0000     -88.984849     -2421.4009
   1   2.0000     -88.980298     -2421.2770
   2   2.0000     -24.790157      -674.5745
   3   2.0000     -24.789359      -674.5528
   4   2.0000     -19.299267      -525.1598
   5   2.0000     -19.288042      -524.8543
   6   2.0000     -19.281375      -524.6729
   7   2.0000     -19.268432      -524.3207
   8   2.0000     -19.229532      -523.2622
   9   2.0000     -19.227599      -523.2096
  10   2.0000     -19.225135      -523.1425
  11   2.0000     -19.224901      -523.1362
  12   2.0000     -19.204082      -522.5696
  13   2.0000     -19.191934      -522.2391
  14   2.0000     -19.179240      -521.8937
  15   2.0000     -14.635712      -398.2580
  16   2.0000     -14.633847      -398.2072
  17   2.0000     -14.452909      -393.2837
  18   2.0000     -14.443121      -393.0173
  19   2.0000     -14.417429      -392.3182
  20   2.0000     -14.413539      -392.2123
  21   2.0000     -10.390562      -282.7416
  22   2.0000     -10.375569      -282.3336
  23   2.0000     -10.372994      -282.2635
  24   2.0000     -10.372156      -282.2407
  25   2.0000     -10.372154      -282.2407
  26   2.0000     -10.371540      -282.2239
  27   2.0000     -10.371167      -282.2138
  28   2.0000     -10.365886      -282.0701
  29   2.0000     -10.360425      -281.9215
  30   2.0000     -10.357093      -281.8308
  31   2.0000     -10.351153      -281.6692
  32   2.0000     -10.350848      -281.6609
  33   2.0000     -10.345836      -281.5245
  34   2.0000     -10.338463      -281.3239
  35   2.0000     -10.335780      -281.2509
  36   2.0000     -10.334042      -281.2036
  37   2.0000     -10.332967      -281.1743
  38   2.0000     -10.330580      -281.1094
  39   2.0000     -10.328502      -281.0528
  40   2.0000     -10.323303      -280.9113
  41   2.0000     -10.323299      -280.9112
  42   2.0000     -10.319401      -280.8052
  43   2.0000     -10.318668      -280.7852
  44   2.0000     -10.311178      -280.5814
  45   2.0000     -10.310021      -280.5499
  46   2.0000     -10.308870      -280.5186
  47   2.0000     -10.307320      -280.4764
  48   2.0000     -10.305275      -280.4208
  49   2.0000     -10.302340      -280.3409
  50   2.0000     -10.300670      -280.2955
  51   2.0000     -10.300161      -280.2816
  52   2.0000     -10.298591      -280.2389
  53   2.0000     -10.298151      -280.2269
  54   2.0000     -10.295048      -280.1425
  55   2.0000     -10.295044      -280.1424
  56   2.0000     -10.294252      -280.1208
  57   2.0000     -10.292412      -280.0708
  58   2.0000     -10.292234      -280.0659
  59   2.0000     -10.291189      -280.0375
  60   2.0000     -10.290565      -280.0205
  61   2.0000     -10.285177      -279.8739
  62   2.0000     -10.283775      -279.8357
  63   2.0000     -10.283489      -279.8280
  64   2.0000     -10.281198      -279.7656
  65   2.0000     -10.278945      -279.7043
  66   2.0000     -10.274402      -279.5807
  67   2.0000     -10.269373      -279.4438
  68   2.0000     -10.265497      -279.3384
  69   2.0000     -10.259463      -279.1742
  70   2.0000     -10.256933      -279.1053
  71   2.0000     -10.240282      -278.6522
  72   2.0000      -8.080059      -219.8696
  73   2.0000      -8.075020      -219.7325
  74   2.0000      -6.049468      -164.6144
  75   2.0000      -6.045587      -164.5088
  76   2.0000      -6.044997      -164.4927
  77   2.0000      -6.041532      -164.3984
  78   2.0000      -6.040872      -164.3805
  79   2.0000      -6.035436      -164.2326
  80   2.0000      -1.312360       -35.7111
  81   2.0000      -1.303889       -35.4806
  82   2.0000      -1.301988       -35.4289
  83   2.0000      -1.297535       -35.3077
  84   2.0000      -1.200786       -32.6750
  85   2.0000      -1.195327       -32.5265
  86   2.0000      -1.173684       -31.9376
  87   2.0000      -1.162110       -31.6226
  88   2.0000      -1.129958       -30.7477
  89   2.0000      -1.119688       -30.4683
  90   2.0000      -1.119148       -30.4536
  91   2.0000      -1.119092       -30.4520
  92   2.0000      -1.118453       -30.4346
  93   2.0000      -1.060427       -28.8557
  94   2.0000      -1.049755       -28.5653
  95   2.0000      -1.032495       -28.0956
  96   2.0000      -1.017477       -27.6870
  97   2.0000      -1.013772       -27.5861
  98   2.0000      -0.998699       -27.1760
  99   2.0000      -0.995484       -27.0885
 100   2.0000      -0.993629       -27.0380
 101   2.0000      -0.982913       -26.7464
 102   2.0000      -0.973664       -26.4947
 103   2.0000      -0.928737       -25.2722
 104   2.0000      -0.926976       -25.2243
 105   2.0000      -0.920233       -25.0408
 106   2.0000      -0.910372       -24.7725
 107   2.0000      -0.901567       -24.5329
 108   2.0000      -0.899017       -24.4635
 109   2.0000      -0.887081       -24.1387
 110   2.0000      -0.882329       -24.0094
 111   2.0000      -0.875223       -23.8160
 112   2.0000      -0.871495       -23.7146
 113   2.0000      -0.869219       -23.6527
 114   2.0000      -0.859854       -23.3978
 115   2.0000      -0.853449       -23.2235
 116   2.0000      -0.849377       -23.1127
 117   2.0000      -0.831236       -22.6191
 118   2.0000      -0.818067       -22.2607
 119   2.0000      -0.814966       -22.1764
 120   2.0000      -0.810977       -22.0678
 121   2.0000      -0.810333       -22.0503
 122   2.0000      -0.803592       -21.8669
 123   2.0000      -0.796445       -21.6724
 124   2.0000      -0.790903       -21.5216
 125   2.0000      -0.766007       -20.8441
 126   2.0000      -0.759768       -20.6743
 127   2.0000      -0.756975       -20.5983
 128   2.0000      -0.752365       -20.4729
 129   2.0000      -0.738791       -20.1035
 130   2.0000      -0.728375       -19.8201
 131   2.0000      -0.716132       -19.4869
 132   2.0000      -0.708585       -19.2816
 133   2.0000      -0.707237       -19.2449
 134   2.0000      -0.705827       -19.2065
 135   2.0000      -0.700414       -19.0592
 136   2.0000      -0.699846       -19.0438
 137   2.0000      -0.692339       -18.8395
 138   2.0000      -0.683725       -18.6051
 139   2.0000      -0.678362       -18.4592
 140   2.0000      -0.676432       -18.4066
 141   2.0000      -0.667726       -18.1697
 142   2.0000      -0.661331       -17.9957
 143   2.0000      -0.656809       -17.8727
 144   2.0000      -0.646651       -17.5963
 145   2.0000      -0.642736       -17.4897
 146   2.0000      -0.637986       -17.3605
 147   2.0000      -0.635832       -17.3019
 148   2.0000      -0.634407       -17.2631
 149   2.0000      -0.633241       -17.2314
 150   2.0000      -0.625054       -17.0086
 151   2.0000      -0.620407       -16.8821
 152   2.0000      -0.616624       -16.7792
 153   2.0000      -0.614254       -16.7147
 154   2.0000      -0.613388       -16.6911
 155   2.0000      -0.612480       -16.6664
 156   2.0000      -0.607812       -16.5394
 157   2.0000      -0.602480       -16.3943
 158   2.0000      -0.601361       -16.3639
 159   2.0000      -0.593750       -16.1568
 160   2.0000      -0.593302       -16.1446
 161   2.0000      -0.585202       -15.9241
 162   2.0000      -0.582911       -15.8618
 163   2.0000      -0.579709       -15.7747
 164   2.0000      -0.578090       -15.7306
 165   2.0000      -0.576954       -15.6997
 166   2.0000      -0.572007       -15.5651
 167   2.0000      -0.571532       -15.5522
 168   2.0000      -0.569421       -15.4947
 169   2.0000      -0.561977       -15.2922
 170   2.0000      -0.559845       -15.2342
 171   2.0000      -0.557641       -15.1742
 172   2.0000      -0.552823       -15.0431
 173   2.0000      -0.545553       -14.8452
 174   2.0000      -0.543958       -14.8018
 175   2.0000      -0.543247       -14.7825
 176   2.0000      -0.540035       -14.6951
 177   2.0000      -0.538904       -14.6643
 178   2.0000      -0.537917       -14.6375
 179   2.0000      -0.534017       -14.5314
 180   2.0000      -0.531870       -14.4729
 181   2.0000      -0.527033       -14.3413
 182   2.0000      -0.525305       -14.2943
 183   2.0000      -0.524198       -14.2642
 184   2.0000      -0.522318       -14.2130
 185   2.0000      -0.520486       -14.1632
 186   2.0000      -0.515865       -14.0374
 187   2.0000      -0.513666       -13.9776
 188   2.0000      -0.510322       -13.8866
 189   2.0000      -0.507755       -13.8167
 190   2.0000      -0.506023       -13.7696
 191   2.0000      -0.505332       -13.7508
 192   2.0000      -0.504425       -13.7261
 193   2.0000      -0.502489       -13.6734
 194   2.0000      -0.499297       -13.5866
 195   2.0000      -0.498792       -13.5728
 196   2.0000      -0.496064       -13.4986
 197   2.0000      -0.492597       -13.4043
 198   2.0000      -0.491487       -13.3740
 199   2.0000      -0.491008       -13.3610
 200   2.0000      -0.486113       -13.2278
 201   2.0000      -0.481358       -13.0984
 202   2.0000      -0.479152       -13.0384
 203   2.0000      -0.477251       -12.9867
 204   2.0000      -0.475650       -12.9431
 205   2.0000      -0.473074       -12.8730
 206   2.0000      -0.472347       -12.8532
 207   2.0000      -0.470891       -12.8136
 208   2.0000      -0.466794       -12.7021
 209   2.0000      -0.465786       -12.6747
 210   2.0000      -0.460333       -12.5263
 211   2.0000      -0.456968       -12.4347
 212   2.0000      -0.456543       -12.4232
 213   2.0000      -0.453900       -12.3513
 214   2.0000      -0.453149       -12.3308
 215   2.0000      -0.452249       -12.3063
 216   2.0000      -0.448161       -12.1951
 217   2.0000      -0.447497       -12.1770
 218   2.0000      -0.444558       -12.0970
 219   2.0000      -0.442565       -12.0428
 220   2.0000      -0.434902       -11.8343
 221   2.0000      -0.432414       -11.7666
 222   2.0000      -0.432344       -11.7647
 223   2.0000      -0.431804       -11.7500
 224   2.0000      -0.430594       -11.7171
 225   2.0000      -0.429682       -11.6922
 226   2.0000      -0.424227       -11.5438
 227   2.0000      -0.422902       -11.5078
 228   2.0000      -0.418698       -11.3934
 229   2.0000      -0.416154       -11.3241
 230   2.0000      -0.413675       -11.2567
 231   2.0000      -0.408187       -11.1073
 232   2.0000      -0.403313       -10.9747
 233   2.0000      -0.400634       -10.9018
 234   2.0000      -0.399257       -10.8643
 235   2.0000      -0.388299       -10.5662
 236   2.0000      -0.381130       -10.3711
 237   2.0000      -0.378600       -10.3022
 238   2.0000      -0.376315       -10.2400
 239   2.0000      -0.369357       -10.0507
 240   2.0000      -0.367134        -9.9902
 241   2.0000      -0.363135        -9.8814
 242   2.0000      -0.357659        -9.7324
 243   2.0000      -0.353567        -9.6211
 244   2.0000      -0.346127        -9.4186
 245   2.0000      -0.344120        -9.3640
 246   2.0000      -0.334381        -9.0990
 247   2.0000      -0.330522        -8.9940
 248   2.0000      -0.324700        -8.8355
 249   2.0000      -0.323210        -8.7950
 250   2.0000      -0.319866        -8.7040
 251   2.0000      -0.309086        -8.4106
 252   2.0000      -0.308068        -8.3829
 253   2.0000      -0.302768        -8.2387
 254   2.0000      -0.291952        -7.9444
 255   2.0000      -0.290335        -7.9004
 256   2.0000      -0.266894        -7.2626
 257   2.0000      -0.251812        -6.8522
 258   2.0000      -0.237526        -6.4634
 259   0.0000      -0.146446        -3.9850
 260   0.0000      -0.095746        -2.6054
 261   0.0000      -0.077401        -2.1062
 262   0.0000      -0.052112        -1.4180
 263   0.0000      -0.045590        -1.2406

MULLIKEN ATOMIC CHARGES
-----------------------
   0 C :    0.044554
   1 N :   -0.259786
   2 C :    0.112969
   3 C :   -0.004411
   4 C :    0.165113
   5 O :   -0.204144
   6 C :   -0.100932
   7 C :   -0.005214
   8 C :    0.164277
   9 O :   -0.177738
  10 N :   -0.261170
  11 C :    0.087259
  12 C :   -0.000222
  13 C :    0.166173
  14 C :   -0.031462
  15 C :    0.015223
  16 C :   -0.112384
  17 S :    0.168868
  18 C :   -0.074062
  19 C :    0.135995
  20 C :    0.127742
  21 O :   -0.144732
  22 O :   -0.397029
  23 C :    0.166989
  24 C :   -0.040195
  25 S :    0.134309
  26 C :   -0.097914
  27 C :    0.194298
  28 C :    0.056478
  29 O :   -0.183993
  30 O :   -0.260186
  31 C :    0.174392
  32 C :    0.056105
  33 C :   -0.002173
  34 N :    0.291691
  35 O :   -0.270387
  36 O :   -0.290499
  37 C :    0.064984
  38 C :   -0.024523
  39 C :    0.011480
  40 C :   -0.018115
  41 C :    0.004123
  42 C :    0.006511
  43 C :    0.059628
  44 N :    0.286184
  45 O :   -0.258396
  46 O :   -0.269427
  47 C :   -0.005452
  48 C :    0.047067
  49 C :   -0.028023
  50 C :    0.047078
  51 C :   -0.144497
  52 C :    0.152516
  53 O :   -0.139489
  54 C :    0.011471
  55 C :   -0.092981
  56 C :    0.113458
  57 C :    0.113666
  58 C :   -0.107168
  59 C :    0.240241
  60 C :    0.239031
  61 C :   -0.107137
  62 F :   -0.175828
  63 F :   -0.174538
  64 C :   -0.072215
  65 C :    0.020061
  66 C :    0.281374
  67 C :   -0.310771
  68 C :   -0.188668
  69 N :    0.116025
  70 C :   -0.161010
  71 N :    0.135764
  72 H :    0.017298
  73 H :    0.042234
  74 H :    0.018962
  75 H :    0.029298
  76 H :    0.024180
  77 H :    0.017109
  78 H :    0.038952
  79 H :    0.032246
  80 H :    0.015842
  81 H :    0.041250
  82 H :   -0.003590
  83 H :    0.003419
  84 H :    0.033637
  85 H :    0.194319
  86 H :    0.050772
  87 H :    0.035935
  88 H :    0.058890
  89 H :    0.196595
  90 H :    0.053166
  91 H :    0.036350
  92 H :    0.045037
  93 H :    0.006557
  94 H :   -0.010565
  95 H :   -0.022758
  96 H :   -0.012634
  97 H :    0.017530
  98 H :    0.016371
  99 H :    0.019665
 100 H :   -0.012958
 101 H :    0.002567
 102 H :   -0.003919
 103 H :    0.002018
Sum of atomic charges:   -0.0000000

LOEWDIN ATOMIC CHARGES
----------------------
   0 C :    0.091807
   1 N :    0.000580
   2 C :    0.038327
   3 C :   -0.060616
   4 C :    0.076911
   5 O :   -0.197823
   6 C :   -0.122040
   7 C :   -0.125615
   8 C :    0.080480
   9 O :   -0.184185
  10 N :   -0.000561
  11 C :    0.034286
  12 C :   -0.066094
  13 C :    0.080045
  14 C :   -0.025915
  15 C :    0.007998
  16 C :   -0.164219
  17 S :    0.483914
  18 C :   -0.197287
  19 C :   -0.007152
  20 C :    0.014111
  21 O :   -0.022986
  22 O :   -0.128127
  23 C :    0.084698
  24 C :   -0.142377
  25 S :    0.495811
  26 C :   -0.138308
  27 C :    0.056550
  28 C :   -0.013542
  29 O :   -0.041678
  30 O :   -0.034141
  31 C :    0.084706
  32 C :    0.005573
  33 C :   -0.113593
  34 N :    0.292791
  35 O :   -0.232506
  36 O :   -0.245075
  37 C :    0.069998
  38 C :   -0.063673
  39 C :    0.033705
  40 C :   -0.047339
  41 C :   -0.035346
  42 C :   -0.011183
  43 C :   -0.068691
  44 N :    0.294077
  45 O :   -0.221472
  46 O :   -0.241461
  47 C :   -0.062997
  48 C :    0.043918
  49 C :   -0.051727
  50 C :    0.075089
  51 C :   -0.103178
  52 C :    0.079654
  53 O :   -0.146376
  54 C :   -0.051361
  55 C :    0.024650
  56 C :   -0.010110
  57 C :   -0.007229
  58 C :   -0.029362
  59 C :    0.064031
  60 C :    0.064458
  61 C :   -0.034499
  62 F :   -0.052944
  63 F :   -0.052279
  64 C :    0.019633
  65 C :   -0.019507
  66 C :    0.077717
  67 C :   -0.151361
  68 C :   -0.006020
  69 N :   -0.088080
  70 C :   -0.005541
  71 N :   -0.075166
  72 H :    0.033271
  73 H :    0.035960
  74 H :    0.024646
  75 H :    0.031227
  76 H :    0.030450
  77 H :    0.022933
  78 H :    0.037190
  79 H :    0.019953
  80 H :    0.025350
  81 H :    0.030836
  82 H :    0.015187
  83 H :    0.028358
  84 H :    0.047435
  85 H :    0.102355
  86 H :    0.026759
  87 H :    0.021798
  88 H :    0.034091
  89 H :    0.069476
  90 H :    0.025139
  91 H :    0.020875
  92 H :    0.031923
  93 H :    0.041424
  94 H :    0.030243
  95 H :    0.025116
  96 H :    0.032287
  97 H :    0.038204
  98 H :    0.028156
  99 H :    0.045957
 100 H :    0.038852
 101 H :    0.046600
 102 H :    0.043426
 103 H :    0.039748

  Mayer bond orders larger than 0.100000
B(  0-C ,  1-N ) :   1.1985 B(  0-C ,  7-C ) :   1.4437 B(  0-C , 72-H ) :   0.9887
B(  1-N ,  2-C ) :   0.9425 B(  1-N ,  4-C ) :   1.0476 B(  2-C ,  3-C ) :   1.1166
B(  2-C , 73-H ) :   0.9348 B(  2-C , 74-H ) :   0.9542 B(  3-C , 75-H ) :   0.9674
B(  3-C , 76-H ) :   0.9688 B(  3-C , 77-H ) :   0.9696 B(  4-C ,  5-O ) :   2.0320
B(  4-C ,  6-C ) :   1.0066 B(  5-O , 84-H ) :   0.1024 B(  6-C ,  7-C ) :   1.2232
B(  6-C , 13-C ) :   1.3409 B(  7-C ,  8-C ) :   0.9426 B(  8-C ,  9-O ) :   2.1884
B(  8-C , 10-N ) :   1.0211 B( 10-N , 11-C ) :   0.9242 B( 10-N , 13-C ) :   1.1805
B( 11-C , 12-C ) :   1.1204 B( 11-C , 78-H ) :   0.9276 B( 11-C , 79-H ) :   0.9369
B( 12-C , 80-H ) :   0.9612 B( 12-C , 81-H ) :   0.9582 B( 12-C , 82-H ) :   0.9671
B( 13-C , 14-C ) :   1.1839 B( 14-C , 15-C ) :   1.5227 B( 14-C , 83-H ) :   0.9543
B( 15-C , 16-C ) :   1.1957 B( 15-C , 84-H ) :   0.9625 B( 16-C , 17-S ) :   1.1124
B( 16-C , 18-C ) :   0.1188 B( 16-C , 20-C ) :   1.3813 B( 17-S , 18-C ) :   1.1086
B( 18-C , 19-C ) :   1.4024 B( 18-C , 24-C ) :   1.2393 B( 19-C , 20-C ) :   1.2935
B( 19-C , 22-O ) :   1.0832 B( 20-C , 21-O ) :   1.3040 B( 21-O , 85-H ) :   0.9415
B( 22-O , 23-C ) :   0.8740 B( 22-O , 89-H ) :   0.1173 B( 23-C , 86-H ) :   0.9651
B( 23-C , 87-H ) :   0.9739 B( 23-C , 88-H ) :   0.9783 B( 24-C , 25-S ) :   1.0706
B( 24-C , 28-C ) :   1.3213 B( 25-S , 26-C ) :   1.0693 B( 26-C , 27-C ) :   1.2180
B( 26-C , 32-C ) :   1.4735 B( 27-C , 28-C ) :   1.3014 B( 27-C , 30-O ) :   1.2830
B( 28-C , 29-O ) :   1.3031 B( 29-O , 89-H ) :   0.8969 B( 30-O , 31-C ) :   0.8818
B( 31-C , 90-H ) :   0.9572 B( 31-C , 91-H ) :   0.9704 B( 31-C , 92-H ) :   0.9756
B( 32-C , 33-C ) :   1.1760 B( 32-C , 39-C ) :   1.0181 B( 33-C , 34-N ) :   0.9971
B( 33-C , 37-C ) :   1.3689 B( 34-N , 35-O ) :   1.5086 B( 34-N , 36-O ) :   1.4605
B( 35-O , 36-O ) :   0.2283 B( 37-C , 38-C ) :   1.2669 B( 37-C , 93-H ) :   1.0032
B( 38-C , 39-C ) :   1.4443 B( 38-C , 94-H ) :   1.0116 B( 39-C , 40-C ) :   1.1814
B( 40-C , 41-C ) :   1.2850 B( 40-C , 47-C ) :   1.1188 B( 41-C , 42-C ) :   1.4129
B( 41-C , 95-H ) :   1.0099 B( 42-C , 43-C ) :   1.2767 B( 42-C , 96-H ) :   1.0089
B( 43-C , 44-N ) :   0.9834 B( 43-C , 47-C ) :   1.2889 B( 44-N , 45-O ) :   1.4951
B( 44-N , 46-O ) :   1.4514 B( 45-O , 46-O ) :   0.2265 B( 47-C , 48-C ) :   1.2088
B( 48-C , 49-C ) :   1.5160 B( 48-C , 97-H ) :   0.9620 B( 49-C , 50-C ) :   1.2413
B( 49-C , 98-H ) :   0.9626 B( 50-C , 51-C ) :   1.4895 B( 50-C , 99-H ) :   0.9671
B( 51-C , 52-C ) :   0.9471 B( 51-C , 66-C ) :   1.1080 B( 52-C , 53-O ) :   2.2860
B( 52-C , 54-C ) :   0.9070 B( 54-C , 55-C ) :   1.4818 B( 54-C , 65-C ) :   1.2145
B( 55-C , 56-C ) :   1.1882 B( 55-C ,100-H ) :   1.0164 B( 56-C , 57-C ) :   1.2630
B( 56-C , 61-C ) :   1.1972 B( 57-C , 58-C ) :   1.1922 B( 57-C , 64-C ) :   1.1966
B( 58-C , 59-C ) :   1.4365 B( 58-C , 61-C ) :   0.1092 B( 58-C ,101-H ) :   1.0080
B( 59-C , 60-C ) :   1.1966 B( 59-C , 63-F ) :   1.1303 B( 60-C , 61-C ) :   1.4388
B( 60-C , 62-F ) :   1.1295 B( 61-C ,102-H ) :   1.0067 B( 64-C , 65-C ) :   1.4781
B( 64-C ,103-H ) :   0.9928 B( 65-C , 66-C ) :   0.9935 B( 66-C , 67-C ) :   1.5767
B( 67-C , 68-C ) :   1.2003 B( 67-C , 70-C ) :   1.1482 B( 68-C , 69-N ) :   2.8736
B( 70-C , 71-N ) :   2.9136

-----------------------------------------------------------------------------
         ABSORPTION SPECTRUM VIA TRANSITION ELECTRIC DIPOLE MOMENTS
-----------------------------------------------------------------------------
State   Energy  Wavelength   fosc         T2         TX        TY        TZ
        (cm-1)    (nm)                  (au**2)     (au)      (au)      (au)
-----------------------------------------------------------------------------
   0    4014.7   2490.8   0.049674604   4.07340  -0.36469   1.72118   0.98892
   1    6914.3   1446.3   0.068483049   3.26070  -0.21477   1.76615  -0.30869
   2    9313.6   1073.7   0.306751149  10.84285   2.04967  -2.52528   0.51444
   3   13336.7    749.8   0.004853901   0.11982   0.14924  -0.27398   0.14992
   4   15512.9    644.6   0.154006142   3.26829  -0.79140  -0.79128   1.41980
   5   16595.0    602.6   0.199017869   3.94813  -0.04706   1.74487  -0.94939
   6   17349.4    576.4   0.184313022   3.49741  -0.41659   1.82085  -0.09146
   7   18359.9    544.7   0.257808084   4.62277  -2.02871   0.41850   0.57618
   8   19350.9    516.8   0.045109866   0.76744  -0.81936   0.30346  -0.06325
   9   19904.0    502.4   0.022806664   0.37722   0.50414  -0.34087  -0.08292
  10   20728.5    482.4   0.004716300   0.07490  -0.04841   0.19650  -0.18425
  11   21840.2    457.9   0.230840418   3.47961   1.60043  -0.95757   0.03587
  12   22059.6    453.3   0.106360265   1.58730  -1.04515   0.70189   0.04793
  13   22632.0    441.9   0.327576439   4.76502   2.07576  -0.59801  -0.31405
  14   22905.1    436.6   0.064982916   0.93399   0.89914   0.08671  -0.34355
  15   23375.3    427.8   0.105569440   1.48681  -0.51662   1.08619   0.20025
  16   24395.6    409.9   0.017053966   0.23014  -0.37782   0.20014   0.21758
  17   24822.1    402.9   0.072129098   0.95664  -0.91307   0.35024   0.01626
  18   24978.6    400.3   0.004629992   0.06102  -0.21137   0.11871   0.04747
  19   25548.3    391.4   0.004681231   0.06032   0.10076   0.03336  -0.22149
  20   25850.1    386.8   0.054067936   0.68858   0.67424  -0.45292   0.16982
  21   25951.1    385.3   0.092117399   1.16859   0.90108  -0.39977  -0.44366
  22   26503.7    377.3   0.011578498   0.14382   0.15883  -0.18612  -0.28975
  23   26799.3    373.1   0.097572769   1.19862  -0.95441   0.34264   0.41269
  24   27254.3    366.9   0.119823008   1.44737  -1.17938  -0.12012   0.20494
  25   27443.5    364.4   0.221752519   2.66014  -1.03282   0.72223   1.03528
  26   27919.5    358.2   0.114770002   1.35331   1.09199  -0.14022  -0.37577
  27   28305.3    353.3   0.003808791   0.04430   0.11641   0.08259   0.15468
  28   28509.7    350.8   0.001392901   0.01608  -0.00563  -0.07990  -0.09833
  29   28704.9    348.4   0.057558640   0.66013   0.64206   0.35191   0.35222
  30   28884.1    346.2   0.000506136   0.00577  -0.05523  -0.02005   0.04812
  31   29824.6    335.3   0.011392945   0.12576   0.19655  -0.17393   0.23848
  32   30012.1    333.2   0.014161945   0.15535   0.18483   0.34561   0.04169
  33   30135.4    331.8   0.012893380   0.14085   0.07987  -0.36049  -0.06724
  34   30341.4    329.6   0.007296701   0.07917  -0.24937   0.11944   0.05217
  35   30532.2    327.5   0.085868920   0.92588  -0.86253   0.00305  -0.42650
  36   30710.1    325.6   0.205519777   2.20317  -0.24735  -1.07416  -0.99406
  37   31047.6    322.1   0.064784435   0.68694   0.73816  -0.33644  -0.16988
  38   31265.9    319.8   0.039458124   0.41547   0.31322   0.15587   0.54136
  39   31398.1    318.5   0.029646585   0.31085   0.51278  -0.01613  -0.21827
  40   31686.1    315.6   0.008526054   0.08858   0.09233  -0.25251   0.12765
  41   31744.8    315.0   0.134846071   1.39843  -1.01510   0.49851   0.34567
  42   32190.7    310.6   0.048318781   0.49415  -0.35743   0.05209   0.60306
  43   32548.7    307.2   0.041801463   0.42280   0.58825  -0.13429  -0.24234
  44   32827.7    304.6   0.014955374   0.14998   0.29571  -0.04001  -0.24685
  45   33100.3    302.1   0.181008285   1.80029  -0.37170   0.90031   0.92281
  46   33184.9    301.3   0.054681843   0.54247   0.38064  -0.19636  -0.59919
  47   33289.0    300.4   0.005801586   0.05737  -0.10471   0.21324   0.03067
  48   33363.9    299.7   0.072369236   0.71409   0.29114  -0.75385  -0.24707
  49   33709.1    296.7   0.269887912   2.63580  -1.11405   0.64267   0.99079
  50   34092.6    293.3   0.048294984   0.46636   0.02265   0.67999   0.05874
  51   34451.4    290.3   0.022519532   0.21519   0.11840   0.44851  -0.00384
  52   34634.6    288.7   0.120509070   1.14547   0.67274  -0.70291  -0.44588
  53   34904.7    286.5   0.140705289   1.32709   1.03385   0.41456   0.29391
  54   35197.5    284.1   0.056899409   0.53220   0.65493   0.06471   0.31477
  55   35446.6    282.1   0.036133680   0.33559   0.51917   0.15401   0.20576
  56   35552.5    281.3   0.036169103   0.33492   0.24842  -0.31342  -0.41830
  57   35893.2    278.6   0.007973774   0.07314   0.02207   0.20695  -0.17268
  58   36335.7    275.2   0.026077215   0.23627   0.35491  -0.25246   0.21580
  59   36380.4    274.9   0.005485599   0.04964  -0.03135  -0.20764   0.07445
  60   36454.7    274.3   0.014116258   0.12748   0.27645  -0.21423   0.07186
  61   36789.1    271.8   0.101904652   0.91191   0.45130   0.04221  -0.84051
  62   36900.6    271.0   0.105236764   0.93888  -0.32742  -0.19401  -0.89109
  63   37114.5    269.4   0.055767280   0.49467   0.22109   0.60146  -0.28988
  64   37394.6    267.4   0.036761179   0.32364   0.33317  -0.31515  -0.33662
  65   37488.7    266.7   0.132538585   1.16391  -0.73468  -0.52820  -0.58750
  66   37604.0    265.9   0.121404867   1.06286  -0.62752  -0.79980  -0.17146
  67   37816.3    264.4   0.065427650   0.56958  -0.50455   0.33919   0.44717
  68   38039.0    262.9   0.002891378   0.02502   0.14539   0.01205  -0.06115
  69   38108.1    262.4   0.004205216   0.03633  -0.04550   0.16144  -0.09053
  70   38482.4    259.9   0.042202225   0.36103   0.56465   0.13020   0.15890
  71   38767.9    257.9   0.011258389   0.09560  -0.29791  -0.06334   0.05332
  72   38942.6    256.8   0.025583753   0.21628   0.03540   0.45238  -0.10186
  73   39027.9    256.2   0.007285820   0.06146   0.00376  -0.07276  -0.23696
  74   39074.3    255.9   0.024522125   0.20661   0.42944   0.14824   0.01440
  75   39321.5    254.3   0.014560447   0.12190  -0.23144   0.25581  -0.05387
  76   39391.5    253.9   0.012304715   0.10284  -0.12576   0.03239   0.29321
  77   39743.4    251.6   0.036134375   0.29932  -0.22462  -0.48763  -0.10525
  78   39808.9    251.2   0.000245757   0.00203  -0.02030   0.03104   0.02563
  79   39874.6    250.8   0.008363439   0.06905  -0.03638  -0.23067   0.12048
  80   40040.1    249.7   0.010528367   0.08656  -0.00257   0.29197  -0.03622
  81   40179.3    248.9   0.068015632   0.55729   0.68280   0.29998   0.03300
  82   40266.3    248.3   0.036039611   0.29466  -0.44740   0.09024  -0.29384

FINAL SINGLE POINT ENERGY     -4110.095642816275

DIPOLE MOMENT
-------------
                                X             Y             Z
Electronic contribution:    -51.15913      54.18691      25.39039
Nuclear contribution   :     49.86421     -55.90815     -27.42603
                        -----------------------------------------
Total Dipole Moment    :     -1.29491      -1.72124      -2.03564
                        -----------------------------------------
Magnitude (a.u.)       :      2.96366
Magnitude (Debye)      :      7.53302

Rotational constants in cm-1:     0.001635     0.000495     0.000480
Rotational constants in MHz :    49.023492    14.841464    14.393468

                             ****ORCA TERMINATED NORMALLY****
TOTAL RUN TIME: 0 days 0 hours 17 minutes 13 seconds 752 msec
