                         Program Version 4.2.0 -  RELEASE  -
|  1> # ORCA input file
|  2> # SCF done       -160.440265812987          0.000719169174
|  3> ! CAM-B3LYP def2-SVP def2/J RIJCOSX Grid4 TightSCF
|  4> %maxcore 5000
|  5> %tddft
|  6>     Mode sTDDFT
|  7>     Ethresh 5.0
|  8>     maxcore 5000
|  9> end
| 10>
| 11> %pal
| 12>   nprocs 6
| 13>   end
| 14> * xyz 0 1
| 15>    C        0.92851         1.12936        -5.69879
| 16>    N        0.81199         2.17564        -6.55942
| 17>    C        1.34959         2.23515        -7.89492
| 18>    C        0.51428         1.41559        -8.87516
| 19>    C        0.02677         3.21708        -6.00543
| 20>    O       -0.21971         4.25376        -6.58980
| 21>    C       -0.32901         2.71774        -4.70294
| 22>    C        0.24829         1.41889        -4.54877
| 23>    C       -0.11774         0.93699        -3.23432
| 24>    O        0.10424        -0.10127        -2.65204
| 25>    N       -0.88412         1.98601        -2.67520
| 26>    C       -1.42939         1.83123        -1.34916
| 27>    C       -0.50231         2.41012        -0.28168
| 28>    C       -1.00727         3.05265        -3.54045
| 29>    C       -1.68348         4.29254        -3.38029
| 30>    C       -2.21757         4.85590        -2.27005
| 31>    C       -2.86140         6.12429        -2.26374
| 32>    S       -3.36106         6.81598        -0.73637
| 33>    C       -4.00383         8.23202        -1.51121
| 34>    C       -3.83543         8.14772        -2.90096
| 35>    C       -3.18995         6.96462        -3.30176
| 36>    C       -4.26747         9.15632        -3.85340
| 37>    O       -4.83316        10.19480        -3.60462
| 38>    C       -4.59058         9.28936        -0.78644
| 39>    C       -4.64965         9.33932         0.57050
| 40>    C       -5.22455        10.39458         1.31034
| 41>    S       -5.98233        11.74306         0.51208
| 42>    C       -6.33541        12.52032         2.02287
| 43>    C       -5.86910        11.75694         3.08953
| 44>    C       -5.24001        10.55284         2.69864
| 45>    C       -4.65279         9.58729         3.61236
| 46>    C       -4.16555         9.88308         4.81237
| 47>    O       -6.05097        12.14671         4.39313
| 48>    C       -7.10524        11.47321         5.05748
| 49>    C       -7.02491        13.76310         2.01576
| 50>    C       -7.19108        14.56565         3.09539
| 51>    C       -7.90400        15.79246         3.08332
| 52>    C       -8.62981        16.40355         2.07325
| 53>    C       -9.20528        17.60784         2.44997
| 54>    C       -8.93645        17.97142         3.76358
| 55>    S       -7.94760        16.75529         4.52795
| 56>    C       -9.41724        19.15352         4.37951
| 57>    N       -9.14686        19.59662         5.65546
| 58>    C       -8.23731        19.03984         6.62583
| 59>    C       -6.78620        19.40183         6.31993
| 60>    C       -9.81441        20.80766         5.94569
| 61>    O       -9.72233        21.37957         7.01196
| 62>    C      -10.54950        21.10302         4.74299
| 63>    C      -10.28531        20.07673         3.79594
| 64>    C      -11.04675        20.38524         2.61341
| 65>    O      -11.16366        19.82316         1.53842
| 66>    N      -11.72991        21.58002         2.92559
| 67>    C      -12.56680        22.19749         1.92707
| 68>    C      -11.85351        23.34649         1.21771
| 69>    C      -11.43307        22.01870         4.19502
| 70>    C      -11.91124        23.16513         4.91637
| 71>    C      -12.73289        24.14503         4.53718
| 72>    H        1.49631         0.25661        -5.96407
| 73>    H        2.38345         1.87714        -7.88273
| 74>    H        1.33720         3.28900        -8.18620
| 75>    H        0.49583         0.36818        -8.58188
| 76>    H        0.93518         1.49203        -9.87377
| 77>    H       -0.50648         1.78909        -8.89711
| 78>    H       -1.52589         0.75303        -1.18607
| 79>    H       -2.42391         2.28135        -1.31003
| 80>    H        0.43709         1.86318        -0.28135
| 81>    H       -0.96089         2.31417         0.69887
| 82>    H       -0.28732         3.45964        -0.47113
| 83>    H       -1.71477         4.85214        -4.30599
| 84>    H       -2.15539         4.37460        -1.30673
| 85>    H       -2.97840         6.73676        -4.33100
| 86>    H       -4.02727         8.88102        -4.89872
| 87>    H       -4.99153        10.10101        -1.37934
| 88>    H       -4.21513         8.52590         1.13831
| 89>    H       -4.60793         8.56788         3.25145
| 90>    H       -4.16813        10.88851         5.19588
| 91>    H       -3.74098         9.12259         5.44514
| 92>    H       -7.10561        11.84727         6.07935
| 93>    H       -6.94716        10.39092         5.06277
| 94>    H       -8.06758        11.69624         4.58457
| 95>    H       -7.41872        14.06639         1.05543
| 96>    H       -6.74900        14.27781         4.03795
| 97>    H       -8.73931        15.97897         1.09225
| 98>    H       -9.81110        18.21551         1.80099
| 99>    H       -8.36744        17.95659         6.68331
|100>    H       -8.52590        19.48152         7.58473
|101>    H       -6.48417        19.02005         5.34772
|102>    H       -6.13443        18.97703         7.07779
|103>    H       -6.66799        20.48271         6.32254
|104>    H      -13.50229        22.52607         2.38554
|105>    H      -12.79164        21.41062         1.20008
|106>    H      -11.53427        24.10741         1.92606
|107>    H      -12.51801        23.79976         0.48713
|108>    H      -10.97528        22.96812         0.70068
|109>    H      -11.50700        23.18769         5.92144
|110>    H      -13.17637        24.22229         3.56186
|111>    H      -12.98654        24.93029         5.22885
|112> *
|113>
|114>                          ****END OF INPUT****

CARTESIAN COORDINATES (ANGSTROEM)
---------------------------------
  C      0.928510    1.129360   -5.698790
  N      0.811990    2.175640   -6.559420
  C      1.349590    2.235150   -7.894920
  C      0.514280    1.415590   -8.875160
  C      0.026770    3.217080   -6.005430
  O     -0.219710    4.253760   -6.589800
  C     -0.329010    2.717740   -4.702940
  C      0.248290    1.418890   -4.548770
  C     -0.117740    0.936990   -3.234320
  O      0.104240   -0.101270   -2.652040
  N     -0.884120    1.986010   -2.675200
  C     -1.429390    1.831230   -1.349160
  C     -0.502310    2.410120   -0.281680
  C     -1.007270    3.052650   -3.540450
  C     -1.683480    4.292540   -3.380290
  C     -2.217570    4.855900   -2.270050
  C     -2.861400    6.124290   -2.263740
  S     -3.361060    6.815980   -0.736370
  C     -4.003830    8.232020   -1.511210
  C     -3.835430    8.147720   -2.900960
  C     -3.189950    6.964620   -3.301760
  C     -4.267470    9.156320   -3.853400
  O     -4.833160   10.194800   -3.604620
  C     -4.590580    9.289360   -0.786440
  C     -4.649650    9.339320    0.570500
  C     -5.224550   10.394580    1.310340
  S     -5.982330   11.743060    0.512080
  C     -6.335410   12.520320    2.022870
  C     -5.869100   11.756940    3.089530
  C     -5.240010   10.552840    2.698640
  C     -4.652790    9.587290    3.612360
  C     -4.165550    9.883080    4.812370
  O     -6.050970   12.146710    4.393130
  C     -7.105240   11.473210    5.057480
  C     -7.024910   13.763100    2.015760
  C     -7.191080   14.565650    3.095390
  C     -7.904000   15.792460    3.083320
  C     -8.629810   16.403550    2.073250
  C     -9.205280   17.607840    2.449970
  C     -8.936450   17.971420    3.763580
  S     -7.947600   16.755290    4.527950
  C     -9.417240   19.153520    4.379510
  N     -9.146860   19.596620    5.655460
  C     -8.237310   19.039840    6.625830
  C     -6.786200   19.401830    6.319930
  C     -9.814410   20.807660    5.945690
  O     -9.722330   21.379570    7.011960
  C    -10.549500   21.103020    4.742990
  C    -10.285310   20.076730    3.795940
  C    -11.046750   20.385240    2.613410
  O    -11.163660   19.823160    1.538420
  N    -11.729910   21.580020    2.925590
  C    -12.566800   22.197490    1.927070
  C    -11.853510   23.346490    1.217710
  C    -11.433070   22.018700    4.195020
  C    -11.911240   23.165130    4.916370
  C    -12.732890   24.145030    4.537180
  H      1.496310    0.256610   -5.964070
  H      2.383450    1.877140   -7.882730
  H      1.337200    3.289000   -8.186200
  H      0.495830    0.368180   -8.581880
  H      0.935180    1.492030   -9.873770
  H     -0.506480    1.789090   -8.897110
  H     -1.525890    0.753030   -1.186070
  H     -2.423910    2.281350   -1.310030
  H      0.437090    1.863180   -0.281350
  H     -0.960890    2.314170    0.698870
  H     -0.287320    3.459640   -0.471130
  H     -1.714770    4.852140   -4.305990
  H     -2.155390    4.374600   -1.306730
  H     -2.978400    6.736760   -4.331000
  H     -4.027270    8.881020   -4.898720
  H     -4.991530   10.101010   -1.379340
  H     -4.215130    8.525900    1.138310
  H     -4.607930    8.567880    3.251450
  H     -4.168130   10.888510    5.195880
  H     -3.740980    9.122590    5.445140
  H     -7.105610   11.847270    6.079350
  H     -6.947160   10.390920    5.062770
  H     -8.067580   11.696240    4.584570
  H     -7.418720   14.066390    1.055430
  H     -6.749000   14.277810    4.037950
  H     -8.739310   15.978970    1.092250
  H     -9.811100   18.215510    1.800990
  H     -8.367440   17.956590    6.683310
  H     -8.525900   19.481520    7.584730
  H     -6.484170   19.020050    5.347720
  H     -6.134430   18.977030    7.077790
  H     -6.667990   20.482710    6.322540
  H    -13.502290   22.526070    2.385540
  H    -12.791640   21.410620    1.200080
  H    -11.534270   24.107410    1.926060
  H    -12.518010   23.799760    0.487130
  H    -10.975280   22.968120    0.700680
  H    -11.507000   23.187690    5.921440
  H    -13.176370   24.222290    3.561860
  H    -12.986540   24.930290    5.228850

 Total Charge           Charge          ....    0
 Multiplicity           Mult            ....    1
 Number of Electrons    NEL             ....  428
 Basis Dimension        Dim             .... 1010

ORBITAL ENERGIES
----------------

  NO   OCC          E(Eh)            E(eV)
   0   2.0000     -88.969061     -2420.9712
   1   2.0000     -88.963374     -2420.8165
   2   2.0000     -88.959046     -2420.6987
   3   2.0000     -19.245510      -523.6969
   4   2.0000     -19.210341      -522.7400
   5   2.0000     -19.184355      -522.0328
   6   2.0000     -19.183136      -521.9997
   7   2.0000     -19.182393      -521.9795
   8   2.0000     -19.178659      -521.8778
   9   2.0000     -14.449634      -393.1945
  10   2.0000     -14.448657      -393.1679
  11   2.0000     -14.447603      -393.1393
  12   2.0000     -14.443573      -393.0296
  13   2.0000     -10.369303      -282.1631
  14   2.0000     -10.367603      -282.1168
  15   2.0000     -10.365697      -282.0649
  16   2.0000     -10.362328      -281.9733
  17   2.0000     -10.356458      -281.8135
  18   2.0000     -10.341832      -281.4155
  19   2.0000     -10.337783      -281.3054
  20   2.0000     -10.333655      -281.1931
  21   2.0000     -10.328508      -281.0530
  22   2.0000     -10.324592      -280.9464
  23   2.0000     -10.323364      -280.9130
  24   2.0000     -10.322149      -280.8800
  25   2.0000     -10.313353      -280.6406
  26   2.0000     -10.309271      -280.5295
  27   2.0000     -10.308913      -280.5198
  28   2.0000     -10.307307      -280.4761
  29   2.0000     -10.307254      -280.4747
  30   2.0000     -10.306505      -280.4543
  31   2.0000     -10.305877      -280.4372
  32   2.0000     -10.303732      -280.3788
  33   2.0000     -10.301192      -280.3097
  34   2.0000     -10.298112      -280.2259
  35   2.0000     -10.296304      -280.1767
  36   2.0000     -10.291091      -280.0348
  37   2.0000     -10.291034      -280.0333
  38   2.0000     -10.290901      -280.0297
  39   2.0000     -10.290311      -280.0136
  40   2.0000     -10.285030      -279.8699
  41   2.0000     -10.284948      -279.8677
  42   2.0000     -10.283655      -279.8325
  43   2.0000     -10.283419      -279.8260
  44   2.0000     -10.280863      -279.7565
  45   2.0000     -10.274294      -279.5777
  46   2.0000     -10.274252      -279.5766
  47   2.0000     -10.273897      -279.5670
  48   2.0000     -10.270294      -279.4689
  49   2.0000     -10.262843      -279.2661
  50   2.0000     -10.262586      -279.2592
  51   2.0000     -10.255524      -279.0670
  52   2.0000     -10.255416      -279.0641
  53   2.0000     -10.255320      -279.0614
  54   2.0000     -10.254670      -279.0438
  55   2.0000     -10.250112      -278.9197
  56   2.0000     -10.249813      -278.9116
  57   2.0000      -8.064701      -219.4517
  58   2.0000      -8.058195      -219.2746
  59   2.0000      -8.054641      -219.1779
  60   2.0000      -6.033767      -164.1872
  61   2.0000      -6.029877      -164.0813
  62   2.0000      -6.027443      -164.0151
  63   2.0000      -6.027025      -164.0037
  64   2.0000      -6.023798      -163.9159
  65   2.0000      -6.023270      -163.9015
  66   2.0000      -6.020541      -163.8273
  67   2.0000      -6.020002      -163.8126
  68   2.0000      -6.016606      -163.7202
  69   2.0000      -1.147750       -31.2319
  70   2.0000      -1.126919       -30.6650
  71   2.0000      -1.124258       -30.5926
  72   2.0000      -1.122961       -30.5573
  73   2.0000      -1.120033       -30.4776
  74   2.0000      -1.116339       -30.3771
  75   2.0000      -1.057467       -28.7751
  76   2.0000      -1.054753       -28.7013
  77   2.0000      -1.048718       -28.5371
  78   2.0000      -1.044326       -28.4175
  79   2.0000      -0.998515       -27.1710
  80   2.0000      -0.990111       -26.9423
  81   2.0000      -0.985228       -26.8094
  82   2.0000      -0.924904       -25.1679
  83   2.0000      -0.921948       -25.0875
  84   2.0000      -0.920137       -25.0382
  85   2.0000      -0.911404       -24.8006
  86   2.0000      -0.894049       -24.3283
  87   2.0000      -0.886834       -24.1320
  88   2.0000      -0.880733       -23.9660
  89   2.0000      -0.873229       -23.7618
  90   2.0000      -0.864850       -23.5338
  91   2.0000      -0.858558       -23.3625
  92   2.0000      -0.853068       -23.2132
  93   2.0000      -0.838712       -22.8225
  94   2.0000      -0.832841       -22.6628
  95   2.0000      -0.823572       -22.4105
  96   2.0000      -0.817856       -22.2550
  97   2.0000      -0.812393       -22.1063
  98   2.0000      -0.811893       -22.0927
  99   2.0000      -0.796376       -21.6705
 100   2.0000      -0.784647       -21.3513
 101   2.0000      -0.775725       -21.1085
 102   2.0000      -0.767123       -20.8745
 103   2.0000      -0.758468       -20.6390
 104   2.0000      -0.752817       -20.4852
 105   2.0000      -0.752696       -20.4819
 106   2.0000      -0.731542       -19.9063
 107   2.0000      -0.718547       -19.5526
 108   2.0000      -0.711488       -19.3606
 109   2.0000      -0.705456       -19.1964
 110   2.0000      -0.702131       -19.1060
 111   2.0000      -0.688693       -18.7403
 112   2.0000      -0.680785       -18.5251
 113   2.0000      -0.677583       -18.4380
 114   2.0000      -0.673562       -18.3286
 115   2.0000      -0.664351       -18.0779
 116   2.0000      -0.654449       -17.8085
 117   2.0000      -0.651192       -17.7198
 118   2.0000      -0.645553       -17.5664
 119   2.0000      -0.641148       -17.4465
 120   2.0000      -0.638655       -17.3787
 121   2.0000      -0.626799       -17.0561
 122   2.0000      -0.615802       -16.7568
 123   2.0000      -0.612692       -16.6722
 124   2.0000      -0.599199       -16.3050
 125   2.0000      -0.597621       -16.2621
 126   2.0000      -0.588507       -16.0141
 127   2.0000      -0.583892       -15.8885
 128   2.0000      -0.580194       -15.7879
 129   2.0000      -0.579614       -15.7721
 130   2.0000      -0.578536       -15.7428
 131   2.0000      -0.571955       -15.5637
 132   2.0000      -0.570639       -15.5279
 133   2.0000      -0.565746       -15.3947
 134   2.0000      -0.558939       -15.2095
 135   2.0000      -0.553952       -15.0738
 136   2.0000      -0.551909       -15.0182
 137   2.0000      -0.546056       -14.8589
 138   2.0000      -0.543729       -14.7956
 139   2.0000      -0.541980       -14.7480
 140   2.0000      -0.538419       -14.6511
 141   2.0000      -0.538063       -14.6414
 142   2.0000      -0.530219       -14.4280
 143   2.0000      -0.528843       -14.3905
 144   2.0000      -0.527976       -14.3670
 145   2.0000      -0.524454       -14.2711
 146   2.0000      -0.519989       -14.1496
 147   2.0000      -0.517891       -14.0925
 148   2.0000      -0.515466       -14.0265
 149   2.0000      -0.514090       -13.9891
 150   2.0000      -0.512206       -13.9378
 151   2.0000      -0.508630       -13.8405
 152   2.0000      -0.508251       -13.8302
 153   2.0000      -0.504955       -13.7405
 154   2.0000      -0.503065       -13.6891
 155   2.0000      -0.497990       -13.5510
 156   2.0000      -0.495743       -13.4899
 157   2.0000      -0.494933       -13.4678
 158   2.0000      -0.493655       -13.4330
 159   2.0000      -0.488448       -13.2914
 160   2.0000      -0.484615       -13.1870
 161   2.0000      -0.480591       -13.0776
 162   2.0000      -0.474626       -12.9152
 163   2.0000      -0.472356       -12.8535
 164   2.0000      -0.469751       -12.7826
 165   2.0000      -0.468571       -12.7505
 166   2.0000      -0.466307       -12.6889
 167   2.0000      -0.464133       -12.6297
 168   2.0000      -0.463637       -12.6162
 169   2.0000      -0.463018       -12.5994
 170   2.0000      -0.460199       -12.5227
 171   2.0000      -0.455155       -12.3854
 172   2.0000      -0.453392       -12.3374
 173   2.0000      -0.451924       -12.2975
 174   2.0000      -0.451740       -12.2925
 175   2.0000      -0.448333       -12.1998
 176   2.0000      -0.446711       -12.1556
 177   2.0000      -0.445021       -12.1096
 178   2.0000      -0.441941       -12.0258
 179   2.0000      -0.439028       -11.9466
 180   2.0000      -0.437393       -11.9021
 181   2.0000      -0.435262       -11.8441
 182   2.0000      -0.432693       -11.7742
 183   2.0000      -0.429923       -11.6988
 184   2.0000      -0.428718       -11.6660
 185   2.0000      -0.427071       -11.6212
 186   2.0000      -0.426416       -11.6034
 187   2.0000      -0.422724       -11.5029
 188   2.0000      -0.420677       -11.4472
 189   2.0000      -0.412878       -11.2350
 190   2.0000      -0.411830       -11.2065
 191   2.0000      -0.410004       -11.1568
 192   2.0000      -0.405580       -11.0364
 193   2.0000      -0.400486       -10.8978
 194   2.0000      -0.393980       -10.7207
 195   2.0000      -0.374916       -10.2020
 196   2.0000      -0.358332        -9.7507
 197   2.0000      -0.355014        -9.6604
 198   2.0000      -0.343563        -9.3488
 199   2.0000      -0.341701        -9.2981
 200   2.0000      -0.338066        -9.1992
 201   2.0000      -0.336880        -9.1670
 202   2.0000      -0.328456        -8.9378
 203   2.0000      -0.327244        -8.9048
 204   2.0000      -0.325267        -8.8510
 205   2.0000      -0.322593        -8.7782
 206   2.0000      -0.321413        -8.7461
 207   2.0000      -0.309978        -8.4349
 208   2.0000      -0.306139        -8.3305
 209   2.0000      -0.301671        -8.2089
 210   2.0000      -0.288991        -7.8638
 211   2.0000      -0.256517        -6.9802
 212   2.0000      -0.237920        -6.4741
 213   2.0000      -0.222988        -6.0678
 214   0.0000      -0.087621        -2.3843
 215   0.0000      -0.068367        -1.8604
 216   0.0000      -0.050423        -1.3721
 217   0.0000      -0.018517        -0.5039
 218   0.0000       0.006600         0.1796

MULLIKEN ATOMIC CHARGES
-----------------------
   0 C :    0.040087
   1 N :   -0.264048
   2 C :    0.113169
   3 C :   -0.000991
   4 C :    0.156057
   5 O :   -0.201861
   6 C :   -0.077331
   7 C :    0.015022
   8 C :    0.157806
   9 O :   -0.189868
  10 N :   -0.274345
  11 C :    0.105798
  12 C :    0.004329
  13 C :    0.130667
  14 C :   -0.046927
  15 C :    0.080205
  16 C :   -0.079902
  17 S :    0.120296
  18 C :   -0.082053
  19 C :    0.023079
  20 C :   -0.002225
  21 C :    0.146967
  22 O :   -0.186159
  23 C :   -0.016991
  24 C :    0.009411
  25 C :   -0.100092
  26 S :    0.141557
  27 C :   -0.087359
  28 C :    0.093822
  29 C :    0.111720
  30 C :   -0.081512
  31 C :   -0.000128
  32 O :   -0.348875
  33 C :    0.197591
  34 C :    0.019993
  35 C :    0.046464
  36 C :   -0.050029
  37 C :    0.017977
  38 C :    0.011278
  39 C :   -0.142767
  40 S :    0.117339
  41 C :    0.203150
  42 N :   -0.273365
  43 C :    0.081517
  44 C :    0.009401
  45 C :    0.148084
  46 O :   -0.197174
  47 C :   -0.033376
  48 C :   -0.088131
  49 C :    0.153452
  50 O :   -0.223263
  51 N :   -0.261816
  52 C :    0.101361
  53 C :    0.004828
  54 C :    0.069967
  55 C :   -0.018814
  56 C :   -0.011365
  57 H :    0.014277
  58 H :    0.017068
  59 H :    0.041207
  60 H :    0.014307
  61 H :    0.022391
  62 H :    0.030090
  63 H :    0.039277
  64 H :    0.019958
  65 H :    0.031848
  66 H :    0.018231
  67 H :    0.016960
  68 H :    0.006531
  69 H :   -0.021214
  70 H :    0.002502
  71 H :   -0.014354
  72 H :    0.022174
  73 H :   -0.009159
  74 H :    0.001270
  75 H :    0.039302
  76 H :    0.022579
  77 H :    0.034197
  78 H :    0.028097
  79 H :    0.020745
  80 H :   -0.014238
  81 H :    0.002660
  82 H :   -0.013213
  83 H :    0.006473
  84 H :    0.031593
  85 H :    0.043464
  86 H :    0.019910
  87 H :    0.019915
  88 H :    0.027784
  89 H :    0.020747
  90 H :    0.039433
  91 H :    0.018434
  92 H :    0.018422
  93 H :    0.026099
  94 H :    0.013099
  95 H :    0.018830
  96 H :    0.030678
Sum of atomic charges:   -0.0000000

LOEWDIN ATOMIC CHARGES
----------------------
   0 C :    0.094198
   1 N :   -0.003315
   2 C :    0.038039
   3 C :   -0.060628
   4 C :    0.075149
   5 O :   -0.204959
   6 C :   -0.124841
   7 C :   -0.132591
   8 C :    0.083498
   9 O :   -0.192899
  10 N :   -0.011826
  11 C :    0.034559
  12 C :   -0.063735
  13 C :    0.077819
  14 C :   -0.030720
  15 C :   -0.021339
  16 C :   -0.173694
  17 S :    0.442124
  18 C :   -0.120961
  19 C :   -0.122017
  20 C :   -0.023428
  21 C :    0.108186
  22 O :   -0.141681
  23 C :   -0.051397
  24 C :   -0.024189
  25 C :   -0.166659
  26 S :    0.455302
  27 C :   -0.181378
  28 C :    0.013811
  29 C :   -0.061439
  30 C :   -0.031207
  31 C :   -0.026935
  32 O :   -0.124441
  33 C :    0.081380
  34 C :   -0.032046
  35 C :   -0.038937
  36 C :   -0.156269
  37 C :   -0.054837
  38 C :   -0.006052
  39 C :   -0.197392
  40 S :    0.457246
  41 C :    0.073770
  42 N :   -0.008514
  43 C :    0.024474
  44 C :   -0.064500
  45 C :    0.082652
  46 O :   -0.197287
  47 C :   -0.116542
  48 C :   -0.134206
  49 C :    0.080711
  50 O :   -0.211233
  51 N :    0.000392
  52 C :    0.035327
  53 C :   -0.062967
  54 C :    0.064063
  55 C :   -0.028528
  56 C :   -0.028841
  57 H :    0.032407
  58 H :    0.024195
  59 H :    0.036137
  60 H :    0.022131
  61 H :    0.029839
  62 H :    0.031622
  63 H :    0.036651
  64 H :    0.021064
  65 H :    0.034265
  66 H :    0.028757
  67 H :    0.019946
  68 H :    0.045127
  69 H :    0.028099
  70 H :    0.036397
  71 H :   -0.000320
  72 H :    0.032083
  73 H :    0.024575
  74 H :    0.028557
  75 H :    0.026414
  76 H :    0.025116
  77 H :    0.025331
  78 H :    0.015275
  79 H :    0.015866
  80 H :    0.029299
  81 H :    0.029992
  82 H :    0.031912
  83 H :    0.037541
  84 H :    0.009999
  85 H :    0.037920
  86 H :    0.015432
  87 H :    0.029704
  88 H :    0.031071
  89 H :    0.021046
  90 H :    0.035799
  91 H :    0.022079
  92 H :    0.028734
  93 H :    0.031663
  94 H :    0.047780
  95 H :    0.021090
  96 H :    0.031130

  Mayer bond orders larger than 0.100000
B(  0-C ,  1-N ) :   1.1967 B(  0-C ,  7-C ) :   1.4503 B(  0-C , 57-H ) :   0.9904
B(  1-N ,  2-C ) :   0.9419 B(  1-N ,  4-C ) :   1.0307 B(  2-C ,  3-C ) :   1.1198
B(  2-C , 58-H ) :   0.9538 B(  2-C , 59-H ) :   0.9344 B(  3-C , 60-H ) :   0.9689
B(  3-C , 61-H ) :   0.9688 B(  3-C , 62-H ) :   0.9674 B(  4-C ,  5-O ) :   2.1149
B(  4-C ,  6-C ) :   0.9981 B(  6-C ,  7-C ) :   1.1918 B(  6-C , 13-C ) :   1.3777
B(  7-C ,  8-C ) :   0.9522 B(  8-C ,  9-O ) :   2.1646 B(  8-C , 10-N ) :   1.0189
B( 10-N , 11-C ) :   0.9464 B( 10-N , 13-C ) :   1.1598 B( 11-C , 12-C ) :   1.1177
B( 11-C , 63-H ) :   0.9263 B( 11-C , 64-H ) :   0.9505 B( 12-C , 65-H ) :   0.9603
B( 12-C , 66-H ) :   0.9688 B( 12-C , 67-H ) :   0.9668 B( 13-C , 14-C ) :   1.1855
B( 14-C , 15-C ) :   1.6178 B( 14-C , 68-H ) :   0.9469 B( 15-C , 16-C ) :   1.1168
B( 15-C , 69-H ) :   0.9627 B( 16-C , 17-S ) :   1.0934 B( 16-C , 20-C ) :   1.5120
B( 17-S , 18-C ) :   1.1487 B( 18-C , 19-C ) :   1.3968 B( 18-C , 23-C ) :   1.2105
B( 19-C , 20-C ) :   1.2234 B( 19-C , 21-C ) :   1.0071 B( 20-C , 70-H ) :   0.9905
B( 21-C , 22-O ) :   2.1182 B( 21-C , 71-H ) :   0.9622 B( 23-C , 24-C ) :   1.5826
B( 23-C , 72-H ) :   0.9558 B( 24-C , 25-C ) :   1.2037 B( 24-C , 73-H ) :   0.9634
B( 25-C , 26-S ) :   1.1079 B( 25-C , 29-C ) :   1.4044 B( 26-S , 27-C ) :   1.1130
B( 27-C , 28-C ) :   1.4718 B( 27-C , 34-C ) :   1.1340 B( 28-C , 29-C ) :   1.2496
B( 28-C , 32-O ) :   1.1132 B( 29-C , 30-C ) :   1.0609 B( 30-C , 31-C ) :   1.9476
B( 30-C , 74-H ) :   0.9560 B( 31-C , 75-H ) :   0.9535 B( 31-C , 76-H ) :   0.9475
B( 32-O , 33-C ) :   0.9214 B( 33-C , 77-H ) :   0.9831 B( 33-C , 78-H ) :   0.9688
B( 33-C , 79-H ) :   0.9689 B( 34-C , 35-C ) :   1.6950 B( 34-C , 80-H ) :   0.9561
B( 35-C , 36-C ) :   1.1093 B( 35-C , 81-H ) :   0.9587 B( 36-C , 37-C ) :   1.4440
B( 36-C , 40-S ) :   1.1289 B( 37-C , 38-C ) :   1.3000 B( 37-C , 82-H ) :   0.9957
B( 38-C , 39-C ) :   1.4520 B( 38-C , 83-H ) :   0.9646 B( 39-C , 40-S ) :   1.0782
B( 39-C , 41-C ) :   1.1756 B( 41-C , 42-N ) :   1.1814 B( 41-C , 48-C ) :   1.3635
B( 42-N , 43-C ) :   0.9438 B( 42-N , 45-C ) :   1.0231 B( 43-C , 44-C ) :   1.1164
B( 43-C , 84-H ) :   0.9433 B( 43-C , 85-H ) :   0.9214 B( 44-C , 86-H ) :   0.9658
B( 44-C , 87-H ) :   0.9673 B( 44-C , 88-H ) :   0.9629 B( 45-C , 46-O ) :   2.1249
B( 45-C , 47-C ) :   0.9808 B( 47-C , 48-C ) :   1.2167 B( 47-C , 54-C ) :   1.3861
B( 48-C , 49-C ) :   1.0006 B( 49-C , 50-O ) :   2.0072 B( 49-C , 51-N ) :   1.0619
B( 50-O , 83-H ) :   0.1093 B( 51-N , 52-C ) :   0.9469 B( 51-N , 54-C ) :   1.1629
B( 52-C , 53-C ) :   1.1175 B( 52-C , 89-H ) :   0.9521 B( 52-C , 90-H ) :   0.9250
B( 53-C , 91-H ) :   0.9680 B( 53-C , 92-H ) :   0.9683 B( 53-C , 93-H ) :   0.9616
B( 54-C , 55-C ) :   1.1553 B( 55-C , 56-C ) :   1.8743 B( 55-C , 94-H ) :   0.9341
B( 56-C , 95-H ) :   0.9597 B( 56-C , 96-H ) :   0.9396

-----------------------------------------------------------------------------
         ABSORPTION SPECTRUM VIA TRANSITION ELECTRIC DIPOLE MOMENTS
-----------------------------------------------------------------------------
State   Energy  Wavelength   fosc         T2         TX        TY        TZ
        (cm-1)    (nm)                  (au**2)     (au)      (au)      (au)
-----------------------------------------------------------------------------
   0   16144.7    619.4   2.374067695  48.41033   3.32913  -5.43338  -2.79386
   1   19667.0    508.5   0.339691809   5.68621  -0.02497   0.25810  -2.37044
   2   22138.7    451.7   0.039255114   0.58374  -0.63949   0.39200  -0.14536
   3   23090.1    433.1   0.092632160   1.32072  -0.14297  -1.01436  -0.52091
   4   24647.6    405.7   0.121979308   1.62925   0.84296  -0.95814   0.02534
   5   27229.3    367.3   0.005895203   0.07128  -0.00118  -0.23780  -0.12135
   6   27880.4    358.7   0.024845545   0.29338  -0.16449  -0.02430   0.51549
   7   28357.8    352.6   0.058345178   0.67734  -0.12717   0.22763   0.78061
   8   29161.2    342.9   0.029295494   0.33073   0.10557  -0.07960  -0.55969
   9   29239.3    342.0   0.017075891   0.19226  -0.01895  -0.16677  -0.40508
  10   30576.5    327.0   0.121541892   1.30862  -0.34537   0.74963  -0.79209
  11   30834.3    324.3   0.009718934   0.10377   0.04368  -0.02490   0.31818
  12   31124.7    321.3   0.000775797   0.00821  -0.07300  -0.05342  -0.00479
  13   31311.5    319.4   0.000781340   0.00822  -0.03019   0.08250  -0.02228
  14   31854.4    313.9   0.065747134   0.67949   0.03764  -0.78703   0.24218
  15   32288.1    309.7   0.005702211   0.05814  -0.08770   0.15613   0.16147
  16   32722.1    305.6   0.159953137   1.60926  -0.43856   1.17271   0.20416
  17   34869.2    286.8   0.105101495   0.99230  -0.51355   0.77974   0.34723
  18   35561.2    281.2   0.078304512   0.72491   0.06189   0.13355  -0.83860
  19   36707.4    272.4   0.095033124   0.85231  -0.05573   0.61194   0.68901
  20   36851.1    271.4   0.001475623   0.01318  -0.01382   0.10986   0.03035
  21   37199.0    268.8   0.103438549   0.91543  -0.42379   0.75676  -0.40391
  22   37568.7    266.2   0.159137536   1.39451   0.43725  -1.06449  -0.26494
  23   37687.7    265.3   0.017249552   0.15068   0.15774   0.13367   0.32852
  24   38007.4    263.1   0.000125970   0.00109   0.01503   0.01550   0.02500
  25   38450.4    260.1   0.026043567   0.22298   0.04814   0.01702   0.46944
  26   38591.8    259.1   0.028269627   0.24116   0.15408  -0.36648   0.28829
  27   39179.9    255.2   0.027796154   0.23356   0.23996   0.08383   0.41104
  28   39957.9    250.3   0.360918410   2.97360   0.44625  -0.96300   1.35908
  29   40163.9    249.0   0.047058594   0.38573  -0.23064   0.28653  -0.50043

FINAL SINGLE POINT ENERGY     -3562.323423598473

DIPOLE MOMENT
-------------
                                X             Y             Z
Electronic contribution:     -0.55153      -7.07675      -2.29565
Nuclear contribution   :      0.68116       5.89883       2.68027
                        -----------------------------------------
Total Dipole Moment    :      0.12963      -1.17793       0.38462
                        -----------------------------------------
Magnitude (a.u.)       :      1.24589
Magnitude (Debye)      :      3.16681

Rotational constants in cm-1:     0.004007     0.000252     0.000240
Rotational constants in MHz :   120.122127     7.563295     7.196677

                             ****ORCA TERMINATED NORMALLY****
TOTAL RUN TIME: 0 days 0 hours 6 minutes 45 seconds 341 msec
