                         Program Version 4.2.0 -  RELEASE  -
|  1> # ORCA input file
|  2> # SCF done       -186.094697016023          0.000870674048
|  3> ! CAM-B3LYP def2-SVP def2/J RIJCOSX Grid4 TightSCF
|  4> %maxcore 5000
|  5> %tddft
|  6>     Mode sTDDFT
|  7>     Ethresh 5.0
|  8>     maxcore 5000
|  9> end
| 10>
| 11> %pal
| 12>   nprocs 6
| 13>   end
| 14> * xyz 0 1
| 15>    C        3.54782        -0.13798        -3.63364
| 16>    N        3.91771         0.91286        -2.85918
| 17>    C        5.11938         1.00035        -2.06760
| 18>    C        5.03375         0.13067        -0.81641
| 19>    C        2.93452         1.93077        -2.86735
| 20>    O        3.04747         2.96916        -2.24606
| 21>    C        1.90527         1.41484        -3.73678
| 22>    C        2.32596         0.12659        -4.19102
| 23>    C        1.30687        -0.38930        -5.08349
| 24>    O        1.21178        -1.42300        -5.70504
| 25>    N        0.33890         0.63405        -5.12056
| 26>    C       -0.88143         0.47206        -5.87239
| 27>    C       -2.06137         0.11043        -4.97314
| 28>    C        0.67869         1.70741        -4.32510
| 29>    C       -0.11501         2.87447        -4.20941
| 30>    C        0.19951         3.90345        -3.37596
| 31>    C       -0.55405         5.09688        -3.25537
| 32>    C       -0.28370         6.13372        -2.38419
| 33>    C       -1.23009         7.17743        -2.58254
| 34>    C       -2.13355         6.70823        -3.64989
| 35>    C       -1.72901         5.46880        -4.03152
| 36>    C       -3.24706         7.37943        -4.16528
| 37>    N       -4.17529         7.89570        -4.60462
| 38>    C       -1.30315         8.39058        -1.93834
| 39>    C       -2.15773         9.48950        -2.24829
| 40>    C       -1.88318        10.53762        -1.40496
| 41>    C       -0.85107        10.09835        -0.47786
| 42>    C       -0.49187         8.82358        -0.78719
| 43>    C        0.44529         8.06221        -0.08272
| 44>    N        1.21814         7.46967         0.52724
| 45>    C       -2.53443        11.82785        -1.42008
| 46>    C       -1.87877        13.03667        -1.11715
| 47>    C       -0.41207        13.11385        -0.81805
| 48>    C       -2.61497        14.20101        -1.15699
| 49>    C       -3.98544        14.25156        -1.46459
| 50>    C       -4.62215        13.04439        -1.82880
| 51>    C       -3.88180        11.87969        -1.79754
| 52>    C       -6.04181        12.96749        -2.29837
| 53>    C       -4.58944        15.55521        -1.41329
| 54>    C       -5.89535        15.90131        -1.29586
| 55>    C       -6.34070        17.25104        -1.25763
| 56>    C       -5.60595        18.41898        -1.29378
| 57>    C       -6.48357        19.53060        -1.23700
| 58>    C       -7.85244        18.97565        -1.19343
| 59>    C       -7.74937        17.62197        -1.19864
| 60>    C       -9.05915        19.68378        -1.24030
| 61>    N      -10.07857        20.20569        -1.33035
| 62>    C       -6.14166        20.86710        -1.21151
| 63>    C       -7.00546        21.98168        -1.06007
| 64>    C       -6.26670        23.14982        -1.14030
| 65>    C       -4.87578        22.77746        -1.32987
| 66>    C       -4.78593        21.41903        -1.35339
| 67>    C       -3.59223        20.70728        -1.50070
| 68>    N       -2.59024        20.15635        -1.62096
| 69>    C       -6.84221        24.44452        -1.02697
| 70>    N       -6.31074        25.63698        -1.45814
| 71>    C       -5.05215        25.86824        -2.12543
| 72>    C       -3.94497        26.21287        -1.13131
| 73>    C       -7.18130        26.71881        -1.22467
| 74>    O       -6.92184        27.86057        -1.54912
| 75>    C       -8.32939        26.12545        -0.58036
| 76>    C       -8.09405        24.72990        -0.48088
| 77>    C       -9.21425        24.13937         0.21657
| 78>    O       -9.45662        23.01059         0.58355
| 79>    N      -10.07754        25.23271         0.46625
| 80>    C      -11.36749        25.02308         1.07656
| 81>    C      -12.48151        24.97345         0.03358
| 82>    C       -9.56374        26.41050        -0.00423
| 83>    C      -10.22852        27.67481         0.12621
| 84>    C       -9.71712        28.81500        -0.34423
| 85>    H        4.18251        -0.99779        -3.74395
| 86>    H        5.22665         2.05112        -1.78534
| 87>    H        5.97544         0.70315        -2.68087
| 88>    H        4.19448         0.44339        -0.20016
| 89>    H        5.94695         0.22930        -0.23650
| 90>    H        4.90020        -0.91558        -1.08280
| 91>    H       -0.69351        -0.34413        -6.57580
| 92>    H       -1.08839         1.38335        -6.44129
| 93>    H       -1.85852        -0.82349        -4.45490
| 94>    H       -2.95823        -0.01359        -5.57382
| 95>    H       -2.24032         0.88509        -4.23043
| 96>    H       -1.00399         2.92976        -4.82055
| 97>    H        1.08264         3.83067        -2.75498
| 98>    H        0.52475         6.16104        -1.67981
| 99>    H       -2.19839         4.86554        -4.78628
|100>    H       -2.84865         9.50171        -3.06771
|101>    H       -0.47879        10.66731         0.35233
|102>    H        0.14280        12.34557        -1.35078
|103>    H       -0.23235        12.99471         0.25076
|104>    H       -0.02381        14.08772        -1.10833
|105>    H       -2.11330        15.13155        -0.92956
|106>    H       -4.36969        10.95196        -2.05872
|107>    H       -6.28293        13.80521        -2.94913
|108>    H       -6.73008        12.97022        -1.45294
|109>    H       -6.20015        12.04281        -2.84885
|110>    H       -3.87332        16.36779        -1.43032
|111>    H       -6.66724        15.15435        -1.20089
|112>    H       -4.53827        18.50037        -1.33045
|113>    H       -8.56395        16.92069        -1.18110
|114>    H       -8.06385        21.91953        -0.90385
|115>    H       -4.03852        23.44514        -1.39047
|116>    H       -5.20768        26.72300        -2.79112
|117>    H       -4.79844        24.99477        -2.72936
|118>    H       -4.18606        27.14570        -0.62781
|119>    H       -3.00034        26.33386        -1.65476
|120>    H       -3.83490        25.43647        -0.37689
|121>    H      -11.55707        25.80499         1.81708
|122>    H      -11.30425        24.05868         1.58862
|123>    H      -12.53117        25.90329        -0.52932
|124>    H      -13.43713        24.80756         0.52306
|125>    H      -12.30027        24.15635        -0.66024
|126>    H      -11.18215        27.67387         0.63592
|127>    H       -8.76723        28.84106        -0.85176
|128>    H      -10.23693        29.74971        -0.22297
|129> *
|130>
|131>                          ****END OF INPUT****

CARTESIAN COORDINATES (ANGSTROEM)
---------------------------------
  C      3.547820   -0.137980   -3.633640
  N      3.917710    0.912860   -2.859180
  C      5.119380    1.000350   -2.067600
  C      5.033750    0.130670   -0.816410
  C      2.934520    1.930770   -2.867350
  O      3.047470    2.969160   -2.246060
  C      1.905270    1.414840   -3.736780
  C      2.325960    0.126590   -4.191020
  C      1.306870   -0.389300   -5.083490
  O      1.211780   -1.423000   -5.705040
  N      0.338900    0.634050   -5.120560
  C     -0.881430    0.472060   -5.872390
  C     -2.061370    0.110430   -4.973140
  C      0.678690    1.707410   -4.325100
  C     -0.115010    2.874470   -4.209410
  C      0.199510    3.903450   -3.375960
  C     -0.554050    5.096880   -3.255370
  C     -0.283700    6.133720   -2.384190
  C     -1.230090    7.177430   -2.582540
  C     -2.133550    6.708230   -3.649890
  C     -1.729010    5.468800   -4.031520
  C     -3.247060    7.379430   -4.165280
  N     -4.175290    7.895700   -4.604620
  C     -1.303150    8.390580   -1.938340
  C     -2.157730    9.489500   -2.248290
  C     -1.883180   10.537620   -1.404960
  C     -0.851070   10.098350   -0.477860
  C     -0.491870    8.823580   -0.787190
  C      0.445290    8.062210   -0.082720
  N      1.218140    7.469670    0.527240
  C     -2.534430   11.827850   -1.420080
  C     -1.878770   13.036670   -1.117150
  C     -0.412070   13.113850   -0.818050
  C     -2.614970   14.201010   -1.156990
  C     -3.985440   14.251560   -1.464590
  C     -4.622150   13.044390   -1.828800
  C     -3.881800   11.879690   -1.797540
  C     -6.041810   12.967490   -2.298370
  C     -4.589440   15.555210   -1.413290
  C     -5.895350   15.901310   -1.295860
  C     -6.340700   17.251040   -1.257630
  C     -5.605950   18.418980   -1.293780
  C     -6.483570   19.530600   -1.237000
  C     -7.852440   18.975650   -1.193430
  C     -7.749370   17.621970   -1.198640
  C     -9.059150   19.683780   -1.240300
  N    -10.078570   20.205690   -1.330350
  C     -6.141660   20.867100   -1.211510
  C     -7.005460   21.981680   -1.060070
  C     -6.266700   23.149820   -1.140300
  C     -4.875780   22.777460   -1.329870
  C     -4.785930   21.419030   -1.353390
  C     -3.592230   20.707280   -1.500700
  N     -2.590240   20.156350   -1.620960
  C     -6.842210   24.444520   -1.026970
  N     -6.310740   25.636980   -1.458140
  C     -5.052150   25.868240   -2.125430
  C     -3.944970   26.212870   -1.131310
  C     -7.181300   26.718810   -1.224670
  O     -6.921840   27.860570   -1.549120
  C     -8.329390   26.125450   -0.580360
  C     -8.094050   24.729900   -0.480880
  C     -9.214250   24.139370    0.216570
  O     -9.456620   23.010590    0.583550
  N    -10.077540   25.232710    0.466250
  C    -11.367490   25.023080    1.076560
  C    -12.481510   24.973450    0.033580
  C     -9.563740   26.410500   -0.004230
  C    -10.228520   27.674810    0.126210
  C     -9.717120   28.815000   -0.344230
  H      4.182510   -0.997790   -3.743950
  H      5.226650    2.051120   -1.785340
  H      5.975440    0.703150   -2.680870
  H      4.194480    0.443390   -0.200160
  H      5.946950    0.229300   -0.236500
  H      4.900200   -0.915580   -1.082800
  H     -0.693510   -0.344130   -6.575800
  H     -1.088390    1.383350   -6.441290
  H     -1.858520   -0.823490   -4.454900
  H     -2.958230   -0.013590   -5.573820
  H     -2.240320    0.885090   -4.230430
  H     -1.003990    2.929760   -4.820550
  H      1.082640    3.830670   -2.754980
  H      0.524750    6.161040   -1.679810
  H     -2.198390    4.865540   -4.786280
  H     -2.848650    9.501710   -3.067710
  H     -0.478790   10.667310    0.352330
  H      0.142800   12.345570   -1.350780
  H     -0.232350   12.994710    0.250760
  H     -0.023810   14.087720   -1.108330
  H     -2.113300   15.131550   -0.929560
  H     -4.369690   10.951960   -2.058720
  H     -6.282930   13.805210   -2.949130
  H     -6.730080   12.970220   -1.452940
  H     -6.200150   12.042810   -2.848850
  H     -3.873320   16.367790   -1.430320
  H     -6.667240   15.154350   -1.200890
  H     -4.538270   18.500370   -1.330450
  H     -8.563950   16.920690   -1.181100
  H     -8.063850   21.919530   -0.903850
  H     -4.038520   23.445140   -1.390470
  H     -5.207680   26.723000   -2.791120
  H     -4.798440   24.994770   -2.729360
  H     -4.186060   27.145700   -0.627810
  H     -3.000340   26.333860   -1.654760
  H     -3.834900   25.436470   -0.376890
  H    -11.557070   25.804990    1.817080
  H    -11.304250   24.058680    1.588620
  H    -12.531170   25.903290   -0.529320
  H    -13.437130   24.807560    0.523060
  H    -12.300270   24.156350   -0.660240
  H    -11.182150   27.673870    0.635920
  H     -8.767230   28.841060   -0.851760
  H    -10.236930   29.749710   -0.222970

 Total Charge           Charge          ....    0
 Multiplicity           Mult            ....    1
 Number of Electrons    NEL             ....  480
 Basis Dimension        Dim             .... 1200

ORBITAL ENERGIES
----------------

  NO   OCC          E(Eh)            E(eV)
   0   2.0000     -19.193453      -522.2804
   1   2.0000     -19.191117      -522.2168
   2   2.0000     -19.187284      -522.1125
   3   2.0000     -19.186053      -522.0791
   4   2.0000     -14.455502      -393.3542
   5   2.0000     -14.453369      -393.2962
   6   2.0000     -14.452882      -393.2829
   7   2.0000     -14.452231      -393.2652
   8   2.0000     -14.412405      -392.1815
   9   2.0000     -14.406516      -392.0212
  10   2.0000     -14.405845      -392.0030
  11   2.0000     -14.399094      -391.8193
  12   2.0000     -10.374546      -282.3057
  13   2.0000     -10.372803      -282.2583
  14   2.0000     -10.372791      -282.2580
  15   2.0000     -10.370503      -282.1957
  16   2.0000     -10.343326      -281.4562
  17   2.0000     -10.340505      -281.3794
  18   2.0000     -10.339091      -281.3410
  19   2.0000     -10.332148      -281.1520
  20   2.0000     -10.324323      -280.9391
  21   2.0000     -10.323812      -280.9252
  22   2.0000     -10.319728      -280.8141
  23   2.0000     -10.318847      -280.7901
  24   2.0000     -10.314577      -280.6739
  25   2.0000     -10.314467      -280.6709
  26   2.0000     -10.313183      -280.6360
  27   2.0000     -10.312348      -280.6133
  28   2.0000     -10.310907      -280.5740
  29   2.0000     -10.309803      -280.5440
  30   2.0000     -10.309636      -280.5395
  31   2.0000     -10.309420      -280.5336
  32   2.0000     -10.308677      -280.5134
  33   2.0000     -10.308653      -280.5127
  34   2.0000     -10.308597      -280.5112
  35   2.0000     -10.308328      -280.5039
  36   2.0000     -10.306335      -280.4496
  37   2.0000     -10.306014      -280.4409
  38   2.0000     -10.303255      -280.3658
  39   2.0000     -10.302803      -280.3535
  40   2.0000     -10.302503      -280.3454
  41   2.0000     -10.300498      -280.2908
  42   2.0000     -10.300265      -280.2845
  43   2.0000     -10.299667      -280.2682
  44   2.0000     -10.299649      -280.2677
  45   2.0000     -10.297897      -280.2200
  46   2.0000     -10.294215      -280.1198
  47   2.0000     -10.291085      -280.0347
  48   2.0000     -10.289696      -279.9969
  49   2.0000     -10.288462      -279.9633
  50   2.0000     -10.288226      -279.9569
  51   2.0000     -10.288160      -279.9551
  52   2.0000     -10.288052      -279.9521
  53   2.0000     -10.287698      -279.9425
  54   2.0000     -10.281944      -279.7859
  55   2.0000     -10.280972      -279.7595
  56   2.0000     -10.279029      -279.7066
  57   2.0000     -10.277452      -279.6637
  58   2.0000     -10.276569      -279.6397
  59   2.0000     -10.273957      -279.5686
  60   2.0000     -10.272968      -279.5417
  61   2.0000     -10.270049      -279.4622
  62   2.0000     -10.266017      -279.3525
  63   2.0000     -10.265287      -279.3327
  64   2.0000     -10.263566      -279.2858
  65   2.0000     -10.262753      -279.2637
  66   2.0000     -10.261985      -279.2428
  67   2.0000     -10.260822      -279.2111
  68   2.0000     -10.260397      -279.1996
  69   2.0000     -10.257258      -279.1142
  70   2.0000      -1.133267       -30.8378
  71   2.0000      -1.132725       -30.8230
  72   2.0000      -1.125985       -30.6396
  73   2.0000      -1.125755       -30.6334
  74   2.0000      -1.063975       -28.9522
  75   2.0000      -1.062887       -28.9226
  76   2.0000      -1.055237       -28.7145
  77   2.0000      -1.054570       -28.6963
  78   2.0000      -1.017501       -27.6876
  79   2.0000      -1.010083       -27.4858
  80   2.0000      -1.001701       -27.2577
  81   2.0000      -0.994639       -27.0655
  82   2.0000      -0.987042       -26.8588
  83   2.0000      -0.983879       -26.7727
  84   2.0000      -0.979439       -26.6519
  85   2.0000      -0.974329       -26.5128
  86   2.0000      -0.967426       -26.3250
  87   2.0000      -0.929054       -25.2808
  88   2.0000      -0.927196       -25.2303
  89   2.0000      -0.917498       -24.9664
  90   2.0000      -0.912540       -24.8315
  91   2.0000      -0.894677       -24.3454
  92   2.0000      -0.887675       -24.1549
  93   2.0000      -0.878410       -23.9027
  94   2.0000      -0.875968       -23.8363
  95   2.0000      -0.873373       -23.7657
  96   2.0000      -0.866285       -23.5728
  97   2.0000      -0.861075       -23.4310
  98   2.0000      -0.853999       -23.2385
  99   2.0000      -0.849182       -23.1074
 100   2.0000      -0.840472       -22.8704
 101   2.0000      -0.822402       -22.3787
 102   2.0000      -0.821440       -22.3525
 103   2.0000      -0.819343       -22.2955
 104   2.0000      -0.817594       -22.2479
 105   2.0000      -0.809720       -22.0336
 106   2.0000      -0.800935       -21.7945
 107   2.0000      -0.789949       -21.4956
 108   2.0000      -0.781809       -21.2741
 109   2.0000      -0.766614       -20.8606
 110   2.0000      -0.762134       -20.7387
 111   2.0000      -0.761685       -20.7265
 112   2.0000      -0.759286       -20.6612
 113   2.0000      -0.749381       -20.3917
 114   2.0000      -0.733787       -19.9674
 115   2.0000      -0.725323       -19.7370
 116   2.0000      -0.715193       -19.4614
 117   2.0000      -0.712185       -19.3795
 118   2.0000      -0.709393       -19.3036
 119   2.0000      -0.709056       -19.2944
 120   2.0000      -0.696906       -18.9638
 121   2.0000      -0.692911       -18.8551
 122   2.0000      -0.687800       -18.7160
 123   2.0000      -0.682398       -18.5690
 124   2.0000      -0.676787       -18.4163
 125   2.0000      -0.670921       -18.2567
 126   2.0000      -0.664971       -18.0948
 127   2.0000      -0.655771       -17.8444
 128   2.0000      -0.652369       -17.7519
 129   2.0000      -0.647858       -17.6291
 130   2.0000      -0.644461       -17.5367
 131   2.0000      -0.640901       -17.4398
 132   2.0000      -0.632461       -17.2101
 133   2.0000      -0.622175       -16.9302
 134   2.0000      -0.620634       -16.8883
 135   2.0000      -0.609451       -16.5840
 136   2.0000      -0.601606       -16.3705
 137   2.0000      -0.593412       -16.1476
 138   2.0000      -0.588992       -16.0273
 139   2.0000      -0.585733       -15.9386
 140   2.0000      -0.581163       -15.8143
 141   2.0000      -0.579928       -15.7806
 142   2.0000      -0.579495       -15.7688
 143   2.0000      -0.571653       -15.5555
 144   2.0000      -0.565113       -15.3775
 145   2.0000      -0.561868       -15.2892
 146   2.0000      -0.556141       -15.1334
 147   2.0000      -0.554657       -15.0930
 148   2.0000      -0.550547       -14.9812
 149   2.0000      -0.549216       -14.9449
 150   2.0000      -0.545726       -14.8500
 151   2.0000      -0.541174       -14.7261
 152   2.0000      -0.534645       -14.5484
 153   2.0000      -0.531680       -14.4677
 154   2.0000      -0.529078       -14.3969
 155   2.0000      -0.528704       -14.3868
 156   2.0000      -0.526073       -14.3152
 157   2.0000      -0.523808       -14.2535
 158   2.0000      -0.521390       -14.1878
 159   2.0000      -0.518831       -14.1181
 160   2.0000      -0.517946       -14.0940
 161   2.0000      -0.517130       -14.0718
 162   2.0000      -0.516187       -14.0462
 163   2.0000      -0.515590       -14.0299
 164   2.0000      -0.515132       -14.0175
 165   2.0000      -0.513695       -13.9783
 166   2.0000      -0.513563       -13.9748
 167   2.0000      -0.507239       -13.8027
 168   2.0000      -0.505984       -13.7685
 169   2.0000      -0.503391       -13.6980
 170   2.0000      -0.502987       -13.6870
 171   2.0000      -0.501566       -13.6483
 172   2.0000      -0.499098       -13.5812
 173   2.0000      -0.496227       -13.5030
 174   2.0000      -0.494622       -13.4593
 175   2.0000      -0.491959       -13.3869
 176   2.0000      -0.487682       -13.2705
 177   2.0000      -0.486373       -13.2349
 178   2.0000      -0.484356       -13.1800
 179   2.0000      -0.483085       -13.1454
 180   2.0000      -0.481976       -13.1152
 181   2.0000      -0.477987       -13.0067
 182   2.0000      -0.477276       -12.9874
 183   2.0000      -0.473393       -12.8817
 184   2.0000      -0.470653       -12.8071
 185   2.0000      -0.468775       -12.7560
 186   2.0000      -0.465946       -12.6790
 187   2.0000      -0.464419       -12.6375
 188   2.0000      -0.462264       -12.5788
 189   2.0000      -0.460353       -12.5268
 190   2.0000      -0.459795       -12.5117
 191   2.0000      -0.457934       -12.4610
 192   2.0000      -0.456377       -12.4186
 193   2.0000      -0.455889       -12.4054
 194   2.0000      -0.451492       -12.2857
 195   2.0000      -0.448138       -12.1945
 196   2.0000      -0.447337       -12.1727
 197   2.0000      -0.445725       -12.1288
 198   2.0000      -0.443256       -12.0616
 199   2.0000      -0.442118       -12.0306
 200   2.0000      -0.440780       -11.9942
 201   2.0000      -0.437660       -11.9093
 202   2.0000      -0.436488       -11.8774
 203   2.0000      -0.434582       -11.8256
 204   2.0000      -0.433985       -11.8093
 205   2.0000      -0.433289       -11.7904
 206   2.0000      -0.432362       -11.7652
 207   2.0000      -0.431424       -11.7396
 208   2.0000      -0.428912       -11.6713
 209   2.0000      -0.427877       -11.6431
 210   2.0000      -0.426667       -11.6102
 211   2.0000      -0.423714       -11.5298
 212   2.0000      -0.420391       -11.4394
 213   2.0000      -0.419670       -11.4198
 214   2.0000      -0.418881       -11.3983
 215   2.0000      -0.416174       -11.3247
 216   2.0000      -0.410388       -11.1672
 217   2.0000      -0.406339       -11.0571
 218   2.0000      -0.405513       -11.0346
 219   2.0000      -0.397646       -10.8205
 220   2.0000      -0.390830       -10.6350
 221   2.0000      -0.387614       -10.5475
 222   2.0000      -0.371877       -10.1193
 223   2.0000      -0.350256        -9.5310
 224   2.0000      -0.347213        -9.4481
 225   2.0000      -0.345959        -9.4140
 226   2.0000      -0.345394        -9.3987
 227   2.0000      -0.330525        -8.9941
 228   2.0000      -0.330187        -8.9849
 229   2.0000      -0.329060        -8.9542
 230   2.0000      -0.321642        -8.7523
 231   2.0000      -0.316461        -8.6113
 232   2.0000      -0.315160        -8.5759
 233   2.0000      -0.314434        -8.5562
 234   2.0000      -0.306136        -8.3304
 235   2.0000      -0.304975        -8.2988
 236   2.0000      -0.296171        -8.0592
 237   2.0000      -0.267920        -7.2905
 238   2.0000      -0.246526        -6.7083
 239   2.0000      -0.236733        -6.4418
 240   0.0000      -0.129637        -3.5276
 241   0.0000      -0.119680        -3.2566
 242   0.0000      -0.060573        -1.6483
 243   0.0000      -0.055421        -1.5081
 244   0.0000      -0.025269        -0.6876

MULLIKEN ATOMIC CHARGES
-----------------------
   0 C :    0.043133
   1 N :   -0.256485
   2 C :    0.114629
   3 C :   -0.005609
   4 C :    0.170665
   5 O :   -0.202608
   6 C :   -0.097092
   7 C :    0.001383
   8 C :    0.160412
   9 O :   -0.185951
  10 N :   -0.268751
  11 C :    0.100186
  12 C :    0.001371
  13 C :    0.163107
  14 C :   -0.029444
  15 C :    0.015673
  16 C :    0.107017
  17 C :   -0.099943
  18 C :    0.115493
  19 C :   -0.095026
  20 C :   -0.012862
  21 C :   -0.176663
  22 N :    0.132905
  23 C :    0.117642
  24 C :   -0.114652
  25 C :    0.059520
  26 C :   -0.016388
  27 C :   -0.097106
  28 C :   -0.183827
  29 N :    0.144331
  30 C :    0.098183
  31 C :   -0.078463
  32 C :    0.093748
  33 C :   -0.087892
  34 C :    0.115648
  35 C :   -0.081834
  36 C :   -0.081743
  37 C :    0.100960
  38 C :    0.000928
  39 C :   -0.003730
  40 C :    0.114450
  41 C :   -0.134816
  42 C :    0.114761
  43 C :   -0.071378
  44 C :   -0.013569
  45 C :   -0.183215
  46 N :    0.140821
  47 C :    0.114439
  48 C :   -0.112240
  49 C :    0.046819
  50 C :   -0.035224
  51 C :   -0.097019
  52 C :   -0.177502
  53 N :    0.126770
  54 C :    0.148689
  55 N :   -0.261532
  56 C :    0.105995
  57 C :   -0.000004
  58 C :    0.157341
  59 O :   -0.212327
  60 C :   -0.062079
  61 C :   -0.054510
  62 C :    0.144045
  63 O :   -0.180773
  64 N :   -0.259370
  65 C :    0.095469
  66 C :    0.001494
  67 C :    0.113242
  68 C :   -0.036364
  69 C :    0.017354
  70 H :    0.017794
  71 H :    0.044931
  72 H :    0.018682
  73 H :    0.032336
  74 H :    0.025340
  75 H :    0.015257
  76 H :    0.045729
  77 H :    0.020026
  78 H :    0.030994
  79 H :    0.024088
  80 H :    0.013817
  81 H :   -0.030861
  82 H :    0.019251
  83 H :    0.019509
  84 H :   -0.001255
  85 H :    0.005389
  86 H :   -0.005955
  87 H :    0.034980
  88 H :    0.035985
  89 H :    0.023755
  90 H :   -0.028696
  91 H :   -0.026386
  92 H :    0.030318
  93 H :    0.040354
  94 H :    0.020038
  95 H :    0.005499
  96 H :   -0.031575
  97 H :   -0.000619
  98 H :   -0.002692
  99 H :    0.025443
 100 H :   -0.014615
 101 H :    0.039721
 102 H :    0.024102
 103 H :    0.034346
 104 H :    0.023249
 105 H :    0.019552
 106 H :    0.023838
 107 H :    0.047611
 108 H :    0.014074
 109 H :    0.022736
 110 H :    0.039791
 111 H :   -0.017581
 112 H :    0.058970
 113 H :    0.032093
Sum of atomic charges:   -0.0000000

LOEWDIN ATOMIC CHARGES
----------------------
   0 C :    0.094048
   1 N :    0.002079
   2 C :    0.038770
   3 C :   -0.060321
   4 C :    0.078097
   5 O :   -0.194249
   6 C :   -0.123310
   7 C :   -0.128797
   8 C :    0.080786
   9 O :   -0.190696
  10 N :   -0.009400
  11 C :    0.035359
  12 C :   -0.061619
  13 C :    0.080627
  14 C :   -0.041125
  15 C :    0.036374
  16 C :   -0.021774
  17 C :   -0.005174
  18 C :    0.032731
  19 C :   -0.078837
  20 C :    0.051869
  21 C :   -0.029878
  22 N :   -0.065418
  23 C :    0.042291
  24 C :   -0.029920
  25 C :   -0.001229
  26 C :    0.051447
  27 C :   -0.083801
  28 C :   -0.034182
  29 N :   -0.059730
  30 C :   -0.023279
  31 C :   -0.018463
  32 C :   -0.045879
  33 C :   -0.008282
  34 C :   -0.025643
  35 C :   -0.009878
  36 C :   -0.006191
  37 C :   -0.045600
  38 C :    0.026530
  39 C :   -0.034150
  40 C :   -0.002391
  41 C :   -0.044272
  42 C :    0.051753
  43 C :   -0.074098
  44 C :    0.049428
  45 C :   -0.034921
  46 N :   -0.052525
  47 C :    0.021988
  48 C :    0.012603
  49 C :   -0.040167
  50 C :    0.039529
  51 C :   -0.084137
  52 C :   -0.029133
  53 N :   -0.073738
  54 C :    0.069958
  55 N :    0.000232
  56 C :    0.036421
  57 C :   -0.062960
  58 C :    0.079851
  59 O :   -0.203881
  60 C :   -0.129258
  61 C :   -0.108437
  62 C :    0.083178
  63 O :   -0.174788
  64 N :    0.001776
  65 C :    0.035915
  66 C :   -0.060707
  67 C :    0.088734
  68 C :   -0.054818
  69 C :    0.031010
  70 H :    0.033794
  71 H :    0.037389
  72 H :    0.024792
  73 H :    0.032335
  74 H :    0.031203
  75 H :    0.022211
  76 H :    0.038724
  77 H :    0.020855
  78 H :    0.033049
  79 H :    0.030788
  80 H :    0.020901
  81 H :    0.026735
  82 H :    0.043828
  83 H :    0.041224
  84 H :    0.034457
  85 H :    0.033406
  86 H :    0.036563
  87 H :    0.034530
  88 H :    0.037061
  89 H :    0.036855
  90 H :    0.028796
  91 H :    0.031004
  92 H :    0.035225
  93 H :    0.035863
  94 H :    0.035323
  95 H :    0.037474
  96 H :    0.028748
  97 H :    0.030212
  98 H :    0.035922
  99 H :    0.038379
 100 H :    0.034473
 101 H :    0.037301
 102 H :    0.023896
 103 H :    0.034965
 104 H :    0.030744
 105 H :    0.020370
 106 H :    0.022605
 107 H :    0.039030
 108 H :    0.021606
 109 H :    0.030572
 110 H :    0.035952
 111 H :    0.030484
 112 H :    0.033579
 113 H :    0.030446

  Mayer bond orders larger than 0.100000
B(  0-C ,  1-N ) :   1.1984 B(  0-C ,  7-C ) :   1.4452 B(  0-C , 70-H ) :   0.9904
B(  1-N ,  2-C ) :   0.9405 B(  1-N ,  4-C ) :   1.0532 B(  2-C ,  3-C ) :   1.1166
B(  2-C , 71-H ) :   0.9344 B(  2-C , 72-H ) :   0.9541 B(  3-C , 73-H ) :   0.9677
B(  3-C , 74-H ) :   0.9692 B(  3-C , 75-H ) :   0.9695 B(  4-C ,  5-O ) :   2.0317
B(  4-C ,  6-C ) :   0.9994 B(  5-O , 82-H ) :   0.1040 B(  6-C ,  7-C ) :   1.2100
B(  6-C , 13-C ) :   1.3783 B(  7-C ,  8-C ) :   0.9506 B(  8-C ,  9-O ) :   2.1753
B(  8-C , 10-N ) :   1.0205 B( 10-N , 11-C ) :   0.9484 B( 10-N , 13-C ) :   1.1532
B( 11-C , 12-C ) :   1.1179 B( 11-C , 76-H ) :   0.9270 B( 11-C , 77-H ) :   0.9497
B( 12-C , 78-H ) :   0.9644 B( 12-C , 79-H ) :   0.9682 B( 12-C , 80-H ) :   0.9685
B( 13-C , 14-C ) :   1.1497 B( 14-C , 15-C ) :   1.5723 B( 14-C , 81-H ) :   0.9621
B( 15-C , 16-C ) :   1.1178 B( 15-C , 82-H ) :   0.9617 B( 16-C , 17-C ) :   1.5100
B( 16-C , 20-C ) :   1.0388 B( 17-C , 18-C ) :   1.1078 B( 17-C , 83-H ) :   1.0135
B( 18-C , 19-C ) :   1.1011 B( 18-C , 23-C ) :   1.4095 B( 19-C , 20-C ) :   1.6823
B( 19-C , 21-C ) :   1.0902 B( 20-C , 84-H ) :   1.0154 B( 21-C , 22-N ) :   2.9750
B( 23-C , 24-C ) :   1.1060 B( 23-C , 27-C ) :   1.1046 B( 24-C , 25-C ) :   1.5981
B( 24-C , 85-H ) :   1.0016 B( 25-C , 26-C ) :   1.0495 B( 25-C , 30-C ) :   0.9724
B( 26-C , 27-C ) :   1.6572 B( 26-C , 86-H ) :   1.0233 B( 27-C , 28-C ) :   1.0898
B( 28-C , 29-N ) :   2.9790 B( 30-C , 31-C ) :   1.3593 B( 30-C , 36-C ) :   1.3370
B( 31-C , 32-C ) :   1.0787 B( 31-C , 33-C ) :   1.3979 B( 32-C , 87-H ) :   0.9454
B( 32-C , 88-H ) :   0.9421 B( 32-C , 89-H ) :   0.9488 B( 33-C , 34-C ) :   1.2919
B( 33-C , 90-H ) :   0.9996 B( 34-C , 35-C ) :   1.3265 B( 34-C , 38-C ) :   1.0961
B( 35-C , 36-C ) :   1.4030 B( 35-C , 37-C ) :   1.0859 B( 36-C , 91-H ) :   0.9960
B( 37-C , 92-H ) :   0.9437 B( 37-C , 93-H ) :   0.9359 B( 37-C , 94-H ) :   0.9483
B( 38-C , 39-C ) :   1.6411 B( 38-C , 95-H ) :   0.9716 B( 39-C , 40-C ) :   1.1110
B( 39-C , 96-H ) :   0.9709 B( 40-C , 41-C ) :   1.5295 B( 40-C , 44-C ) :   1.0242
B( 41-C , 42-C ) :   1.1570 B( 41-C , 97-H ) :   0.9945 B( 42-C , 43-C ) :   1.0907
B( 42-C , 47-C ) :   1.3813 B( 43-C , 44-C ) :   1.6800 B( 43-C , 45-C ) :   1.0835
B( 44-C , 98-H ) :   1.0235 B( 45-C , 46-N ) :   2.9832 B( 47-C , 48-C ) :   1.1255
B( 47-C , 51-C ) :   1.1070 B( 48-C , 49-C ) :   1.5387 B( 48-C , 99-H ) :   0.9929
B( 49-C , 50-C ) :   1.0406 B( 49-C , 54-C ) :   1.0380 B( 50-C , 51-C ) :   1.6492
B( 50-C ,100-H ) :   1.0237 B( 51-C , 52-C ) :   1.0831 B( 52-C , 53-N ) :   2.9662
B( 54-C , 55-N ) :   1.1928 B( 54-C , 61-C ) :   1.3820 B( 55-N , 56-C ) :   0.9438
B( 55-N , 58-C ) :   1.0460 B( 56-C , 57-C ) :   1.1171 B( 56-C ,101-H ) :   0.9274
B( 56-C ,102-H ) :   0.9501 B( 57-C ,103-H ) :   0.9605 B( 57-C ,104-H ) :   0.9687
B( 57-C ,105-H ) :   0.9651 B( 58-C , 59-O ) :   2.0368 B( 58-C , 60-C ) :   0.9927
B( 60-C , 61-C ) :   1.2331 B( 60-C , 67-C ) :   1.3392 B( 61-C , 62-C ) :   0.9744
B( 62-C , 63-O ) :   2.0995 B( 62-C , 64-N ) :   1.0280 B( 64-N , 65-C ) :   0.9432
B( 64-N , 67-C ) :   1.1900 B( 65-C , 66-C ) :   1.1203 B( 65-C ,106-H ) :   0.9507
B( 65-C ,107-H ) :   0.9277 B( 66-C ,108-H ) :   0.9685 B( 66-C ,109-H ) :   0.9680
B( 66-C ,110-H ) :   0.9641 B( 67-C , 68-C ) :   1.1301 B( 68-C , 69-C ) :   1.8838
B( 68-C ,111-H ) :   0.9535 B( 69-C ,112-H ) :   0.9254 B( 69-C ,113-H ) :   0.9449

-----------------------------------------------------------------------------
         ABSORPTION SPECTRUM VIA TRANSITION ELECTRIC DIPOLE MOMENTS
-----------------------------------------------------------------------------
State   Energy  Wavelength   fosc         T2         TX        TY        TZ
        (cm-1)    (nm)                  (au**2)     (au)      (au)      (au)
-----------------------------------------------------------------------------
   0    9111.6   1097.5   0.534333578  19.30607   1.35494  -4.12760  -0.65815
   1   11934.4    837.9   0.487720968  13.45384   1.44004  -3.28666  -0.76027
   2   14460.6    691.5   0.134526184   3.06263  -0.01725   1.74855   0.07015
   3   15374.7    650.4   0.030566457   0.65451   0.14258  -0.67775  -0.41813
   4   18452.9    541.9   0.009875909   0.17619   0.23598  -0.00327   0.34713
   5   20046.3    498.8   0.061173088   1.00462  -0.92789   0.19276  -0.32632
   6   20085.9    497.9   0.065849722   1.07929   0.53719  -0.77098  -0.44307
   7   20574.1    486.0   0.041194501   0.65916   0.26767  -0.76641   0.01173
   8   22421.1    446.0   0.315503984   4.63259  -1.04373   1.86252   0.27245
   9   22811.2    438.4   0.319408647   4.60972  -1.62245   1.27482   0.59349
  10   23283.8    429.5   0.275244802   3.89171  -0.16890   1.93247  -0.35878
  11   23945.4    417.6   0.149475825   2.05506   1.33212  -0.02778   0.52892
  12   24103.9    414.9   0.017481039   0.23876   0.45996   0.11463  -0.11855
  13   24915.4    401.4   0.032997557   0.43600  -0.41362   0.51410  -0.02504
  14   25514.8    391.9   0.005960107   0.07690   0.19472   0.06650  -0.18592
  15   25625.4    390.2   0.015558621   0.19988   0.40521  -0.12490   0.14173
  16   26992.2    370.5   0.001599288   0.01951  -0.09437  -0.09778  -0.03225
  17   28019.8    356.9   0.403942853   4.74603   0.20565  -1.90281  -1.04071
  18   28328.9    353.0   0.039933898   0.46407   0.20605  -0.21919  -0.61121
  19   28972.5    345.2   0.122258162   1.38921   0.61640   1.00367  -0.04355
  20   30576.9    327.0   0.002575029   0.02772  -0.12232   0.08196   0.07774
  21   31307.1    319.4   0.302193199   3.17773  -0.07444   1.74358   0.36348
  22   31615.1    316.3   0.031775092   0.33088   0.00910   0.55951   0.13322
  23   31726.8    315.2   0.024392056   0.25310   0.16281  -0.42952  -0.20521
  24   31857.1    313.9   0.033735063   0.34862  -0.03269  -0.58600  -0.06443
  25   32275.0    309.8   0.004143129   0.04226  -0.04639  -0.16097   0.11915
  26   32619.6    306.6   0.016010259   0.16158  -0.07021  -0.39090   0.06205
  27   32891.6    304.0   0.507035471   5.07492  -0.55477   2.18145   0.09177
  28   33309.5    300.2   0.130362349   1.28843  -0.60416   0.94870   0.15292
  29   33414.0    299.3   0.016235178   0.15996  -0.04161   0.37592   0.13004
  30   33838.0    295.5   0.273099276   2.65700  -1.07223   1.20968   0.20974
  31   34268.7    291.8   0.035396278   0.34004  -0.45209  -0.16288  -0.33035
  32   34693.3    288.2   0.011613688   0.11020  -0.03869   0.32949   0.01198
  33   34749.4    287.8   0.012217624   0.11575   0.31211  -0.09759  -0.09389
  34   35451.1    282.1   0.012594358   0.11696  -0.00148   0.32575   0.10411
  35   35693.9    280.2   0.096060023   0.88598  -0.13800  -0.88784  -0.28049
  36   35884.6    278.7   0.037524545   0.34426  -0.55584   0.14753  -0.11631
  37   36038.8    277.5   0.000519166   0.00474  -0.05386  -0.01890   0.03853
  38   36179.7    276.4   0.004343182   0.03952   0.17359   0.07162   0.06524
  39   36263.6    275.8   0.033901303   0.30777   0.18798  -0.50451  -0.13377
  40   36467.6    274.2   0.160714962   1.45086  -0.86130   0.83908   0.07049
  41   36688.5    272.6   0.000865811   0.00777  -0.00887   0.07509  -0.04529
  42   36802.3    271.7   0.178975123   1.60101  -0.33471  -1.20617  -0.18473
  43   37241.3    268.5   0.013966008   0.12346  -0.09800  -0.12983   0.31145
  44   37410.5    267.3   0.052412651   0.46123   0.48312  -0.38666   0.27986
  45   37525.7    266.5   0.174927458   1.53463  -0.05436   1.09777   0.57146
  46   38079.5    262.6   0.132452952   1.14511  -0.84051   0.62892  -0.20764
  47   38809.2    257.7   0.039015559   0.33096  -0.26756  -0.25418  -0.44133
  48   38963.6    256.6   0.091998763   0.77732  -0.37739  -0.44846  -0.65862
  49   39340.8    254.2   0.007598853   0.06359  -0.05353   0.24062   0.05314
  50   39424.9    253.6   0.002667618   0.02228   0.03288   0.10787   0.09777
  51   39760.8    251.5   0.126416375   1.04670   0.26670  -0.95266  -0.26080
  52   39906.0    250.6   0.012151030   0.10024   0.06038  -0.30707   0.04797
  53   40117.5    249.3   0.000026246   0.00022  -0.00957   0.01089   0.00227

FINAL SINGLE POINT ENERGY     -2971.659389067961

DIPOLE MOMENT
-------------
                                X             Y             Z
Electronic contribution:      0.70372       1.50816      -3.13203
Nuclear contribution   :     -0.76017      -1.60779       3.47114
                        -----------------------------------------
Total Dipole Moment    :     -0.05645      -0.09964       0.33911
                        -----------------------------------------
Magnitude (a.u.)       :      0.35792
Magnitude (Debye)      :      0.90976

Rotational constants in cm-1:     0.003660     0.000171     0.000166
Rotational constants in MHz :   109.717345     5.116527     4.988385

                             ****ORCA TERMINATED NORMALLY****
TOTAL RUN TIME: 0 days 0 hours 11 minutes 27 seconds 941 msec
