                         Program Version 4.2.0 -  RELEASE  -
|  1> # ORCA input file
|  2> # SCF done       -158.191773559577          0.000582418957
|  3> ! CAM-B3LYP def2-SVP def2/J RIJCOSX Grid4 TightSCF
|  4> %maxcore 5000
|  5> %tddft
|  6>     Mode sTDDFT
|  7>     Ethresh 5.0
|  8>     maxcore 5000
|  9> end
| 10>
| 11> %pal
| 12>   nprocs 6
| 13>   end
| 14> * xyz 0 1
| 15>    C       -2.95334        -1.57576         2.77825
| 16>    N       -3.97991        -1.38098         1.91233
| 17>    C       -5.13729        -2.22783         1.76877
| 18>    C       -6.11958        -2.03320         2.92088
| 19>    C       -3.82919        -0.16615         1.19303
| 20>    O       -4.62452         0.21907         0.36467
| 21>    C       -2.58543         0.37251         1.69334
| 22>    C       -2.07570        -0.53171         2.67636
| 23>    C       -0.83543         0.02056         3.17464
| 24>    O       -0.03636        -0.37461         3.99338
| 25>    N       -0.68878         1.24256         2.47524
| 26>    C        0.51998         2.01070         2.65382
| 27>    C        1.42407         1.95880         1.42546
| 28>    C       -1.72543         1.45398         1.58940
| 29>    C       -1.96460         2.55686         0.71849
| 30>    C       -1.38425         3.77763         0.71072
| 31>    C       -1.76385         4.78404        -0.22278
| 32>    S       -1.14041         6.43073        -0.10554
| 33>    C       -2.11842         6.75609        -1.53290
| 34>    N       -2.76090         5.70160        -1.94467
| 35>    N       -2.57188         4.62955        -1.23059
| 36>    C       -2.20675         8.02899        -2.16712
| 37>    C       -1.63361         9.14440        -1.68250
| 38>    C       -1.75021        10.47030        -2.23856
| 39>    C       -1.95580        10.76827        -3.62578
| 40>    C       -1.99380         9.95446        -4.73171
| 41>    S       -2.36664        10.82722        -6.15010
| 42>    C       -2.45400        12.30828        -5.30605
| 43>    C       -2.18482        12.15249        -3.96801
| 44>    C       -2.07992        13.10611        -2.90172
| 45>    N       -1.83882        12.69921        -1.67146
| 46>    N       -1.69716        11.44419        -1.35312
| 47>    C       -2.19190        14.53641        -3.04382
| 48>    C       -1.90198        15.26589        -4.13572
| 49>    C       -1.99917        16.68688        -4.17467
| 50>    S       -2.63180        17.66214        -2.85161
| 51>    C       -2.29810        19.04637        -3.89459
| 52>    N       -1.79498        18.69360        -5.04210
| 53>    N       -1.63658        17.41026        -5.19413
| 54>    C       -2.57908        20.37343        -3.46658
| 55>    C       -2.22369        21.45614        -4.19681
| 56>    C       -2.40387        22.83508        -3.89906
| 57>    N       -3.15722        23.43453        -2.90972
| 58>    C       -4.10141        22.83303        -1.99903
| 59>    C       -5.32764        22.28311        -2.72216
| 60>    C       -3.03186        24.83922        -2.93818
| 61>    O       -3.61180        25.57252        -2.16105
| 62>    C       -2.11709        25.10368        -4.02187
| 63>    C       -1.76438        23.85280        -4.59485
| 64>    C       -0.83917        24.09891        -5.67748
| 65>    O       -0.26930        23.36609        -6.45535
| 66>    N       -0.70132        25.50695        -5.69198
| 67>    C        0.20567        26.14966        -6.61088
| 68>    C        1.53209        26.50298        -5.94169
| 69>    C       -1.44836        26.10720        -4.71024
| 70>    C       -1.49192        27.52676        -4.50412
| 71>    C       -2.20850        28.09415        -3.53163
| 72>    H       -2.91446        -2.44849         3.40418
| 73>    H       -4.81460        -3.27168         1.71418
| 74>    H       -5.61037        -1.94703         0.82401
| 75>    H       -5.65303        -2.28401         3.87111
| 76>    H       -6.98701        -2.67127         2.77844
| 77>    H       -6.45059        -0.99830         2.95789
| 78>    H        1.03132         1.54604         3.50316
| 79>    H        0.27686         3.04090         2.92723
| 80>    H        1.70438         0.92930         1.21641
| 81>    H        2.32765         2.53299         1.61129
| 82>    H        0.92429         2.36487         0.54914
| 83>    H       -2.75910         2.37755         0.00483
| 84>    H       -0.62834         4.07126         1.42102
| 85>    H       -2.82588         8.04002        -3.05171
| 86>    H       -1.10676         9.10806        -0.73726
| 87>    H       -1.81204         8.90159        -4.79679
| 88>    H       -2.70915        13.19897        -5.84176
| 89>    H       -2.46525        15.04213        -2.12593
| 90>    H       -1.52858        14.82106        -5.04566
| 91>    H       -3.06883        20.45016        -2.50952
| 92>    H       -1.68600        21.28045        -5.12020
| 93>    H       -4.40657        23.64133        -1.32659
| 94>    H       -3.61051        22.06128        -1.40039
| 95>    H       -5.83488        23.08624        -3.25120
| 96>    H       -6.01714        21.85358        -2.00052
| 97>    H       -5.05087        21.51703        -3.44262
| 98>    H       -0.26722        27.03966        -7.03531
| 99>    H        0.38203        25.42776        -7.41350
|100>    H        1.37902        27.18248        -5.10597
|101>    H        2.19443        26.97545        -6.66172
|102>    H        2.01016        25.60014        -5.56985
|103>    H       -0.91292        28.13739        -5.18296
|104>    H       -2.79266        27.50505        -2.84454
|105>    H       -2.22486        29.16269        -3.40289
|106> *
|107>
|108>                          ****END OF INPUT****

CARTESIAN COORDINATES (ANGSTROEM)
---------------------------------
  C     -2.953340   -1.575760    2.778250
  N     -3.979910   -1.380980    1.912330
  C     -5.137290   -2.227830    1.768770
  C     -6.119580   -2.033200    2.920880
  C     -3.829190   -0.166150    1.193030
  O     -4.624520    0.219070    0.364670
  C     -2.585430    0.372510    1.693340
  C     -2.075700   -0.531710    2.676360
  C     -0.835430    0.020560    3.174640
  O     -0.036360   -0.374610    3.993380
  N     -0.688780    1.242560    2.475240
  C      0.519980    2.010700    2.653820
  C      1.424070    1.958800    1.425460
  C     -1.725430    1.453980    1.589400
  C     -1.964600    2.556860    0.718490
  C     -1.384250    3.777630    0.710720
  C     -1.763850    4.784040   -0.222780
  S     -1.140410    6.430730   -0.105540
  C     -2.118420    6.756090   -1.532900
  N     -2.760900    5.701600   -1.944670
  N     -2.571880    4.629550   -1.230590
  C     -2.206750    8.028990   -2.167120
  C     -1.633610    9.144400   -1.682500
  C     -1.750210   10.470300   -2.238560
  C     -1.955800   10.768270   -3.625780
  C     -1.993800    9.954460   -4.731710
  S     -2.366640   10.827220   -6.150100
  C     -2.454000   12.308280   -5.306050
  C     -2.184820   12.152490   -3.968010
  C     -2.079920   13.106110   -2.901720
  N     -1.838820   12.699210   -1.671460
  N     -1.697160   11.444190   -1.353120
  C     -2.191900   14.536410   -3.043820
  C     -1.901980   15.265890   -4.135720
  C     -1.999170   16.686880   -4.174670
  S     -2.631800   17.662140   -2.851610
  C     -2.298100   19.046370   -3.894590
  N     -1.794980   18.693600   -5.042100
  N     -1.636580   17.410260   -5.194130
  C     -2.579080   20.373430   -3.466580
  C     -2.223690   21.456140   -4.196810
  C     -2.403870   22.835080   -3.899060
  N     -3.157220   23.434530   -2.909720
  C     -4.101410   22.833030   -1.999030
  C     -5.327640   22.283110   -2.722160
  C     -3.031860   24.839220   -2.938180
  O     -3.611800   25.572520   -2.161050
  C     -2.117090   25.103680   -4.021870
  C     -1.764380   23.852800   -4.594850
  C     -0.839170   24.098910   -5.677480
  O     -0.269300   23.366090   -6.455350
  N     -0.701320   25.506950   -5.691980
  C      0.205670   26.149660   -6.610880
  C      1.532090   26.502980   -5.941690
  C     -1.448360   26.107200   -4.710240
  C     -1.491920   27.526760   -4.504120
  C     -2.208500   28.094150   -3.531630
  H     -2.914460   -2.448490    3.404180
  H     -4.814600   -3.271680    1.714180
  H     -5.610370   -1.947030    0.824010
  H     -5.653030   -2.284010    3.871110
  H     -6.987010   -2.671270    2.778440
  H     -6.450590   -0.998300    2.957890
  H      1.031320    1.546040    3.503160
  H      0.276860    3.040900    2.927230
  H      1.704380    0.929300    1.216410
  H      2.327650    2.532990    1.611290
  H      0.924290    2.364870    0.549140
  H     -2.759100    2.377550    0.004830
  H     -0.628340    4.071260    1.421020
  H     -2.825880    8.040020   -3.051710
  H     -1.106760    9.108060   -0.737260
  H     -1.812040    8.901590   -4.796790
  H     -2.709150   13.198970   -5.841760
  H     -2.465250   15.042130   -2.125930
  H     -1.528580   14.821060   -5.045660
  H     -3.068830   20.450160   -2.509520
  H     -1.686000   21.280450   -5.120200
  H     -4.406570   23.641330   -1.326590
  H     -3.610510   22.061280   -1.400390
  H     -5.834880   23.086240   -3.251200
  H     -6.017140   21.853580   -2.000520
  H     -5.050870   21.517030   -3.442620
  H     -0.267220   27.039660   -7.035310
  H      0.382030   25.427760   -7.413500
  H      1.379020   27.182480   -5.105970
  H      2.194430   26.975450   -6.661720
  H      2.010160   25.600140   -5.569850
  H     -0.912920   28.137390   -5.182960
  H     -2.792660   27.505050   -2.844540
  H     -2.224860   29.162690   -3.402890

 Total Charge           Charge          ....    0
 Multiplicity           Mult            ....    1
 Number of Electrons    NEL             ....  424
 Basis Dimension        Dim             ....  980

ORBITAL ENERGIES
----------------

  NO   OCC          E(Eh)            E(eV)
   0   2.0000     -88.989903     -2421.5384
   1   2.0000     -88.972799     -2421.0729
   2   2.0000     -88.969339     -2420.9788
   3   2.0000     -19.191853      -522.2369
   4   2.0000     -19.191427      -522.2253
   5   2.0000     -19.186065      -522.0794
   6   2.0000     -19.184743      -522.0434
   7   2.0000     -14.454187      -393.3184
   8   2.0000     -14.453469      -393.2989
   9   2.0000     -14.450330      -393.2135
  10   2.0000     -14.450100      -393.2072
  11   2.0000     -14.438105      -392.8808
  12   2.0000     -14.436049      -392.8249
  13   2.0000     -14.435915      -392.8212
  14   2.0000     -14.432669      -392.7329
  15   2.0000     -14.429142      -392.6369
  16   2.0000     -14.428787      -392.6273
  17   2.0000     -10.374298      -282.2990
  18   2.0000     -10.374150      -282.2950
  19   2.0000     -10.371338      -282.2185
  20   2.0000     -10.369883      -282.1788
  21   2.0000     -10.343856      -281.4706
  22   2.0000     -10.342745      -281.4404
  23   2.0000     -10.342630      -281.4373
  24   2.0000     -10.341021      -281.3935
  25   2.0000     -10.339914      -281.3634
  26   2.0000     -10.339679      -281.3570
  27   2.0000     -10.335336      -281.2388
  28   2.0000     -10.334211      -281.2082
  29   2.0000     -10.327215      -281.0178
  30   2.0000     -10.327018      -281.0125
  31   2.0000     -10.316617      -280.7294
  32   2.0000     -10.316474      -280.7255
  33   2.0000     -10.309180      -280.5270
  34   2.0000     -10.308566      -280.5103
  35   2.0000     -10.305449      -280.4255
  36   2.0000     -10.304565      -280.4015
  37   2.0000     -10.303593      -280.3750
  38   2.0000     -10.303408      -280.3700
  39   2.0000     -10.302722      -280.3513
  40   2.0000     -10.299239      -280.2565
  41   2.0000     -10.298202      -280.2283
  42   2.0000     -10.298042      -280.2240
  43   2.0000     -10.297646      -280.2132
  44   2.0000     -10.295446      -280.1533
  45   2.0000     -10.295210      -280.1469
  46   2.0000     -10.293496      -280.1003
  47   2.0000     -10.289998      -280.0051
  48   2.0000     -10.282924      -279.8126
  49   2.0000     -10.264931      -279.3230
  50   2.0000     -10.264059      -279.2992
  51   2.0000     -10.263249      -279.2772
  52   2.0000     -10.262965      -279.2695
  53   2.0000     -10.262198      -279.2486
  54   2.0000     -10.261381      -279.2264
  55   2.0000     -10.259682      -279.1801
  56   2.0000     -10.257067      -279.1090
  57   2.0000      -8.085549      -220.0190
  58   2.0000      -8.069094      -219.5712
  59   2.0000      -8.065768      -219.4807
  60   2.0000      -6.054293      -164.7457
  61   2.0000      -6.049837      -164.6244
  62   2.0000      -6.049097      -164.6043
  63   2.0000      -6.037713      -164.2945
  64   2.0000      -6.034513      -164.2074
  65   2.0000      -6.034394      -164.2042
  66   2.0000      -6.031398      -164.1227
  67   2.0000      -6.031185      -164.1169
  68   2.0000      -6.028032      -164.0311
  69   2.0000      -1.142136       -31.0791
  70   2.0000      -1.139057       -30.9953
  71   2.0000      -1.132346       -30.8127
  72   2.0000      -1.131715       -30.7955
  73   2.0000      -1.124299       -30.5937
  74   2.0000      -1.124178       -30.5904
  75   2.0000      -1.112288       -30.2669
  76   2.0000      -1.062471       -28.9113
  77   2.0000      -1.062457       -28.9109
  78   2.0000      -1.051909       -28.6239
  79   2.0000      -1.051485       -28.6124
  80   2.0000      -1.006113       -27.3777
  81   2.0000      -0.960376       -26.1332
  82   2.0000      -0.949079       -25.8258
  83   2.0000      -0.942671       -25.6514
  84   2.0000      -0.930947       -25.3323
  85   2.0000      -0.927268       -25.2323
  86   2.0000      -0.927040       -25.2260
  87   2.0000      -0.921352       -25.0713
  88   2.0000      -0.896009       -24.3817
  89   2.0000      -0.894943       -24.3526
  90   2.0000      -0.886523       -24.1235
  91   2.0000      -0.880829       -23.9686
  92   2.0000      -0.870688       -23.6926
  93   2.0000      -0.868101       -23.6222
  94   2.0000      -0.859348       -23.3840
  95   2.0000      -0.849116       -23.1056
  96   2.0000      -0.836651       -22.7664
  97   2.0000      -0.820015       -22.3137
  98   2.0000      -0.819470       -22.2989
  99   2.0000      -0.815844       -22.2003
 100   2.0000      -0.807601       -21.9759
 101   2.0000      -0.787262       -21.4225
 102   2.0000      -0.781174       -21.2568
 103   2.0000      -0.776788       -21.1375
 104   2.0000      -0.760360       -20.6905
 105   2.0000      -0.759681       -20.6720
 106   2.0000      -0.736822       -20.0499
 107   2.0000      -0.724372       -19.7112
 108   2.0000      -0.716825       -19.5058
 109   2.0000      -0.714078       -19.4311
 110   2.0000      -0.708131       -19.2692
 111   2.0000      -0.707181       -19.2434
 112   2.0000      -0.699239       -19.0273
 113   2.0000      -0.691751       -18.8235
 114   2.0000      -0.686820       -18.6893
 115   2.0000      -0.679102       -18.4793
 116   2.0000      -0.668560       -18.1924
 117   2.0000      -0.664043       -18.0695
 118   2.0000      -0.659100       -17.9350
 119   2.0000      -0.652083       -17.7441
 120   2.0000      -0.648058       -17.6346
 121   2.0000      -0.642094       -17.4723
 122   2.0000      -0.636274       -17.3139
 123   2.0000      -0.625741       -17.0273
 124   2.0000      -0.605982       -16.4896
 125   2.0000      -0.602088       -16.3837
 126   2.0000      -0.597499       -16.2588
 127   2.0000      -0.589769       -16.0484
 128   2.0000      -0.583501       -15.8779
 129   2.0000      -0.582154       -15.8412
 130   2.0000      -0.579891       -15.7796
 131   2.0000      -0.579173       -15.7601
 132   2.0000      -0.569998       -15.5104
 133   2.0000      -0.568578       -15.4718
 134   2.0000      -0.564180       -15.3521
 135   2.0000      -0.562782       -15.3141
 136   2.0000      -0.560932       -15.2637
 137   2.0000      -0.559950       -15.2370
 138   2.0000      -0.549540       -14.9537
 139   2.0000      -0.541413       -14.7326
 140   2.0000      -0.538892       -14.6640
 141   2.0000      -0.534999       -14.5581
 142   2.0000      -0.533323       -14.5125
 143   2.0000      -0.532027       -14.4772
 144   2.0000      -0.530560       -14.4373
 145   2.0000      -0.528830       -14.3902
 146   2.0000      -0.527954       -14.3663
 147   2.0000      -0.521671       -14.1954
 148   2.0000      -0.518713       -14.1149
 149   2.0000      -0.518437       -14.1074
 150   2.0000      -0.513999       -13.9866
 151   2.0000      -0.511783       -13.9263
 152   2.0000      -0.511178       -13.9099
 153   2.0000      -0.508186       -13.8284
 154   2.0000      -0.505845       -13.7648
 155   2.0000      -0.502167       -13.6647
 156   2.0000      -0.500064       -13.6074
 157   2.0000      -0.498762       -13.5720
 158   2.0000      -0.495224       -13.4757
 159   2.0000      -0.492236       -13.3944
 160   2.0000      -0.489550       -13.3213
 161   2.0000      -0.477059       -12.9814
 162   2.0000      -0.472410       -12.8549
 163   2.0000      -0.472349       -12.8533
 164   2.0000      -0.471020       -12.8171
 165   2.0000      -0.469428       -12.7738
 166   2.0000      -0.466326       -12.6894
 167   2.0000      -0.466190       -12.6857
 168   2.0000      -0.460080       -12.5194
 169   2.0000      -0.458782       -12.4841
 170   2.0000      -0.456878       -12.4323
 171   2.0000      -0.456182       -12.4134
 172   2.0000      -0.455283       -12.3889
 173   2.0000      -0.453639       -12.3442
 174   2.0000      -0.452288       -12.3074
 175   2.0000      -0.451368       -12.2823
 176   2.0000      -0.450465       -12.2578
 177   2.0000      -0.445765       -12.1299
 178   2.0000      -0.442606       -12.0439
 179   2.0000      -0.441610       -12.0168
 180   2.0000      -0.434801       -11.8315
 181   2.0000      -0.432143       -11.7592
 182   2.0000      -0.431383       -11.7385
 183   2.0000      -0.423237       -11.5169
 184   2.0000      -0.421856       -11.4793
 185   2.0000      -0.418699       -11.3934
 186   2.0000      -0.412617       -11.2279
 187   2.0000      -0.405546       -11.0355
 188   2.0000      -0.398037       -10.8311
 189   2.0000      -0.394231       -10.7276
 190   2.0000      -0.387305       -10.5391
 191   2.0000      -0.383214       -10.4278
 192   2.0000      -0.381819       -10.3898
 193   2.0000      -0.375225       -10.2104
 194   2.0000      -0.357396        -9.7252
 195   2.0000      -0.351680        -9.5697
 196   2.0000      -0.347952        -9.4682
 197   2.0000      -0.346124        -9.4185
 198   2.0000      -0.345261        -9.3950
 199   2.0000      -0.344017        -9.3612
 200   2.0000      -0.329558        -8.9677
 201   2.0000      -0.328880        -8.9493
 202   2.0000      -0.323538        -8.8039
 203   2.0000      -0.320729        -8.7275
 204   2.0000      -0.315854        -8.5948
 205   2.0000      -0.314362        -8.5542
 206   2.0000      -0.313905        -8.5418
 207   2.0000      -0.306980        -8.3533
 208   2.0000      -0.293674        -7.9913
 209   2.0000      -0.275997        -7.5103
 210   2.0000      -0.248609        -6.7650
 211   2.0000      -0.240937        -6.5562
 212   0.0000      -0.092592        -2.5195
 213   0.0000      -0.080853        -2.2001
 214   0.0000      -0.065608        -1.7853
 215   0.0000      -0.027101        -0.7375
 216   0.0000      -0.020069        -0.5461

MULLIKEN ATOMIC CHARGES
-----------------------
   0 C :    0.057213
   1 N :   -0.268711
   2 C :    0.109921
   3 C :   -0.000676
   4 C :    0.163307
   5 O :   -0.179526
   6 C :   -0.062114
   7 C :   -0.003819
   8 C :    0.166349
   9 O :   -0.189166
  10 N :   -0.281829
  11 C :    0.097998
  12 C :   -0.002760
  13 C :    0.128755
  14 C :   -0.024414
  15 C :    0.076609
  16 C :   -0.112194
  17 S :    0.089908
  18 C :   -0.084788
  19 N :   -0.040531
  20 N :   -0.039379
  21 C :    0.047137
  22 C :    0.003766
  23 C :    0.001602
  24 C :    0.079091
  25 C :   -0.157293
  26 S :    0.190049
  27 C :   -0.160554
  28 C :    0.082619
  29 C :    0.007981
  30 N :   -0.061690
  31 N :   -0.056342
  32 C :    0.001137
  33 C :    0.049755
  34 C :   -0.086186
  35 S :    0.084100
  36 C :   -0.112675
  37 N :   -0.040798
  38 N :   -0.040345
  39 C :    0.073759
  40 C :   -0.019902
  41 C :    0.107710
  42 N :   -0.271480
  43 C :    0.100233
  44 C :   -0.005089
  45 C :    0.160625
  46 O :   -0.213057
  47 C :   -0.068040
  48 C :   -0.029329
  49 C :    0.149848
  50 O :   -0.176293
  51 N :   -0.268679
  52 C :    0.096172
  53 C :    0.001903
  54 C :    0.123721
  55 C :   -0.039525
  56 C :    0.018754
  57 H :    0.019884
  58 H :    0.019577
  59 H :    0.044330
  60 H :    0.013825
  61 H :    0.024175
  62 H :    0.031760
  63 H :    0.046929
  64 H :    0.023484
  65 H :    0.026198
  66 H :    0.021039
  67 H :    0.023953
  68 H :    0.041739
  69 H :   -0.018290
  70 H :    0.014929
  71 H :    0.013556
  72 H :    0.037393
  73 H :    0.037687
  74 H :    0.014013
  75 H :    0.012170
  76 H :   -0.022171
  77 H :    0.038251
  78 H :    0.045592
  79 H :    0.023990
  80 H :    0.026382
  81 H :    0.021377
  82 H :    0.025553
  83 H :    0.023743
  84 H :    0.046135
  85 H :    0.016652
  86 H :    0.024090
  87 H :    0.031429
  88 H :   -0.015985
  89 H :    0.060302
  90 H :    0.033471
Sum of atomic charges:   -0.0000000

LOEWDIN ATOMIC CHARGES
----------------------
   0 C :    0.103986
   1 N :   -0.003898
   2 C :    0.037990
   3 C :   -0.060088
   4 C :    0.080263
   5 O :   -0.181522
   6 C :   -0.109404
   7 C :   -0.134510
   8 C :    0.083043
   9 O :   -0.190341
  10 N :   -0.013851
  11 C :    0.033763
  12 C :   -0.063226
  13 C :    0.070961
  14 C :    0.011079
  15 C :   -0.045285
  16 C :   -0.143356
  17 S :    0.383972
  18 C :   -0.146622
  19 N :   -0.069474
  20 N :   -0.071600
  21 C :   -0.036126
  22 C :   -0.005208
  23 C :   -0.001488
  24 C :   -0.062071
  25 C :   -0.188661
  26 S :    0.525857
  27 C :   -0.188438
  28 C :   -0.061828
  29 C :   -0.000340
  30 N :   -0.057170
  31 N :   -0.056591
  32 C :   -0.008112
  33 C :   -0.034940
  34 C :   -0.148252
  35 S :    0.381222
  36 C :   -0.141474
  37 N :   -0.074848
  38 N :   -0.069420
  39 C :   -0.053549
  40 C :    0.012677
  41 C :    0.059643
  42 N :   -0.006017
  43 C :    0.034241
  44 C :   -0.063486
  45 C :    0.081249
  46 O :   -0.203627
  47 C :   -0.133153
  48 C :   -0.100638
  49 C :    0.082757
  50 O :   -0.179897
  51 N :   -0.003791
  52 C :    0.035740
  53 C :   -0.061325
  54 C :    0.092875
  55 C :   -0.055631
  56 C :    0.033433
  57 H :    0.034679
  58 H :    0.024937
  59 H :    0.037300
  60 H :    0.021983
  61 H :    0.030686
  62 H :    0.032271
  63 H :    0.038299
  64 H :    0.017824
  65 H :    0.031691
  66 H :    0.030409
  67 H :    0.022106
  68 H :    0.056073
  69 H :    0.029443
  70 H :    0.042715
  71 H :    0.034155
  72 H :    0.028625
  73 H :    0.028366
  74 H :    0.033837
  75 H :    0.041740
  76 H :    0.028135
  77 H :    0.055546
  78 H :    0.037733
  79 H :    0.018317
  80 H :    0.031722
  81 H :    0.030366
  82 H :    0.022725
  83 H :    0.022933
  84 H :    0.038516
  85 H :    0.022283
  86 H :    0.030780
  87 H :    0.032867
  88 H :    0.030387
  89 H :    0.034069
  90 H :    0.030987

  Mayer bond orders larger than 0.100000
B(  0-C ,  1-N ) :   1.2045 B(  0-C ,  7-C ) :   1.4471 B(  0-C , 57-H ) :   0.9885
B(  1-N ,  2-C ) :   0.9401 B(  1-N ,  4-C ) :   1.0190 B(  2-C ,  3-C ) :   1.1200
B(  2-C , 58-H ) :   0.9539 B(  2-C , 59-H ) :   0.9344 B(  3-C , 60-H ) :   0.9689
B(  3-C , 61-H ) :   0.9686 B(  3-C , 62-H ) :   0.9674 B(  4-C ,  5-O ) :   2.1442
B(  4-C ,  6-C ) :   0.9794 B(  6-C ,  7-C ) :   1.1967 B(  6-C , 13-C ) :   1.4118
B(  7-C ,  8-C ) :   0.9583 B(  8-C ,  9-O ) :   2.1642 B(  8-C , 10-N ) :   1.0178
B( 10-N , 11-C ) :   0.9463 B( 10-N , 13-C ) :   1.1574 B( 11-C , 12-C ) :   1.1162
B( 11-C , 63-H ) :   0.9218 B( 11-C , 64-H ) :   0.9501 B( 12-C , 65-H ) :   0.9627
B( 12-C , 66-H ) :   0.9671 B( 12-C , 67-H ) :   0.9674 B( 13-C , 14-C ) :   1.1381
B( 14-C , 15-C ) :   1.6549 B( 14-C , 68-H ) :   0.9551 B( 15-C , 16-C ) :   1.1010
B( 15-C , 69-H ) :   0.9489 B( 16-C , 17-S ) :   1.0920 B( 16-C , 20-N ) :   1.6932
B( 17-S , 18-C ) :   1.0913 B( 18-C , 19-N ) :   1.6716 B( 18-C , 21-C ) :   1.1179
B( 19-N , 20-N ) :   1.2225 B( 21-C , 22-C ) :   1.6718 B( 21-C , 70-H ) :   0.9747
B( 22-C , 23-C ) :   1.1027 B( 22-C , 71-H ) :   0.9596 B( 23-C , 24-C ) :   1.0904
B( 23-C , 31-N ) :   1.6810 B( 24-C , 25-C ) :   1.4459 B( 24-C , 28-C ) :   1.2221
B( 25-C , 26-S ) :   1.2307 B( 25-C , 72-H ) :   0.9585 B( 26-S , 27-C ) :   1.2315
B( 27-C , 28-C ) :   1.4444 B( 27-C , 73-H ) :   0.9586 B( 28-C , 29-C ) :   1.0900
B( 29-C , 30-N ) :   1.6784 B( 29-C , 32-C ) :   1.1054 B( 30-N , 31-N ) :   1.1864
B( 32-C , 33-C ) :   1.6659 B( 32-C , 74-H ) :   0.9595 B( 33-C , 34-C ) :   1.1169
B( 33-C , 75-H ) :   0.9752 B( 34-C , 35-S ) :   1.0889 B( 34-C , 38-N ) :   1.6730
B( 35-S , 36-C ) :   1.0917 B( 36-C , 37-N ) :   1.6899 B( 36-C , 39-C ) :   1.1064
B( 37-N , 38-N ) :   1.2225 B( 39-C , 40-C ) :   1.6422 B( 39-C , 76-H ) :   0.9461
B( 40-C , 41-C ) :   1.1488 B( 40-C , 77-H ) :   0.9537 B( 41-C , 42-N ) :   1.1526
B( 41-C , 48-C ) :   1.3838 B( 42-N , 43-C ) :   0.9475 B( 42-N , 45-C ) :   1.0585
B( 43-C , 44-C ) :   1.1138 B( 43-C , 78-H ) :   0.9220 B( 43-C , 79-H ) :   0.9502
B( 44-C , 80-H ) :   0.9629 B( 44-C , 81-H ) :   0.9677 B( 44-C , 82-H ) :   0.9676
B( 45-C , 46-O ) :   2.0354 B( 45-C , 47-C ) :   0.9940 B( 47-C , 48-C ) :   1.2313
B( 47-C , 54-C ) :   1.3566 B( 48-C , 49-C ) :   0.9684 B( 49-C , 50-O ) :   2.1510
B( 49-C , 51-N ) :   1.0204 B( 51-N , 52-C ) :   0.9457 B( 51-N , 54-C ) :   1.1816
B( 52-C , 53-C ) :   1.1181 B( 52-C , 83-H ) :   0.9511 B( 52-C , 84-H ) :   0.9286
B( 53-C , 85-H ) :   0.9688 B( 53-C , 86-H ) :   0.9682 B( 53-C , 87-H ) :   0.9642
B( 54-C , 55-C ) :   1.1267 B( 55-C , 56-C ) :   1.8859 B( 55-C , 88-H ) :   0.9545
B( 56-C , 89-H ) :   0.9256 B( 56-C , 90-H ) :   0.9444

-----------------------------------------------------------------------------
         ABSORPTION SPECTRUM VIA TRANSITION ELECTRIC DIPOLE MOMENTS
-----------------------------------------------------------------------------
State   Energy  Wavelength   fosc         T2         TX        TY        TZ
        (cm-1)    (nm)                  (au**2)     (au)      (au)      (au)
-----------------------------------------------------------------------------
   0   18377.4    544.1   1.520909024  27.24546  -0.92159  -4.95582   1.35499
   1   20244.6    494.0   0.124219938   2.02003   0.41980   1.31879  -0.32341
   2   20322.3    492.1   0.422345001   6.84179   0.71510   2.44277  -0.60274
   3   23886.2    418.7   0.336990823   4.64458  -0.96645   1.90916  -0.25622
   4   25409.0    393.6   0.248353139   3.21779   0.28439  -1.61406   0.72918
   5   26978.4    370.7   0.139967587   1.70800   0.46741   1.19597  -0.24327
   6   27662.4    361.5   0.002972431   0.03538   0.08522  -0.16659  -0.01900
   7   28116.6    355.7   0.003116679   0.03649  -0.03830   0.02018  -0.18606
   8   28177.0    354.9   0.003276006   0.03828  -0.00403   0.17578   0.08579
   9   28483.1    351.1   0.006789092   0.07847  -0.25143  -0.00330   0.12345
  10   29017.4    344.6   0.106131191   1.20409   0.11158   0.44311   0.99765
  11   29545.0    338.5   0.007260358   0.08090  -0.11893   0.14469  -0.21406
  12   29700.0    336.7   0.001291183   0.01431  -0.07601  -0.02416  -0.08917
  13   30850.8    324.1   0.004601564   0.04910  -0.04391   0.19784   0.08964
  14   31351.1    319.0   0.234395149   2.46134  -0.03388  -1.49187   0.48428
  15   31993.2    312.6   0.006679263   0.06873  -0.03510  -0.24962   0.07204
  16   32227.3    310.3   0.133554516   1.36430  -0.47120   1.06653  -0.06918
  17   32878.4    304.2   0.027096083   0.27131   0.48140  -0.11642  -0.16128
  18   33383.2    299.6   0.046690179   0.46044  -0.08389  -0.56716  -0.36295
  19   34593.7    289.1   0.002662911   0.02534  -0.08999   0.10447  -0.07956
  20   35349.8    282.9   0.147449520   1.37319   0.59023  -0.50410   0.87790
  21   35936.4    278.3   0.003723299   0.03411   0.00545   0.17842  -0.04738
  22   36000.2    277.8   0.003688406   0.03373   0.16689  -0.06167   0.04555
  23   36384.9    274.8   0.003428446   0.03102  -0.11952   0.03495   0.12455
  24   36894.5    271.0   0.293736874   2.62103   0.23093  -1.57965   0.26908
  25   37447.3    267.0   0.088551667   0.77849   0.08948  -0.82609   0.29673
  26   37573.0    266.1   0.013677398   0.11984  -0.08710   0.22686  -0.24656
  27   38643.2    258.8   0.008661578   0.07379   0.24694   0.10347  -0.04586
  28   39127.6    255.6   0.000697714   0.00587  -0.01582  -0.07116   0.02360
  29   39193.5    255.1   0.062174985   0.52225  -0.43580  -0.56622   0.10826
  30   39859.6    250.9   0.027877080   0.23024  -0.00485  -0.39674  -0.26984

FINAL SINGLE POINT ENERGY     -3584.261492362091

DIPOLE MOMENT
-------------
                                X             Y             Z
Electronic contribution:      1.06219     -18.01237     -11.64664
Nuclear contribution   :     -1.14150      18.50893      11.46008
                        -----------------------------------------
Total Dipole Moment    :     -0.07931       0.49656      -0.18656
                        -----------------------------------------
Magnitude (a.u.)       :      0.53635
Magnitude (Debye)      :      1.36329

Rotational constants in cm-1:     0.004302     0.000205     0.000203
Rotational constants in MHz :   128.971887     6.137353     6.094739

                             ****ORCA TERMINATED NORMALLY****
TOTAL RUN TIME: 0 days 0 hours 7 minutes 54 seconds 177 msec
