                         Program Version 4.2.0 -  RELEASE  -
|  1> # ORCA input file
|  2> # SCF done       -194.368449535787          0.000906350814
|  3> ! CAM-B3LYP def2-SVP def2/J RIJCOSX Grid4 TightSCF
|  4> %maxcore 5000
|  5> %tddft
|  6>     Mode sTDDFT
|  7>     Ethresh 5.0
|  8>     maxcore 5000
|  9> end
| 10>
| 11> %pal
| 12>   nprocs 6
| 13>   end
| 14> * xyz 0 1
| 15>    C       -5.89462         0.86758         5.16642
| 16>    N       -4.86947         0.57576         4.31815
| 17>    C       -4.13029        -0.66036         4.28554
| 18>    C       -3.15868        -0.76680         5.45818
| 19>    C       -4.55637         1.67417         3.49239
| 20>    O       -3.67140         1.64565         2.65035
| 21>    C       -5.48809         2.69235         3.89340
| 22>    C       -6.30436         2.14961         4.93907
| 23>    C       -7.24467         3.17334         5.34660
| 24>    O       -8.12772         3.18991         6.17513
| 25>    N       -6.93513         4.27060         4.51948
| 26>    C       -7.63839         5.52251         4.64920
| 27>    C       -6.84312         6.54026         5.46395
| 28>    C       -5.89494         3.99978         3.65672
| 29>    C       -5.38572         4.93122         2.71821
| 30>    C       -4.38843         4.60197         1.85732
| 31>    C       -3.81546         5.47370         0.90582
| 32>    S       -4.28025         7.15078         0.78845
| 33>    C       -3.16411         7.41818        -0.52321
| 34>    C       -2.48223         6.25430        -0.84989
| 35>    C       -2.83486         5.17055        -0.02598
| 36>    C       -2.14862         3.85211        -0.14817
| 37>    C       -0.71828         4.08807        -0.62803
| 38>    C       -0.70690         4.82069        -1.98095
| 39>    N       -1.28618         4.05617        -3.07169
| 40>    C       -1.42520         6.17794        -1.89910
| 41>    C       -3.05188         8.70195        -1.14140
| 42>    N       -3.05523         9.89663        -0.45124
| 43>    C       -3.00704        10.08264         0.97874
| 44>    C       -1.70648         9.56114         1.58172
| 45>    C       -2.93377        10.99866        -1.31432
| 46>    O       -2.88189        12.15310        -0.91998
| 47>    C       -2.89756        10.42330        -2.63012
| 48>    C       -2.95858         9.00659        -2.49140
| 49>    C       -3.01898         8.43984        -3.81901
| 50>    O       -3.10493         7.29239        -4.21425
| 51>    N       -2.95538         9.54718        -4.67744
| 52>    C       -3.00474         9.38583        -6.10975
| 53>    C       -4.40067         9.65307        -6.66831
| 54>    C       -2.89750        10.73720        -3.98654
| 55>    C       -2.85985        12.00830        -4.60584
| 56>    C       -2.76694        13.15737        -3.88688
| 57>    C       -2.75772        14.45511        -4.44329
| 58>    S       -2.97144        14.72386        -6.15138
| 59>    C       -2.85321        16.45007        -5.94651
| 60>    C       -2.64060        16.78480        -4.61628
| 61>    C       -2.61416        15.65988        -3.77243
| 62>    C       -2.49558        15.80235        -2.29255
| 63>    C       -3.11854        17.13250        -1.87521
| 64>    C       -2.42843        18.30814        -2.58818
| 65>    N       -1.02931        18.47551        -2.23450
| 66>    C       -2.53650        18.18589        -4.11707
| 67>    C       -2.95809        17.32840        -7.06995
| 68>    N       -3.87348        17.17614        -8.08812
| 69>    C       -4.92303        16.19247        -8.20624
| 70>    C       -4.53141        15.06270        -9.15475
| 71>    C       -3.75844        18.19165        -9.05658
| 72>    O       -4.49183        18.27009       -10.02326
| 73>    C       -2.66083        19.00297        -8.59598
| 74>    C       -2.19829        18.45090        -7.36202
| 75>    C       -1.04870        19.21480        -6.94804
| 76>    O       -0.29908        19.11811        -5.99378
| 77>    N       -0.91352        20.20767        -7.93434
| 78>    C        0.16731        21.16064        -7.87949
| 79>    C        1.31965        20.76888        -8.80152
| 80>    C       -1.85790        20.08103        -8.92567
| 81>    C       -1.93499        20.95842       -10.05952
| 82>    C       -2.84390        20.81785       -11.02603
| 83>    H       -6.26009         0.13659         5.86325
| 84>    H       -3.57815        -0.66489         3.34181
| 85>    H       -4.83198        -1.49998         4.29556
| 86>    H       -2.45175         0.05885         5.43275
| 87>    H       -2.60698        -1.70079         5.39849
| 88>    H       -3.69439        -0.73674         6.40440
| 89>    H       -8.57363         5.29074         5.16689
| 90>    H       -7.87249         5.91629         3.65599
| 91>    H       -6.65798         6.15064         6.46187
| 92>    H       -7.40718         7.46479         5.55045
| 93>    H       -5.88655         6.75530         4.99278
| 94>    H       -5.81070         5.92492         2.68947
| 95>    H       -3.98913         3.59738         1.88530
| 96>    H       -2.68388         3.22413        -0.86810
| 97>    H       -2.15088         3.32019         0.80366
| 98>    H       -0.19867         3.13241        -0.72731
| 99>    H       -0.18144         4.68838         0.10969
|100>    H        0.33964         4.99955        -2.26127
|101>    H       -2.29072         3.97815        -2.96455
|102>    H       -0.89192         3.12290        -3.10930
|103>    H       -1.88210         6.35321        -2.87882
|104>    H       -0.70476         6.98284        -1.73363
|105>    H       -3.86892         9.60270         1.44990
|106>    H       -3.08123        11.16356         1.13096
|107>    H       -1.61517         8.48658         1.43980
|108>    H       -1.68622         9.77283         2.64698
|109>    H       -0.85445        10.04756         1.11244
|110>    H       -2.72580         8.34660        -6.30615
|111>    H       -2.26652        10.04494        -6.57547
|112>    H       -5.11429         8.96365        -6.22385
|113>    H       -4.39963         9.50696        -7.74497
|114>    H       -4.72078        10.67011        -6.45267
|115>    H       -2.90380        12.05816        -5.68508
|116>    H       -2.70003        13.09476        -2.80945
|117>    H       -1.43963        15.77824        -2.00332
|118>    H       -2.98608        14.97313        -1.78167
|119>    H       -3.03040        17.25968        -0.79395
|120>    H       -4.18056        17.13276        -2.12934
|121>    H       -2.93051        19.23464        -2.27924
|122>    H       -0.46631        17.72801        -2.62360
|123>    H       -0.90787        18.48161        -1.22786
|124>    H       -1.63526        18.64718        -4.53475
|125>    H       -3.39047        18.75806        -4.48805
|126>    H       -5.79511        16.71256        -8.61506
|127>    H       -5.16995        15.80559        -7.21581
|128>    H       -4.34555        15.46823       -10.14566
|129>    H       -5.33894        14.33899        -9.21758
|130>    H       -3.63331        14.55888        -8.80568
|131>    H        0.51444        21.16127        -6.84227
|132>    H       -0.20869        22.15755        -8.12617
|133>    H        1.71259        19.79818        -8.50934
|134>    H        2.11670        21.50354        -8.72800
|135>    H        0.98946        20.71092        -9.83624
|136>    H       -1.21489        21.76386       -10.10174
|137>    H       -3.57135        20.02413       -11.00445
|138>    H       -2.87793        21.49566       -11.86144
|139> *
|140>
|141>                          ****END OF INPUT****

CARTESIAN COORDINATES (ANGSTROEM)
---------------------------------
  C     -5.894620    0.867580    5.166420
  N     -4.869470    0.575760    4.318150
  C     -4.130290   -0.660360    4.285540
  C     -3.158680   -0.766800    5.458180
  C     -4.556370    1.674170    3.492390
  O     -3.671400    1.645650    2.650350
  C     -5.488090    2.692350    3.893400
  C     -6.304360    2.149610    4.939070
  C     -7.244670    3.173340    5.346600
  O     -8.127720    3.189910    6.175130
  N     -6.935130    4.270600    4.519480
  C     -7.638390    5.522510    4.649200
  C     -6.843120    6.540260    5.463950
  C     -5.894940    3.999780    3.656720
  C     -5.385720    4.931220    2.718210
  C     -4.388430    4.601970    1.857320
  C     -3.815460    5.473700    0.905820
  S     -4.280250    7.150780    0.788450
  C     -3.164110    7.418180   -0.523210
  C     -2.482230    6.254300   -0.849890
  C     -2.834860    5.170550   -0.025980
  C     -2.148620    3.852110   -0.148170
  C     -0.718280    4.088070   -0.628030
  C     -0.706900    4.820690   -1.980950
  N     -1.286180    4.056170   -3.071690
  C     -1.425200    6.177940   -1.899100
  C     -3.051880    8.701950   -1.141400
  N     -3.055230    9.896630   -0.451240
  C     -3.007040   10.082640    0.978740
  C     -1.706480    9.561140    1.581720
  C     -2.933770   10.998660   -1.314320
  O     -2.881890   12.153100   -0.919980
  C     -2.897560   10.423300   -2.630120
  C     -2.958580    9.006590   -2.491400
  C     -3.018980    8.439840   -3.819010
  O     -3.104930    7.292390   -4.214250
  N     -2.955380    9.547180   -4.677440
  C     -3.004740    9.385830   -6.109750
  C     -4.400670    9.653070   -6.668310
  C     -2.897500   10.737200   -3.986540
  C     -2.859850   12.008300   -4.605840
  C     -2.766940   13.157370   -3.886880
  C     -2.757720   14.455110   -4.443290
  S     -2.971440   14.723860   -6.151380
  C     -2.853210   16.450070   -5.946510
  C     -2.640600   16.784800   -4.616280
  C     -2.614160   15.659880   -3.772430
  C     -2.495580   15.802350   -2.292550
  C     -3.118540   17.132500   -1.875210
  C     -2.428430   18.308140   -2.588180
  N     -1.029310   18.475510   -2.234500
  C     -2.536500   18.185890   -4.117070
  C     -2.958090   17.328400   -7.069950
  N     -3.873480   17.176140   -8.088120
  C     -4.923030   16.192470   -8.206240
  C     -4.531410   15.062700   -9.154750
  C     -3.758440   18.191650   -9.056580
  O     -4.491830   18.270090  -10.023260
  C     -2.660830   19.002970   -8.595980
  C     -2.198290   18.450900   -7.362020
  C     -1.048700   19.214800   -6.948040
  O     -0.299080   19.118110   -5.993780
  N     -0.913520   20.207670   -7.934340
  C      0.167310   21.160640   -7.879490
  C      1.319650   20.768880   -8.801520
  C     -1.857900   20.081030   -8.925670
  C     -1.934990   20.958420  -10.059520
  C     -2.843900   20.817850  -11.026030
  H     -6.260090    0.136590    5.863250
  H     -3.578150   -0.664890    3.341810
  H     -4.831980   -1.499980    4.295560
  H     -2.451750    0.058850    5.432750
  H     -2.606980   -1.700790    5.398490
  H     -3.694390   -0.736740    6.404400
  H     -8.573630    5.290740    5.166890
  H     -7.872490    5.916290    3.655990
  H     -6.657980    6.150640    6.461870
  H     -7.407180    7.464790    5.550450
  H     -5.886550    6.755300    4.992780
  H     -5.810700    5.924920    2.689470
  H     -3.989130    3.597380    1.885300
  H     -2.683880    3.224130   -0.868100
  H     -2.150880    3.320190    0.803660
  H     -0.198670    3.132410   -0.727310
  H     -0.181440    4.688380    0.109690
  H      0.339640    4.999550   -2.261270
  H     -2.290720    3.978150   -2.964550
  H     -0.891920    3.122900   -3.109300
  H     -1.882100    6.353210   -2.878820
  H     -0.704760    6.982840   -1.733630
  H     -3.868920    9.602700    1.449900
  H     -3.081230   11.163560    1.130960
  H     -1.615170    8.486580    1.439800
  H     -1.686220    9.772830    2.646980
  H     -0.854450   10.047560    1.112440
  H     -2.725800    8.346600   -6.306150
  H     -2.266520   10.044940   -6.575470
  H     -5.114290    8.963650   -6.223850
  H     -4.399630    9.506960   -7.744970
  H     -4.720780   10.670110   -6.452670
  H     -2.903800   12.058160   -5.685080
  H     -2.700030   13.094760   -2.809450
  H     -1.439630   15.778240   -2.003320
  H     -2.986080   14.973130   -1.781670
  H     -3.030400   17.259680   -0.793950
  H     -4.180560   17.132760   -2.129340
  H     -2.930510   19.234640   -2.279240
  H     -0.466310   17.728010   -2.623600
  H     -0.907870   18.481610   -1.227860
  H     -1.635260   18.647180   -4.534750
  H     -3.390470   18.758060   -4.488050
  H     -5.795110   16.712560   -8.615060
  H     -5.169950   15.805590   -7.215810
  H     -4.345550   15.468230  -10.145660
  H     -5.338940   14.338990   -9.217580
  H     -3.633310   14.558880   -8.805680
  H      0.514440   21.161270   -6.842270
  H     -0.208690   22.157550   -8.126170
  H      1.712590   19.798180   -8.509340
  H      2.116700   21.503540   -8.728000
  H      0.989460   20.710920   -9.836240
  H     -1.214890   21.763860  -10.101740
  H     -3.571350   20.024130  -11.004450
  H     -2.877930   21.495660  -11.861440

 Total Charge           Charge          ....    0
 Multiplicity           Mult            ....    1
 Number of Electrons    NEL             ....  504
 Basis Dimension        Dim             .... 1240

ORBITAL ENERGIES
----------------

  NO   OCC          E(Eh)            E(eV)
   0   2.0000     -88.958456     -2420.6827
   1   2.0000     -88.955410     -2420.5998
   2   2.0000     -19.186281      -522.0852
   3   2.0000     -19.186262      -522.0847
   4   2.0000     -19.185428      -522.0620
   5   2.0000     -19.183795      -522.0176
   6   2.0000     -19.179228      -521.8933
   7   2.0000     -19.179109      -521.8901
   8   2.0000     -14.450441      -393.2165
   9   2.0000     -14.450306      -393.2128
  10   2.0000     -14.449110      -393.1803
  11   2.0000     -14.448182      -393.1550
  12   2.0000     -14.444399      -393.0521
  13   2.0000     -14.443095      -393.0166
  14   2.0000     -14.369871      -391.0241
  15   2.0000     -14.368269      -390.9805
  16   2.0000     -10.369437      -282.1667
  17   2.0000     -10.369019      -282.1554
  18   2.0000     -10.367839      -282.1232
  19   2.0000     -10.366187      -282.0783
  20   2.0000     -10.364897      -282.0432
  21   2.0000     -10.361292      -281.9451
  22   2.0000     -10.340708      -281.3850
  23   2.0000     -10.336080      -281.2590
  24   2.0000     -10.335380      -281.2400
  25   2.0000     -10.335342      -281.2389
  26   2.0000     -10.333880      -281.1992
  27   2.0000     -10.317524      -280.7541
  28   2.0000     -10.308419      -280.5063
  29   2.0000     -10.306149      -280.4446
  30   2.0000     -10.305501      -280.4269
  31   2.0000     -10.305019      -280.4138
  32   2.0000     -10.302780      -280.3529
  33   2.0000     -10.301711      -280.3238
  34   2.0000     -10.301636      -280.3218
  35   2.0000     -10.301605      -280.3209
  36   2.0000     -10.299070      -280.2519
  37   2.0000     -10.298790      -280.2443
  38   2.0000     -10.291628      -280.0494
  39   2.0000     -10.289049      -279.9792
  40   2.0000     -10.285719      -279.8887
  41   2.0000     -10.284276      -279.8494
  42   2.0000     -10.283276      -279.8222
  43   2.0000     -10.281982      -279.7870
  44   2.0000     -10.281570      -279.7758
  45   2.0000     -10.280746      -279.7533
  46   2.0000     -10.280484      -279.7462
  47   2.0000     -10.280218      -279.7390
  48   2.0000     -10.279336      -279.7150
  49   2.0000     -10.277358      -279.6611
  50   2.0000     -10.264710      -279.3170
  51   2.0000     -10.262439      -279.2552
  52   2.0000     -10.261735      -279.2360
  53   2.0000     -10.261211      -279.2217
  54   2.0000     -10.260348      -279.1983
  55   2.0000     -10.258731      -279.1543
  56   2.0000     -10.258646      -279.1520
  57   2.0000     -10.258318      -279.1430
  58   2.0000     -10.256911      -279.1047
  59   2.0000     -10.255091      -279.0552
  60   2.0000     -10.254764      -279.0463
  61   2.0000     -10.253847      -279.0214
  62   2.0000     -10.253225      -279.0044
  63   2.0000     -10.252543      -278.9859
  64   2.0000     -10.250162      -278.9211
  65   2.0000     -10.250029      -278.9175
  66   2.0000     -10.248486      -278.8755
  67   2.0000     -10.246594      -278.8240
  68   2.0000      -8.053331      -219.1423
  69   2.0000      -8.050362      -219.0615
  70   2.0000      -6.022611      -163.8836
  71   2.0000      -6.019595      -163.8015
  72   2.0000      -6.018604      -163.7745
  73   2.0000      -6.015734      -163.6964
  74   2.0000      -6.015424      -163.6880
  75   2.0000      -6.012416      -163.6062
  76   2.0000      -1.129206       -30.7273
  77   2.0000      -1.128201       -30.6999
  78   2.0000      -1.122324       -30.5400
  79   2.0000      -1.122124       -30.5345
  80   2.0000      -1.120566       -30.4921
  81   2.0000      -1.114819       -30.3358
  82   2.0000      -1.059575       -28.8325
  83   2.0000      -1.058327       -28.7985
  84   2.0000      -1.052666       -28.6445
  85   2.0000      -1.051776       -28.6203
  86   2.0000      -1.050355       -28.5816
  87   2.0000      -1.044232       -28.4150
  88   2.0000      -0.992380       -27.0040
  89   2.0000      -0.989597       -26.9283
  90   2.0000      -0.962369       -26.1874
  91   2.0000      -0.960617       -26.1397
  92   2.0000      -0.924604       -25.1597
  93   2.0000      -0.923659       -25.1340
  94   2.0000      -0.919233       -25.0136
  95   2.0000      -0.909384       -24.7456
  96   2.0000      -0.905100       -24.6290
  97   2.0000      -0.891066       -24.2472
  98   2.0000      -0.885916       -24.1070
  99   2.0000      -0.884467       -24.0676
 100   2.0000      -0.872844       -23.7513
 101   2.0000      -0.868551       -23.6345
 102   2.0000      -0.866632       -23.5823
 103   2.0000      -0.855963       -23.2919
 104   2.0000      -0.853645       -23.2289
 105   2.0000      -0.822411       -22.3789
 106   2.0000      -0.820310       -22.3218
 107   2.0000      -0.815751       -22.1977
 108   2.0000      -0.815403       -22.1883
 109   2.0000      -0.813486       -22.1361
 110   2.0000      -0.807048       -21.9609
 111   2.0000      -0.802448       -21.8357
 112   2.0000      -0.801040       -21.7974
 113   2.0000      -0.794681       -21.6244
 114   2.0000      -0.780637       -21.2422
 115   2.0000      -0.777240       -21.1498
 116   2.0000      -0.756478       -20.5848
 117   2.0000      -0.756287       -20.5796
 118   2.0000      -0.754322       -20.5262
 119   2.0000      -0.745088       -20.2749
 120   2.0000      -0.735329       -20.0093
 121   2.0000      -0.712607       -19.3910
 122   2.0000      -0.710870       -19.3438
 123   2.0000      -0.707871       -19.2621
 124   2.0000      -0.704856       -19.1801
 125   2.0000      -0.703602       -19.1460
 126   2.0000      -0.702826       -19.1249
 127   2.0000      -0.696156       -18.9434
 128   2.0000      -0.691517       -18.8171
 129   2.0000      -0.678822       -18.4717
 130   2.0000      -0.671752       -18.2793
 131   2.0000      -0.659784       -17.9536
 132   2.0000      -0.655354       -17.8331
 133   2.0000      -0.652359       -17.7516
 134   2.0000      -0.645689       -17.5701
 135   2.0000      -0.644824       -17.5465
 136   2.0000      -0.643649       -17.5146
 137   2.0000      -0.623272       -16.9601
 138   2.0000      -0.618438       -16.8286
 139   2.0000      -0.610907       -16.6236
 140   2.0000      -0.606945       -16.5158
 141   2.0000      -0.598061       -16.2741
 142   2.0000      -0.596398       -16.2288
 143   2.0000      -0.594192       -16.1688
 144   2.0000      -0.587633       -15.9903
 145   2.0000      -0.583202       -15.8697
 146   2.0000      -0.580511       -15.7965
 147   2.0000      -0.579465       -15.7680
 148   2.0000      -0.572219       -15.5709
 149   2.0000      -0.570795       -15.5321
 150   2.0000      -0.568712       -15.4754
 151   2.0000      -0.565735       -15.3944
 152   2.0000      -0.563723       -15.3397
 153   2.0000      -0.561597       -15.2818
 154   2.0000      -0.558155       -15.1882
 155   2.0000      -0.550951       -14.9921
 156   2.0000      -0.547149       -14.8887
 157   2.0000      -0.543327       -14.7847
 158   2.0000      -0.540446       -14.7063
 159   2.0000      -0.539333       -14.6760
 160   2.0000      -0.536761       -14.6060
 161   2.0000      -0.533129       -14.5072
 162   2.0000      -0.530556       -14.4372
 163   2.0000      -0.529045       -14.3960
 164   2.0000      -0.528696       -14.3865
 165   2.0000      -0.527503       -14.3541
 166   2.0000      -0.523711       -14.2509
 167   2.0000      -0.522010       -14.2046
 168   2.0000      -0.520346       -14.1593
 169   2.0000      -0.519005       -14.1228
 170   2.0000      -0.516339       -14.0503
 171   2.0000      -0.515830       -14.0365
 172   2.0000      -0.513169       -13.9640
 173   2.0000      -0.511331       -13.9140
 174   2.0000      -0.508209       -13.8291
 175   2.0000      -0.507610       -13.8128
 176   2.0000      -0.503992       -13.7143
 177   2.0000      -0.499208       -13.5842
 178   2.0000      -0.498439       -13.5632
 179   2.0000      -0.496419       -13.5082
 180   2.0000      -0.494620       -13.4593
 181   2.0000      -0.493872       -13.4389
 182   2.0000      -0.490734       -13.3535
 183   2.0000      -0.489139       -13.3101
 184   2.0000      -0.487092       -13.2544
 185   2.0000      -0.479508       -13.0481
 186   2.0000      -0.477401       -12.9907
 187   2.0000      -0.476560       -12.9679
 188   2.0000      -0.474811       -12.9203
 189   2.0000      -0.472544       -12.8586
 190   2.0000      -0.470113       -12.7924
 191   2.0000      -0.469842       -12.7851
 192   2.0000      -0.467889       -12.7319
 193   2.0000      -0.467409       -12.7189
 194   2.0000      -0.464402       -12.6370
 195   2.0000      -0.462315       -12.5802
 196   2.0000      -0.459930       -12.5153
 197   2.0000      -0.458668       -12.4810
 198   2.0000      -0.455147       -12.3852
 199   2.0000      -0.453736       -12.3468
 200   2.0000      -0.452372       -12.3097
 201   2.0000      -0.450817       -12.2674
 202   2.0000      -0.450608       -12.2617
 203   2.0000      -0.448568       -12.2062
 204   2.0000      -0.446757       -12.1569
 205   2.0000      -0.445339       -12.1183
 206   2.0000      -0.445104       -12.1119
 207   2.0000      -0.442118       -12.0306
 208   2.0000      -0.440600       -11.9893
 209   2.0000      -0.437370       -11.9014
 210   2.0000      -0.435926       -11.8621
 211   2.0000      -0.432166       -11.7598
 212   2.0000      -0.429882       -11.6977
 213   2.0000      -0.428652       -11.6642
 214   2.0000      -0.426257       -11.5990
 215   2.0000      -0.425374       -11.5750
 216   2.0000      -0.423993       -11.5374
 217   2.0000      -0.420631       -11.4460
 218   2.0000      -0.417546       -11.3620
 219   2.0000      -0.415993       -11.3197
 220   2.0000      -0.415811       -11.3148
 221   2.0000      -0.412195       -11.2164
 222   2.0000      -0.407695       -11.0939
 223   2.0000      -0.406198       -11.0532
 224   2.0000      -0.401026       -10.9125
 225   2.0000      -0.395748       -10.7689
 226   2.0000      -0.395106       -10.7514
 227   2.0000      -0.391801       -10.6614
 228   2.0000      -0.389422       -10.5967
 229   2.0000      -0.386806       -10.5255
 230   2.0000      -0.385630       -10.4935
 231   2.0000      -0.366079        -9.9615
 232   2.0000      -0.356460        -9.6998
 233   2.0000      -0.346567        -9.4306
 234   2.0000      -0.340905        -9.2765
 235   2.0000      -0.340252        -9.2587
 236   2.0000      -0.336783        -9.1643
 237   2.0000      -0.327388        -8.9087
 238   2.0000      -0.327260        -8.9052
 239   2.0000      -0.320863        -8.7311
 240   2.0000      -0.311036        -8.4637
 241   2.0000      -0.310215        -8.4414
 242   2.0000      -0.309126        -8.4117
 243   2.0000      -0.306224        -8.3328
 244   2.0000      -0.304322        -8.2810
 245   2.0000      -0.295783        -8.0487
 246   2.0000      -0.293124        -7.9763
 247   2.0000      -0.290882        -7.9153
 248   2.0000      -0.287725        -7.8294
 249   2.0000      -0.250542        -6.8176
 250   2.0000      -0.240110        -6.5337
 251   2.0000      -0.225268        -6.1298
 252   0.0000      -0.085963        -2.3392
 253   0.0000      -0.065013        -1.7691
 254   0.0000      -0.045308        -1.2329
 255   0.0000      -0.010985        -0.2989
 256   0.0000       0.010429         0.2838

MULLIKEN ATOMIC CHARGES
-----------------------
   0 C :    0.027120
   1 N :   -0.255974
   2 C :    0.113513
   3 C :   -0.001846
   4 C :    0.169677
   5 O :   -0.235097
   6 C :   -0.110049
   7 C :    0.010945
   8 C :    0.161534
   9 O :   -0.187680
  10 N :   -0.271098
  11 C :    0.102987
  12 C :    0.003031
  13 C :    0.163354
  14 C :   -0.045570
  15 C :    0.006529
  16 C :   -0.078759
  17 S :    0.110605
  18 C :   -0.214946
  19 C :   -0.014149
  20 C :   -0.108543
  21 C :    0.130915
  22 C :    0.059040
  23 C :   -0.032055
  24 N :   -0.180759
  25 C :    0.142042
  26 C :    0.093164
  27 N :   -0.253303
  28 C :    0.095966
  29 C :    0.000720
  30 C :    0.160646
  31 O :   -0.230352
  32 C :   -0.091060
  33 C :   -0.014058
  34 C :    0.143921
  35 O :   -0.204534
  36 N :   -0.256189
  37 C :    0.100559
  38 C :    0.002037
  39 C :    0.154354
  40 C :   -0.047746
  41 C :    0.008617
  42 C :   -0.071600
  43 S :    0.101247
  44 C :   -0.200597
  45 C :   -0.015598
  46 C :   -0.108800
  47 C :    0.127631
  48 C :    0.052600
  49 C :   -0.028546
  50 N :   -0.180676
  51 C :    0.138775
  52 C :    0.102392
  53 N :   -0.258989
  54 C :    0.107084
  55 C :    0.000862
  56 C :    0.160639
  57 O :   -0.211992
  58 C :   -0.074032
  59 C :   -0.026455
  60 C :    0.139364
  61 O :   -0.205040
  62 N :   -0.255968
  63 C :    0.099350
  64 C :    0.002691
  65 C :    0.114826
  66 C :   -0.036699
  67 C :    0.013326
  68 H :    0.010411
  69 H :    0.039333
  70 H :    0.016688
  71 H :    0.029565
  72 H :    0.020947
  73 H :    0.014259
  74 H :    0.041459
  75 H :    0.021221
  76 H :    0.029052
  77 H :    0.021051
  78 H :    0.013387
  79 H :   -0.027073
  80 H :    0.022578
  81 H :    0.002457
  82 H :    0.035185
  83 H :   -0.008060
  84 H :   -0.000967
  85 H :   -0.012997
  86 H :    0.095061
  87 H :    0.082771
  88 H :    0.055710
  89 H :    0.007975
  90 H :    0.025640
  91 H :    0.042337
  92 H :    0.031021
  93 H :    0.021049
  94 H :    0.020770
  95 H :    0.044019
  96 H :    0.023610
  97 H :    0.030442
  98 H :    0.023748
  99 H :    0.014443
 100 H :   -0.023039
 101 H :    0.020981
 102 H :    0.002686
 103 H :    0.036648
 104 H :   -0.005389
 105 H :    0.001260
 106 H :   -0.012847
 107 H :    0.095341
 108 H :    0.083212
 109 H :    0.056682
 110 H :    0.009192
 111 H :    0.031542
 112 H :    0.031526
 113 H :    0.034652
 114 H :    0.018233
 115 H :    0.013818
 116 H :    0.044800
 117 H :    0.022335
 118 H :    0.029336
 119 H :    0.023215
 120 H :    0.015563
 121 H :   -0.017584
 122 H :    0.057426
 123 H :    0.030018
Sum of atomic charges:   -0.0000000

LOEWDIN ATOMIC CHARGES
----------------------
   0 C :    0.078363
   1 N :    0.001241
   2 C :    0.037835
   3 C :   -0.061036
   4 C :    0.073760
   5 O :   -0.224507
   6 C :   -0.141733
   7 C :   -0.125338
   8 C :    0.082829
   9 O :   -0.192037
  10 N :   -0.009988
  11 C :    0.035937
  12 C :   -0.061869
  13 C :    0.090651
  14 C :   -0.070395
  15 C :    0.026597
  16 C :   -0.177941
  17 S :    0.436343
  18 C :   -0.182284
  19 C :   -0.027317
  20 C :   -0.033522
  21 C :   -0.027316
  22 C :   -0.039192
  23 C :    0.014724
  24 N :   -0.098551
  25 C :   -0.038186
  26 C :    0.049630
  27 N :    0.000314
  28 C :    0.027116
  29 C :   -0.062647
  30 C :    0.077304
  31 O :   -0.218765
  32 C :   -0.134335
  33 C :   -0.113259
  34 C :    0.084701
  35 O :   -0.190028
  36 N :   -0.000466
  37 C :    0.036411
  38 C :   -0.061627
  39 C :    0.084848
  40 C :   -0.068321
  41 C :    0.024535
  42 C :   -0.176272
  43 S :    0.446209
  44 C :   -0.183338
  45 C :   -0.023993
  46 C :   -0.034665
  47 C :   -0.028047
  48 C :   -0.039763
  49 C :    0.014920
  50 N :   -0.098462
  51 C :   -0.038192
  52 C :    0.058228
  53 N :    0.000600
  54 C :    0.029600
  55 C :   -0.064776
  56 C :    0.080113
  57 O :   -0.202973
  58 C :   -0.128873
  59 C :   -0.121464
  60 C :    0.082929
  61 O :   -0.191755
  62 N :    0.001298
  63 C :    0.035867
  64 C :   -0.061327
  65 C :    0.083007
  66 C :   -0.054917
  67 C :    0.025400
  68 H :    0.030395
  69 H :    0.034890
  70 H :    0.023714
  71 H :    0.031128
  72 H :    0.029076
  73 H :    0.022093
  74 H :    0.036967
  75 H :    0.022414
  76 H :    0.031899
  77 H :    0.029422
  78 H :    0.020967
  79 H :    0.020183
  80 H :    0.042547
  81 H :    0.028290
  82 H :    0.039282
  83 H :    0.019187
  84 H :    0.021834
  85 H :    0.019468
  86 H :    0.050011
  87 H :    0.049889
  88 H :    0.044109
  89 H :    0.034653
  90 H :    0.009210
  91 H :    0.035405
  92 H :    0.023611
  93 H :    0.030417
  94 H :    0.028331
  95 H :    0.038253
  96 H :    0.023574
  97 H :    0.032584
  98 H :    0.030583
  99 H :    0.021157
 100 H :    0.020729
 101 H :    0.041781
 102 H :    0.028078
 103 H :    0.039682
 104 H :    0.019742
 105 H :    0.022596
 106 H :    0.019690
 107 H :    0.050103
 108 H :    0.050033
 109 H :    0.044448
 110 H :    0.035453
 111 H :    0.033713
 112 H :    0.018257
 113 H :    0.031480
 114 H :    0.028806
 115 H :    0.010538
 116 H :    0.038315
 117 H :    0.022599
 118 H :    0.032312
 119 H :    0.030322
 120 H :    0.021911
 121 H :    0.029629
 122 H :    0.032846
 123 H :    0.029553

  Mayer bond orders larger than 0.100000
B(  0-C ,  1-N ) :   1.1791 B(  0-C ,  7-C ) :   1.4632 B(  0-C , 68-H ) :   0.9915
B(  1-N ,  2-C ) :   0.9471 B(  1-N ,  4-C ) :   1.0662 B(  2-C ,  3-C ) :   1.1174
B(  2-C , 69-H ) :   0.9345 B(  2-C , 70-H ) :   0.9537 B(  3-C , 71-H ) :   0.9674
B(  3-C , 72-H ) :   0.9691 B(  3-C , 73-H ) :   0.9692 B(  4-C ,  5-O ) :   1.9865
B(  4-C ,  6-C ) :   1.0267 B(  5-O , 80-H ) :   0.1078 B(  6-C ,  7-C ) :   1.2002
B(  6-C , 13-C ) :   1.3540 B(  7-C ,  8-C ) :   0.9472 B(  8-C ,  9-O ) :   2.1766
B(  8-C , 10-N ) :   1.0165 B( 10-N , 11-C ) :   0.9491 B( 10-N , 13-C ) :   1.1552
B( 11-C , 12-C ) :   1.1207 B( 11-C , 74-H ) :   0.9282 B( 11-C , 75-H ) :   0.9502
B( 12-C , 76-H ) :   0.9641 B( 12-C , 77-H ) :   0.9680 B( 12-C , 78-H ) :   0.9683
B( 13-C , 14-C ) :   1.1695 B( 14-C , 15-C ) :   1.5688 B( 14-C , 79-H ) :   0.9659
B( 15-C , 16-C ) :   1.1759 B( 15-C , 80-H ) :   0.9487 B( 16-C , 17-S ) :   1.0771
B( 16-C , 18-C ) :   0.1128 B( 16-C , 20-C ) :   1.4743 B( 17-S , 18-C ) :   1.1180
B( 18-C , 19-C ) :   1.5066 B( 18-C , 26-C ) :   1.0547 B( 19-C , 20-C ) :   1.2923
B( 19-C , 25-C ) :   1.0753 B( 20-C , 21-C ) :   1.0572 B( 21-C , 22-C ) :   1.0598
B( 21-C , 81-H ) :   0.9011 B( 21-C , 82-H ) :   0.9119 B( 22-C , 23-C ) :   1.0484
B( 22-C , 83-H ) :   0.9309 B( 22-C , 84-H ) :   0.9344 B( 23-C , 24-N ) :   1.1154
B( 23-C , 25-C ) :   1.0374 B( 23-C , 85-H ) :   0.9132 B( 24-N , 86-H ) :   0.9708
B( 24-N , 87-H ) :   0.9737 B( 25-C , 88-H ) :   0.8616 B( 25-C , 89-H ) :   0.8957
B( 26-C , 27-N ) :   1.1908 B( 26-C , 33-C ) :   1.4273 B( 27-N , 28-C ) :   0.9488
B( 27-N , 30-C ) :   1.0613 B( 28-C , 29-C ) :   1.1149 B( 28-C , 90-H ) :   0.9435
B( 28-C , 91-H ) :   0.9244 B( 29-C , 92-H ) :   0.9679 B( 29-C , 93-H ) :   0.9667
B( 29-C , 94-H ) :   0.9644 B( 30-C , 31-O ) :   1.9910 B( 30-C , 32-C ) :   1.0179
B( 31-O ,101-H ) :   0.1071 B( 32-C , 33-C ) :   1.2095 B( 32-C , 39-C ) :   1.3375
B( 33-C , 34-C ) :   0.9719 B( 34-C , 35-O ) :   2.0388 B( 34-C , 36-N ) :   1.0543
B( 36-N , 37-C ) :   0.9481 B( 36-N , 39-C ) :   1.1539 B( 37-C , 38-C ) :   1.1210
B( 37-C , 95-H ) :   0.9283 B( 37-C , 96-H ) :   0.9496 B( 38-C , 97-H ) :   0.9633
B( 38-C , 98-H ) :   0.9680 B( 38-C , 99-H ) :   0.9684 B( 39-C , 40-C ) :   1.1721
B( 40-C , 41-C ) :   1.5648 B( 40-C ,100-H ) :   0.9648 B( 41-C , 42-C ) :   1.1759
B( 41-C ,101-H ) :   0.9502 B( 42-C , 43-S ) :   1.0804 B( 42-C , 44-C ) :   0.1113
B( 42-C , 46-C ) :   1.4707 B( 43-S , 44-C ) :   1.1131 B( 44-C , 45-C ) :   1.5084
B( 44-C , 52-C ) :   1.0548 B( 45-C , 46-C ) :   1.2953 B( 45-C , 51-C ) :   1.0743
B( 46-C , 47-C ) :   1.0570 B( 47-C , 48-C ) :   1.0611 B( 47-C ,102-H ) :   0.9014
B( 47-C ,103-H ) :   0.9118 B( 48-C , 49-C ) :   1.0469 B( 48-C ,104-H ) :   0.9317
B( 48-C ,105-H ) :   0.9353 B( 49-C , 50-N ) :   1.1139 B( 49-C , 51-C ) :   1.0389
B( 49-C ,106-H ) :   0.9134 B( 50-N ,107-H ) :   0.9708 B( 50-N ,108-H ) :   0.9738
B( 51-C ,109-H ) :   0.8612 B( 51-C ,110-H ) :   0.8956 B( 52-C , 53-N ) :   1.1969
B( 52-C , 59-C ) :   1.4191 B( 53-N , 54-C ) :   0.9450 B( 53-N , 56-C ) :   1.0480
B( 54-C , 55-C ) :   1.1138 B( 54-C ,111-H ) :   0.9311 B( 54-C ,112-H ) :   0.9460
B( 55-C ,113-H ) :   0.9645 B( 55-C ,114-H ) :   0.9671 B( 55-C ,115-H ) :   0.9635
B( 56-C , 57-O ) :   2.0362 B( 56-C , 58-C ) :   0.9934 B( 58-C , 59-C ) :   1.2013
B( 58-C , 65-C ) :   1.3877 B( 59-C , 60-C ) :   0.9823 B( 60-C , 61-O ) :   2.0356
B( 60-C , 62-N ) :   1.0497 B( 62-N , 63-C ) :   0.9490 B( 62-N , 65-C ) :   1.1644
B( 63-C , 64-C ) :   1.1186 B( 63-C ,116-H ) :   0.9280 B( 63-C ,117-H ) :   0.9506
B( 64-C ,118-H ) :   0.9640 B( 64-C ,119-H ) :   0.9681 B( 64-C ,120-H ) :   0.9689
B( 65-C , 66-C ) :   1.1256 B( 66-C , 67-C ) :   1.8917 B( 66-C ,121-H ) :   0.9531
B( 67-C ,122-H ) :   0.9269 B( 67-C ,123-H ) :   0.9439

-----------------------------------------------------------------------------
         ABSORPTION SPECTRUM VIA TRANSITION ELECTRIC DIPOLE MOMENTS
-----------------------------------------------------------------------------
State   Energy  Wavelength   fosc         T2         TX        TY        TZ
        (cm-1)    (nm)                  (au**2)     (au)      (au)      (au)
-----------------------------------------------------------------------------
   0   15714.8    636.3   1.674696942  35.08358  -0.85500  -4.57167   3.66774
   1   20029.0    499.3   0.008330375   0.13692  -0.28512  -0.20073  -0.12385
   2   21497.8    465.2   0.162249100   2.48464  -0.45429  -1.50806  -0.06334
   3   22100.0    452.5   0.011705524   0.17437   0.24302   0.13346  -0.31225
   4   25093.1    398.5   0.065188949   0.85526  -0.42431  -0.81031   0.13645
   5   26946.6    371.1   0.095950274   1.17224  -1.00186  -0.18488   0.36653
   6   27957.7    357.7   0.020587290   0.24242   0.38601  -0.28974   0.09731
   7   28217.9    354.4   0.112515492   1.31269  -0.36213   1.04522  -0.29845
   8   28458.7    351.4   0.137614111   1.59193   0.20604   1.05465  -0.66120
   9   28724.3    348.1   0.026647785   0.30541  -0.14950  -0.34700   0.40330
  10   28827.4    346.9   0.016811096   0.19198  -0.03321   0.42419  -0.10460
  11   29032.4    344.4   0.001660060   0.01882  -0.04752  -0.05420   0.11674
  12   29306.3    341.2   0.115604028   1.29864   0.16961   1.01512  -0.48928
  13   29708.3    336.6   0.080374737   0.89067   0.53682   0.48042  -0.60967
  14   30297.2    330.1   0.028159771   0.30599   0.26638   0.19952  -0.44184
  15   30797.2    324.7   0.019532464   0.20880   0.09363   0.36624   0.25671
  16   31389.8    318.6   0.001331554   0.01397  -0.01955   0.06086  -0.09939
  17   31914.3    313.3   0.023310429   0.24046  -0.17093   0.32094  -0.32899
  18   32110.5    311.4   0.045190921   0.46332   0.56157  -0.12927  -0.36227
  19   32423.1    308.4   0.026239304   0.26642   0.05815   0.49518   0.13356
  20   32716.4    305.7   0.105425850   1.06086   0.42415  -0.52803  -0.77598
  21   33718.3    296.6   0.059064528   0.57668  -0.07965  -0.73667  -0.16632
  22   34048.9    293.7   0.034776874   0.33625  -0.09263   0.41177   0.39764
  23   34462.6    290.2   0.012395645   0.11841   0.15073   0.30741  -0.03450
  24   35192.9    284.1   0.106086206   0.99238  -0.56070   0.28093   0.77400
  25   35898.4    278.6   0.101904943   0.93454  -0.70039  -0.66267  -0.06969
  26   36306.3    275.4   0.004275307   0.03877   0.00376   0.14640  -0.13161
  27   36581.1    273.4   0.152483109   1.37227  -0.84051  -0.13381   0.80493
  28   37249.0    268.5   0.053299555   0.47107   0.03305  -0.01928  -0.68528
  29   37574.7    266.1   0.043918325   0.38479  -0.39358   0.31811   0.35874
  30   37889.7    263.9   0.029756416   0.25854  -0.48658   0.12909   0.07155
  31   38210.6    261.7   0.001141061   0.00983   0.08153   0.00337  -0.05632
  32   38489.5    259.8   0.017074260   0.14604  -0.06442   0.34383  -0.15387
  33   38729.2    258.2   0.006379725   0.05423   0.01060  -0.20071  -0.11762
  34   38868.6    257.3   0.018423174   0.15604   0.25903   0.27331   0.11935
  35   39331.6    254.2   0.076912039   0.64377  -0.04805  -0.64601  -0.47342
  36   40017.8    249.9   0.002834311   0.02332  -0.14067   0.03293   0.04944

FINAL SINGLE POINT ENERGY     -3697.206244224901

DIPOLE MOMENT
-------------
                                X             Y             Z
Electronic contribution:    -17.79915      -1.59513      -2.04568
Nuclear contribution   :     18.68803       2.17721       1.71011
                        -----------------------------------------
Total Dipole Moment    :      0.88888       0.58208      -0.33558
                        -----------------------------------------
Magnitude (a.u.)       :      1.11424
Magnitude (Debye)      :      2.83218

Rotational constants in cm-1:     0.002668     0.000280     0.000270
Rotational constants in MHz :    79.997838     8.396354     8.098180

                             ****ORCA TERMINATED NORMALLY****
TOTAL RUN TIME: 0 days 0 hours 11 minutes 46 seconds 109 msec
