                         Program Version 4.2.0 -  RELEASE  -
|  1> # ORCA input file
|  2> # SCF done       -185.299347860738          0.000430895349
|  3> ! CAM-B3LYP def2-SVP def2/J RIJCOSX Grid4 TightSCF
|  4> %maxcore 5000
|  5> %tddft
|  6>     Mode sTDDFT
|  7>     Ethresh 5.0
|  8>     maxcore 5000
|  9> end
| 10>
| 11> %pal
| 12>   nprocs 6
| 13>   end
| 14> * xyz 0 1
| 15>    C        4.33168         0.38438        -3.00197
| 16>    N        3.25805         0.44360        -3.83025
| 17>    C        2.87446        -0.56017        -4.79045
| 18>    C        2.25027        -1.77684        -4.11219
| 19>    C        2.49189         1.61053        -3.59781
| 20>    O        1.48184         1.87599        -4.22378
| 21>    C        3.19931         2.28831        -2.54176
| 22>    C        4.33491         1.49420        -2.19982
| 23>    C        5.05384         2.17197        -1.13666
| 24>    O        6.05749         1.88719        -0.52349
| 25>    N        4.29977         3.33637        -0.90504
| 26>    C        4.71400         4.30912         0.07798
| 27>    C        5.41092         5.50823        -0.55986
| 28>    C        3.20046         3.42586        -1.73197
| 29>    C        2.28987         4.50119        -1.69892
| 30>    C        1.19763         4.57914        -2.51697
| 31>    C        0.28603         5.65485        -2.50702
| 32>    C        0.32300         6.82294        -1.75024
| 33>    C       -0.79083         7.62103        -2.06747
| 34>    C       -1.55669         6.87988        -3.08459
| 35>    C       -0.89933         5.71479        -3.34044
| 36>    C       -2.74428         7.29000        -3.69445
| 37>    N       -3.72211         7.61286        -4.20704
| 38>    C       -1.11499         8.86924        -1.54024
| 39>    C       -2.24222         9.65557        -1.82732
| 40>    C       -2.18090        10.83957        -1.08930
| 41>    C       -0.96334        10.80216        -0.30616
| 42>    C       -0.32118         9.62850        -0.56137
| 43>    C        0.88985         9.24056         0.02000
| 44>    N        1.88493         8.94701         0.51536
| 45>    C       -3.12779        11.87535        -1.09026
| 46>    C       -3.05684        13.05299        -0.37641
| 47>    C       -4.13916        13.91781        -0.53127
| 48>    S       -5.34458        13.27511        -1.62105
| 49>    C       -4.37213        11.76525        -1.91528
| 50>    C       -4.31062        15.16090         0.08194
| 51>    C       -5.40898        16.01918        -0.02686
| 52>    C       -5.28237        17.17334         0.70807
| 53>    C       -4.07644        17.26196         1.41069
| 54>    S       -3.09525        15.84383         1.13392
| 55>    C       -3.64320        18.30515         2.22979
| 56>    S       -4.65610        19.69834         2.53199
| 57>    C       -3.39563        20.46954         3.59739
| 58>    C       -2.21880        19.54391         3.62571
| 59>    C       -2.41478        18.40054         2.88296
| 60>    C       -1.05300        19.86841         4.34306
| 61>    C        0.12322        19.12442         4.41687
| 62>    C        1.05997        19.80964         5.21521
| 63>    C        0.39552        21.04390         5.66095
| 64>    C       -0.85984        21.06607         5.13367
| 65>    C        0.92346        22.03722         6.49144
| 66>    N        1.31550        22.87406         7.17491
| 67>    C        2.35799        19.42321         5.51507
| 68>    C        3.32088        20.13378         6.27164
| 69>    C        4.50047        19.41889         6.30830
| 70>    C        4.29132        18.19439         5.55816
| 71>    C        3.01474        18.18014         5.08138
| 72>    C        2.45068        17.15238         4.32392
| 73>    N        2.01012        16.29223         3.69971
| 74>    C        5.72992        19.79629         6.95906
| 75>    C        5.74318        20.84905         7.89581
| 76>    C        6.90183        21.23598         8.52626
| 77>    C        8.08344        20.57195         8.22311
| 78>    C        8.10593        19.51757         7.29043
| 79>    C        6.92734        19.13704         6.66990
| 80>    C        9.43234        18.97601         7.12513
| 81>    C       10.37142        19.63260         7.93737
| 82>    S        9.65179        20.90801         8.90175
| 83>    C       11.70854        19.27423         7.93921
| 84>    C       12.11269        18.24168         7.11405
| 85>    C       11.19648        17.58027         6.30264
| 86>    C        9.86371        17.93958         6.30322
| 87>    H        5.02306        -0.43662        -3.04558
| 88>    H        3.75334        -0.85650        -5.37093
| 89>    H        2.14607        -0.08905        -5.45596
| 90>    H        2.95703        -2.23969        -3.42686
| 91>    H        1.95956        -2.50826        -4.86094
| 92>    H        1.36648        -1.48019        -3.55275
| 93>    H        5.41270         3.78878         0.73924
| 94>    H        3.84796         4.62998         0.66350
| 95>    H        6.29878         5.18044        -1.09508
| 96>    H        5.70831         6.21183         0.21248
| 97>    H        4.75260         6.01815        -1.25944
| 98>    H        2.47297         5.29296        -0.98805
| 99>    H        1.00791         3.77844        -3.21979
|100>    H        1.07556         7.09106        -1.03633
|101>    H       -1.19240         4.95063        -4.03632
|102>    H       -3.02339         9.38110        -2.50772
|103>    H       -0.62894        11.57024         0.36543
|104>    H       -2.23491        13.31369         0.26800
|105>    H       -4.15465        11.69800        -2.98253
|106>    H       -4.97875        10.90326        -1.63355
|107>    H       -6.26007        15.76882        -0.63512
|108>    H       -6.01989        17.95501         0.75565
|109>    H       -3.83089        20.61573         4.58763
|110>    H       -3.14519        21.44537         3.17797
|111>    H       -1.68001        17.61919         2.79150
|112>    H        0.30304        18.18443         3.93572
|113>    H       -1.59065        21.84003         5.28094
|114>    H        3.14517        21.09555         6.70998
|115>    H        5.01223        17.41005         5.42173
|116>    H        4.82113        21.35431         8.13384
|117>    H        6.90002        22.04015         9.24542
|118>    H        6.95003        18.33887         5.94506
|119>    H       12.41217        19.79260         8.57172
|120>    H       13.15083        17.94647         7.10004
|121>    H       11.53361        16.77667         5.66549
|122>    H        9.15682        17.42349         5.67153
|123> *
|124>
|125>                          ****END OF INPUT****

CARTESIAN COORDINATES (ANGSTROEM)
---------------------------------
  C      4.331680    0.384380   -3.001970
  N      3.258050    0.443600   -3.830250
  C      2.874460   -0.560170   -4.790450
  C      2.250270   -1.776840   -4.112190
  C      2.491890    1.610530   -3.597810
  O      1.481840    1.875990   -4.223780
  C      3.199310    2.288310   -2.541760
  C      4.334910    1.494200   -2.199820
  C      5.053840    2.171970   -1.136660
  O      6.057490    1.887190   -0.523490
  N      4.299770    3.336370   -0.905040
  C      4.714000    4.309120    0.077980
  C      5.410920    5.508230   -0.559860
  C      3.200460    3.425860   -1.731970
  C      2.289870    4.501190   -1.698920
  C      1.197630    4.579140   -2.516970
  C      0.286030    5.654850   -2.507020
  C      0.323000    6.822940   -1.750240
  C     -0.790830    7.621030   -2.067470
  C     -1.556690    6.879880   -3.084590
  C     -0.899330    5.714790   -3.340440
  C     -2.744280    7.290000   -3.694450
  N     -3.722110    7.612860   -4.207040
  C     -1.114990    8.869240   -1.540240
  C     -2.242220    9.655570   -1.827320
  C     -2.180900   10.839570   -1.089300
  C     -0.963340   10.802160   -0.306160
  C     -0.321180    9.628500   -0.561370
  C      0.889850    9.240560    0.020000
  N      1.884930    8.947010    0.515360
  C     -3.127790   11.875350   -1.090260
  C     -3.056840   13.052990   -0.376410
  C     -4.139160   13.917810   -0.531270
  S     -5.344580   13.275110   -1.621050
  C     -4.372130   11.765250   -1.915280
  C     -4.310620   15.160900    0.081940
  C     -5.408980   16.019180   -0.026860
  C     -5.282370   17.173340    0.708070
  C     -4.076440   17.261960    1.410690
  S     -3.095250   15.843830    1.133920
  C     -3.643200   18.305150    2.229790
  S     -4.656100   19.698340    2.531990
  C     -3.395630   20.469540    3.597390
  C     -2.218800   19.543910    3.625710
  C     -2.414780   18.400540    2.882960
  C     -1.053000   19.868410    4.343060
  C      0.123220   19.124420    4.416870
  C      1.059970   19.809640    5.215210
  C      0.395520   21.043900    5.660950
  C     -0.859840   21.066070    5.133670
  C      0.923460   22.037220    6.491440
  N      1.315500   22.874060    7.174910
  C      2.357990   19.423210    5.515070
  C      3.320880   20.133780    6.271640
  C      4.500470   19.418890    6.308300
  C      4.291320   18.194390    5.558160
  C      3.014740   18.180140    5.081380
  C      2.450680   17.152380    4.323920
  N      2.010120   16.292230    3.699710
  C      5.729920   19.796290    6.959060
  C      5.743180   20.849050    7.895810
  C      6.901830   21.235980    8.526260
  C      8.083440   20.571950    8.223110
  C      8.105930   19.517570    7.290430
  C      6.927340   19.137040    6.669900
  C      9.432340   18.976010    7.125130
  C     10.371420   19.632600    7.937370
  S      9.651790   20.908010    8.901750
  C     11.708540   19.274230    7.939210
  C     12.112690   18.241680    7.114050
  C     11.196480   17.580270    6.302640
  C      9.863710   17.939580    6.303220
  H      5.023060   -0.436620   -3.045580
  H      3.753340   -0.856500   -5.370930
  H      2.146070   -0.089050   -5.455960
  H      2.957030   -2.239690   -3.426860
  H      1.959560   -2.508260   -4.860940
  H      1.366480   -1.480190   -3.552750
  H      5.412700    3.788780    0.739240
  H      3.847960    4.629980    0.663500
  H      6.298780    5.180440   -1.095080
  H      5.708310    6.211830    0.212480
  H      4.752600    6.018150   -1.259440
  H      2.472970    5.292960   -0.988050
  H      1.007910    3.778440   -3.219790
  H      1.075560    7.091060   -1.036330
  H     -1.192400    4.950630   -4.036320
  H     -3.023390    9.381100   -2.507720
  H     -0.628940   11.570240    0.365430
  H     -2.234910   13.313690    0.268000
  H     -4.154650   11.698000   -2.982530
  H     -4.978750   10.903260   -1.633550
  H     -6.260070   15.768820   -0.635120
  H     -6.019890   17.955010    0.755650
  H     -3.830890   20.615730    4.587630
  H     -3.145190   21.445370    3.177970
  H     -1.680010   17.619190    2.791500
  H      0.303040   18.184430    3.935720
  H     -1.590650   21.840030    5.280940
  H      3.145170   21.095550    6.709980
  H      5.012230   17.410050    5.421730
  H      4.821130   21.354310    8.133840
  H      6.900020   22.040150    9.245420
  H      6.950030   18.338870    5.945060
  H     12.412170   19.792600    8.571720
  H     13.150830   17.946470    7.100040
  H     11.533610   16.776670    5.665490
  H      9.156820   17.423490    5.671530

 Total Charge           Charge          ....    0
 Multiplicity           Mult            ....    1
 Number of Electrons    NEL             ....  518
 Basis Dimension        Dim             .... 1204

ORBITAL ENERGIES
----------------

  NO   OCC          E(Eh)            E(eV)
   0   2.0000     -88.965246     -2420.8674
   1   2.0000     -88.950992     -2420.4795
   2   2.0000     -88.950979     -2420.4792
   3   2.0000     -88.943313     -2420.2706
   4   2.0000     -19.184637      -522.0405
   5   2.0000     -19.178082      -521.8621
   6   2.0000     -14.447749      -393.1432
   7   2.0000     -14.442942      -393.0124
   8   2.0000     -14.409836      -392.1116
   9   2.0000     -14.408069      -392.0635
  10   2.0000     -14.404525      -391.9671
  11   2.0000     -14.396963      -391.7613
  12   2.0000     -10.365843      -282.0689
  13   2.0000     -10.364679      -282.0372
  14   2.0000     -10.334175      -281.2072
  15   2.0000     -10.332248      -281.1548
  16   2.0000     -10.326821      -281.0071
  17   2.0000     -10.325919      -280.9826
  18   2.0000     -10.325675      -280.9759
  19   2.0000     -10.324931      -280.9556
  20   2.0000     -10.322871      -280.8996
  21   2.0000     -10.319109      -280.7972
  22   2.0000     -10.316920      -280.7377
  23   2.0000     -10.316787      -280.7340
  24   2.0000     -10.316382      -280.7230
  25   2.0000     -10.315180      -280.6903
  26   2.0000     -10.312001      -280.6038
  27   2.0000     -10.311823      -280.5990
  28   2.0000     -10.311638      -280.5939
  29   2.0000     -10.311044      -280.5778
  30   2.0000     -10.310694      -280.5682
  31   2.0000     -10.309706      -280.5414
  32   2.0000     -10.309358      -280.5319
  33   2.0000     -10.309210      -280.5279
  34   2.0000     -10.306908      -280.4652
  35   2.0000     -10.305570      -280.4288
  36   2.0000     -10.305492      -280.4267
  37   2.0000     -10.304658      -280.4040
  38   2.0000     -10.304277      -280.3936
  39   2.0000     -10.304175      -280.3909
  40   2.0000     -10.304064      -280.3878
  41   2.0000     -10.303620      -280.3758
  42   2.0000     -10.303145      -280.3628
  43   2.0000     -10.302581      -280.3475
  44   2.0000     -10.300698      -280.2962
  45   2.0000     -10.300184      -280.2822
  46   2.0000     -10.299746      -280.2703
  47   2.0000     -10.298639      -280.2402
  48   2.0000     -10.298130      -280.2264
  49   2.0000     -10.297992      -280.2226
  50   2.0000     -10.291698      -280.0513
  51   2.0000     -10.290929      -280.0304
  52   2.0000     -10.288481      -279.9638
  53   2.0000     -10.287833      -279.9462
  54   2.0000     -10.286249      -279.9031
  55   2.0000     -10.285438      -279.8810
  56   2.0000     -10.285219      -279.8750
  57   2.0000     -10.284972      -279.8683
  58   2.0000     -10.284420      -279.8533
  59   2.0000     -10.282794      -279.8091
  60   2.0000     -10.282081      -279.7896
  61   2.0000     -10.280620      -279.7499
  62   2.0000     -10.279703      -279.7249
  63   2.0000     -10.276723      -279.6438
  64   2.0000     -10.274479      -279.5828
  65   2.0000     -10.273760      -279.5632
  66   2.0000     -10.273040      -279.5436
  67   2.0000     -10.270280      -279.4685
  68   2.0000     -10.260952      -279.2147
  69   2.0000     -10.253348      -279.0078
  70   2.0000     -10.253107      -279.0012
  71   2.0000     -10.252750      -278.9915
  72   2.0000      -8.061190      -219.3561
  73   2.0000      -8.047451      -218.9823
  74   2.0000      -8.047100      -218.9727
  75   2.0000      -8.039885      -218.7764
  76   2.0000      -6.030868      -164.1083
  77   2.0000      -6.026862      -163.9993
  78   2.0000      -6.022246      -163.8737
  79   2.0000      -6.017799      -163.7526
  80   2.0000      -6.016736      -163.7237
  81   2.0000      -6.013600      -163.6384
  82   2.0000      -6.012890      -163.6191
  83   2.0000      -6.010229      -163.5467
  84   2.0000      -6.008082      -163.4882
  85   2.0000      -6.007204      -163.4643
  86   2.0000      -6.006038      -163.4326
  87   2.0000      -5.999624      -163.2581
  88   2.0000      -1.124439       -30.5975
  89   2.0000      -1.117360       -30.4049
  90   2.0000      -1.055280       -28.7156
  91   2.0000      -1.046495       -28.4766
  92   2.0000      -1.016914       -27.6716
  93   2.0000      -1.012953       -27.5638
  94   2.0000      -1.007436       -27.4137
  95   2.0000      -1.002666       -27.2839
  96   2.0000      -0.999259       -27.1912
  97   2.0000      -0.994279       -27.0557
  98   2.0000      -0.990550       -26.9542
  99   2.0000      -0.985802       -26.8250
 100   2.0000      -0.982726       -26.7413
 101   2.0000      -0.976888       -26.5825
 102   2.0000      -0.972512       -26.4634
 103   2.0000      -0.966775       -26.3073
 104   2.0000      -0.951865       -25.9016
 105   2.0000      -0.919850       -25.0304
 106   2.0000      -0.916019       -24.9261
 107   2.0000      -0.905216       -24.6322
 108   2.0000      -0.901414       -24.5287
 109   2.0000      -0.884210       -24.0606
 110   2.0000      -0.873801       -23.7773
 111   2.0000      -0.869893       -23.6710
 112   2.0000      -0.866839       -23.5879
 113   2.0000      -0.865668       -23.5560
 114   2.0000      -0.862733       -23.4762
 115   2.0000      -0.851346       -23.1663
 116   2.0000      -0.849824       -23.1249
 117   2.0000      -0.839313       -22.8389
 118   2.0000      -0.835657       -22.7394
 119   2.0000      -0.834869       -22.7179
 120   2.0000      -0.831672       -22.6309
 121   2.0000      -0.825867       -22.4730
 122   2.0000      -0.813137       -22.1266
 123   2.0000      -0.812316       -22.1042
 124   2.0000      -0.806286       -21.9401
 125   2.0000      -0.798960       -21.7408
 126   2.0000      -0.792262       -21.5585
 127   2.0000      -0.781155       -21.2563
 128   2.0000      -0.768016       -20.8988
 129   2.0000      -0.755649       -20.5622
 130   2.0000      -0.753485       -20.5034
 131   2.0000      -0.737016       -20.0552
 132   2.0000      -0.728933       -19.8353
 133   2.0000      -0.726611       -19.7721
 134   2.0000      -0.711327       -19.3562
 135   2.0000      -0.707355       -19.2481
 136   2.0000      -0.704973       -19.1833
 137   2.0000      -0.702729       -19.1222
 138   2.0000      -0.701640       -19.0926
 139   2.0000      -0.696773       -18.9601
 140   2.0000      -0.688928       -18.7467
 141   2.0000      -0.681113       -18.5340
 142   2.0000      -0.675573       -18.3833
 143   2.0000      -0.673504       -18.3270
 144   2.0000      -0.671163       -18.2633
 145   2.0000      -0.663729       -18.0610
 146   2.0000      -0.650581       -17.7032
 147   2.0000      -0.647947       -17.6315
 148   2.0000      -0.643878       -17.5208
 149   2.0000      -0.639740       -17.4082
 150   2.0000      -0.634178       -17.2569
 151   2.0000      -0.628677       -17.1072
 152   2.0000      -0.622584       -16.9414
 153   2.0000      -0.619431       -16.8556
 154   2.0000      -0.608007       -16.5447
 155   2.0000      -0.601115       -16.3572
 156   2.0000      -0.597526       -16.2595
 157   2.0000      -0.594851       -16.1867
 158   2.0000      -0.586740       -15.9660
 159   2.0000      -0.581845       -15.8328
 160   2.0000      -0.577334       -15.7101
 161   2.0000      -0.573844       -15.6151
 162   2.0000      -0.569065       -15.4851
 163   2.0000      -0.565726       -15.3942
 164   2.0000      -0.562488       -15.3061
 165   2.0000      -0.562419       -15.3042
 166   2.0000      -0.556529       -15.1439
 167   2.0000      -0.552822       -15.0431
 168   2.0000      -0.551447       -15.0056
 169   2.0000      -0.543725       -14.7955
 170   2.0000      -0.542451       -14.7609
 171   2.0000      -0.531631       -14.4664
 172   2.0000      -0.529092       -14.3973
 173   2.0000      -0.526490       -14.3265
 174   2.0000      -0.525025       -14.2866
 175   2.0000      -0.524218       -14.2647
 176   2.0000      -0.522300       -14.2125
 177   2.0000      -0.520372       -14.1600
 178   2.0000      -0.519427       -14.1343
 179   2.0000      -0.516828       -14.0636
 180   2.0000      -0.514217       -13.9925
 181   2.0000      -0.512521       -13.9464
 182   2.0000      -0.509510       -13.8645
 183   2.0000      -0.509011       -13.8509
 184   2.0000      -0.506858       -13.7923
 185   2.0000      -0.506226       -13.7751
 186   2.0000      -0.505128       -13.7452
 187   2.0000      -0.503818       -13.7096
 188   2.0000      -0.503210       -13.6931
 189   2.0000      -0.503119       -13.6906
 190   2.0000      -0.499249       -13.5852
 191   2.0000      -0.496497       -13.5104
 192   2.0000      -0.495949       -13.4955
 193   2.0000      -0.494010       -13.4427
 194   2.0000      -0.492689       -13.4068
 195   2.0000      -0.488053       -13.2806
 196   2.0000      -0.486484       -13.2379
 197   2.0000      -0.483745       -13.1634
 198   2.0000      -0.478545       -13.0219
 199   2.0000      -0.477200       -12.9853
 200   2.0000      -0.476119       -12.9558
 201   2.0000      -0.470742       -12.8096
 202   2.0000      -0.468945       -12.7606
 203   2.0000      -0.465276       -12.6608
 204   2.0000      -0.460922       -12.5423
 205   2.0000      -0.458072       -12.4648
 206   2.0000      -0.457210       -12.4413
 207   2.0000      -0.456374       -12.4186
 208   2.0000      -0.455922       -12.4063
 209   2.0000      -0.453388       -12.3373
 210   2.0000      -0.451538       -12.2870
 211   2.0000      -0.447443       -12.1755
 212   2.0000      -0.445604       -12.1255
 213   2.0000      -0.443825       -12.0771
 214   2.0000      -0.440458       -11.9855
 215   2.0000      -0.439026       -11.9465
 216   2.0000      -0.437241       -11.8979
 217   2.0000      -0.437036       -11.8923
 218   2.0000      -0.435716       -11.8564
 219   2.0000      -0.434329       -11.8187
 220   2.0000      -0.433690       -11.8013
 221   2.0000      -0.432229       -11.7616
 222   2.0000      -0.430798       -11.7226
 223   2.0000      -0.429753       -11.6942
 224   2.0000      -0.428356       -11.6562
 225   2.0000      -0.427171       -11.6239
 226   2.0000      -0.423151       -11.5145
 227   2.0000      -0.420609       -11.4454
 228   2.0000      -0.418084       -11.3766
 229   2.0000      -0.416083       -11.3222
 230   2.0000      -0.413833       -11.2610
 231   2.0000      -0.412498       -11.2246
 232   2.0000      -0.410697       -11.1756
 233   2.0000      -0.408224       -11.1083
 234   2.0000      -0.407735       -11.0950
 235   2.0000      -0.398953       -10.8561
 236   2.0000      -0.398419       -10.8415
 237   2.0000      -0.396171       -10.7804
 238   2.0000      -0.387467       -10.5435
 239   2.0000      -0.376253       -10.2384
 240   2.0000      -0.370405       -10.0792
 241   2.0000      -0.366162        -9.9638
 242   2.0000      -0.349061        -9.4984
 243   2.0000      -0.346966        -9.4414
 244   2.0000      -0.343901        -9.3580
 245   2.0000      -0.339101        -9.2274
 246   2.0000      -0.325578        -8.8594
 247   2.0000      -0.322324        -8.7709
 248   2.0000      -0.317810        -8.6480
 249   2.0000      -0.314512        -8.5583
 250   2.0000      -0.307161        -8.3583
 251   2.0000      -0.306719        -8.3462
 252   2.0000      -0.296098        -8.0572
 253   2.0000      -0.292552        -7.9608
 254   2.0000      -0.290943        -7.9170
 255   2.0000      -0.281675        -7.6648
 256   2.0000      -0.267252        -7.2723
 257   2.0000      -0.238899        -6.5008
 258   2.0000      -0.207159        -5.6371
 259   0.0000      -0.141567        -3.8522
 260   0.0000      -0.119101        -3.2409
 261   0.0000      -0.069830        -1.9002
 262   0.0000      -0.050003        -1.3607
 263   0.0000      -0.014276        -0.3885

MULLIKEN ATOMIC CHARGES
-----------------------
   0 C :    0.034868
   1 N :   -0.255429
   2 C :    0.113165
   3 C :   -0.002108
   4 C :    0.167761
   5 O :   -0.214177
   6 C :   -0.098735
   7 C :    0.001656
   8 C :    0.160082
   9 O :   -0.185979
  10 N :   -0.267960
  11 C :    0.096675
  12 C :    0.006080
  13 C :    0.170634
  14 C :   -0.027370
  15 C :    0.010146
  16 C :    0.107705
  17 C :   -0.136057
  18 C :    0.119340
  19 C :   -0.106152
  20 C :   -0.008501
  21 C :   -0.166831
  22 N :    0.115266
  23 C :    0.148028
  24 C :   -0.174404
  25 C :    0.124775
  26 C :   -0.021481
  27 C :   -0.107125
  28 C :   -0.162681
  29 N :    0.124630
  30 C :   -0.079501
  31 C :   -0.025587
  32 C :   -0.028791
  33 S :    0.005061
  34 C :    0.057932
  35 C :   -0.049733
  36 C :    0.017485
  37 C :    0.018982
  38 C :   -0.056123
  39 S :    0.100927
  40 C :   -0.021384
  41 S :    0.009045
  42 C :    0.047765
  43 C :   -0.079071
  44 C :   -0.018697
  45 C :    0.116957
  46 C :   -0.135921
  47 C :    0.126064
  48 C :   -0.089379
  49 C :   -0.039456
  50 C :   -0.175771
  51 N :    0.130184
  52 C :    0.132485
  53 C :   -0.146621
  54 C :    0.106747
  55 C :   -0.020030
  56 C :   -0.101352
  57 C :   -0.169483
  58 N :    0.118694
  59 C :    0.129364
  60 C :   -0.026261
  61 C :    0.004885
  62 C :   -0.068555
  63 C :    0.132788
  64 C :   -0.120936
  65 C :    0.103939
  66 C :   -0.065756
  67 S :    0.128318
  68 C :   -0.012475
  69 C :    0.025796
  70 C :    0.029518
  71 C :   -0.040194
  72 H :    0.015380
  73 H :    0.016782
  74 H :    0.042083
  75 H :    0.015455
  76 H :    0.022458
  77 H :    0.030384
  78 H :    0.041131
  79 H :    0.027290
  80 H :    0.025807
  81 H :    0.027518
  82 H :    0.018102
  83 H :   -0.016765
  84 H :    0.005495
  85 H :   -0.005735
  86 H :    0.002789
  87 H :   -0.004457
  88 H :   -0.004185
  89 H :    0.004275
  90 H :    0.084933
  91 H :    0.081987
  92 H :    0.007487
  93 H :    0.006664
  94 H :    0.076767
  95 H :    0.075000
  96 H :    0.015598
  97 H :   -0.008234
  98 H :   -0.005485
  99 H :   -0.004314
 100 H :   -0.002434
 101 H :   -0.007943
 102 H :   -0.016264
 103 H :   -0.035092
 104 H :   -0.020507
 105 H :   -0.008494
 106 H :   -0.013384
 107 H :   -0.027767
Sum of atomic charges:   -0.0000000

LOEWDIN ATOMIC CHARGES
----------------------
   0 C :    0.086550
   1 N :    0.001499
   2 C :    0.038245
   3 C :   -0.060646
   4 C :    0.076037
   5 O :   -0.206228
   6 C :   -0.127416
   7 C :   -0.126797
   8 C :    0.080378
   9 O :   -0.191798
  10 N :   -0.007943
  11 C :    0.035890
  12 C :   -0.060364
  13 C :    0.083762
  14 C :   -0.033450
  15 C :    0.033358
  16 C :   -0.028464
  17 C :   -0.027387
  18 C :    0.023128
  19 C :   -0.091595
  20 C :    0.049556
  21 C :   -0.026666
  22 N :   -0.081042
  23 C :    0.033292
  24 C :   -0.047952
  25 C :   -0.022804
  26 C :    0.046732
  27 C :   -0.077209
  28 C :   -0.026419
  29 N :   -0.071162
  30 C :   -0.018930
  31 C :   -0.028153
  32 C :   -0.164960
  33 S :    0.314028
  34 C :   -0.104682
  35 C :   -0.175595
  36 C :   -0.030331
  37 C :   -0.026064
  38 C :   -0.184455
  39 S :    0.405734
  40 C :   -0.156461
  41 S :    0.317397
  42 C :   -0.110170
  43 C :   -0.022731
  44 C :   -0.022948
  45 C :   -0.028376
  46 C :   -0.025947
  47 C :    0.022218
  48 C :   -0.074837
  49 C :    0.037475
  50 C :   -0.029824
  51 N :   -0.067056
  52 C :    0.043027
  53 C :   -0.046372
  54 C :    0.003947
  55 C :    0.047070
  56 C :   -0.084622
  57 C :   -0.027746
  58 N :   -0.074990
  59 C :   -0.031222
  60 C :    0.001517
  61 C :   -0.033045
  62 C :   -0.138670
  63 C :   -0.040414
  64 C :   -0.001065
  65 C :   -0.042930
  66 C :   -0.142605
  67 S :    0.389460
  68 C :   -0.038924
  69 C :   -0.017292
  70 C :   -0.026857
  71 C :   -0.012963
  72 H :    0.032246
  73 H :    0.024096
  74 H :    0.036004
  75 H :    0.022425
  76 H :    0.029829
  77 H :    0.031625
  78 H :    0.037110
  79 H :    0.024327
  80 H :    0.030563
  81 H :    0.032788
  82 H :    0.022865
  83 H :    0.033120
  84 H :    0.038313
  85 H :    0.028714
  86 H :    0.039073
  87 H :    0.030132
  88 H :    0.035057
  89 H :    0.031214
  90 H :    0.044657
  91 H :    0.043392
  92 H :    0.035139
  93 H :    0.034563
  94 H :    0.040009
  95 H :    0.039202
  96 H :    0.036475
  97 H :    0.030619
  98 H :    0.033364
  99 H :    0.030526
 100 H :    0.034143
 101 H :    0.035498
 102 H :    0.033940
 103 H :    0.026288
 104 H :    0.030643
 105 H :    0.030811
 106 H :    0.029917
 107 H :    0.027592

  Mayer bond orders larger than 0.100000
B(  0-C ,  1-N ) :   1.1945 B(  0-C ,  7-C ) :   1.4455 B(  0-C , 72-H ) :   0.9902
B(  1-N ,  2-C ) :   0.9435 B(  1-N ,  4-C ) :   1.0541 B(  2-C ,  3-C ) :   1.1192
B(  2-C , 73-H ) :   0.9536 B(  2-C , 74-H ) :   0.9346 B(  3-C , 75-H ) :   0.9691
B(  3-C , 76-H ) :   0.9686 B(  3-C , 77-H ) :   0.9671 B(  4-C ,  5-O ) :   2.0156
B(  4-C ,  6-C ) :   1.0118 B(  5-O , 84-H ) :   0.1094 B(  6-C ,  7-C ) :   1.2162
B(  6-C , 13-C ) :   1.3423 B(  7-C ,  8-C ) :   0.9466 B(  8-C ,  9-O ) :   2.1782
B(  8-C , 10-N ) :   1.0243 B( 10-N , 11-C ) :   0.9433 B( 10-N , 13-C ) :   1.1554
B( 11-C , 12-C ) :   1.1222 B( 11-C , 78-H ) :   0.9276 B( 11-C , 79-H ) :   0.9498
B( 12-C , 80-H ) :   0.9634 B( 12-C , 81-H ) :   0.9676 B( 12-C , 82-H ) :   0.9682
B( 13-C , 14-C ) :   1.1725 B( 14-C , 15-C ) :   1.5539 B( 14-C , 83-H ) :   0.9657
B( 15-C , 16-C ) :   1.1295 B( 15-C , 84-H ) :   0.9584 B( 16-C , 17-C ) :   1.4598
B( 16-C , 20-C ) :   1.0590 B( 17-C , 18-C ) :   1.1968 B( 17-C , 85-H ) :   0.9955
B( 18-C , 19-C ) :   1.1250 B( 18-C , 23-C ) :   1.2947 B( 19-C , 20-C ) :   1.6234
B( 19-C , 21-C ) :   1.0951 B( 20-C , 86-H ) :   1.0281 B( 21-C , 22-N ) :   2.9494
B( 23-C , 24-C ) :   1.2014 B( 23-C , 27-C ) :   1.1148 B( 24-C , 25-C ) :   1.4349
B( 24-C , 87-H ) :   0.9965 B( 25-C , 26-C ) :   1.0600 B( 25-C , 30-C ) :   1.1880
B( 26-C , 27-C ) :   1.6667 B( 26-C , 88-H ) :   1.0164 B( 27-C , 28-C ) :   1.0848
B( 28-C , 29-N ) :   2.9612 B( 30-C , 31-C ) :   1.5113 B( 30-C , 34-C ) :   1.0520
B( 31-C , 32-C ) :   1.2376 B( 31-C , 89-H ) :   0.9835 B( 32-C , 33-S ) :   1.0626
B( 32-C , 35-C ) :   1.4182 B( 33-S , 34-C ) :   0.9743 B( 34-C , 90-H ) :   0.9130
B( 34-C , 91-H ) :   0.9151 B( 35-C , 36-C ) :   1.2454 B( 35-C , 39-S ) :   1.0715
B( 36-C , 37-C ) :   1.5048 B( 36-C , 92-H ) :   0.9942 B( 37-C , 38-C ) :   1.2433
B( 37-C , 93-H ) :   0.9939 B( 38-C , 39-S ) :   1.0654 B( 38-C , 40-C ) :   1.4278
B( 40-C , 41-S ) :   1.0630 B( 40-C , 44-C ) :   1.2220 B( 41-S , 42-C ) :   0.9785
B( 42-C , 43-C ) :   1.0453 B( 42-C , 94-H ) :   0.9158 B( 42-C , 95-H ) :   0.9175
B( 43-C , 44-C ) :   1.5547 B( 43-C , 45-C ) :   1.1535 B( 44-C , 96-H ) :   0.9838
B( 45-C , 46-C ) :   1.4675 B( 45-C , 49-C ) :   1.0662 B( 46-C , 47-C ) :   1.1855
B( 46-C , 97-H ) :   0.9977 B( 47-C , 48-C ) :   1.1124 B( 47-C , 52-C ) :   1.3308
B( 48-C , 49-C ) :   1.6613 B( 48-C , 50-C ) :   1.0836 B( 49-C , 98-H ) :   1.0140
B( 50-C , 51-N ) :   2.9690 B( 52-C , 53-C ) :   1.1490 B( 52-C , 56-C ) :   1.1139
B( 53-C , 54-C ) :   1.5458 B( 53-C , 99-H ) :   0.9985 B( 54-C , 55-C ) :   1.0653
B( 54-C , 59-C ) :   1.0168 B( 55-C , 56-C ) :   1.6503 B( 55-C ,100-H ) :   1.0140
B( 56-C , 57-C ) :   1.0905 B( 57-C , 58-N ) :   2.9573 B( 59-C , 60-C ) :   1.3036
B( 59-C , 64-C ) :   1.3452 B( 60-C , 61-C ) :   1.4409 B( 60-C ,101-H ) :   0.9940
B( 61-C , 62-C ) :   1.3291 B( 61-C ,102-H ) :   0.9949 B( 62-C , 63-C ) :   1.3336
B( 62-C , 67-S ) :   1.0516 B( 63-C , 64-C ) :   1.3416 B( 63-C , 65-C ) :   1.0592
B( 64-C ,103-H ) :   0.9920 B( 65-C , 66-C ) :   1.3519 B( 65-C , 71-C ) :   1.3512
B( 66-C , 67-S ) :   1.0253 B( 66-C , 68-C ) :   1.3676 B( 68-C , 69-C ) :   1.4217
B( 68-C ,104-H ) :   0.9945 B( 69-C , 70-C ) :   1.3530 B( 69-C ,105-H ) :   0.9888
B( 70-C , 71-C ) :   1.4170 B( 70-C ,106-H ) :   0.9865 B( 71-C ,107-H ) :   0.9905

-----------------------------------------------------------------------------
         ABSORPTION SPECTRUM VIA TRANSITION ELECTRIC DIPOLE MOMENTS
-----------------------------------------------------------------------------
State   Energy  Wavelength   fosc         T2         TX        TY        TZ
        (cm-1)    (nm)                  (au**2)     (au)      (au)      (au)
-----------------------------------------------------------------------------
   0    2307.2   4334.3   0.181065682  25.83654   0.80147   4.32970   2.53927
   1    7317.1   1366.7   0.303776592  13.66756  -2.98299   2.16984  -0.24727
   2    9859.8   1014.2   0.161266884   5.38459  -1.45645   1.79057   0.23916
   3   13492.1    741.2   0.257476864   6.28254  -2.38151   0.48169  -0.61557
   4   16193.8    617.5   0.011678159   0.23741   0.21533  -0.41830  -0.12675
   5   16919.3    591.0   0.015431090   0.30026   0.47369  -0.23786   0.13892
   6   17095.8    584.9   0.155900698   3.00216  -0.07892   1.51300   0.84069
   7   17658.5    566.3   0.045376373   0.84596  -0.27794  -0.64278  -0.59627
   8   18125.2    551.7   0.019523587   0.35461  -0.47649  -0.17412  -0.31185
   9   20397.3    490.3   0.158166552   2.55281   1.46812   0.21340   0.59321
  10   21529.5    464.5   0.161299167   2.46645   0.95412   0.85700   0.90645
  11   22349.0    447.4   0.580725794   8.55437  -1.46823   2.44519   0.64785
  12   22467.5    445.1   0.036476841   0.53449  -0.67035  -0.16774  -0.23871
  13   23527.2    425.0   0.076129381   1.06527   0.67828  -0.77786   0.01141
  14   23697.4    422.0   0.005346522   0.07428  -0.21506  -0.01415  -0.16680
  15   24202.5    413.2   0.078033603   1.06144  -0.05970  -0.94137  -0.41437
  16   24932.3    401.1   0.148973311   1.96707  -1.07457   0.89532  -0.10376
  17   25861.1    386.7   0.314735842   4.00659  -1.78184  -0.12019  -0.90399
  18   25953.1    385.3   0.021343214   0.27074  -0.33393  -0.05444  -0.39530
  19   25992.7    384.7   0.023053365   0.29198   0.40466  -0.02248   0.35739
  20   26935.1    371.3   0.016830523   0.20571  -0.28590   0.34194   0.08394
  21   27029.8    370.0   0.131425149   1.60070  -1.16030   0.46081  -0.20508
  22   27208.3    367.5   0.012028337   0.14554  -0.30946  -0.01244  -0.22275
  23   28144.8    355.3   0.096064924   1.12368   0.91689  -0.48962   0.20800
  24   28780.4    347.5   0.001738796   0.01989  -0.09400   0.08428   0.06286
  25   29084.9    343.8   0.073842735   0.83583   0.19626  -0.80061  -0.39539
  26   29850.4    335.0   0.015827081   0.17455   0.05291  -0.35639  -0.21152
  27   29919.7    334.2   0.002422851   0.02666  -0.03135   0.13513   0.08612
  28   30827.4    324.4   0.010949182   0.11693  -0.32722   0.01958  -0.09731
  29   30955.6    323.0   0.026642028   0.28334   0.02827  -0.46902  -0.25012
  30   31415.9    318.3   0.008076832   0.08464   0.18649  -0.22221  -0.02195
  31   31790.9    314.6   0.038511275   0.39881  -0.19298   0.57507   0.17567
  32   31903.4    313.4   0.010812495   0.11157  -0.29700   0.13068  -0.07931
  33   32086.1    311.7   0.134538342   1.38040   1.04507   0.04198   0.53523
  34   32134.0    311.2   0.000611413   0.00626  -0.03993   0.04645  -0.05012
  35   32769.1    305.2   0.102066223   1.02540  -0.82470   0.37377  -0.45338
  36   33340.1    299.9   0.354596178   3.50141  -1.46655   1.12646  -0.28590
  37   33477.8    298.7   0.024936101   0.24521   0.06241  -0.48241  -0.09272
  38   33993.5    294.2   0.105195950   1.01878  -0.94873   0.33893  -0.06180
  39   34155.5    292.8   0.040745072   0.39273   0.55705   0.02814   0.28571
  40   34398.1    290.7   0.000153688   0.00147  -0.03406  -0.00285   0.01740
  41   34671.1    288.4   0.001945149   0.01847   0.13254  -0.02964  -0.00482
  42   35202.1    284.1   0.142159386   1.32948  -1.03048  -0.24677  -0.45463
  43   35474.5    281.9   0.084192997   0.78133  -0.79478  -0.12427  -0.36634
  44   35606.9    280.8   0.000073766   0.00068   0.01743  -0.01943   0.00062
  45   35881.8    278.7   0.000008092   0.00007   0.00791  -0.00329  -0.00088
  46   35941.6    278.2   0.040418744   0.37022  -0.53088   0.23772  -0.17853
  47   36280.7    275.6   0.050669105   0.45977  -0.24935   0.56425   0.28146
  48   36778.6    271.9   0.053148897   0.47574   0.60276  -0.05630   0.33053
  49   37001.0    270.3   0.006193544   0.05511  -0.15000   0.02221  -0.17920
  50   37134.2    269.3   0.012399024   0.10992  -0.05081   0.21645   0.24595
  51   37329.5    267.9   0.022235574   0.19610  -0.43414   0.08380  -0.02444
  52   37570.0    266.2   0.002819978   0.02471   0.11401  -0.07890   0.07407
  53   37627.5    265.8   0.017261904   0.15103  -0.31708   0.20439  -0.09335
  54   37765.0    264.8   0.000013665   0.00012   0.00644   0.00846   0.00246
  55   37998.6    263.2   0.086833991   0.75231   0.41792  -0.73517  -0.19282
  56   38113.0    262.4   0.211836924   1.82980  -1.00819  -0.14438  -0.89022
  57   38323.4    260.9   0.005959153   0.05119  -0.18176   0.01584  -0.13380
  58   38710.0    258.3   0.094895883   0.80705  -0.66971  -0.17476  -0.57271
  59   39087.3    255.8   0.009154895   0.07711  -0.21839   0.01509  -0.17084
  60   39386.2    253.9   0.009380447   0.07841  -0.01103  -0.25241  -0.12072
  61   39837.5    251.0   0.013476440   0.11137   0.29061  -0.13491   0.09334
  62   40081.0    249.5   0.035242343   0.28947  -0.52238   0.10527  -0.07421
  63   40287.5    248.2   0.015451108   0.12626   0.19792  -0.29483  -0.01278

FINAL SINGLE POINT ENERGY     -4375.592668264134

DIPOLE MOMENT
-------------
                                X             Y             Z
Electronic contribution:    -25.57454      64.54749      21.02961
Nuclear contribution   :     25.16322     -62.51074     -20.47010
                        -----------------------------------------
Total Dipole Moment    :     -0.41131       2.03675       0.55951
                        -----------------------------------------
Magnitude (a.u.)       :      2.15188
Magnitude (Debye)      :      5.46965

Rotational constants in cm-1:     0.000690     0.000254     0.000187
Rotational constants in MHz :    20.690185     7.608483     5.593712

                             ****ORCA TERMINATED NORMALLY****
TOTAL RUN TIME: 0 days 0 hours 12 minutes 45 seconds 806 msec
