                         Program Version 4.2.0 -  RELEASE  -
|  1> # ORCA input file
|  2> # SCF done       -156.760895658412          0.000344898509
|  3> ! CAM-B3LYP def2-SVP def2/J RIJCOSX Grid4 TightSCF
|  4> %maxcore 5000
|  5> %tddft
|  6>     Mode sTDDFT
|  7>     Ethresh 5.0
|  8>     maxcore 5000
|  9> end
| 10>
| 11> %pal
| 12>   nprocs 6
| 13>   end
| 14> * xyz 0 1
| 15>    C       -2.04525         0.05291         4.96768
| 16>    N       -1.55405         1.22745         5.44669
| 17>    C       -0.96415         1.42880         6.74614
| 18>    C       -2.02035         1.44282         7.84807
| 19>    C       -1.74721         2.28049         4.52575
| 20>    O       -1.38764         3.42430         4.73663
| 21>    C       -2.40504         1.65158         3.40805
| 22>    C       -2.57119         0.26390         3.72505
| 23>    C       -3.22405        -0.37481         2.60018
| 24>    O       -3.56745        -1.51732         2.39504
| 25>    N       -3.40547         0.67123         1.67287
| 26>    C       -4.07796         0.44404         0.41711
| 27>    C       -5.53331         0.90360         0.45991
| 28>    C       -2.92800         1.87471         2.14263
| 29>    C       -2.98328         3.08405         1.39716
| 30>    C       -2.49999         4.25519         1.87458
| 31>    C       -2.55646         5.45987         1.12339
| 32>    S       -1.86856         6.96452         1.72945
| 33>    C       -2.42351         7.67187         0.21609
| 34>    N       -3.02681         6.80297        -0.54933
| 35>    N       -3.09721         5.60066        -0.05489
| 36>    C       -2.20900         9.04108        -0.09693
| 37>    C       -2.64958         9.60602        -1.24490
| 38>    C       -2.42053        10.93850        -1.55467
| 39>    C       -2.19857        12.10550        -1.81085
| 40>    C       -1.90163        13.43730        -2.06424
| 41>    N       -2.33465        14.11595        -3.16632
| 42>    C       -1.85494        15.39289        -3.13262
| 43>    C       -1.09562        15.53116        -1.97001
| 44>    C       -1.12757        14.31415        -1.30282
| 45>    C       -2.11129        16.33914        -4.11548
| 46>    C       -2.30591        17.19696        -4.95327
| 47>    C       -2.49059        18.20301        -5.89137
| 48>    C       -3.35730        18.13186        -6.92531
| 49>    C       -3.52502        19.17123        -7.87894
| 50>    S       -2.57057        20.65500        -7.89896
| 51>    C       -3.53002        21.09393        -9.30923
| 52>    N       -4.40668        20.17961        -9.61919
| 53>    N       -4.40177        19.13329        -8.84363
| 54>    C       -3.32501        22.31686       -10.00118
| 55>    C       -4.08374        22.67495       -11.06516
| 56>    C       -3.87957        23.88295       -11.78146
| 57>    N       -4.66697        24.28301       -12.83815
| 58>    C       -5.84777        23.61681       -13.33026
| 59>    C       -7.05120        23.84880       -12.41980
| 60>    C       -4.23790        25.50422       -13.38573
| 61>    O       -4.78549        26.04254       -14.32804
| 62>    C       -3.08471        25.86563       -12.59294
| 63>    C       -2.89472        24.84926       -11.61345
| 64>    C       -1.74241        25.20740       -10.82372
| 65>    O       -1.19717        24.67233        -9.87642
| 66>    N       -1.30663        26.42591       -11.37740
| 67>    C       -0.12041        27.08090       -10.88378
| 68>    C        1.09000        26.80937       -11.77434
| 69>    C       -2.09532        26.82322       -12.43143
| 70>    C       -1.87726        28.03569       -13.16732
| 71>    C       -2.63951        28.40486       -14.19883
| 72>    H       -1.97682        -0.85115         5.54403
| 73>    H       -0.45332         2.39473         6.70640
| 74>    H       -0.22853         0.64061         6.93331
| 75>    H       -2.73768         2.23974         7.66787
| 76>    H       -1.54692         1.61135         8.81121
| 77>    H       -2.55391         0.49540         7.88166
| 78>    H       -4.03951        -0.63588         0.24739
| 79>    H       -3.53471         0.94824        -0.38679
| 80>    H       -6.06688         0.37041         1.24304
| 81>    H       -6.01297         0.69434        -0.49216
| 82>    H       -5.59961         1.97091         0.65847
| 83>    H       -3.42183         3.06997         0.41046
| 84>    H       -2.04745         4.30834         2.85498
| 85>    H       -1.66671         9.62846         0.62988
| 86>    H       -3.19627         9.00591        -1.95975
| 87>    H       -2.91274        13.73131        -3.89574
| 88>    H       -0.58943        16.42486        -1.66361
| 89>    H       -0.64938        14.07158        -0.37479
| 90>    H       -1.88545        19.09240        -5.75401
| 91>    H       -3.98176        17.26256        -7.07308
| 92>    H       -2.53057        22.95829        -9.64625
| 93>    H       -4.87147        22.00783       -11.38294
| 94>    H       -5.64694        22.54781       -13.44268
| 95>    H       -6.04500        24.04573       -14.31696
| 96>    H       -6.86746        23.45341       -11.42331
| 97>    H       -7.92677        23.35766       -12.83516
| 98>    H       -7.25495        24.91390       -12.33897
| 99>    H        0.05873        26.66713        -9.88717
|100>    H       -0.30324        28.15508       -10.79075
|101>    H        1.28307        25.74040       -11.81959
|102>    H        1.96690        27.30404       -11.36579
|103>    H        0.92027        27.17285       -12.78553
|104>    H       -1.05460        28.65999       -12.84662
|105>    H       -3.46366        27.79891       -14.53623
|106>    H       -2.45311        29.32338       -14.72816
|107> *
|108>
|109>                          ****END OF INPUT****

CARTESIAN COORDINATES (ANGSTROEM)
---------------------------------
  C     -2.045250    0.052910    4.967680
  N     -1.554050    1.227450    5.446690
  C     -0.964150    1.428800    6.746140
  C     -2.020350    1.442820    7.848070
  C     -1.747210    2.280490    4.525750
  O     -1.387640    3.424300    4.736630
  C     -2.405040    1.651580    3.408050
  C     -2.571190    0.263900    3.725050
  C     -3.224050   -0.374810    2.600180
  O     -3.567450   -1.517320    2.395040
  N     -3.405470    0.671230    1.672870
  C     -4.077960    0.444040    0.417110
  C     -5.533310    0.903600    0.459910
  C     -2.928000    1.874710    2.142630
  C     -2.983280    3.084050    1.397160
  C     -2.499990    4.255190    1.874580
  C     -2.556460    5.459870    1.123390
  S     -1.868560    6.964520    1.729450
  C     -2.423510    7.671870    0.216090
  N     -3.026810    6.802970   -0.549330
  N     -3.097210    5.600660   -0.054890
  C     -2.209000    9.041080   -0.096930
  C     -2.649580    9.606020   -1.244900
  C     -2.420530   10.938500   -1.554670
  C     -2.198570   12.105500   -1.810850
  C     -1.901630   13.437300   -2.064240
  N     -2.334650   14.115950   -3.166320
  C     -1.854940   15.392890   -3.132620
  C     -1.095620   15.531160   -1.970010
  C     -1.127570   14.314150   -1.302820
  C     -2.111290   16.339140   -4.115480
  C     -2.305910   17.196960   -4.953270
  C     -2.490590   18.203010   -5.891370
  C     -3.357300   18.131860   -6.925310
  C     -3.525020   19.171230   -7.878940
  S     -2.570570   20.655000   -7.898960
  C     -3.530020   21.093930   -9.309230
  N     -4.406680   20.179610   -9.619190
  N     -4.401770   19.133290   -8.843630
  C     -3.325010   22.316860  -10.001180
  C     -4.083740   22.674950  -11.065160
  C     -3.879570   23.882950  -11.781460
  N     -4.666970   24.283010  -12.838150
  C     -5.847770   23.616810  -13.330260
  C     -7.051200   23.848800  -12.419800
  C     -4.237900   25.504220  -13.385730
  O     -4.785490   26.042540  -14.328040
  C     -3.084710   25.865630  -12.592940
  C     -2.894720   24.849260  -11.613450
  C     -1.742410   25.207400  -10.823720
  O     -1.197170   24.672330   -9.876420
  N     -1.306630   26.425910  -11.377400
  C     -0.120410   27.080900  -10.883780
  C      1.090000   26.809370  -11.774340
  C     -2.095320   26.823220  -12.431430
  C     -1.877260   28.035690  -13.167320
  C     -2.639510   28.404860  -14.198830
  H     -1.976820   -0.851150    5.544030
  H     -0.453320    2.394730    6.706400
  H     -0.228530    0.640610    6.933310
  H     -2.737680    2.239740    7.667870
  H     -1.546920    1.611350    8.811210
  H     -2.553910    0.495400    7.881660
  H     -4.039510   -0.635880    0.247390
  H     -3.534710    0.948240   -0.386790
  H     -6.066880    0.370410    1.243040
  H     -6.012970    0.694340   -0.492160
  H     -5.599610    1.970910    0.658470
  H     -3.421830    3.069970    0.410460
  H     -2.047450    4.308340    2.854980
  H     -1.666710    9.628460    0.629880
  H     -3.196270    9.005910   -1.959750
  H     -2.912740   13.731310   -3.895740
  H     -0.589430   16.424860   -1.663610
  H     -0.649380   14.071580   -0.374790
  H     -1.885450   19.092400   -5.754010
  H     -3.981760   17.262560   -7.073080
  H     -2.530570   22.958290   -9.646250
  H     -4.871470   22.007830  -11.382940
  H     -5.646940   22.547810  -13.442680
  H     -6.045000   24.045730  -14.316960
  H     -6.867460   23.453410  -11.423310
  H     -7.926770   23.357660  -12.835160
  H     -7.254950   24.913900  -12.338970
  H      0.058730   26.667130   -9.887170
  H     -0.303240   28.155080  -10.790750
  H      1.283070   25.740400  -11.819590
  H      1.966900   27.304040  -11.365790
  H      0.920270   27.172850  -12.785530
  H     -1.054600   28.659990  -12.846620
  H     -3.463660   27.798910  -14.536230
  H     -2.453110   29.323380  -14.728160

 Total Charge           Charge          ....    0
 Multiplicity           Mult            ....    1
 Number of Electrons    NEL             ....  414
 Basis Dimension        Dim             ....  981

ORBITAL ENERGIES
----------------

  NO   OCC          E(Eh)            E(eV)
   0   2.0000     -88.970028     -2420.9975
   1   2.0000     -88.967596     -2420.9314
   2   2.0000     -19.191041      -522.2148
   3   2.0000     -19.188692      -522.1509
   4   2.0000     -19.185023      -522.0510
   5   2.0000     -19.182550      -521.9837
   6   2.0000     -14.475174      -393.8895
   7   2.0000     -14.451905      -393.2563
   8   2.0000     -14.451211      -393.2374
   9   2.0000     -14.448561      -393.1653
  10   2.0000     -14.447530      -393.1373
  11   2.0000     -14.437033      -392.8516
  12   2.0000     -14.434211      -392.7749
  13   2.0000     -14.433424      -392.7534
  14   2.0000     -14.433238      -392.7484
  15   2.0000     -10.372213      -282.2423
  16   2.0000     -10.370180      -282.1869
  17   2.0000     -10.368865      -282.1512
  18   2.0000     -10.368665      -282.1457
  19   2.0000     -10.340224      -281.3718
  20   2.0000     -10.338644      -281.3288
  21   2.0000     -10.338003      -281.3114
  22   2.0000     -10.337650      -281.3018
  23   2.0000     -10.337599      -281.3004
  24   2.0000     -10.335765      -281.2505
  25   2.0000     -10.334644      -281.2200
  26   2.0000     -10.326748      -281.0051
  27   2.0000     -10.323868      -280.9267
  28   2.0000     -10.323411      -280.9143
  29   2.0000     -10.307697      -280.4867
  30   2.0000     -10.307463      -280.4803
  31   2.0000     -10.306856      -280.4638
  32   2.0000     -10.303482      -280.3720
  33   2.0000     -10.302673      -280.3500
  34   2.0000     -10.302501      -280.3453
  35   2.0000     -10.295218      -280.1471
  36   2.0000     -10.294741      -280.1341
  37   2.0000     -10.294341      -280.1232
  38   2.0000     -10.291815      -280.0545
  39   2.0000     -10.290944      -280.0308
  40   2.0000     -10.290846      -280.0282
  41   2.0000     -10.286031      -279.8971
  42   2.0000     -10.284947      -279.8676
  43   2.0000     -10.284145      -279.8458
  44   2.0000     -10.282269      -279.7948
  45   2.0000     -10.281225      -279.7664
  46   2.0000     -10.277480      -279.6644
  47   2.0000     -10.271216      -279.4940
  48   2.0000     -10.270814      -279.4830
  49   2.0000     -10.264139      -279.3014
  50   2.0000     -10.263657      -279.2883
  51   2.0000     -10.258414      -279.1456
  52   2.0000     -10.258180      -279.1393
  53   2.0000     -10.257995      -279.1342
  54   2.0000     -10.256560      -279.0952
  55   2.0000     -10.256239      -279.0864
  56   2.0000     -10.255496      -279.0662
  57   2.0000      -8.066369      -219.4971
  58   2.0000      -8.063859      -219.4288
  59   2.0000      -6.034978      -164.2201
  60   2.0000      -6.032502      -164.1527
  61   2.0000      -6.031664      -164.1299
  62   2.0000      -6.029234      -164.0638
  63   2.0000      -6.028798      -164.0519
  64   2.0000      -6.026169      -163.9804
  65   2.0000      -1.138689       -30.9853
  66   2.0000      -1.136825       -30.9346
  67   2.0000      -1.130841       -30.7717
  68   2.0000      -1.128605       -30.7109
  69   2.0000      -1.123036       -30.5594
  70   2.0000      -1.121484       -30.5171
  71   2.0000      -1.092162       -29.7192
  72   2.0000      -1.060577       -28.8598
  73   2.0000      -1.059187       -28.8220
  74   2.0000      -1.051743       -28.6194
  75   2.0000      -1.050470       -28.5848
  76   2.0000      -0.947852       -25.7924
  77   2.0000      -0.946212       -25.7477
  78   2.0000      -0.929532       -25.2939
  79   2.0000      -0.927841       -25.2478
  80   2.0000      -0.923725       -25.1358
  81   2.0000      -0.921892       -25.0860
  82   2.0000      -0.900473       -24.5031
  83   2.0000      -0.892298       -24.2807
  84   2.0000      -0.891582       -24.2612
  85   2.0000      -0.884033       -24.0558
  86   2.0000      -0.881997       -24.0003
  87   2.0000      -0.879351       -23.9284
  88   2.0000      -0.872060       -23.7300
  89   2.0000      -0.865737       -23.5579
  90   2.0000      -0.864872       -23.5344
  91   2.0000      -0.836014       -22.7491
  92   2.0000      -0.817162       -22.2361
  93   2.0000      -0.817007       -22.2319
  94   2.0000      -0.809434       -22.0258
  95   2.0000      -0.803939       -21.8763
  96   2.0000      -0.797811       -21.7095
  97   2.0000      -0.780426       -21.2365
  98   2.0000      -0.776967       -21.1424
  99   2.0000      -0.757964       -20.6252
 100   2.0000      -0.757573       -20.6146
 101   2.0000      -0.756428       -20.5834
 102   2.0000      -0.738328       -20.0909
 103   2.0000      -0.717877       -19.5344
 104   2.0000      -0.714363       -19.4388
 105   2.0000      -0.706623       -19.2282
 106   2.0000      -0.705896       -19.2084
 107   2.0000      -0.702592       -19.1185
 108   2.0000      -0.692098       -18.8329
 109   2.0000      -0.690769       -18.7968
 110   2.0000      -0.685428       -18.6515
 111   2.0000      -0.677901       -18.4466
 112   2.0000      -0.671138       -18.2626
 113   2.0000      -0.668750       -18.1976
 114   2.0000      -0.655720       -17.8431
 115   2.0000      -0.647746       -17.6261
 116   2.0000      -0.646144       -17.5825
 117   2.0000      -0.629053       -17.1174
 118   2.0000      -0.615588       -16.7510
 119   2.0000      -0.611795       -16.6478
 120   2.0000      -0.604621       -16.4526
 121   2.0000      -0.597636       -16.2625
 122   2.0000      -0.591173       -16.0866
 123   2.0000      -0.586707       -15.9651
 124   2.0000      -0.582268       -15.8443
 125   2.0000      -0.580823       -15.8050
 126   2.0000      -0.579250       -15.7622
 127   2.0000      -0.574415       -15.6306
 128   2.0000      -0.573438       -15.6040
 129   2.0000      -0.567372       -15.4390
 130   2.0000      -0.563883       -15.3440
 131   2.0000      -0.561492       -15.2790
 132   2.0000      -0.557650       -15.1744
 133   2.0000      -0.544733       -14.8229
 134   2.0000      -0.544151       -14.8071
 135   2.0000      -0.538075       -14.6418
 136   2.0000      -0.536646       -14.6029
 137   2.0000      -0.535255       -14.5650
 138   2.0000      -0.529379       -14.4051
 139   2.0000      -0.529282       -14.4025
 140   2.0000      -0.527957       -14.3664
 141   2.0000      -0.527151       -14.3445
 142   2.0000      -0.524965       -14.2850
 143   2.0000      -0.522465       -14.2170
 144   2.0000      -0.517032       -14.0692
 145   2.0000      -0.516356       -14.0508
 146   2.0000      -0.515272       -14.0213
 147   2.0000      -0.511537       -13.9196
 148   2.0000      -0.507327       -13.8051
 149   2.0000      -0.505656       -13.7596
 150   2.0000      -0.501872       -13.6566
 151   2.0000      -0.498259       -13.5583
 152   2.0000      -0.497826       -13.5465
 153   2.0000      -0.494861       -13.4659
 154   2.0000      -0.491087       -13.3632
 155   2.0000      -0.488963       -13.3054
 156   2.0000      -0.486346       -13.2341
 157   2.0000      -0.478053       -13.0085
 158   2.0000      -0.475309       -12.9338
 159   2.0000      -0.473336       -12.8801
 160   2.0000      -0.469549       -12.7771
 161   2.0000      -0.467737       -12.7278
 162   2.0000      -0.464329       -12.6350
 163   2.0000      -0.463420       -12.6103
 164   2.0000      -0.458960       -12.4889
 165   2.0000      -0.458844       -12.4858
 166   2.0000      -0.455079       -12.3833
 167   2.0000      -0.453448       -12.3390
 168   2.0000      -0.450631       -12.2623
 169   2.0000      -0.450330       -12.2541
 170   2.0000      -0.445530       -12.1235
 171   2.0000      -0.444345       -12.0912
 172   2.0000      -0.443281       -12.0623
 173   2.0000      -0.439092       -11.9483
 174   2.0000      -0.435734       -11.8569
 175   2.0000      -0.432961       -11.7815
 176   2.0000      -0.431040       -11.7292
 177   2.0000      -0.429703       -11.6928
 178   2.0000      -0.422186       -11.4883
 179   2.0000      -0.421166       -11.4605
 180   2.0000      -0.418532       -11.3888
 181   2.0000      -0.404176       -10.9982
 182   2.0000      -0.402036       -10.9400
 183   2.0000      -0.392000       -10.6669
 184   2.0000      -0.388914       -10.5829
 185   2.0000      -0.384982       -10.4759
 186   2.0000      -0.377315       -10.2673
 187   2.0000      -0.371548       -10.1103
 188   2.0000      -0.360350        -9.8056
 189   2.0000      -0.353839        -9.6284
 190   2.0000      -0.351980        -9.5779
 191   2.0000      -0.347867        -9.4659
 192   2.0000      -0.345697        -9.4069
 193   2.0000      -0.343606        -9.3500
 194   2.0000      -0.340252        -9.2587
 195   2.0000      -0.334921        -9.1137
 196   2.0000      -0.328382        -8.9357
 197   2.0000      -0.326527        -8.8853
 198   2.0000      -0.321509        -8.7487
 199   2.0000      -0.320093        -8.7102
 200   2.0000      -0.314104        -8.5472
 201   2.0000      -0.311420        -8.4742
 202   2.0000      -0.309923        -8.4334
 203   2.0000      -0.290630        -7.9085
 204   2.0000      -0.253226        -6.8906
 205   2.0000      -0.242790        -6.6066
 206   2.0000      -0.234928        -6.3927
 207   0.0000      -0.085910        -2.3377
 208   0.0000      -0.078836        -2.1452
 209   0.0000      -0.050652        -1.3783
 210   0.0000      -0.032399        -0.8816
 211   0.0000      -0.005063        -0.1378

MULLIKEN ATOMIC CHARGES
-----------------------
   0 C :    0.032647
   1 N :   -0.256962
   2 C :    0.111753
   3 C :   -0.002129
   4 C :    0.172825
   5 O :   -0.216275
   6 C :   -0.096790
   7 C :    0.012537
   8 C :    0.159406
   9 O :   -0.184339
  10 N :   -0.267790
  11 C :    0.096528
  12 C :    0.003983
  13 C :    0.154480
  14 C :   -0.028683
  15 C :    0.085247
  16 C :   -0.120083
  17 S :    0.119285
  18 C :   -0.102413
  19 N :   -0.053408
  20 N :   -0.040997
  21 C :    0.054537
  22 C :   -0.062296
  23 C :   -0.059564
  24 C :    0.091221
  25 C :    0.014372
  26 N :   -0.033638
  27 C :    0.011841
  28 C :    0.000786
  29 C :    0.000373
  30 C :    0.088020
  31 C :   -0.056579
  32 C :   -0.093347
  33 C :    0.061748
  34 C :   -0.084072
  35 S :    0.096317
  36 C :   -0.102349
  37 N :   -0.051848
  38 N :   -0.043619
  39 C :    0.072632
  40 C :   -0.024287
  41 C :    0.135791
  42 N :   -0.259070
  43 C :    0.098702
  44 C :    0.003042
  45 C :    0.161659
  46 O :   -0.209586
  47 C :   -0.059943
  48 C :   -0.060064
  49 C :    0.163209
  50 O :   -0.213366
  51 N :   -0.259077
  52 C :    0.099480
  53 C :    0.003781
  54 C :    0.107425
  55 C :   -0.038510
  56 C :    0.014325
  57 H :    0.015284
  58 H :    0.042042
  59 H :    0.018971
  60 H :    0.030425
  61 H :    0.022889
  62 H :    0.014568
  63 H :    0.043407
  64 H :    0.026328
  65 H :    0.027751
  66 H :    0.022935
  67 H :    0.019474
  68 H :    0.001903
  69 H :    0.012041
  70 H :    0.002860
  71 H :    0.051884
  72 H :    0.129893
  73 H :   -0.019957
  74 H :   -0.020761
  75 H :    0.038757
  76 H :    0.016231
  77 H :    0.011150
  78 H :    0.003018
  79 H :    0.028498
  80 H :    0.041476
  81 H :    0.019450
  82 H :    0.023579
  83 H :    0.027119
  84 H :    0.041374
  85 H :    0.024540
  86 H :    0.029752
  87 H :    0.022110
  88 H :    0.016218
  89 H :   -0.019037
  90 H :    0.057580
  91 H :    0.029383
Sum of atomic charges:   -0.0000000

LOEWDIN ATOMIC CHARGES
----------------------
   0 C :    0.088993
   1 N :    0.000251
   2 C :    0.038112
   3 C :   -0.060534
   4 C :    0.077294
   5 O :   -0.207029
   6 C :   -0.129654
   7 C :   -0.126857
   8 C :    0.081579
   9 O :   -0.189713
  10 N :   -0.006985
  11 C :    0.035683
  12 C :   -0.060809
  13 C :    0.083265
  14 C :   -0.018152
  15 C :   -0.003191
  16 C :   -0.155724
  17 S :    0.400070
  18 C :   -0.146607
  19 N :   -0.080974
  20 N :   -0.070807
  21 C :   -0.045125
  22 C :    0.003019
  23 C :   -0.030300
  24 C :   -0.039578
  25 C :   -0.029246
  26 N :    0.114964
  27 C :   -0.028360
  28 C :   -0.038029
  29 C :   -0.037407
  30 C :   -0.038178
  31 C :   -0.030976
  32 C :   -0.028987
  33 C :   -0.025476
  34 C :   -0.147566
  35 S :    0.390039
  36 C :   -0.148100
  37 N :   -0.078068
  38 N :   -0.074003
  39 C :   -0.012338
  40 C :   -0.012127
  41 C :    0.071709
  42 N :    0.000445
  43 C :    0.036247
  44 C :   -0.060552
  45 C :    0.080659
  46 O :   -0.201649
  47 C :   -0.125487
  48 C :   -0.118589
  49 C :    0.081144
  50 O :   -0.202940
  51 N :    0.000412
  52 C :    0.035932
  53 C :   -0.061051
  54 C :    0.081469
  55 C :   -0.055401
  56 C :    0.025777
  57 H :    0.032618
  58 H :    0.036028
  59 H :    0.024574
  60 H :    0.031569
  61 H :    0.030090
  62 H :    0.022321
  63 H :    0.037361
  64 H :    0.024558
  65 H :    0.031240
  66 H :    0.030840
  67 H :    0.023676
  68 H :    0.037114
  69 H :    0.037859
  70 H :    0.036343
  71 H :    0.053498
  72 H :    0.099829
  73 H :    0.031647
  74 H :    0.031321
  75 H :    0.040737
  76 H :    0.047625
  77 H :    0.036899
  78 H :    0.037474
  79 H :    0.025117
  80 H :    0.036875
  81 H :    0.023836
  82 H :    0.031034
  83 H :    0.030968
  84 H :    0.036839
  85 H :    0.023041
  86 H :    0.032133
  87 H :    0.030102
  88 H :    0.022522
  89 H :    0.029325
  90 H :    0.033099
  91 H :    0.029391

  Mayer bond orders larger than 0.100000
B(  0-C ,  1-N ) :   1.1873 B(  0-C ,  7-C ) :   1.4575 B(  0-C , 57-H ) :   0.9912
B(  1-N ,  2-C ) :   0.9420 B(  1-N ,  4-C ) :   1.0582 B(  2-C ,  3-C ) :   1.1187
B(  2-C , 58-H ) :   0.9348 B(  2-C , 59-H ) :   0.9538 B(  3-C , 60-H ) :   0.9674
B(  3-C , 61-H ) :   0.9688 B(  3-C , 62-H ) :   0.9693 B(  4-C ,  5-O ) :   2.0166
B(  4-C ,  6-C ) :   1.0051 B(  5-O , 69-H ) :   0.1115 B(  6-C ,  7-C ) :   1.2029
B(  6-C , 13-C ) :   1.3798 B(  7-C ,  8-C ) :   0.9482 B(  8-C ,  9-O ) :   2.1784
B(  8-C , 10-N ) :   1.0188 B( 10-N , 11-C ) :   0.9441 B( 10-N , 13-C ) :   1.1603
B( 11-C , 12-C ) :   1.1208 B( 11-C , 63-H ) :   0.9286 B( 11-C , 64-H ) :   0.9501
B( 12-C , 65-H ) :   0.9638 B( 12-C , 66-H ) :   0.9680 B( 12-C , 67-H ) :   0.9689
B( 13-C , 14-C ) :   1.1248 B( 14-C , 15-C ) :   1.6700 B( 14-C , 68-H ) :   0.9721
B( 15-C , 16-C ) :   1.1037 B( 15-C , 69-H ) :   0.9232 B( 16-C , 17-S ) :   1.0959
B( 16-C , 20-N ) :   1.6700 B( 17-S , 18-C ) :   1.0982 B( 18-C , 19-N ) :   1.6638
B( 18-C , 21-C ) :   1.1148 B( 19-N , 20-N ) :   1.2347 B( 21-C , 22-C ) :   1.7302
B( 21-C , 70-H ) :   0.9545 B( 22-C , 23-C ) :   1.0015 B( 22-C , 71-H ) :   0.9577
B( 23-C , 24-C ) :   2.2382 B( 24-C , 25-C ) :   0.8328 B( 25-C , 26-N ) :   1.2377
B( 25-C , 27-C ) :   0.1292 B( 25-C , 29-C ) :   1.4222 B( 26-N , 27-C ) :   1.2386
B( 26-N , 72-H ) :   0.9384 B( 27-C , 28-C ) :   1.4252 B( 27-C , 30-C ) :   0.8290
B( 28-C , 29-C ) :   1.3376 B( 28-C , 73-H ) :   1.0118 B( 29-C , 74-H ) :   1.0124
B( 30-C , 31-C ) :   2.2385 B( 31-C , 32-C ) :   1.0253 B( 32-C , 33-C ) :   1.6731
B( 32-C , 75-H ) :   0.9472 B( 33-C , 34-C ) :   1.1296 B( 33-C , 76-H ) :   0.9838
B( 34-C , 35-S ) :   1.0910 B( 34-C , 38-N ) :   1.6478 B( 35-S , 36-C ) :   1.0937
B( 36-C , 37-N ) :   1.6728 B( 36-C , 39-C ) :   1.1050 B( 37-N , 38-N ) :   1.2290
B( 39-C , 40-C ) :   1.6628 B( 39-C , 77-H ) :   0.9269 B( 40-C , 41-C ) :   1.1263
B( 40-C , 78-H ) :   0.9715 B( 41-C , 42-N ) :   1.1583 B( 41-C , 48-C ) :   1.3584
B( 42-N , 43-C ) :   0.9465 B( 42-N , 45-C ) :   1.0568 B( 43-C , 44-C ) :   1.1203
B( 43-C , 79-H ) :   0.9499 B( 43-C , 80-H ) :   0.9279 B( 44-C , 81-H ) :   0.9687
B( 44-C , 82-H ) :   0.9681 B( 44-C , 83-H ) :   0.9640 B( 45-C , 46-O ) :   2.0458
B( 45-C , 47-C ) :   0.9830 B( 47-C , 48-C ) :   1.2365 B( 47-C , 54-C ) :   1.3753
B( 48-C , 49-C ) :   0.9899 B( 49-C , 50-O ) :   2.0250 B( 49-C , 51-N ) :   1.0563
B( 50-O , 77-H ) :   0.1080 B( 51-N , 52-C ) :   0.9485 B( 51-N , 54-C ) :   1.1675
B( 52-C , 53-C ) :   1.1184 B( 52-C , 84-H ) :   0.9282 B( 52-C , 85-H ) :   0.9506
B( 53-C , 86-H ) :   0.9640 B( 53-C , 87-H ) :   0.9682 B( 53-C , 88-H ) :   0.9691
B( 54-C , 55-C ) :   1.1242 B( 55-C , 56-C ) :   1.8876 B( 55-C , 89-H ) :   0.9544
B( 56-C , 90-H ) :   0.9270 B( 56-C , 91-H ) :   0.9447

-----------------------------------------------------------------------------
         ABSORPTION SPECTRUM VIA TRANSITION ELECTRIC DIPOLE MOMENTS
-----------------------------------------------------------------------------
State   Energy  Wavelength   fosc         T2         TX        TY        TZ
        (cm-1)    (nm)                  (au**2)     (au)      (au)      (au)
-----------------------------------------------------------------------------
   0   17737.0    563.8   1.744032933  32.37053  -0.57957  -4.83048   2.94976
   1   19593.7    510.4   0.726928020  12.21381   0.80739  -2.44420   2.36385
   2   22477.5    444.9   0.648776468   9.50218  -0.45378   2.57648  -1.63035
   3   24401.2    409.8   0.079440729   1.07179  -0.46127  -0.80288  -0.46304
   4   27063.8    369.5   0.122498897   1.49011   0.88160   0.08097   0.84044
   5   27848.8    359.1   0.009429628   0.11147   0.20610  -0.06888   0.25348
   6   28100.3    355.9   0.001600420   0.01875  -0.08343  -0.10348   0.03288
   7   28461.8    351.3   0.007739210   0.08952   0.13597   0.13397   0.23040
   8   28603.1    349.6   0.004256225   0.04899   0.16869   0.10587   0.09656
   9   28760.6    347.7   0.209385752   2.39676   0.74182   1.17431   0.68371
  10   29689.1    336.8   0.137341656   1.52293  -0.49348   0.56469  -0.98007
  11   30048.8    332.8   0.032915832   0.36062   0.02848  -0.51528   0.30708
  12   30061.2    332.7   0.054595206   0.59789   0.18629   0.67729  -0.32322
  13   30519.2    327.7   0.001429083   0.01542  -0.07075   0.09487  -0.03754
  14   31902.7    313.5   0.051407558   0.53049   0.04369   0.72476  -0.05751
  15   32562.9    307.1   0.057760525   0.58396   0.35191   0.39713   0.54992
  16   32973.3    303.3   0.412575146   4.11923  -0.20293   1.58531  -1.25093
  17   33869.5    295.3   0.095592756   0.92916  -0.54897  -0.39825  -0.68498
  18   34614.5    288.9   0.156956293   1.49278   0.03364  -1.04990   0.62398
  19   35508.1    281.6   0.000153043   0.00142  -0.01284  -0.02178   0.02792
  20   36556.7    273.5   0.000547982   0.00493   0.06795   0.00393  -0.01737
  21   37366.4    267.6   0.104954867   0.92469   0.19806   0.94012  -0.04038
  22   37918.8    263.7   0.006534095   0.05673   0.17082  -0.03903  -0.16133
  23   38093.2    262.5   0.034903378   0.30164  -0.12297   0.23186  -0.48246
  24   38398.8    260.4   0.001543566   0.01323   0.10688  -0.00508   0.04225
  25   38555.2    259.4   0.004845785   0.04138   0.09636   0.05742  -0.16969
  26   38941.3    256.8   0.110053214   0.93040   0.10360  -0.85823   0.42790
  27   40255.8    248.4   0.051611775   0.42208   0.23393   0.51081   0.32624

FINAL SINGLE POINT ENERGY     -3208.169306891304

DIPOLE MOMENT
-------------
                                X             Y             Z
Electronic contribution:      4.86737     -11.28194       9.29651
Nuclear contribution   :     -3.69206      12.62256      -8.25529
                        -----------------------------------------
Total Dipole Moment    :      1.17531       1.34061       1.04122
                        -----------------------------------------
Magnitude (a.u.)       :      2.06464
Magnitude (Debye)      :      5.24790

Rotational constants in cm-1:     0.005051     0.000154     0.000150
Rotational constants in MHz :   151.433139     4.610149     4.506073

                             ****ORCA TERMINATED NORMALLY****
TOTAL RUN TIME: 0 days 0 hours 5 minutes 14 seconds 107 msec
