                         Program Version 4.2.0 -  RELEASE  -
|  1> # ORCA input file
|  2> # SCF done       -147.658472006294          0.000468757785
|  3> ! CAM-B3LYP def2-SVP def2/J RIJCOSX Grid4 TightSCF
|  4> %maxcore 5000
|  5> %tddft
|  6>     Mode sTDDFT
|  7>     Ethresh 5.0
|  8>     maxcore 5000
|  9> end
| 10>
| 11> %pal
| 12>   nprocs 6
| 13>   end
| 14> * xyz 0 1
| 15>    C        1.35505        -0.98608         1.38075
| 16>    N        1.27549        -0.13919         2.44230
| 17>    C        1.76686        -0.40434         3.77119
| 18>    C        0.89159        -1.41639         4.50517
| 19>    C        0.59118         1.04784         2.10442
| 20>    O        0.39331         1.95244         2.89544
| 21>    C        0.25219         0.87360         0.71405
| 22>    C        0.74388        -0.40949         0.30450
| 23>    C        0.41734        -0.58675        -1.09482
| 24>    O        0.61831        -1.48935        -1.87562
| 25>    N       -0.24346         0.61005        -1.44387
| 26>    C       -0.78064         0.79874        -2.76875
| 27>    C       -2.28991         0.57003        -2.81019
| 28>    C       -0.34575         1.47926        -0.38005
| 29>    C       -0.94202         2.76958        -0.47851
| 30>    C       -1.05115         3.59519         0.58575
| 31>    C       -1.61031         4.91736         0.56899
| 32>    C       -1.73698         5.64496         1.76721
| 33>    N       -2.21913         6.86251         1.81816
| 34>    C       -2.59830         7.41844         0.66446
| 35>    N       -2.53614         6.82286        -0.53706
| 36>    C       -2.05305         5.60243        -0.57454
| 37>    C       -3.10007         8.75355         0.68755
| 38>    S       -3.24978         9.68529         2.15122
| 39>    C       -3.85464        11.10678         1.30598
| 40>    C       -3.92819        10.82979        -0.04238
| 41>    C       -3.51215         9.51500        -0.38050
| 42>    N       -3.65165         9.37262        -1.72877
| 43>    C       -4.14813        10.53473        -2.25909
| 44>    S       -4.48969        10.82336        -3.83121
| 45>    N       -4.31016        11.42145        -1.22174
| 46>    C       -4.16759        12.30751         2.01830
| 47>    C       -4.31112        12.33245         3.41549
| 48>    N       -4.57750        13.42550         4.08770
| 49>    C       -4.71519        14.56210         3.39590
| 50>    N       -4.61544        14.64611         2.06684
| 51>    C       -4.34503        13.55790         1.39642
| 52>    C       -4.96201        15.80494         4.08349
| 53>    N       -5.40774        15.93453         5.37336
| 54>    C       -5.70508        14.88107         6.31324
| 55>    C       -4.45389        14.42465         7.05656
| 56>    C       -5.54756        17.28595         5.73939
| 57>    O       -5.94890        17.64416         6.83007
| 58>    C       -5.13665        18.02063         4.56584
| 59>    C       -4.79099        17.07401         3.55840
| 60>    C       -4.33406        17.80578         2.39441
| 61>    O       -3.91087        17.47224         1.31276
| 62>    N       -4.45153        19.16443         2.78438
| 63>    C       -4.13252        20.22434         1.86015
| 64>    C       -5.38562        20.81711         1.22027
| 65>    C       -4.92537        19.29634         4.06363
| 66>    C       -5.12092        20.56499         4.70767
| 67>    C       -5.59960        20.68072         5.94785
| 68>    H        1.85094        -1.93521         1.46589
| 69>    H        1.75597         0.55274         4.29958
| 70>    H        2.79727        -0.76744         3.70777
| 71>    H       -0.12767        -1.04555         4.57990
| 72>    H        1.27754        -1.57886         5.50744
| 73>    H        0.87803        -2.36766         3.97791
| 74>    H       -0.28157         0.05920        -3.40151
| 75>    H       -0.52659         1.79888        -3.13223
| 76>    H       -2.51884        -0.44299        -2.48892
| 77>    H       -2.65506         0.70332        -3.82474
| 78>    H       -2.81063         1.26545        -2.15522
| 79>    H       -1.30210         3.07324        -1.45049
| 80>    H       -0.68993         3.25727         1.54845
| 81>    H       -1.42999         5.21066         2.71043
| 82>    H       -2.00909         5.15605        -1.55999
| 83>    H       -3.42845         8.54198        -2.25261
| 84>    H       -4.68768        12.34429        -1.35787
| 85>    H       -4.20220        11.42475         3.99679
| 86>    H       -4.24151        13.68353         0.32719
| 87>    H       -6.15198        14.04155         5.77878
| 88>    H       -6.42531        15.29923         7.02241
| 89>    H       -3.73867        14.00454         6.35496
| 90>    H       -4.71872        13.66518         7.78627
| 91>    H       -3.99995        15.26561         7.57486
| 92>    H       -3.50807        19.76864         1.08626
| 93>    H       -3.55191        20.99796         2.37043
| 94>    H       -5.92668        20.04238         0.68301
| 95>    H       -5.10704        21.59790         0.51799
| 96>    H       -6.04579        21.24119         1.97366
| 97>    H       -4.85651        21.44655         4.14014
| 98>    H       -5.86877        19.81592         6.53122
| 99>    H       -5.73099        21.64601         6.40590
|100> *
|101>
|102>                          ****END OF INPUT****

CARTESIAN COORDINATES (ANGSTROEM)
---------------------------------
  C      1.355050   -0.986080    1.380750
  N      1.275490   -0.139190    2.442300
  C      1.766860   -0.404340    3.771190
  C      0.891590   -1.416390    4.505170
  C      0.591180    1.047840    2.104420
  O      0.393310    1.952440    2.895440
  C      0.252190    0.873600    0.714050
  C      0.743880   -0.409490    0.304500
  C      0.417340   -0.586750   -1.094820
  O      0.618310   -1.489350   -1.875620
  N     -0.243460    0.610050   -1.443870
  C     -0.780640    0.798740   -2.768750
  C     -2.289910    0.570030   -2.810190
  C     -0.345750    1.479260   -0.380050
  C     -0.942020    2.769580   -0.478510
  C     -1.051150    3.595190    0.585750
  C     -1.610310    4.917360    0.568990
  C     -1.736980    5.644960    1.767210
  N     -2.219130    6.862510    1.818160
  C     -2.598300    7.418440    0.664460
  N     -2.536140    6.822860   -0.537060
  C     -2.053050    5.602430   -0.574540
  C     -3.100070    8.753550    0.687550
  S     -3.249780    9.685290    2.151220
  C     -3.854640   11.106780    1.305980
  C     -3.928190   10.829790   -0.042380
  C     -3.512150    9.515000   -0.380500
  N     -3.651650    9.372620   -1.728770
  C     -4.148130   10.534730   -2.259090
  S     -4.489690   10.823360   -3.831210
  N     -4.310160   11.421450   -1.221740
  C     -4.167590   12.307510    2.018300
  C     -4.311120   12.332450    3.415490
  N     -4.577500   13.425500    4.087700
  C     -4.715190   14.562100    3.395900
  N     -4.615440   14.646110    2.066840
  C     -4.345030   13.557900    1.396420
  C     -4.962010   15.804940    4.083490
  N     -5.407740   15.934530    5.373360
  C     -5.705080   14.881070    6.313240
  C     -4.453890   14.424650    7.056560
  C     -5.547560   17.285950    5.739390
  O     -5.948900   17.644160    6.830070
  C     -5.136650   18.020630    4.565840
  C     -4.790990   17.074010    3.558400
  C     -4.334060   17.805780    2.394410
  O     -3.910870   17.472240    1.312760
  N     -4.451530   19.164430    2.784380
  C     -4.132520   20.224340    1.860150
  C     -5.385620   20.817110    1.220270
  C     -4.925370   19.296340    4.063630
  C     -5.120920   20.564990    4.707670
  C     -5.599600   20.680720    5.947850
  H      1.850940   -1.935210    1.465890
  H      1.755970    0.552740    4.299580
  H      2.797270   -0.767440    3.707770
  H     -0.127670   -1.045550    4.579900
  H      1.277540   -1.578860    5.507440
  H      0.878030   -2.367660    3.977910
  H     -0.281570    0.059200   -3.401510
  H     -0.526590    1.798880   -3.132230
  H     -2.518840   -0.442990   -2.488920
  H     -2.655060    0.703320   -3.824740
  H     -2.810630    1.265450   -2.155220
  H     -1.302100    3.073240   -1.450490
  H     -0.689930    3.257270    1.548450
  H     -1.429990    5.210660    2.710430
  H     -2.009090    5.156050   -1.559990
  H     -3.428450    8.541980   -2.252610
  H     -4.687680   12.344290   -1.357870
  H     -4.202200   11.424750    3.996790
  H     -4.241510   13.683530    0.327190
  H     -6.151980   14.041550    5.778780
  H     -6.425310   15.299230    7.022410
  H     -3.738670   14.004540    6.354960
  H     -4.718720   13.665180    7.786270
  H     -3.999950   15.265610    7.574860
  H     -3.508070   19.768640    1.086260
  H     -3.551910   20.997960    2.370430
  H     -5.926680   20.042380    0.683010
  H     -5.107040   21.597900    0.517990
  H     -6.045790   21.241190    1.973660
  H     -4.856510   21.446550    4.140140
  H     -5.868770   19.815920    6.531220
  H     -5.730990   21.646010    6.405900

 Total Charge           Charge          ....    0
 Multiplicity           Mult            ....    1
 Number of Electrons    NEL             ....  388
 Basis Dimension        Dim             ....  910

ORBITAL ENERGIES
----------------

  NO   OCC          E(Eh)            E(eV)
   0   2.0000     -88.967946     -2420.9409
   1   2.0000     -88.862613     -2418.0746
   2   2.0000     -19.190941      -522.2120
   3   2.0000     -19.187092      -522.1073
   4   2.0000     -19.182951      -521.9946
   5   2.0000     -19.177303      -521.8410
   6   2.0000     -14.479255      -394.0006
   7   2.0000     -14.474598      -393.8738
   8   2.0000     -14.454069      -393.3152
   9   2.0000     -14.452457      -393.2713
  10   2.0000     -14.446304      -393.1039
  11   2.0000     -14.442526      -393.0011
  12   2.0000     -14.431073      -392.6895
  13   2.0000     -14.424804      -392.5189
  14   2.0000     -14.424000      -392.4970
  15   2.0000     -14.418566      -392.3491
  16   2.0000     -10.387699      -282.6637
  17   2.0000     -10.373200      -282.2691
  18   2.0000     -10.372996      -282.2636
  19   2.0000     -10.367067      -282.1022
  20   2.0000     -10.365093      -282.0485
  21   2.0000     -10.361278      -281.9447
  22   2.0000     -10.354620      -281.7635
  23   2.0000     -10.343803      -281.4692
  24   2.0000     -10.339778      -281.3597
  25   2.0000     -10.337169      -281.2887
  26   2.0000     -10.336658      -281.2748
  27   2.0000     -10.336464      -281.2695
  28   2.0000     -10.334292      -281.2104
  29   2.0000     -10.333597      -281.1915
  30   2.0000     -10.332672      -281.1663
  31   2.0000     -10.329143      -281.0703
  32   2.0000     -10.325168      -280.9621
  33   2.0000     -10.324882      -280.9543
  34   2.0000     -10.313309      -280.6394
  35   2.0000     -10.311439      -280.5885
  36   2.0000     -10.310063      -280.5511
  37   2.0000     -10.309648      -280.5398
  38   2.0000     -10.303496      -280.3724
  39   2.0000     -10.302793      -280.3532
  40   2.0000     -10.299890      -280.2742
  41   2.0000     -10.296463      -280.1810
  42   2.0000     -10.287247      -279.9302
  43   2.0000     -10.284877      -279.8657
  44   2.0000     -10.277594      -279.6676
  45   2.0000     -10.266691      -279.3709
  46   2.0000     -10.266379      -279.3624
  47   2.0000     -10.260165      -279.1933
  48   2.0000     -10.259724      -279.1813
  49   2.0000     -10.258920      -279.1594
  50   2.0000     -10.257627      -279.1242
  51   2.0000     -10.250297      -278.9247
  52   2.0000     -10.240876      -278.6684
  53   2.0000      -8.062097      -219.3808
  54   2.0000      -7.960369      -216.6127
  55   2.0000      -6.031891      -164.1361
  56   2.0000      -6.027589      -164.0190
  57   2.0000      -6.023496      -163.9077
  58   2.0000      -5.930836      -161.3863
  59   2.0000      -5.925536      -161.2420
  60   2.0000      -5.921059      -161.1202
  61   2.0000      -1.146271       -31.1916
  62   2.0000      -1.132005       -30.8034
  63   2.0000      -1.125352       -30.6224
  64   2.0000      -1.125051       -30.6142
  65   2.0000      -1.116471       -30.3807
  66   2.0000      -1.100039       -29.9336
  67   2.0000      -1.096132       -29.8273
  68   2.0000      -1.062826       -28.9210
  69   2.0000      -1.054944       -28.7065
  70   2.0000      -1.054398       -28.6916
  71   2.0000      -1.043536       -28.3961
  72   2.0000      -1.016030       -27.6476
  73   2.0000      -0.995911       -27.1001
  74   2.0000      -0.993753       -27.0414
  75   2.0000      -0.990500       -26.9529
  76   2.0000      -0.939330       -25.5605
  77   2.0000      -0.926770       -25.2187
  78   2.0000      -0.920372       -25.0446
  79   2.0000      -0.917076       -24.9549
  80   2.0000      -0.890097       -24.2208
  81   2.0000      -0.887701       -24.1556
  82   2.0000      -0.874147       -23.7867
  83   2.0000      -0.870020       -23.6745
  84   2.0000      -0.861739       -23.4491
  85   2.0000      -0.846911       -23.0456
  86   2.0000      -0.821702       -22.3597
  87   2.0000      -0.819004       -22.2862
  88   2.0000      -0.809232       -22.0203
  89   2.0000      -0.801508       -21.8101
  90   2.0000      -0.794608       -21.6224
  91   2.0000      -0.785028       -21.3617
  92   2.0000      -0.773961       -21.0605
  93   2.0000      -0.766100       -20.8467
  94   2.0000      -0.762412       -20.7463
  95   2.0000      -0.762309       -20.7435
  96   2.0000      -0.750031       -20.4094
  97   2.0000      -0.745807       -20.2944
  98   2.0000      -0.744587       -20.2612
  99   2.0000      -0.732661       -19.9367
 100   2.0000      -0.710876       -19.3439
 101   2.0000      -0.697953       -18.9923
 102   2.0000      -0.697622       -18.9833
 103   2.0000      -0.688174       -18.7262
 104   2.0000      -0.685474       -18.6527
 105   2.0000      -0.672165       -18.2906
 106   2.0000      -0.662204       -18.0195
 107   2.0000      -0.654059       -17.7979
 108   2.0000      -0.651946       -17.7403
 109   2.0000      -0.650774       -17.7085
 110   2.0000      -0.644090       -17.5266
 111   2.0000      -0.634810       -17.2740
 112   2.0000      -0.631051       -17.1718
 113   2.0000      -0.621398       -16.9091
 114   2.0000      -0.606491       -16.5035
 115   2.0000      -0.603120       -16.4117
 116   2.0000      -0.597349       -16.2547
 117   2.0000      -0.591107       -16.0848
 118   2.0000      -0.588489       -16.0136
 119   2.0000      -0.580466       -15.7953
 120   2.0000      -0.576210       -15.6795
 121   2.0000      -0.573638       -15.6095
 122   2.0000      -0.573089       -15.5945
 123   2.0000      -0.562563       -15.3081
 124   2.0000      -0.559473       -15.2240
 125   2.0000      -0.556298       -15.1376
 126   2.0000      -0.549218       -14.9450
 127   2.0000      -0.547651       -14.9023
 128   2.0000      -0.539221       -14.6730
 129   2.0000      -0.537391       -14.6232
 130   2.0000      -0.532365       -14.4864
 131   2.0000      -0.531559       -14.4645
 132   2.0000      -0.529223       -14.4009
 133   2.0000      -0.523674       -14.2499
 134   2.0000      -0.521568       -14.1926
 135   2.0000      -0.518874       -14.1193
 136   2.0000      -0.516317       -14.0497
 137   2.0000      -0.513942       -13.9851
 138   2.0000      -0.512591       -13.9483
 139   2.0000      -0.511404       -13.9160
 140   2.0000      -0.510549       -13.8927
 141   2.0000      -0.504857       -13.7379
 142   2.0000      -0.501668       -13.6511
 143   2.0000      -0.499084       -13.5808
 144   2.0000      -0.497267       -13.5313
 145   2.0000      -0.495191       -13.4748
 146   2.0000      -0.492800       -13.4098
 147   2.0000      -0.488732       -13.2991
 148   2.0000      -0.477890       -13.0040
 149   2.0000      -0.473895       -12.8953
 150   2.0000      -0.469728       -12.7819
 151   2.0000      -0.464830       -12.6487
 152   2.0000      -0.463442       -12.6109
 153   2.0000      -0.458145       -12.4668
 154   2.0000      -0.457271       -12.4430
 155   2.0000      -0.456412       -12.4196
 156   2.0000      -0.455136       -12.3849
 157   2.0000      -0.453630       -12.3439
 158   2.0000      -0.449484       -12.2311
 159   2.0000      -0.448405       -12.2017
 160   2.0000      -0.448357       -12.2004
 161   2.0000      -0.439965       -11.9721
 162   2.0000      -0.436587       -11.8801
 163   2.0000      -0.434311       -11.8182
 164   2.0000      -0.432602       -11.7717
 165   2.0000      -0.429373       -11.6838
 166   2.0000      -0.428670       -11.6647
 167   2.0000      -0.427825       -11.6417
 168   2.0000      -0.417812       -11.3692
 169   2.0000      -0.415445       -11.3048
 170   2.0000      -0.410484       -11.1698
 171   2.0000      -0.408117       -11.1054
 172   2.0000      -0.405473       -11.0335
 173   2.0000      -0.400280       -10.8922
 174   2.0000      -0.399125       -10.8607
 175   2.0000      -0.397997       -10.8301
 176   2.0000      -0.389898       -10.6097
 177   2.0000      -0.369659       -10.0589
 178   2.0000      -0.348819        -9.4919
 179   2.0000      -0.347687        -9.4611
 180   2.0000      -0.344357        -9.3704
 181   2.0000      -0.339707        -9.2439
 182   2.0000      -0.338477        -9.2104
 183   2.0000      -0.330439        -8.9917
 184   2.0000      -0.330051        -8.9812
 185   2.0000      -0.327029        -8.8989
 186   2.0000      -0.317217        -8.6319
 187   2.0000      -0.313801        -8.5389
 188   2.0000      -0.305348        -8.3089
 189   2.0000      -0.281537        -7.6610
 190   2.0000      -0.280716        -7.6387
 191   2.0000      -0.264760        -7.2045
 192   2.0000      -0.248738        -6.7685
 193   2.0000      -0.237304        -6.4574
 194   0.0000      -0.087450        -2.3796
 195   0.0000      -0.067693        -1.8420
 196   0.0000      -0.037092        -1.0093
 197   0.0000      -0.013641        -0.3712
 198   0.0000      -0.009865        -0.2685

MULLIKEN ATOMIC CHARGES
-----------------------
   0 C :    0.038258
   1 N :   -0.258004
   2 C :    0.112085
   3 C :    0.000233
   4 C :    0.174416
   5 O :   -0.221133
   6 C :   -0.105957
   7 C :    0.008409
   8 C :    0.160375
   9 O :   -0.184671
  10 N :   -0.270780
  11 C :    0.100296
  12 C :    0.003840
  13 C :    0.150582
  14 C :   -0.003453
  15 C :    0.016492
  16 C :    0.012594
  17 C :    0.045031
  18 N :   -0.048718
  19 C :   -0.096693
  20 N :   -0.092699
  21 C :    0.045813
  22 C :   -0.144786
  23 S :    0.177514
  24 C :   -0.208060
  25 C :    0.160662
  26 C :    0.124179
  27 N :   -0.007653
  28 C :    0.078222
  29 S :   -0.250201
  30 N :   -0.052240
  31 C :    0.046060
  32 C :    0.016495
  33 N :   -0.049962
  34 C :   -0.182472
  35 N :    0.002151
  36 C :    0.011925
  37 C :    0.188143
  38 N :   -0.259613
  39 C :    0.144723
  40 C :    0.004577
  41 C :    0.158478
  42 O :   -0.213751
  43 C :   -0.070049
  44 C :   -0.046126
  45 C :    0.144859
  46 O :   -0.162170
  47 N :   -0.270484
  48 C :    0.098721
  49 C :    0.003019
  50 C :    0.117240
  51 C :   -0.037231
  52 C :    0.018799
  53 H :    0.015049
  54 H :    0.042737
  55 H :    0.018436
  56 H :    0.028695
  57 H :    0.023518
  58 H :    0.014724
  59 H :    0.045205
  60 H :    0.019892
  61 H :    0.029795
  62 H :    0.023366
  63 H :    0.013126
  64 H :   -0.030976
  65 H :    0.015544
  66 H :    0.025862
  67 H :    0.004676
  68 H :    0.141283
  69 H :    0.141987
  70 H :    0.017686
  71 H :   -0.011062
  72 H :    0.016734
  73 H :    0.028771
  74 H :    0.015920
  75 H :    0.010512
  76 H :    0.018192
  77 H :    0.042439
  78 H :    0.022842
  79 H :    0.030009
  80 H :    0.022234
  81 H :    0.014524
  82 H :   -0.019197
  83 H :    0.059904
  84 H :    0.030291
Sum of atomic charges:   -0.0000000

LOEWDIN ATOMIC CHARGES
----------------------
   0 C :    0.088452
   1 N :    0.000914
   2 C :    0.038307
   3 C :   -0.060022
   4 C :    0.076942
   5 O :   -0.210431
   6 C :   -0.133976
   7 C :   -0.127214
   8 C :    0.082415
   9 O :   -0.188928
  10 N :   -0.009673
  11 C :    0.035097
  12 C :   -0.061304
  13 C :    0.086426
  14 C :   -0.050018
  15 C :    0.035515
  16 C :   -0.086521
  17 C :    0.070268
  18 N :   -0.089348
  19 C :    0.021092
  20 N :   -0.096904
  21 C :    0.064333
  22 C :   -0.224773
  23 S :    0.458303
  24 C :   -0.192451
  25 C :   -0.014349
  26 C :    0.008737
  27 N :    0.059578
  28 C :   -0.090790
  29 S :   -0.116244
  30 N :    0.039861
  31 C :   -0.078412
  32 C :    0.043411
  33 N :   -0.062685
  34 C :    0.015127
  35 N :   -0.038849
  36 C :    0.046893
  37 C :    0.048345
  38 N :    0.009808
  39 C :    0.037656
  40 C :   -0.062611
  41 C :    0.077389
  42 O :   -0.206871
  43 C :   -0.132605
  44 C :   -0.097670
  45 C :    0.084961
  46 O :   -0.170278
  47 N :   -0.006456
  48 C :    0.034997
  49 C :   -0.061647
  50 C :    0.092470
  51 C :   -0.056120
  52 C :    0.032540
  53 H :    0.032678
  54 H :    0.036172
  55 H :    0.024592
  56 H :    0.031173
  57 H :    0.030539
  58 H :    0.022261
  59 H :    0.038605
  60 H :    0.020885
  61 H :    0.032794
  62 H :    0.030628
  63 H :    0.020574
  64 H :    0.025227
  65 H :    0.039603
  66 H :    0.035004
  67 H :    0.024601
  68 H :    0.095749
  69 H :    0.094076
  70 H :    0.022509
  71 H :    0.021734
  72 H :    0.021863
  73 H :    0.029802
  74 H :    0.018585
  75 H :    0.026007
  76 H :    0.025563
  77 H :    0.036773
  78 H :    0.022144
  79 H :    0.032336
  80 H :    0.029870
  81 H :    0.021722
  82 H :    0.029391
  83 H :    0.033991
  84 H :    0.029861

  Mayer bond orders larger than 0.100000
B(  0-C ,  1-N ) :   1.1865 B(  0-C ,  7-C ) :   1.4622 B(  0-C , 53-H ) :   0.9902
B(  1-N ,  2-C ) :   0.9417 B(  1-N ,  4-C ) :   1.0620 B(  2-C ,  3-C ) :   1.1191
B(  2-C , 54-H ) :   0.9344 B(  2-C , 55-H ) :   0.9540 B(  3-C , 56-H ) :   0.9671
B(  3-C , 57-H ) :   0.9685 B(  3-C , 58-H ) :   0.9691 B(  4-C ,  5-O ) :   2.0075
B(  4-C ,  6-C ) :   1.0062 B(  5-O , 65-H ) :   0.1169 B(  6-C ,  7-C ) :   1.2000
B(  6-C , 13-C ) :   1.3868 B(  7-C ,  8-C ) :   0.9500 B(  8-C ,  9-O ) :   2.1775
B(  8-C , 10-N ) :   1.0138 B( 10-N , 11-C ) :   0.9480 B( 10-N , 13-C ) :   1.1587
B( 11-C , 12-C ) :   1.1195 B( 11-C , 59-H ) :   0.9264 B( 11-C , 60-H ) :   0.9499
B( 12-C , 61-H ) :   0.9642 B( 12-C , 62-H ) :   0.9680 B( 12-C , 63-H ) :   0.9682
B( 13-C , 14-C ) :   1.1463 B( 14-C , 15-C ) :   1.6326 B( 14-C , 64-H ) :   0.9560
B( 15-C , 16-C ) :   1.0775 B( 15-C , 65-H ) :   0.9597 B( 16-C , 17-C ) :   1.2974
B( 16-C , 21-C ) :   1.2973 B( 17-C , 18-N ) :   1.5729 B( 17-C , 66-H ) :   0.9861
B( 18-N , 19-C ) :   1.6050 B( 19-C , 20-N ) :   1.5361 B( 19-C , 22-C ) :   1.0823
B( 20-N , 21-C ) :   1.5753 B( 20-N , 22-C ) :  -0.1003 B( 21-C , 67-H ) :   0.9819
B( 22-C , 23-S ) :   1.0779 B( 22-C , 24-C ) :   0.1230 B( 22-C , 26-C ) :   1.4876
B( 23-S , 24-C ) :   1.0923 B( 24-C , 25-C ) :   1.5046 B( 24-C , 31-C ) :   1.0853
B( 25-C , 26-C ) :   1.2382 B( 25-C , 30-N ) :   1.1409 B( 26-C , 27-N ) :   1.1920
B( 27-N , 28-C ) :   1.1391 B( 27-N , 68-H ) :   0.9102 B( 28-C , 29-S ) :   1.6521
B( 28-C , 30-N ) :   1.1320 B( 30-N , 69-H ) :   0.9196 B( 31-C , 32-C ) :   1.2987
B( 31-C , 36-C ) :   1.2791 B( 32-C , 33-N ) :   1.5670 B( 32-C , 70-H ) :   0.9835
B( 33-N , 34-C ) :   1.4940 B( 34-C , 35-N ) :   1.6118 B( 34-C , 37-C ) :   0.9790
B( 35-N , 36-C ) :   1.6059 B( 35-N , 37-C ) :  -0.1130 B( 36-C , 71-H ) :   0.9918
B( 37-C , 38-N ) :   1.1989 B( 37-C , 44-C ) :   1.4166 B( 38-N , 39-C ) :   0.9397
B( 38-N , 41-C ) :   1.0611 B( 39-C , 40-C ) :   1.1229 B( 39-C , 72-H ) :   0.9398
B( 39-C , 73-H ) :   0.9293 B( 40-C , 74-H ) :   0.9632 B( 40-C , 75-H ) :   0.9674
B( 40-C , 76-H ) :   0.9654 B( 41-C , 42-O ) :   2.0362 B( 41-C , 43-C ) :   0.9877
B( 43-C , 44-C ) :   1.2282 B( 43-C , 50-C ) :   1.3569 B( 44-C , 45-C ) :   0.9484
B( 45-C , 46-O ) :   2.1801 B( 45-C , 47-N ) :   1.0112 B( 47-N , 48-C ) :   0.9468
B( 47-N , 50-C ) :   1.1851 B( 48-C , 49-C ) :   1.1192 B( 48-C , 77-H ) :   0.9272
B( 48-C , 78-H ) :   0.9509 B( 49-C , 79-H ) :   0.9643 B( 49-C , 80-H ) :   0.9679
B( 49-C , 81-H ) :   0.9690 B( 50-C , 51-C ) :   1.1234 B( 51-C , 52-C ) :   1.8871
B( 51-C , 82-H ) :   0.9544 B( 52-C , 83-H ) :   0.9240 B( 52-C , 84-H ) :   0.9449

-----------------------------------------------------------------------------
         ABSORPTION SPECTRUM VIA TRANSITION ELECTRIC DIPOLE MOMENTS
-----------------------------------------------------------------------------
State   Energy  Wavelength   fosc         T2         TX        TY        TZ
        (cm-1)    (nm)                  (au**2)     (au)      (au)      (au)
-----------------------------------------------------------------------------
   0   18334.8    545.4   1.162911892  20.88071  -0.78993   4.49040   0.30498
   1   20443.4    489.2   0.346458436   5.57921  -1.40061   1.57977  -1.05917
   2   24335.0    410.9   0.165335739   2.23672   0.27552  -0.71504   1.28434
   3   24917.9    401.3   0.171606237   2.26724   0.71525  -0.93438  -0.93946
   4   26574.3    376.3   0.000083678   0.00104  -0.00462   0.02348   0.02154
   5   26782.7    373.4   0.708790607   8.71244  -0.65238   2.50837   1.41242
   6   27540.1    363.1   0.011152670   0.13332   0.02874  -0.13141  -0.33945
   7   28065.4    356.3   0.021206126   0.24875   0.17550  -0.40503  -0.23216
   8   28349.5    352.7   0.079760956   0.92623  -0.19899   0.30885  -0.88952
   9   29123.7    343.4   0.009871788   0.11159  -0.03102   0.21938   0.25000
  10   29875.7    334.7   0.020400027   0.22480  -0.06070   0.34094  -0.32384
  11   30128.4    331.9   0.039452170   0.43109   0.05418  -0.23469   0.61080
  12   30553.7    327.3   0.009619401   0.10365  -0.05396   0.19335   0.25170
  13   30611.8    326.7   0.009174636   0.09867  -0.05299  -0.20741  -0.22987
  14   31343.9    319.0   0.090305818   0.94850  -0.36787   0.61747   0.65719
  15   32486.2    307.8   0.000047360   0.00048  -0.00662  -0.02088   0.00014
  16   32771.8    305.1   0.040917895   0.41104   0.13456  -0.60073   0.17904
  17   33099.1    302.1   0.000376049   0.00374   0.03725   0.00289   0.04842
  18   33287.5    300.4   0.001158588   0.01146  -0.05919   0.08914  -0.00310
  19   34066.4    293.5   0.036011586   0.34801   0.03489  -0.52869  -0.25939
  20   34635.3    288.7   0.000020495   0.00019  -0.00828   0.00674   0.00899
  21   35099.7    284.9   0.000447330   0.00420   0.02836  -0.05697  -0.01207
  22   36228.3    276.0   0.152442444   1.38527  -0.22881   0.19362  -1.13817
  23   36874.0    271.2   0.052568683   0.46933   0.13074   0.15516   0.65435
  24   37201.0    268.8   0.053461329   0.47311  -0.26958   0.33572  -0.53640
  25   37493.0    266.7   0.011783704   0.10347  -0.12990   0.28466   0.07461
  26   37885.1    264.0   0.087406369   0.75954   0.23131  -0.68408  -0.48793
  27   37926.7    263.7   0.032266278   0.28008  -0.06469   0.22354   0.47531
  28   38210.6    261.7   0.000169522   0.00146  -0.00021  -0.01211  -0.03625
  29   38852.7    257.4   0.006840563   0.05796   0.00784  -0.20394   0.12771
  30   39101.3    255.7   0.016239452   0.13673  -0.26369   0.25695   0.03424
  31   39902.9    250.6   0.066936016   0.55224  -0.01299  -0.43171  -0.60474
  32   40083.5    249.5   0.010894025   0.08947   0.06036   0.29129   0.03133
  33   40211.1    248.7   0.013138014   0.10756   0.16895   0.06874  -0.27257

FINAL SINGLE POINT ENERGY     -3071.008000185866

DIPOLE MOMENT
-------------
                                X             Y             Z
Electronic contribution:     -3.85898       6.88524     -16.35388
Nuclear contribution   :      4.31613      -7.71185      16.86051
                        -----------------------------------------
Total Dipole Moment    :      0.45715      -0.82661       0.50662
                        -----------------------------------------
Magnitude (a.u.)       :      1.07188
Magnitude (Debye)      :      2.72451

Rotational constants in cm-1:     0.003560     0.000402     0.000368
Rotational constants in MHz :   106.729195    12.062201    11.033218

                             ****ORCA TERMINATED NORMALLY****
TOTAL RUN TIME: 0 days 0 hours 5 minutes 30 seconds 239 msec
