                         Program Version 4.2.0 -  RELEASE  -
|  1> # ORCA input file
|  2> # SCF done       -181.284483553273          0.000536192734
|  3> ! CAM-B3LYP def2-SVP def2/J RIJCOSX Grid4 TightSCF
|  4> %maxcore 5000
|  5> %tddft
|  6>     Mode sTDDFT
|  7>     Ethresh 5.0
|  8>     maxcore 5000
|  9> end
| 10>
| 11> %pal
| 12>   nprocs 6
| 13>   end
| 14> * xyz 0 1
| 15>    C        0.07694        -1.56531        -1.51073
| 16>    N        0.81801        -0.47735        -1.85594
| 17>    C        2.07721        -0.50323        -2.55596
| 18>    C        1.89250        -0.82494        -4.03662
| 19>    C        0.17153         0.72303        -1.49190
| 20>    O        0.64547         1.82743        -1.70054
| 21>    C       -1.05114         0.28774        -0.87149
| 22>    C       -1.07232        -1.14403        -0.90441
| 23>    C       -2.30019        -1.58763        -0.27694
| 24>    O       -2.76607        -2.68683        -0.07570
| 25>    N       -2.94434        -0.39113         0.09526
| 26>    C       -4.20345        -0.41310         0.79805
| 27>    C       -4.02641        -0.19066         2.29877
| 28>    C       -2.21153         0.72711        -0.24621
| 29>    C       -2.63720         2.04935         0.02444
| 30>    C       -1.90132         3.13866        -0.33178
| 31>    C       -2.25643         4.47739        -0.07519
| 32>    S       -1.23477         5.77045        -0.68235
| 33>    C       -2.22749         7.03606        -0.01910
| 34>    C       -3.31587         6.47498         0.65919
| 35>    C       -3.32083         5.04620         0.61744
| 36>    N       -4.40981         4.61952         1.30795
| 37>    C       -5.08000         5.72712         1.77626
| 38>    N       -6.24973         5.54636         2.52939
| 39>    O       -6.59599         4.38802         2.72019
| 40>    O       -6.83405         6.53039         2.93654
| 41>    C       -4.44168         6.88946         1.39807
| 42>    C       -1.93492         8.36901        -0.16976
| 43>    C       -1.66617         9.54895        -0.31368
| 44>    C       -1.41204        10.89706        -0.44147
| 45>    S       -2.41365        12.07322         0.37259
| 46>    C       -1.46076        13.37486        -0.29204
| 47>    C       -0.43856        12.89495        -1.09215
| 48>    C       -0.41001        11.50799        -1.17555
| 49>    C       -1.75773        14.69161        -0.00007
| 50>    C       -2.04575        15.84071         0.27790
| 51>    C       -2.35959        17.15447         0.57872
| 52>    C       -1.72281        18.21855         0.02628
| 53>    C       -2.02790        19.56788         0.31116
| 54>    S       -3.26246        20.05093         1.45256
| 55>    C       -3.02714        21.76149         1.19853
| 56>    C       -1.99834        21.94700         0.26839
| 57>    C       -1.45327        20.71599        -0.21354
| 58>    N       -0.44246        21.00441        -1.07193
| 59>    C       -0.32108        22.37409        -1.12609
| 60>    N        0.68240        22.93764        -1.93350
| 61>    O        1.36031        22.14970        -2.57866
| 62>    O        0.82135        24.14234        -1.93093
| 63>    C       -1.24583        22.99108        -0.31273
| 64>    C       -3.82579        22.76628         1.79118
| 65>    N       -4.44605        22.69735         3.01940
| 66>    C       -4.39626        21.62493         3.98301
| 67>    C       -5.59226        20.68664         3.84524
| 68>    C       -5.14847        23.88006         3.31926
| 69>    O       -5.73745        24.05135         4.36811
| 70>    C       -4.96398        24.71295         2.15606
| 71>    C       -4.13366        24.00737         1.23988
| 72>    C       -4.05098        24.78749         0.02791
| 73>    O       -3.51816        24.58986        -1.04596
| 74>    N       -4.80944        25.94267         0.30905
| 75>    C       -4.90794        27.01133        -0.65479
| 76>    C       -3.96272        28.16372        -0.32359
| 77>    C       -5.35774        25.90653         1.56653
| 78>    C       -6.19768        26.94330         2.09332
| 79>    C       -6.71170        26.90578         3.32471
| 80>    H        0.42630        -2.56043        -1.71418
| 81>    H        2.73514        -1.24050        -2.08561
| 82>    H        2.51391         0.49266        -2.44165
| 83>    H        1.43262        -1.80267        -4.16289
| 84>    H        2.85635        -0.82496        -4.53786
| 85>    H        1.25567        -0.07811        -4.50435
| 86>    H       -4.62719        -1.40648         0.62542
| 87>    H       -4.87823         0.33315         0.36770
| 88>    H       -3.42557        -0.99169         2.72176
| 89>    H       -4.99619        -0.18657         2.78880
| 90>    H       -3.52653         0.75475         2.49998
| 91>    H       -3.58538         2.17357         0.52437
| 92>    H       -0.96550         2.98462        -0.85323
| 93>    H       -4.72485         3.68193         1.50082
| 94>    H       -4.75176         7.88762         1.62905
| 95>    H        0.25595        13.54734        -1.59059
| 96>    H        0.30770        10.94681        -1.74680
| 97>    H       -3.16128        17.31411         1.28974
| 98>    H       -0.92963        18.04913        -0.69034
| 99>    H        0.14700        20.38006        -1.59949
|100>    H       -1.35985        24.04575        -0.18509
|101>    H       -4.42463        22.09505         4.97085
|102>    H       -3.45564        21.08066         3.87379
|103>    H       -6.51131        21.24040         4.01855
|104>    H       -5.52047        19.88933         4.57923
|105>    H       -5.62959        20.24657         2.85144
|106>    H       -5.94274        27.35988        -0.71420
|107>    H       -4.62826        26.57336        -1.61737
|108>    H       -4.18593        28.58254         0.65536
|109>    H       -4.06054        28.94614        -1.07100
|110>    H       -2.93411        27.81169        -0.32325
|111>    H       -6.40767        27.77910         1.44023
|112>    H       -6.51553        26.08444         3.99335
|113>    H       -7.34073        27.69950         3.68927
|114> *
|115>
|116>                          ****END OF INPUT****

CARTESIAN COORDINATES (ANGSTROEM)
---------------------------------
  C      0.076940   -1.565310   -1.510730
  N      0.818010   -0.477350   -1.855940
  C      2.077210   -0.503230   -2.555960
  C      1.892500   -0.824940   -4.036620
  C      0.171530    0.723030   -1.491900
  O      0.645470    1.827430   -1.700540
  C     -1.051140    0.287740   -0.871490
  C     -1.072320   -1.144030   -0.904410
  C     -2.300190   -1.587630   -0.276940
  O     -2.766070   -2.686830   -0.075700
  N     -2.944340   -0.391130    0.095260
  C     -4.203450   -0.413100    0.798050
  C     -4.026410   -0.190660    2.298770
  C     -2.211530    0.727110   -0.246210
  C     -2.637200    2.049350    0.024440
  C     -1.901320    3.138660   -0.331780
  C     -2.256430    4.477390   -0.075190
  S     -1.234770    5.770450   -0.682350
  C     -2.227490    7.036060   -0.019100
  C     -3.315870    6.474980    0.659190
  C     -3.320830    5.046200    0.617440
  N     -4.409810    4.619520    1.307950
  C     -5.080000    5.727120    1.776260
  N     -6.249730    5.546360    2.529390
  O     -6.595990    4.388020    2.720190
  O     -6.834050    6.530390    2.936540
  C     -4.441680    6.889460    1.398070
  C     -1.934920    8.369010   -0.169760
  C     -1.666170    9.548950   -0.313680
  C     -1.412040   10.897060   -0.441470
  S     -2.413650   12.073220    0.372590
  C     -1.460760   13.374860   -0.292040
  C     -0.438560   12.894950   -1.092150
  C     -0.410010   11.507990   -1.175550
  C     -1.757730   14.691610   -0.000070
  C     -2.045750   15.840710    0.277900
  C     -2.359590   17.154470    0.578720
  C     -1.722810   18.218550    0.026280
  C     -2.027900   19.567880    0.311160
  S     -3.262460   20.050930    1.452560
  C     -3.027140   21.761490    1.198530
  C     -1.998340   21.947000    0.268390
  C     -1.453270   20.715990   -0.213540
  N     -0.442460   21.004410   -1.071930
  C     -0.321080   22.374090   -1.126090
  N      0.682400   22.937640   -1.933500
  O      1.360310   22.149700   -2.578660
  O      0.821350   24.142340   -1.930930
  C     -1.245830   22.991080   -0.312730
  C     -3.825790   22.766280    1.791180
  N     -4.446050   22.697350    3.019400
  C     -4.396260   21.624930    3.983010
  C     -5.592260   20.686640    3.845240
  C     -5.148470   23.880060    3.319260
  O     -5.737450   24.051350    4.368110
  C     -4.963980   24.712950    2.156060
  C     -4.133660   24.007370    1.239880
  C     -4.050980   24.787490    0.027910
  O     -3.518160   24.589860   -1.045960
  N     -4.809440   25.942670    0.309050
  C     -4.907940   27.011330   -0.654790
  C     -3.962720   28.163720   -0.323590
  C     -5.357740   25.906530    1.566530
  C     -6.197680   26.943300    2.093320
  C     -6.711700   26.905780    3.324710
  H      0.426300   -2.560430   -1.714180
  H      2.735140   -1.240500   -2.085610
  H      2.513910    0.492660   -2.441650
  H      1.432620   -1.802670   -4.162890
  H      2.856350   -0.824960   -4.537860
  H      1.255670   -0.078110   -4.504350
  H     -4.627190   -1.406480    0.625420
  H     -4.878230    0.333150    0.367700
  H     -3.425570   -0.991690    2.721760
  H     -4.996190   -0.186570    2.788800
  H     -3.526530    0.754750    2.499980
  H     -3.585380    2.173570    0.524370
  H     -0.965500    2.984620   -0.853230
  H     -4.724850    3.681930    1.500820
  H     -4.751760    7.887620    1.629050
  H      0.255950   13.547340   -1.590590
  H      0.307700   10.946810   -1.746800
  H     -3.161280   17.314110    1.289740
  H     -0.929630   18.049130   -0.690340
  H      0.147000   20.380060   -1.599490
  H     -1.359850   24.045750   -0.185090
  H     -4.424630   22.095050    4.970850
  H     -3.455640   21.080660    3.873790
  H     -6.511310   21.240400    4.018550
  H     -5.520470   19.889330    4.579230
  H     -5.629590   20.246570    2.851440
  H     -5.942740   27.359880   -0.714200
  H     -4.628260   26.573360   -1.617370
  H     -4.185930   28.582540    0.655360
  H     -4.060540   28.946140   -1.071000
  H     -2.934110   27.811690   -0.323250
  H     -6.407670   27.779100    1.440230
  H     -6.515530   26.084440    3.993350
  H     -7.340730   27.699500    3.689270

 Total Charge           Charge          ....    0
 Multiplicity           Mult            ....    1
 Number of Electrons    NEL             ....  478
 Basis Dimension        Dim             .... 1092

ORBITAL ENERGIES
----------------

  NO   OCC          E(Eh)            E(eV)
   0   2.0000     -88.982331     -2421.3323
   1   2.0000     -88.980541     -2421.2836
   2   2.0000     -88.972201     -2421.0567
   3   2.0000     -19.251256      -523.8533
   4   2.0000     -19.251209      -523.8520
   5   2.0000     -19.245521      -523.6973
   6   2.0000     -19.244956      -523.6819
   7   2.0000     -19.191002      -522.2137
   8   2.0000     -19.189388      -522.1698
   9   2.0000     -19.181145      -521.9455
  10   2.0000     -19.180681      -521.9329
  11   2.0000     -14.661193      -398.9513
  12   2.0000     -14.655213      -398.7886
  13   2.0000     -14.488631      -394.2557
  14   2.0000     -14.481093      -394.0506
  15   2.0000     -14.456308      -393.3761
  16   2.0000     -14.454613      -393.3300
  17   2.0000     -14.446197      -393.1010
  18   2.0000     -14.445590      -393.0845
  19   2.0000     -10.374858      -282.3142
  20   2.0000     -10.372928      -282.2617
  21   2.0000     -10.368515      -282.1416
  22   2.0000     -10.366813      -282.0953
  23   2.0000     -10.363410      -282.0027
  24   2.0000     -10.362402      -281.9753
  25   2.0000     -10.347809      -281.5782
  26   2.0000     -10.340770      -281.3867
  27   2.0000     -10.340243      -281.3723
  28   2.0000     -10.338356      -281.3210
  29   2.0000     -10.336836      -281.2796
  30   2.0000     -10.335134      -281.2333
  31   2.0000     -10.330145      -281.0975
  32   2.0000     -10.327894      -281.0363
  33   2.0000     -10.327634      -281.0292
  34   2.0000     -10.323385      -280.9136
  35   2.0000     -10.319960      -280.8204
  36   2.0000     -10.318746      -280.7874
  37   2.0000     -10.308931      -280.5203
  38   2.0000     -10.308685      -280.5136
  39   2.0000     -10.308537      -280.5095
  40   2.0000     -10.306454      -280.4529
  41   2.0000     -10.305416      -280.4246
  42   2.0000     -10.304219      -280.3921
  43   2.0000     -10.303852      -280.3821
  44   2.0000     -10.302660      -280.3496
  45   2.0000     -10.300645      -280.2948
  46   2.0000     -10.299783      -280.2714
  47   2.0000     -10.299729      -280.2699
  48   2.0000     -10.296048      -280.1697
  49   2.0000     -10.295754      -280.1617
  50   2.0000     -10.292634      -280.0768
  51   2.0000     -10.290405      -280.0162
  52   2.0000     -10.289480      -279.9910
  53   2.0000     -10.289015      -279.9783
  54   2.0000     -10.287790      -279.9450
  55   2.0000     -10.285393      -279.8798
  56   2.0000     -10.281418      -279.7716
  57   2.0000     -10.265233      -279.3312
  58   2.0000     -10.264846      -279.3207
  59   2.0000     -10.262427      -279.2548
  60   2.0000     -10.261649      -279.2337
  61   2.0000     -10.261169      -279.2206
  62   2.0000     -10.259188      -279.1667
  63   2.0000     -10.252265      -278.9783
  64   2.0000     -10.249621      -278.9064
  65   2.0000      -8.076291      -219.7670
  66   2.0000      -8.075082      -219.7341
  67   2.0000      -8.067634      -219.5315
  68   2.0000      -6.045687      -164.5115
  69   2.0000      -6.044437      -164.4775
  70   2.0000      -6.041416      -164.3953
  71   2.0000      -6.040146      -164.3607
  72   2.0000      -6.038548      -164.3172
  73   2.0000      -6.037278      -164.2827
  74   2.0000      -6.037029      -164.2759
  75   2.0000      -6.032813      -164.1612
  76   2.0000      -6.029547      -164.0723
  77   2.0000      -1.330692       -36.2100
  78   2.0000      -1.325466       -36.0678
  79   2.0000      -1.150693       -31.3120
  80   2.0000      -1.145237       -31.1635
  81   2.0000      -1.134296       -30.8658
  82   2.0000      -1.127395       -30.6780
  83   2.0000      -1.124215       -30.5914
  84   2.0000      -1.117049       -30.3964
  85   2.0000      -1.111920       -30.2569
  86   2.0000      -1.106773       -30.1168
  87   2.0000      -1.064892       -28.9772
  88   2.0000      -1.056953       -28.7611
  89   2.0000      -1.054994       -28.7079
  90   2.0000      -1.046538       -28.4777
  91   2.0000      -0.998872       -27.1807
  92   2.0000      -0.996056       -27.1041
  93   2.0000      -0.994375       -27.0583
  94   2.0000      -0.932630       -25.3781
  95   2.0000      -0.931339       -25.3430
  96   2.0000      -0.927277       -25.2325
  97   2.0000      -0.920423       -25.0460
  98   2.0000      -0.911959       -24.8157
  99   2.0000      -0.908827       -24.7304
 100   2.0000      -0.899321       -24.4718
 101   2.0000      -0.895076       -24.3563
 102   2.0000      -0.887826       -24.1590
 103   2.0000      -0.883929       -24.0529
 104   2.0000      -0.875207       -23.8156
 105   2.0000      -0.871711       -23.7205
 106   2.0000      -0.866502       -23.5787
 107   2.0000      -0.857448       -23.3324
 108   2.0000      -0.847258       -23.0550
 109   2.0000      -0.831705       -22.6318
 110   2.0000      -0.821325       -22.3494
 111   2.0000      -0.815787       -22.1987
 112   2.0000      -0.814533       -22.1646
 113   2.0000      -0.801068       -21.7982
 114   2.0000      -0.795400       -21.6439
 115   2.0000      -0.790154       -21.5012
 116   2.0000      -0.784129       -21.3372
 117   2.0000      -0.774978       -21.0882
 118   2.0000      -0.765355       -20.8264
 119   2.0000      -0.761353       -20.7175
 120   2.0000      -0.756579       -20.5876
 121   2.0000      -0.737653       -20.0726
 122   2.0000      -0.719464       -19.5776
 123   2.0000      -0.714156       -19.4332
 124   2.0000      -0.709989       -19.3198
 125   2.0000      -0.705975       -19.2106
 126   2.0000      -0.704960       -19.1829
 127   2.0000      -0.701525       -19.0895
 128   2.0000      -0.695289       -18.9198
 129   2.0000      -0.685533       -18.6543
 130   2.0000      -0.676184       -18.3999
 131   2.0000      -0.672578       -18.3018
 132   2.0000      -0.668522       -18.1914
 133   2.0000      -0.660821       -17.9819
 134   2.0000      -0.658418       -17.9165
 135   2.0000      -0.654628       -17.8133
 136   2.0000      -0.647880       -17.6297
 137   2.0000      -0.646412       -17.5898
 138   2.0000      -0.643689       -17.5157
 139   2.0000      -0.638103       -17.3637
 140   2.0000      -0.637699       -17.3527
 141   2.0000      -0.629817       -17.1382
 142   2.0000      -0.624999       -17.0071
 143   2.0000      -0.617876       -16.8133
 144   2.0000      -0.605238       -16.4694
 145   2.0000      -0.600815       -16.3490
 146   2.0000      -0.599726       -16.3194
 147   2.0000      -0.592823       -16.1315
 148   2.0000      -0.591601       -16.0983
 149   2.0000      -0.586186       -15.9509
 150   2.0000      -0.583508       -15.8781
 151   2.0000      -0.577239       -15.7075
 152   2.0000      -0.575020       -15.6471
 153   2.0000      -0.573365       -15.6021
 154   2.0000      -0.570081       -15.5127
 155   2.0000      -0.568917       -15.4810
 156   2.0000      -0.565159       -15.3788
 157   2.0000      -0.560366       -15.2483
 158   2.0000      -0.557352       -15.1663
 159   2.0000      -0.548386       -14.9223
 160   2.0000      -0.547053       -14.8861
 161   2.0000      -0.544783       -14.8243
 162   2.0000      -0.543094       -14.7783
 163   2.0000      -0.542447       -14.7607
 164   2.0000      -0.536175       -14.5901
 165   2.0000      -0.531665       -14.4673
 166   2.0000      -0.526794       -14.3348
 167   2.0000      -0.526229       -14.3194
 168   2.0000      -0.524200       -14.2642
 169   2.0000      -0.522851       -14.2275
 170   2.0000      -0.521623       -14.1941
 171   2.0000      -0.518168       -14.1001
 172   2.0000      -0.517819       -14.0906
 173   2.0000      -0.515340       -14.0231
 174   2.0000      -0.511917       -13.9300
 175   2.0000      -0.509652       -13.8683
 176   2.0000      -0.506716       -13.7885
 177   2.0000      -0.503277       -13.6949
 178   2.0000      -0.500696       -13.6246
 179   2.0000      -0.499777       -13.5996
 180   2.0000      -0.493771       -13.4362
 181   2.0000      -0.492455       -13.4004
 182   2.0000      -0.488709       -13.2984
 183   2.0000      -0.487125       -13.2553
 184   2.0000      -0.477982       -13.0066
 185   2.0000      -0.473857       -12.8943
 186   2.0000      -0.472135       -12.8475
 187   2.0000      -0.469133       -12.7658
 188   2.0000      -0.468718       -12.7545
 189   2.0000      -0.464790       -12.6476
 190   2.0000      -0.462686       -12.5903
 191   2.0000      -0.462341       -12.5809
 192   2.0000      -0.458303       -12.4710
 193   2.0000      -0.456621       -12.4253
 194   2.0000      -0.454261       -12.3611
 195   2.0000      -0.452066       -12.3013
 196   2.0000      -0.450170       -12.2497
 197   2.0000      -0.446419       -12.1477
 198   2.0000      -0.443761       -12.0753
 199   2.0000      -0.443063       -12.0563
 200   2.0000      -0.441484       -12.0134
 201   2.0000      -0.439613       -11.9625
 202   2.0000      -0.438635       -11.9359
 203   2.0000      -0.436154       -11.8684
 204   2.0000      -0.430833       -11.7235
 205   2.0000      -0.429089       -11.6761
 206   2.0000      -0.427354       -11.6289
 207   2.0000      -0.426042       -11.5932
 208   2.0000      -0.423007       -11.5106
 209   2.0000      -0.418736       -11.3944
 210   2.0000      -0.407609       -11.0916
 211   2.0000      -0.398749       -10.8505
 212   2.0000      -0.397187       -10.8080
 213   2.0000      -0.393446       -10.7062
 214   2.0000      -0.392332       -10.6759
 215   2.0000      -0.389070       -10.5871
 216   2.0000      -0.384007       -10.4494
 217   2.0000      -0.381066       -10.3693
 218   2.0000      -0.376454       -10.2438
 219   2.0000      -0.374713       -10.1965
 220   2.0000      -0.365506        -9.9459
 221   2.0000      -0.354485        -9.6460
 222   2.0000      -0.352178        -9.5833
 223   2.0000      -0.351047        -9.5525
 224   2.0000      -0.348274        -9.4770
 225   2.0000      -0.342800        -9.3281
 226   2.0000      -0.339029        -9.2254
 227   2.0000      -0.338203        -9.2030
 228   2.0000      -0.330699        -8.9988
 229   2.0000      -0.322973        -8.7885
 230   2.0000      -0.322439        -8.7740
 231   2.0000      -0.321900        -8.7593
 232   2.0000      -0.316579        -8.6145
 233   2.0000      -0.307458        -8.3664
 234   2.0000      -0.306047        -8.3279
 235   2.0000      -0.279257        -7.5990
 236   2.0000      -0.260570        -7.0905
 237   2.0000      -0.237508        -6.4629
 238   2.0000      -0.226560        -6.1650
 239   0.0000      -0.100598        -2.7374
 240   0.0000      -0.087561        -2.3827
 241   0.0000      -0.056966        -1.5501
 242   0.0000      -0.046657        -1.2696
 243   0.0000      -0.042572        -1.1584

MULLIKEN ATOMIC CHARGES
-----------------------
   0 C :    0.027504
   1 N :   -0.256859
   2 C :    0.116014
   3 C :   -0.002004
   4 C :    0.172673
   5 O :   -0.229492
   6 C :   -0.114227
   7 C :    0.011596
   8 C :    0.162057
   9 O :   -0.188848
  10 N :   -0.275638
  11 C :    0.103768
  12 C :    0.002616
  13 C :    0.159045
  14 C :   -0.031912
  15 C :    0.102425
  16 C :   -0.208183
  17 S :    0.227688
  18 C :   -0.190799
  19 C :    0.140378
  20 C :    0.132086
  21 N :   -0.044880
  22 C :    0.147797
  23 N :    0.283549
  24 O :   -0.266274
  25 O :   -0.233522
  26 C :   -0.093973
  27 C :   -0.007907
  28 C :    0.025622
  29 C :   -0.168389
  30 S :    0.193481
  31 C :   -0.142807
  32 C :    0.050227
  33 C :    0.056181
  34 C :    0.053369
  35 C :   -0.008084
  36 C :   -0.098647
  37 C :    0.005800
  38 C :   -0.143365
  39 S :    0.137835
  40 C :   -0.183802
  41 C :    0.118517
  42 C :    0.130841
  43 N :   -0.038267
  44 C :    0.124132
  45 N :    0.288809
  46 O :   -0.274946
  47 O :   -0.230233
  48 C :   -0.031375
  49 C :    0.133100
  50 N :   -0.265038
  51 C :    0.095470
  52 C :    0.005600
  53 C :    0.166180
  54 O :   -0.210908
  55 C :   -0.073623
  56 C :   -0.060357
  57 C :    0.131033
  58 O :   -0.197955
  59 N :   -0.262326
  60 C :    0.097154
  61 C :    0.003805
  62 C :    0.117250
  63 C :   -0.038445
  64 C :    0.015705
  65 H :    0.011994
  66 H :    0.016530
  67 H :    0.040237
  68 H :    0.013531
  69 H :    0.021186
  70 H :    0.029914
  71 H :    0.043350
  72 H :    0.018466
  73 H :    0.032410
  74 H :    0.025474
  75 H :    0.005965
  76 H :   -0.086032
  77 H :   -0.003407
  78 H :    0.146232
  79 H :    0.002920
  80 H :   -0.005042
  81 H :   -0.001340
  82 H :    0.032900
  83 H :   -0.002091
  84 H :    0.141227
  85 H :    0.000412
  86 H :    0.038174
  87 H :    0.026942
  88 H :    0.034530
  89 H :    0.021958
  90 H :    0.014264
  91 H :    0.024156
  92 H :    0.045260
  93 H :    0.014936
  94 H :    0.025198
  95 H :    0.030099
  96 H :   -0.017286
  97 H :    0.059070
  98 H :    0.031639
Sum of atomic charges:   -0.0000000

LOEWDIN ATOMIC CHARGES
----------------------
   0 C :    0.080295
   1 N :    0.000903
   2 C :    0.038299
   3 C :   -0.060671
   4 C :    0.073546
   5 O :   -0.219309
   6 C :   -0.140284
   7 C :   -0.126245
   8 C :    0.082609
   9 O :   -0.192490
  10 N :   -0.012055
  11 C :    0.035165
  12 C :   -0.062344
  13 C :    0.088406
  14 C :   -0.076698
  15 C :    0.019323
  16 C :   -0.212032
  17 S :    0.504261
  18 C :   -0.177260
  19 C :   -0.058710
  20 C :    0.008515
  21 N :    0.071559
  22 C :   -0.004418
  23 N :    0.280897
  24 O :   -0.228932
  25 O :   -0.196132
  26 C :   -0.014773
  27 C :   -0.052411
  28 C :   -0.029289
  29 C :   -0.189490
  30 S :    0.467703
  31 C :   -0.177903
  32 C :   -0.036331
  33 C :   -0.029215
  34 C :   -0.060174
  35 C :   -0.020428
  36 C :   -0.052942
  37 C :   -0.015491
  38 C :   -0.201636
  39 S :    0.482865
  40 C :   -0.178890
  41 C :   -0.047697
  42 C :    0.003010
  43 N :    0.064356
  44 C :    0.000599
  45 N :    0.280871
  46 O :   -0.230488
  47 O :   -0.191874
  48 C :   -0.001601
  49 C :    0.050961
  50 N :   -0.001736
  51 C :    0.028006
  52 C :   -0.064425
  53 C :    0.080780
  54 O :   -0.202647
  55 C :   -0.129326
  56 C :   -0.120614
  57 C :    0.077798
  58 O :   -0.193208
  59 N :    0.000426
  60 C :    0.035807
  61 C :   -0.060754
  62 C :    0.084526
  63 C :   -0.055223
  64 C :    0.028371
  65 H :    0.030896
  66 H :    0.023734
  67 H :    0.035410
  68 H :    0.022030
  69 H :    0.029310
  70 H :    0.031302
  71 H :    0.038349
  72 H :    0.019822
  73 H :    0.033617
  74 H :    0.030970
  75 H :    0.017858
  76 H :    0.015501
  77 H :    0.039352
  78 H :    0.088587
  79 H :    0.045219
  80 H :    0.036978
  81 H :    0.038244
  82 H :    0.038475
  83 H :    0.038245
  84 H :    0.093635
  85 H :    0.042295
  86 H :    0.036499
  87 H :    0.015189
  88 H :    0.032871
  89 H :    0.030188
  90 H :    0.011310
  91 H :    0.023066
  92 H :    0.037956
  93 H :    0.022150
  94 H :    0.031280
  95 H :    0.032150
  96 H :    0.030110
  97 H :    0.033373
  98 H :    0.030316

  Mayer bond orders larger than 0.100000
B(  0-C ,  1-N ) :   1.1825 B(  0-C ,  7-C ) :   1.4611 B(  0-C , 65-H ) :   0.9911
B(  1-N ,  2-C ) :   0.9440 B(  1-N ,  4-C ) :   1.0636 B(  2-C ,  3-C ) :   1.1189
B(  2-C , 66-H ) :   0.9535 B(  2-C , 67-H ) :   0.9344 B(  3-C , 68-H ) :   0.9697
B(  3-C , 69-H ) :   0.9686 B(  3-C , 70-H ) :   0.9673 B(  4-C ,  5-O ) :   1.9927
B(  4-C ,  6-C ) :   1.0196 B(  5-O , 77-H ) :   0.1234 B(  6-C ,  7-C ) :   1.2020
B(  6-C , 13-C ) :   1.3558 B(  7-C ,  8-C ) :   0.9480 B(  8-C ,  9-O ) :   2.1743
B(  8-C , 10-N ) :   1.0183 B( 10-N , 11-C ) :   0.9489 B( 10-N , 13-C ) :   1.1478
B( 11-C , 12-C ) :   1.1187 B( 11-C , 71-H ) :   0.9273 B( 11-C , 72-H ) :   0.9491
B( 12-C , 73-H ) :   0.9637 B( 12-C , 74-H ) :   0.9680 B( 12-C , 75-H ) :   0.9682
B( 13-C , 14-C ) :   1.1990 B( 14-C , 15-C ) :   1.5650 B( 14-C , 76-H ) :   0.9484
B( 15-C , 16-C ) :   1.1925 B( 15-C , 77-H ) :   0.9193 B( 16-C , 17-S ) :   1.1053
B( 16-C , 18-C ) :   0.1067 B( 16-C , 20-C ) :   1.3357 B( 17-S , 18-C ) :   1.1609
B( 18-C , 19-C ) :   1.3185 B( 18-C , 27-C ) :   1.0406 B( 19-C , 20-C ) :   1.2452
B( 19-C , 26-C ) :   1.1463 B( 20-C , 21-N ) :   1.2041 B( 21-N , 22-C ) :   1.1622
B( 21-N , 78-H ) :   0.8998 B( 22-C , 23-N ) :   0.9306 B( 22-C , 26-C ) :   1.5058
B( 23-N , 24-O ) :   1.4790 B( 23-N , 25-O ) :   1.5450 B( 24-O , 25-O ) :   0.2674
B( 26-C , 79-H ) :   1.0306 B( 27-C , 28-C ) :   2.2817 B( 28-C , 29-C ) :   1.0165
B( 29-C , 30-S ) :   1.1010 B( 29-C , 31-C ) :   0.1055 B( 29-C , 33-C ) :   1.4694
B( 30-S , 31-C ) :   1.1131 B( 31-C , 32-C ) :   1.4774 B( 31-C , 34-C ) :   0.9819
B( 32-C , 33-C ) :   1.2878 B( 32-C , 80-H ) :   1.0003 B( 33-C , 81-H ) :   1.0002
B( 34-C , 35-C ) :   2.2605 B( 35-C , 36-C ) :   1.0234 B( 36-C , 37-C ) :   1.6519
B( 36-C , 82-H ) :   0.9517 B( 37-C , 38-C ) :   1.1781 B( 37-C , 83-H ) :   0.9838
B( 38-C , 39-S ) :   1.0926 B( 38-C , 40-C ) :   0.1161 B( 38-C , 42-C ) :   1.3667
B( 39-S , 40-C ) :   1.1315 B( 40-C , 41-C ) :   1.3513 B( 40-C , 49-C ) :   1.1439
B( 41-C , 42-C ) :   1.2168 B( 41-C , 48-C ) :   1.1531 B( 42-C , 43-N ) :   1.1985
B( 43-N , 44-C ) :   1.1510 B( 43-N , 84-H ) :   0.9095 B( 44-C , 45-N ) :   0.9242
B( 44-C , 48-C ) :   1.5392 B( 45-N , 46-O ) :   1.4659 B( 45-N , 47-O ) :   1.5519
B( 46-O , 47-O ) :   0.2706 B( 48-C , 85-H ) :   1.0076 B( 49-C , 50-N ) :   1.1839
B( 49-C , 56-C ) :   1.3913 B( 50-N , 51-C ) :   0.9437 B( 50-N , 53-C ) :   1.0454
B( 51-C , 52-C ) :   1.1161 B( 51-C , 86-H ) :   0.9281 B( 51-C , 87-H ) :   0.9457
B( 52-C , 88-H ) :   0.9637 B( 52-C , 89-H ) :   0.9672 B( 52-C , 90-H ) :   0.9637
B( 53-C , 54-O ) :   2.0407 B( 53-C , 55-C ) :   0.9933 B( 55-C , 56-C ) :   1.2172
B( 55-C , 62-C ) :   1.3687 B( 56-C , 57-C ) :   0.9789 B( 57-C , 58-O ) :   2.0982
B( 57-C , 59-N ) :   1.0364 B( 59-N , 60-C ) :   0.9458 B( 59-N , 62-C ) :   1.1725
B( 60-C , 61-C ) :   1.1187 B( 60-C , 91-H ) :   0.9504 B( 60-C , 92-H ) :   0.9276
B( 61-C , 93-H ) :   0.9692 B( 61-C , 94-H ) :   0.9682 B( 61-C , 95-H ) :   0.9639
B( 62-C , 63-C ) :   1.1287 B( 63-C , 64-C ) :   1.8858 B( 63-C , 96-H ) :   0.9531
B( 64-C , 97-H ) :   0.9264 B( 64-C , 98-H ) :   0.9445

-----------------------------------------------------------------------------
         ABSORPTION SPECTRUM VIA TRANSITION ELECTRIC DIPOLE MOMENTS
-----------------------------------------------------------------------------
State   Energy  Wavelength   fosc         T2         TX        TY        TZ
        (cm-1)    (nm)                  (au**2)     (au)      (au)      (au)
-----------------------------------------------------------------------------
   0   13998.5    714.4   1.995004410  46.91789  -1.29102   6.70775   0.50722
   1   16036.0    623.6   0.136186984   2.79586   0.63427   1.54711  -0.00377
   2   20220.7    494.5   0.463803384   7.55116   1.09474   2.49961  -0.32348
   3   20386.9    490.5   0.032822022   0.53002  -0.39406   0.38620   0.47495
   4   21872.6    457.2   0.325189229   4.89454   1.35166  -1.56169  -0.79290
   5   23678.6    422.3   0.025772987   0.35833   0.53812  -0.25230  -0.07145
   6   23818.1    419.8   0.105924037   1.46408  -0.94071  -0.35685   0.67217
   7   24667.2    405.4   0.171114371   2.28372  -0.11840   1.38187  -0.60012
   8   27128.4    368.6   0.196529582   2.38495  -0.34958  -1.48182  -0.25876
   9   27567.5    362.7   0.030689902   0.36650   0.14654   0.58690   0.02388
  10   28285.1    353.5   0.047219340   0.54959  -0.57373  -0.06369   0.46515
  11   28475.7    351.2   0.001173026   0.01356   0.00555  -0.08043   0.08403
  12   29045.2    344.3   0.066139381   0.74965   0.28480   0.80511  -0.14266
  13   29092.2    343.7   0.041160214   0.46578   0.52779   0.27329  -0.33545
  14   29579.4    338.1   0.112699180   1.25432  -0.68191  -0.45637   0.76226
  15   30084.7    332.4   0.036432391   0.39867  -0.48153  -0.13108   0.38681
  16   30335.3    329.6   0.000822761   0.00893  -0.01269   0.05628   0.07484
  17   31677.9    315.7   0.293324935   3.04838  -1.02137  -0.96474   1.03657
  18   32353.8    309.1   0.061261923   0.62336  -0.02714  -0.78352  -0.09338
  19   32544.9    307.3   0.035903250   0.36318  -0.02103  -0.60178   0.02455
  20   32778.6    305.1   0.104843782   1.05300   0.78717  -0.19492  -0.62878
  21   32958.6    303.4   0.163557251   1.63371   1.14478  -0.21635  -0.52573
  22   33680.3    296.9   0.118327461   1.15660  -0.80553   0.12048   0.70229
  23   34516.2    289.7   0.021882962   0.20872   0.33470   0.31023  -0.02115
  24   34994.9    285.8   0.008220651   0.07734  -0.02272  -0.27644   0.01994
  25   35372.3    282.7   0.056311115   0.52409  -0.55900  -0.27703   0.36723
  26   35827.1    279.1   0.022297564   0.20489  -0.34163   0.11620   0.27326
  27   36429.2    274.5   0.002687348   0.02429   0.04719   0.13289  -0.06632
  28   36448.2    274.4   0.007592877   0.06858  -0.11089  -0.18905   0.14334
  29   36580.1    273.4   0.000927557   0.00835   0.04890   0.05666  -0.05241
  30   36756.0    272.1   0.016098422   0.14419  -0.12912  -0.32190   0.15460
  31   37151.2    269.2   0.019358365   0.17154   0.19603   0.30847  -0.19484
  32   37643.9    265.6   0.077930853   0.68154  -0.64619  -0.41944   0.29672
  33   37915.5    263.7   0.002823690   0.02452   0.07036  -0.13508  -0.03632
  34   38376.5    260.6   0.006447514   0.05531  -0.08520  -0.19602   0.09812
  35   38673.7    258.6   0.029825644   0.25389   0.12935  -0.47300  -0.11590
  36   38805.4    257.7   0.007805318   0.06622   0.10752   0.23325  -0.01582
  37   39091.1    255.8   0.083543766   0.70358  -0.09834  -0.76517   0.32928
  38   39312.7    254.4   0.415937020   3.48314   1.50531   0.11000  -1.09777
  39   39411.0    253.7   0.010982157   0.09174   0.08210   0.11416  -0.26826
  40   39997.9    250.0   0.009145675   0.07528   0.12351  -0.14560  -0.19703
  41   40131.7    249.2   0.058518404   0.48004   0.19362  -0.63074  -0.21147
  42   40324.8    248.0   0.011018221   0.08995   0.15252  -0.13154  -0.22223

FINAL SINGLE POINT ENERGY     -4003.620549245417

DIPOLE MOMENT
-------------
                                X             Y             Z
Electronic contribution:      6.97970       1.14279      -2.82714
Nuclear contribution   :     -6.60207      -0.07020       2.60259
                        -----------------------------------------
Total Dipole Moment    :      0.37763       1.07259      -0.22455
                        -----------------------------------------
Magnitude (a.u.)       :      1.15909
Magnitude (Debye)      :      2.94617

Rotational constants in cm-1:     0.002517     0.000183     0.000172
Rotational constants in MHz :    75.468901     5.475611     5.147305

                             ****ORCA TERMINATED NORMALLY****
TOTAL RUN TIME: 0 days 0 hours 13 minutes 54 seconds 180 msec
