                         Program Version 4.2.0 -  RELEASE  -
|  1> # ORCA input file
|  2> # SCF done       -148.628286354261          0.000314609052
|  3> ! CAM-B3LYP def2-SVP def2/J RIJCOSX Grid4 TightSCF
|  4> %maxcore 5000
|  5> %tddft
|  6>     Mode sTDDFT
|  7>     Ethresh 5.0
|  8>     maxcore 5000
|  9> end
| 10>
| 11> %pal
| 12>   nprocs 6
| 13>   end
| 14> * xyz 0 1
| 15>    C       -2.67755        -2.24371        -0.37584
| 16>    N       -3.65771        -1.63128         0.33503
| 17>    C       -4.60055        -2.28412         1.20838
| 18>    C       -5.69283        -3.00001         0.41836
| 19>    C       -3.69929        -0.23751         0.06859
| 20>    O       -4.48961         0.51655         0.59131
| 21>    C       -2.63376        -0.04264        -0.88880
| 22>    C       -2.02285        -1.31223        -1.13355
| 23>    C       -0.94746        -1.10463        -2.07776
| 24>    O       -0.16358        -1.86298        -2.60218
| 25>    N       -0.95663         0.29066        -2.31902
| 26>    C       -0.08624         0.82944        -3.33741
| 27>    C       -0.85746         1.31679        -4.56036
| 28>    C       -1.96018         0.92484        -1.61582
| 29>    C       -2.28408         2.31363        -1.56748
| 30>    C       -1.51061         3.36523        -1.91568
| 31>    C       -1.95906         4.71201        -1.79911
| 32>    S       -0.85446         6.06737        -2.02584
| 33>    C       -2.26003         7.08611        -1.71995
| 34>    N       -3.33756         6.38935        -1.50358
| 35>    N       -3.17464         5.09910        -1.54118
| 36>    C       -2.21505         8.50848        -1.70818
| 37>    C       -1.07394         9.21849        -1.79284
| 38>    C       -0.99582        10.63868        -1.76683
| 39>    S       -2.38581        11.72039        -1.79660
| 40>    C       -1.20297        13.02225        -1.72762
| 41>    N        0.02222        12.58020        -1.69047
| 42>    N        0.13407        11.28485        -1.71785
| 43>    C       -1.57473        14.39728        -1.72215
| 44>    C       -0.66736        15.37504        -1.52121
| 45>    C       -0.99973        16.75895        -1.53878
| 46>    S        0.17261        17.99410        -1.09338
| 47>    C       -1.11076        19.14616        -1.44596
| 48>    N       -2.20954        18.56178        -1.83880
| 49>    N       -2.15153        17.26279        -1.88191
| 50>    C       -0.97420        20.55688        -1.32780
| 51>    C        0.10520        21.14295        -0.76309
| 52>    C        0.38401        22.52206        -0.55218
| 53>    N       -0.19376        23.63295        -1.12130
| 54>    C       -1.22247        23.69509        -2.13100
| 55>    C       -2.61770        23.77762        -1.51505
| 56>    C        0.37869        24.83123        -0.63209
| 57>    O        0.03652        25.93236        -1.00647
| 58>    C        1.37596        24.38925         0.31458
| 59>    C        1.36419        22.97200         0.32393
| 60>    C        2.34902        22.53050         1.28110
| 61>    O        2.69703        21.42861         1.64880
| 62>    N        2.90367        23.73103         1.79109
| 63>    C        3.94759        23.65750         2.78342
| 64>    C        5.33596        23.76152         2.15539
| 65>    C        2.33190        24.83900         1.21496
| 66>    C        2.58372        26.23452         1.44851
| 67>    C        3.52321        26.82803         2.18618
| 68>    H       -2.50586        -3.30083        -0.28606
| 69>    H       -5.04223        -1.50049         1.82957
| 70>    H       -4.06548        -2.99221         1.84803
| 71>    H       -6.24022        -2.28653        -0.19249
| 72>    H       -6.38832        -3.47970         1.10106
| 73>    H       -5.26201        -3.75795        -0.23230
| 74>    H        0.56579        -0.00261        -3.62288
| 75>    H        0.54170         1.62242        -2.92248
| 76>    H       -1.43957         0.50012        -4.98051
| 77>    H       -0.16005         1.66919        -5.31540
| 78>    H       -1.53502         2.12774        -4.30376
| 79>    H       -3.25727         2.52145        -1.14112
| 80>    H       -0.49937         3.24755        -2.27120
| 81>    H       -3.17444         8.99681        -1.60298
| 82>    H       -0.11568         8.72089        -1.86746
| 83>    H       -2.61402        14.64213        -1.88103
| 84>    H        0.36413        15.11513        -1.33399
| 85>    H       -1.82627        21.11016        -1.68908
| 86>    H        0.87539        20.50158        -0.34800
| 87>    H       -1.12579        22.83534        -2.79727
| 88>    H       -1.03484        24.60917        -2.70342
| 89>    H       -2.80698        22.93781        -0.84989
| 90>    H       -3.36828        23.78177        -2.30064
| 91>    H       -2.70815        24.69698        -0.94200
| 92>    H        3.84278        22.67566         3.25604
| 93>    H        3.78658        24.42845         3.54004
| 94>    H        5.49453        22.92517         1.47906
| 95>    H        6.09599        23.72874         2.93144
| 96>    H        5.44470        24.68522         1.59127
| 97>    H        1.88109        26.85471         0.90475
| 98>    H        4.28160        26.30475         2.73855
| 99>    H        3.55999        27.90256         2.24470
|100> *
|101>
|102>                          ****END OF INPUT****

CARTESIAN COORDINATES (ANGSTROEM)
---------------------------------
  C     -2.677550   -2.243710   -0.375840
  N     -3.657710   -1.631280    0.335030
  C     -4.600550   -2.284120    1.208380
  C     -5.692830   -3.000010    0.418360
  C     -3.699290   -0.237510    0.068590
  O     -4.489610    0.516550    0.591310
  C     -2.633760   -0.042640   -0.888800
  C     -2.022850   -1.312230   -1.133550
  C     -0.947460   -1.104630   -2.077760
  O     -0.163580   -1.862980   -2.602180
  N     -0.956630    0.290660   -2.319020
  C     -0.086240    0.829440   -3.337410
  C     -0.857460    1.316790   -4.560360
  C     -1.960180    0.924840   -1.615820
  C     -2.284080    2.313630   -1.567480
  C     -1.510610    3.365230   -1.915680
  C     -1.959060    4.712010   -1.799110
  S     -0.854460    6.067370   -2.025840
  C     -2.260030    7.086110   -1.719950
  N     -3.337560    6.389350   -1.503580
  N     -3.174640    5.099100   -1.541180
  C     -2.215050    8.508480   -1.708180
  C     -1.073940    9.218490   -1.792840
  C     -0.995820   10.638680   -1.766830
  S     -2.385810   11.720390   -1.796600
  C     -1.202970   13.022250   -1.727620
  N      0.022220   12.580200   -1.690470
  N      0.134070   11.284850   -1.717850
  C     -1.574730   14.397280   -1.722150
  C     -0.667360   15.375040   -1.521210
  C     -0.999730   16.758950   -1.538780
  S      0.172610   17.994100   -1.093380
  C     -1.110760   19.146160   -1.445960
  N     -2.209540   18.561780   -1.838800
  N     -2.151530   17.262790   -1.881910
  C     -0.974200   20.556880   -1.327800
  C      0.105200   21.142950   -0.763090
  C      0.384010   22.522060   -0.552180
  N     -0.193760   23.632950   -1.121300
  C     -1.222470   23.695090   -2.131000
  C     -2.617700   23.777620   -1.515050
  C      0.378690   24.831230   -0.632090
  O      0.036520   25.932360   -1.006470
  C      1.375960   24.389250    0.314580
  C      1.364190   22.972000    0.323930
  C      2.349020   22.530500    1.281100
  O      2.697030   21.428610    1.648800
  N      2.903670   23.731030    1.791090
  C      3.947590   23.657500    2.783420
  C      5.335960   23.761520    2.155390
  C      2.331900   24.839000    1.214960
  C      2.583720   26.234520    1.448510
  C      3.523210   26.828030    2.186180
  H     -2.505860   -3.300830   -0.286060
  H     -5.042230   -1.500490    1.829570
  H     -4.065480   -2.992210    1.848030
  H     -6.240220   -2.286530   -0.192490
  H     -6.388320   -3.479700    1.101060
  H     -5.262010   -3.757950   -0.232300
  H      0.565790   -0.002610   -3.622880
  H      0.541700    1.622420   -2.922480
  H     -1.439570    0.500120   -4.980510
  H     -0.160050    1.669190   -5.315400
  H     -1.535020    2.127740   -4.303760
  H     -3.257270    2.521450   -1.141120
  H     -0.499370    3.247550   -2.271200
  H     -3.174440    8.996810   -1.602980
  H     -0.115680    8.720890   -1.867460
  H     -2.614020   14.642130   -1.881030
  H      0.364130   15.115130   -1.333990
  H     -1.826270   21.110160   -1.689080
  H      0.875390   20.501580   -0.348000
  H     -1.125790   22.835340   -2.797270
  H     -1.034840   24.609170   -2.703420
  H     -2.806980   22.937810   -0.849890
  H     -3.368280   23.781770   -2.300640
  H     -2.708150   24.696980   -0.942000
  H      3.842780   22.675660    3.256040
  H      3.786580   24.428450    3.540040
  H      5.494530   22.925170    1.479060
  H      6.095990   23.728740    2.931440
  H      5.444700   24.685220    1.591270
  H      1.881090   26.854710    0.904750
  H      4.281600   26.304750    2.738550
  H      3.559990   27.902560    2.244700

 Total Charge           Charge          ....    0
 Multiplicity           Mult            ....    1
 Number of Electrons    NEL             ....  398
 Basis Dimension        Dim             ....  914

ORBITAL ENERGIES
----------------

  NO   OCC          E(Eh)            E(eV)
   0   2.0000     -88.978236     -2421.2209
   1   2.0000     -88.975963     -2421.1590
   2   2.0000     -88.975188     -2421.1380
   3   2.0000     -19.192998      -522.2680
   4   2.0000     -19.192799      -522.2626
   5   2.0000     -19.188324      -522.1408
   6   2.0000     -19.185916      -522.0753
   7   2.0000     -14.455525      -393.3548
   8   2.0000     -14.455016      -393.3410
   9   2.0000     -14.453738      -393.3062
  10   2.0000     -14.451535      -393.2463
  11   2.0000     -14.442610      -393.0034
  12   2.0000     -14.441715      -392.9790
  13   2.0000     -14.441080      -392.9618
  14   2.0000     -14.440547      -392.9473
  15   2.0000     -14.440072      -392.9343
  16   2.0000     -14.439108      -392.9081
  17   2.0000     -10.375648      -282.3357
  18   2.0000     -10.375474      -282.3310
  19   2.0000     -10.372765      -282.2573
  20   2.0000     -10.372420      -282.2479
  21   2.0000     -10.348120      -281.5867
  22   2.0000     -10.347327      -281.5651
  23   2.0000     -10.347183      -281.5612
  24   2.0000     -10.346466      -281.5416
  25   2.0000     -10.345697      -281.5207
  26   2.0000     -10.344909      -281.4993
  27   2.0000     -10.342286      -281.4279
  28   2.0000     -10.342056      -281.4217
  29   2.0000     -10.341350      -281.4024
  30   2.0000     -10.336627      -281.2739
  31   2.0000     -10.310311      -280.5578
  32   2.0000     -10.308075      -280.4970
  33   2.0000     -10.307538      -280.4824
  34   2.0000     -10.307272      -280.4751
  35   2.0000     -10.306887      -280.4647
  36   2.0000     -10.306092      -280.4430
  37   2.0000     -10.305272      -280.4207
  38   2.0000     -10.304617      -280.4029
  39   2.0000     -10.303950      -280.3847
  40   2.0000     -10.302789      -280.3531
  41   2.0000     -10.302104      -280.3345
  42   2.0000     -10.300695      -280.2962
  43   2.0000     -10.292717      -280.0791
  44   2.0000     -10.288369      -279.9608
  45   2.0000     -10.265794      -279.3465
  46   2.0000     -10.264888      -279.3218
  47   2.0000     -10.263830      -279.2930
  48   2.0000     -10.263035      -279.2714
  49   2.0000     -10.262581      -279.2590
  50   2.0000     -10.261172      -279.2207
  51   2.0000     -10.260944      -279.2145
  52   2.0000     -10.259971      -279.1880
  53   2.0000      -8.074361      -219.7145
  54   2.0000      -8.072332      -219.6593
  55   2.0000      -8.071451      -219.6354
  56   2.0000      -6.043000      -164.4384
  57   2.0000      -6.040936      -164.3822
  58   2.0000      -6.040084      -164.3590
  59   2.0000      -6.039711      -164.3489
  60   2.0000      -6.037736      -164.2952
  61   2.0000      -6.036787      -164.2693
  62   2.0000      -6.036748      -164.2683
  63   2.0000      -6.034652      -164.2112
  64   2.0000      -6.033787      -164.1877
  65   2.0000      -1.146959       -31.2103
  66   2.0000      -1.145589       -31.1730
  67   2.0000      -1.144856       -31.1531
  68   2.0000      -1.133570       -30.8460
  69   2.0000      -1.133077       -30.8326
  70   2.0000      -1.126259       -30.6471
  71   2.0000      -1.125459       -30.6253
  72   2.0000      -1.063844       -28.9487
  73   2.0000      -1.063091       -28.9282
  74   2.0000      -1.054057       -28.6824
  75   2.0000      -1.053260       -28.6607
  76   2.0000      -0.962293       -26.1853
  77   2.0000      -0.954819       -25.9819
  78   2.0000      -0.944904       -25.7121
  79   2.0000      -0.938775       -25.5454
  80   2.0000      -0.929471       -25.2922
  81   2.0000      -0.928140       -25.2560
  82   2.0000      -0.923953       -25.1420
  83   2.0000      -0.918081       -24.9822
  84   2.0000      -0.896175       -24.3862
  85   2.0000      -0.888962       -24.1899
  86   2.0000      -0.885043       -24.0833
  87   2.0000      -0.872288       -23.7362
  88   2.0000      -0.870694       -23.6928
  89   2.0000      -0.865674       -23.5562
  90   2.0000      -0.852730       -23.2040
  91   2.0000      -0.820909       -22.3381
  92   2.0000      -0.820447       -22.3255
  93   2.0000      -0.817319       -22.2404
  94   2.0000      -0.812087       -22.0980
  95   2.0000      -0.787203       -21.4209
  96   2.0000      -0.783306       -21.3148
  97   2.0000      -0.770046       -20.9540
  98   2.0000      -0.761264       -20.7150
  99   2.0000      -0.760405       -20.6917
 100   2.0000      -0.753077       -20.4923
 101   2.0000      -0.722225       -19.6527
 102   2.0000      -0.720553       -19.6072
 103   2.0000      -0.710944       -19.3458
 104   2.0000      -0.710562       -19.3354
 105   2.0000      -0.704694       -19.1757
 106   2.0000      -0.686687       -18.6857
 107   2.0000      -0.683804       -18.6072
 108   2.0000      -0.681374       -18.5411
 109   2.0000      -0.678935       -18.4748
 110   2.0000      -0.673301       -18.3214
 111   2.0000      -0.656862       -17.8741
 112   2.0000      -0.652781       -17.7631
 113   2.0000      -0.649921       -17.6852
 114   2.0000      -0.640726       -17.4350
 115   2.0000      -0.620065       -16.8728
 116   2.0000      -0.603554       -16.4235
 117   2.0000      -0.599813       -16.3218
 118   2.0000      -0.595738       -16.2109
 119   2.0000      -0.590449       -16.0669
 120   2.0000      -0.588219       -16.0062
 121   2.0000      -0.584867       -15.9150
 122   2.0000      -0.582364       -15.8469
 123   2.0000      -0.575690       -15.6653
 124   2.0000      -0.574302       -15.6275
 125   2.0000      -0.574058       -15.6209
 126   2.0000      -0.569646       -15.5008
 127   2.0000      -0.563191       -15.3252
 128   2.0000      -0.552601       -15.0370
 129   2.0000      -0.548904       -14.9364
 130   2.0000      -0.548031       -14.9127
 131   2.0000      -0.546335       -14.8665
 132   2.0000      -0.544664       -14.8211
 133   2.0000      -0.544095       -14.8056
 134   2.0000      -0.541479       -14.7344
 135   2.0000      -0.532209       -14.4821
 136   2.0000      -0.530757       -14.4426
 137   2.0000      -0.529967       -14.4211
 138   2.0000      -0.524316       -14.2674
 139   2.0000      -0.519376       -14.1329
 140   2.0000      -0.518173       -14.1002
 141   2.0000      -0.516841       -14.0640
 142   2.0000      -0.513594       -13.9756
 143   2.0000      -0.509938       -13.8761
 144   2.0000      -0.506208       -13.7746
 145   2.0000      -0.505440       -13.7537
 146   2.0000      -0.503840       -13.7102
 147   2.0000      -0.501532       -13.6474
 148   2.0000      -0.498699       -13.5703
 149   2.0000      -0.495638       -13.4870
 150   2.0000      -0.492515       -13.4020
 151   2.0000      -0.482054       -13.1173
 152   2.0000      -0.476487       -12.9659
 153   2.0000      -0.476399       -12.9635
 154   2.0000      -0.471542       -12.8313
 155   2.0000      -0.467810       -12.7298
 156   2.0000      -0.465632       -12.6705
 157   2.0000      -0.464806       -12.6480
 158   2.0000      -0.462463       -12.5843
 159   2.0000      -0.459174       -12.4948
 160   2.0000      -0.458728       -12.4826
 161   2.0000      -0.454791       -12.3755
 162   2.0000      -0.454045       -12.3552
 163   2.0000      -0.452694       -12.3184
 164   2.0000      -0.451284       -12.2801
 165   2.0000      -0.450580       -12.2609
 166   2.0000      -0.449954       -12.2439
 167   2.0000      -0.443615       -12.0714
 168   2.0000      -0.435960       -11.8631
 169   2.0000      -0.434546       -11.8246
 170   2.0000      -0.432891       -11.7796
 171   2.0000      -0.425562       -11.5801
 172   2.0000      -0.423220       -11.5164
 173   2.0000      -0.419955       -11.4276
 174   2.0000      -0.415794       -11.3143
 175   2.0000      -0.406827       -11.0703
 176   2.0000      -0.398218       -10.8361
 177   2.0000      -0.396185       -10.7808
 178   2.0000      -0.391802       -10.6615
 179   2.0000      -0.389915       -10.6101
 180   2.0000      -0.387594       -10.5470
 181   2.0000      -0.376790       -10.2530
 182   2.0000      -0.376356       -10.2412
 183   2.0000      -0.356313        -9.6958
 184   2.0000      -0.352967        -9.6047
 185   2.0000      -0.348482        -9.4827
 186   2.0000      -0.346462        -9.4277
 187   2.0000      -0.338404        -9.2084
 188   2.0000      -0.331113        -9.0100
 189   2.0000      -0.330241        -8.9863
 190   2.0000      -0.329859        -8.9759
 191   2.0000      -0.326385        -8.8814
 192   2.0000      -0.325624        -8.8607
 193   2.0000      -0.316126        -8.6022
 194   2.0000      -0.315704        -8.5908
 195   2.0000      -0.310630        -8.4527
 196   2.0000      -0.282738        -7.6937
 197   2.0000      -0.250498        -6.8164
 198   2.0000      -0.243989        -6.6393
 199   0.0000      -0.095410        -2.5962
 200   0.0000      -0.083858        -2.2819
 201   0.0000      -0.062144        -1.6910
 202   0.0000      -0.034344        -0.9346
 203   0.0000      -0.008021        -0.2183

MULLIKEN ATOMIC CHARGES
-----------------------
   0 C :    0.059270
   1 N :   -0.268172
   2 C :    0.109220
   3 C :   -0.003345
   4 C :    0.161352
   5 O :   -0.177420
   6 C :   -0.058737
   7 C :   -0.008485
   8 C :    0.166866
   9 O :   -0.186675
  10 N :   -0.280961
  11 C :    0.099208
  12 C :   -0.006046
  13 C :    0.119645
  14 C :   -0.017758
  15 C :    0.079297
  16 C :   -0.110423
  17 S :    0.087325
  18 C :   -0.082185
  19 N :   -0.035513
  20 N :   -0.040292
  21 C :    0.047439
  22 C :    0.041889
  23 C :   -0.087258
  24 S :    0.107679
  25 C :   -0.088678
  26 N :   -0.054723
  27 N :   -0.037819
  28 C :    0.063884
  29 C :    0.069674
  30 C :   -0.090522
  31 S :    0.111032
  32 C :   -0.094502
  33 N :   -0.038854
  34 N :   -0.049945
  35 C :    0.057118
  36 C :   -0.040734
  37 C :    0.112059
  38 N :   -0.267642
  39 C :    0.099873
  40 C :    0.001635
  41 C :    0.148757
  42 O :   -0.194282
  43 C :   -0.040580
  44 C :   -0.034038
  45 C :    0.144562
  46 O :   -0.190918
  47 N :   -0.266793
  48 C :    0.096768
  49 C :    0.003103
  50 C :    0.082677
  51 C :   -0.021370
  52 C :   -0.005358
  53 H :    0.020339
  54 H :    0.044933
  55 H :    0.019852
  56 H :    0.033014
  57 H :    0.025113
  58 H :    0.014831
  59 H :    0.046727
  60 H :    0.022436
  61 H :    0.026480
  62 H :    0.022180
  63 H :    0.026791
  64 H :    0.041907
  65 H :   -0.017640
  66 H :    0.020813
  67 H :    0.021420
  68 H :    0.022404
  69 H :    0.024681
  70 H :    0.010057
  71 H :    0.021066
  72 H :    0.025705
  73 H :    0.038941
  74 H :    0.020923
  75 H :    0.025325
  76 H :    0.032453
  77 H :    0.041112
  78 H :    0.023989
  79 H :    0.029839
  80 H :    0.022438
  81 H :    0.018877
  82 H :    0.019247
  83 H :    0.025218
  84 H :    0.038223
Sum of atomic charges:   -0.0000000

LOEWDIN ATOMIC CHARGES
----------------------
   0 C :    0.104650
   1 N :   -0.003655
   2 C :    0.038107
   3 C :   -0.060470
   4 C :    0.080078
   5 O :   -0.180816
   6 C :   -0.109163
   7 C :   -0.134673
   8 C :    0.082675
   9 O :   -0.189226
  10 N :   -0.014159
  11 C :    0.034165
  12 C :   -0.063505
  13 C :    0.070538
  14 C :    0.013941
  15 C :   -0.045601
  16 C :   -0.141696
  17 S :    0.382794
  18 C :   -0.147841
  19 N :   -0.064947
  20 N :   -0.071217
  21 C :   -0.028978
  22 C :   -0.031146
  23 C :   -0.149808
  24 S :    0.394760
  25 C :   -0.143780
  26 N :   -0.076197
  27 N :   -0.067671
  28 C :   -0.018656
  29 C :   -0.014655
  30 C :   -0.147110
  31 S :    0.403033
  32 C :   -0.148242
  33 N :   -0.070730
  34 N :   -0.075035
  35 C :   -0.028326
  36 C :   -0.019747
  37 C :    0.070079
  38 N :   -0.004872
  39 C :    0.035315
  40 C :   -0.062459
  41 C :    0.080769
  42 O :   -0.196674
  43 C :   -0.123278
  44 C :   -0.114438
  45 C :    0.081710
  46 O :   -0.192338
  47 N :   -0.004174
  48 C :    0.035204
  49 C :   -0.062842
  50 C :    0.080954
  51 C :   -0.029550
  52 C :   -0.013505
  53 H :    0.034956
  54 H :    0.037423
  55 H :    0.025084
  56 H :    0.032527
  57 H :    0.030923
  58 H :    0.022264
  59 H :    0.038222
  60 H :    0.017106
  61 H :    0.031562
  62 H :    0.030910
  63 H :    0.022646
  64 H :    0.056130
  65 H :    0.029865
  66 H :    0.042074
  67 H :    0.040529
  68 H :    0.042288
  69 H :    0.042444
  70 H :    0.044252
  71 H :    0.041017
  72 H :    0.024222
  73 H :    0.036699
  74 H :    0.021525
  75 H :    0.031513
  76 H :    0.033838
  77 H :    0.036933
  78 H :    0.022680
  79 H :    0.032972
  80 H :    0.030258
  81 H :    0.021844
  82 H :    0.049756
  83 H :    0.023600
  84 H :    0.034346

  Mayer bond orders larger than 0.100000
B(  0-C ,  1-N ) :   1.2040 B(  0-C ,  7-C ) :   1.4483 B(  0-C , 53-H ) :   0.9887
B(  1-N ,  2-C ) :   0.9400 B(  1-N ,  4-C ) :   1.0201 B(  2-C ,  3-C ) :   1.1173
B(  2-C , 54-H ) :   0.9348 B(  2-C , 55-H ) :   0.9544 B(  3-C , 56-H ) :   0.9680
B(  3-C , 57-H ) :   0.9691 B(  3-C , 58-H ) :   0.9689 B(  4-C ,  5-O ) :   2.1497
B(  4-C ,  6-C ) :   0.9773 B(  6-C ,  7-C ) :   1.1957 B(  6-C , 13-C ) :   1.4174
B(  7-C ,  8-C ) :   0.9596 B(  8-C ,  9-O ) :   2.1665 B(  8-C , 10-N ) :   1.0169
B( 10-N , 11-C ) :   0.9471 B( 10-N , 13-C ) :   1.1603 B( 11-C , 12-C ) :   1.1146
B( 11-C , 59-H ) :   0.9221 B( 11-C , 60-H ) :   0.9500 B( 12-C , 61-H ) :   0.9634
B( 12-C , 62-H ) :   0.9671 B( 12-C , 63-H ) :   0.9665 B( 13-C , 14-C ) :   1.1353
B( 14-C , 15-C ) :   1.6655 B( 14-C , 64-H ) :   0.9550 B( 15-C , 16-C ) :   1.1001
B( 15-C , 65-H ) :   0.9471 B( 16-C , 17-S ) :   1.0938 B( 16-C , 20-N ) :   1.6916
B( 17-S , 18-C ) :   1.0888 B( 18-C , 19-N ) :   1.6678 B( 18-C , 21-C ) :   1.1273
B( 19-N , 20-N ) :   1.2258 B( 21-C , 22-C ) :   1.6382 B( 21-C , 66-H ) :   0.9790
B( 22-C , 23-C ) :   1.1289 B( 22-C , 67-H ) :   0.9752 B( 23-C , 24-S ) :   1.0934
B( 23-C , 27-N ) :   1.6645 B( 24-S , 25-C ) :   1.0937 B( 25-C , 26-N ) :   1.6864
B( 25-C , 28-C ) :   1.0834 B( 26-N , 27-N ) :   1.2283 B( 28-C , 29-C ) :   1.7639
B( 28-C , 68-H ) :   0.9573 B( 29-C , 30-C ) :   1.0848 B( 29-C , 69-H ) :   0.9516
B( 30-C , 31-S ) :   1.0965 B( 30-C , 34-N ) :   1.6842 B( 31-S , 32-C ) :   1.0982
B( 32-C , 33-N ) :   1.6631 B( 32-C , 35-C ) :   1.1180 B( 33-N , 34-N ) :   1.2338
B( 35-C , 36-C ) :   1.5904 B( 35-C , 70-H ) :   0.9810 B( 36-C , 37-C ) :   1.1738
B( 36-C , 71-H ) :   0.9457 B( 37-C , 38-N ) :   1.1771 B( 37-C , 44-C ) :   1.3706
B( 38-N , 39-C ) :   0.9416 B( 38-N , 41-C ) :   1.0301 B( 39-C , 40-C ) :   1.1175
B( 39-C , 72-H ) :   0.9512 B( 39-C , 73-H ) :   0.9284 B( 40-C , 74-H ) :   0.9662
B( 40-C , 75-H ) :   0.9685 B( 40-C , 76-H ) :   0.9611 B( 41-C , 42-O ) :   2.1287
B( 41-C , 43-C ) :   0.9812 B( 43-C , 44-C ) :   1.2157 B( 43-C , 50-C ) :   1.3811
B( 44-C , 45-C ) :   0.9784 B( 45-C , 46-O ) :   2.1291 B( 45-C , 47-N ) :   1.0304
B( 47-N , 48-C ) :   0.9427 B( 47-N , 50-C ) :   1.1786 B( 48-C , 49-C ) :   1.1159
B( 48-C , 77-H ) :   0.9266 B( 48-C , 78-H ) :   0.9523 B( 49-C , 79-H ) :   0.9619
B( 49-C , 80-H ) :   0.9686 B( 49-C , 81-H ) :   0.9680 B( 50-C , 51-C ) :   1.1518
B( 51-C , 52-C ) :   1.8763 B( 51-C , 82-H ) :   0.9365 B( 52-C , 83-H ) :   0.9598
B( 52-C , 84-H ) :   0.9401

-----------------------------------------------------------------------------
         ABSORPTION SPECTRUM VIA TRANSITION ELECTRIC DIPOLE MOMENTS
-----------------------------------------------------------------------------
State   Energy  Wavelength   fosc         T2         TX        TY        TZ
        (cm-1)    (nm)                  (au**2)     (au)      (au)      (au)
-----------------------------------------------------------------------------
   0   18156.0    550.8   1.179833175  21.39323   2.12432   3.86402   1.39636
   1   20209.6    494.8   0.676221610  11.01554   0.68434   2.96207  -1.33166
   2   24870.6    402.1   0.647818915   8.57519   0.72342  -2.82160   0.30071
   3   25860.1    386.7   0.410383159   5.22437   0.36426   2.12199   0.76736
   4   27243.8    367.1   0.041647841   0.50327  -0.43660  -0.55908  -0.00916
   5   27574.7    362.7   0.260698009   3.11245   0.58744   1.66245  -0.06030
   6   27933.7    358.0   0.019589116   0.23087  -0.16119  -0.45124   0.03563
   7   28022.4    356.9   0.020504385   0.24089  -0.13708  -0.47090  -0.01876
   8   28486.2    351.0   0.005321645   0.06150   0.19762  -0.05605  -0.13895
   9   28811.9    347.1   0.005744190   0.06563   0.07794   0.24193  -0.03210
  10   29319.4    341.1   0.033037598   0.37096  -0.12305  -0.50763   0.31326
  11   29654.4    337.2   0.083166803   0.92329  -0.23466   0.88465  -0.29261
  12   29874.9    334.7   0.058972273   0.64986   0.25754  -0.76212  -0.05200
  13   30156.4    331.6   0.006812957   0.07438  -0.13948   0.23402  -0.01242
  14   30935.9    323.2   0.052284413   0.55640   0.10744  -0.47465  -0.56530
  15   33560.8    298.0   0.008046056   0.07893   0.19210   0.05819   0.19657
  16   34133.0    293.0   0.050753231   0.48951   0.25217  -0.62889  -0.17441
  17   34412.5    290.6   0.005631953   0.05388  -0.06373   0.15049   0.16484
  18   35920.2    278.4   0.040338479   0.36971  -0.51386  -0.15592   0.28521
  19   36630.2    273.0   0.006096226   0.05479  -0.01508   0.13916   0.18761
  20   36799.9    271.7   0.007305630   0.06536  -0.05961  -0.16578  -0.18526
  21   37354.7    267.7   0.067443353   0.59439   0.18365   0.74877   0.00297
  22   37500.6    266.7   0.016380969   0.14381   0.05515   0.32695  -0.18404
  23   37714.7    265.1   0.285173393   2.48928   0.03437   1.56347   0.20895
  24   37898.5    263.9   0.100238259   0.87074  -0.51396  -0.77868  -0.01519
  25   39586.6    252.6   0.033874354   0.28171  -0.13712   0.38393   0.33985
  26   40116.6    249.3   0.016220348   0.13311   0.29722  -0.01687   0.21092
  27   40193.5    248.8   0.007686396   0.06296  -0.19707   0.14702   0.05006

FINAL SINGLE POINT ENERGY     -3430.848514706649

DIPOLE MOMENT
-------------
                                X             Y             Z
Electronic contribution:     -5.93399     -10.79206      -7.99047
Nuclear contribution   :      6.84379      10.95658       8.43883
                        -----------------------------------------
Total Dipole Moment    :      0.90980       0.16452       0.44836
                        -----------------------------------------
Magnitude (a.u.)       :      1.02754
Magnitude (Debye)      :      2.61179

Rotational constants in cm-1:     0.004976     0.000217     0.000215
Rotational constants in MHz :   149.173113     6.515507     6.433882

                             ****ORCA TERMINATED NORMALLY****
TOTAL RUN TIME: 0 days 0 hours 4 minutes 51 seconds 697 msec
