                         Program Version 4.2.0 -  RELEASE  -
|  1> # ORCA input file
|  2> # SCF done       -121.794536148053          0.000623416981
|  3> ! CAM-B3LYP def2-SVP def2/J RIJCOSX Grid4 TightSCF
|  4> %maxcore 5000
|  5> %tddft
|  6>     Mode sTDDFT
|  7>     Ethresh 5.0
|  8>     maxcore 5000
|  9> end
| 10>
| 11> %pal
| 12>   nprocs 6
| 13>   end
| 14> * xyz 0 1
| 15>    C       -1.91954        -0.35847        -2.47409
| 16>    N       -0.79650        -0.28181        -3.25187
| 17>    C        0.27924        -0.14965        -2.42317
| 18>    C        1.66657        -0.02147        -2.38934
| 19>    C        2.01350         0.06071        -1.03692
| 20>    N        0.86509        -0.01438        -0.26992
| 21>    C       -0.20147        -0.14448        -1.09639
| 22>    C       -1.60014        -0.27806        -1.14005
| 23>    C        3.28388         0.19220        -0.42367
| 24>    C        4.46931         0.25286        -1.07590
| 25>    C        5.70574         0.37192        -0.39175
| 26>    S        7.24523         0.40851        -1.25595
| 27>    C        7.98581         0.54104         0.34229
| 28>    N        7.10263         0.55038         1.29722
| 29>    N        5.86191         0.45800         0.89955
| 30>    C        9.39382         0.61980         0.50833
| 31>    C        9.98215         0.72940         1.72045
| 32>    C       11.38377         0.79874         1.92661
| 33>    S       12.50650         0.71742         0.59821
| 34>    C       13.87069         0.83798         1.66959
| 35>    C       13.45422         0.93150         2.98780
| 36>    C       12.05799         0.91992         3.13126
| 37>    C       11.37298         1.00797         4.46045
| 38>    C       12.33207         1.52598         5.54245
| 39>    C       12.57555         2.93884         5.35867
| 40>    N       12.78016         4.05304         5.20918
| 41>    C       13.67658         0.76759         5.47812
| 42>    C       13.43722        -0.65143         5.61254
| 43>    N       13.24974        -1.77365         5.71568
| 44>    C       14.39292         1.05634         4.14995
| 45>    C       15.20685         0.83600         1.17906
| 46>    C       15.53060         0.72226        -0.12514
| 47>    C       16.85730         0.70062        -0.67359
| 48>    C       18.04173         0.85867         0.06180
| 49>    N       19.23784         0.81393        -0.47981
| 50>    C       19.29490         0.60887        -1.80401
| 51>    N       18.23995         0.45802        -2.61518
| 52>    C       17.05687         0.50606        -2.05128
| 53>    N       20.52295         0.55156        -2.35285
| 54>    C       20.85549         0.33024        -3.67665
| 55>    C       20.21705         0.07610        -4.84058
| 56>    S       21.37903        -0.13615        -6.10893
| 57>    C       22.72615         0.12144        -5.03603
| 58>    C       22.28055         0.36076        -3.78282
| 59>    N       22.82372         0.70455        -2.55477
| 60>    C       21.74571         0.70335        -1.57696
| 61>    H       -2.88734        -0.46709        -2.92382
| 62>    H       -0.78023        -0.31837        -4.25588
| 63>    H        2.34748         0.01098        -3.21542
| 64>    H        0.85274         0.02024         0.73484
| 65>    H       -2.28854        -0.31253        -0.32005
| 66>    H        3.30541         0.24266         0.65708
| 67>    H        4.51540         0.20482        -2.15277
| 68>    H        9.99290         0.58477        -0.39093
| 69>    H        9.34767         0.75944         2.59448
| 70>    H       11.01589         0.01421         4.75180
| 71>    H       10.50462         1.66811         4.39429
| 72>    H       11.87576         1.38927         6.53099
| 73>    H       14.31791         1.07911         6.31257
| 74>    H       15.23162         0.36454         4.03371
| 75>    H       14.79837         2.07370         4.18208
| 76>    H       15.98179         0.93228         1.92605
| 77>    H       14.72869         0.62612        -0.84777
| 78>    H       18.03037         1.03151         1.13012
| 79>    H       16.21300         0.38103        -2.71932
| 80>    H       19.16970        -0.00289        -5.03703
| 81>    H       23.72364         0.07752        -5.41921
| 82>    H       23.69715         0.28745        -2.27400
| 83>    H       21.72131         1.65388        -1.02617
| 84>    H       21.82786        -0.11316        -0.84178
| 85> *
| 86>
| 87>                          ****END OF INPUT****

CARTESIAN COORDINATES (ANGSTROEM)
---------------------------------
  C     -1.919540   -0.358470   -2.474090
  N     -0.796500   -0.281810   -3.251870
  C      0.279240   -0.149650   -2.423170
  C      1.666570   -0.021470   -2.389340
  C      2.013500    0.060710   -1.036920
  N      0.865090   -0.014380   -0.269920
  C     -0.201470   -0.144480   -1.096390
  C     -1.600140   -0.278060   -1.140050
  C      3.283880    0.192200   -0.423670
  C      4.469310    0.252860   -1.075900
  C      5.705740    0.371920   -0.391750
  S      7.245230    0.408510   -1.255950
  C      7.985810    0.541040    0.342290
  N      7.102630    0.550380    1.297220
  N      5.861910    0.458000    0.899550
  C      9.393820    0.619800    0.508330
  C      9.982150    0.729400    1.720450
  C     11.383770    0.798740    1.926610
  S     12.506500    0.717420    0.598210
  C     13.870690    0.837980    1.669590
  C     13.454220    0.931500    2.987800
  C     12.057990    0.919920    3.131260
  C     11.372980    1.007970    4.460450
  C     12.332070    1.525980    5.542450
  C     12.575550    2.938840    5.358670
  N     12.780160    4.053040    5.209180
  C     13.676580    0.767590    5.478120
  C     13.437220   -0.651430    5.612540
  N     13.249740   -1.773650    5.715680
  C     14.392920    1.056340    4.149950
  C     15.206850    0.836000    1.179060
  C     15.530600    0.722260   -0.125140
  C     16.857300    0.700620   -0.673590
  C     18.041730    0.858670    0.061800
  N     19.237840    0.813930   -0.479810
  C     19.294900    0.608870   -1.804010
  N     18.239950    0.458020   -2.615180
  C     17.056870    0.506060   -2.051280
  N     20.522950    0.551560   -2.352850
  C     20.855490    0.330240   -3.676650
  C     20.217050    0.076100   -4.840580
  S     21.379030   -0.136150   -6.108930
  C     22.726150    0.121440   -5.036030
  C     22.280550    0.360760   -3.782820
  N     22.823720    0.704550   -2.554770
  C     21.745710    0.703350   -1.576960
  H     -2.887340   -0.467090   -2.923820
  H     -0.780230   -0.318370   -4.255880
  H      2.347480    0.010980   -3.215420
  H      0.852740    0.020240    0.734840
  H     -2.288540   -0.312530   -0.320050
  H      3.305410    0.242660    0.657080
  H      4.515400    0.204820   -2.152770
  H      9.992900    0.584770   -0.390930
  H      9.347670    0.759440    2.594480
  H     11.015890    0.014210    4.751800
  H     10.504620    1.668110    4.394290
  H     11.875760    1.389270    6.530990
  H     14.317910    1.079110    6.312570
  H     15.231620    0.364540    4.033710
  H     14.798370    2.073700    4.182080
  H     15.981790    0.932280    1.926050
  H     14.728690    0.626120   -0.847770
  H     18.030370    1.031510    1.130120
  H     16.213000    0.381030   -2.719320
  H     19.169700   -0.002890   -5.037030
  H     23.723640    0.077520   -5.419210
  H     23.697150    0.287450   -2.274000
  H     21.721310    1.653880   -1.026170
  H     21.827860   -0.113160   -0.841780

 Total Charge           Charge          ....    0
 Multiplicity           Mult            ....    1
 Number of Electrons    NEL             ....  340
 Basis Dimension        Dim             ....  776

ORBITAL ENERGIES
----------------

  NO   OCC          E(Eh)            E(eV)
   0   2.0000     -88.952149     -2420.5110
   1   2.0000     -88.950864     -2420.4761
   2   2.0000     -88.928856     -2419.8772
   3   2.0000     -14.452822      -393.2813
   4   2.0000     -14.448927      -393.1753
   5   2.0000     -14.448046      -393.1513
   6   2.0000     -14.419840      -392.3838
   7   2.0000     -14.417652      -392.3243
   8   2.0000     -14.413172      -392.2023
   9   2.0000     -14.412071      -392.1724
  10   2.0000     -14.411549      -392.1582
  11   2.0000     -14.409106      -392.0917
  12   2.0000     -14.406574      -392.0228
  13   2.0000     -10.374100      -282.2936
  14   2.0000     -10.340207      -281.3713
  15   2.0000     -10.338798      -281.3330
  16   2.0000     -10.337906      -281.3087
  17   2.0000     -10.323147      -280.9071
  18   2.0000     -10.322288      -280.8837
  19   2.0000     -10.321261      -280.8558
  20   2.0000     -10.320974      -280.8480
  21   2.0000     -10.310589      -280.5654
  22   2.0000     -10.310053      -280.5508
  23   2.0000     -10.302587      -280.3477
  24   2.0000     -10.300085      -280.2796
  25   2.0000     -10.299084      -280.2523
  26   2.0000     -10.297370      -280.2057
  27   2.0000     -10.296657      -280.1863
  28   2.0000     -10.296019      -280.1689
  29   2.0000     -10.291274      -280.0398
  30   2.0000     -10.291116      -280.0355
  31   2.0000     -10.284922      -279.8670
  32   2.0000     -10.284760      -279.8625
  33   2.0000     -10.283838      -279.8375
  34   2.0000     -10.283663      -279.8327
  35   2.0000     -10.283583      -279.8305
  36   2.0000     -10.281955      -279.7862
  37   2.0000     -10.280505      -279.7468
  38   2.0000     -10.279754      -279.7263
  39   2.0000     -10.278402      -279.6895
  40   2.0000     -10.278184      -279.6836
  41   2.0000     -10.272099      -279.5180
  42   2.0000     -10.268477      -279.4195
  43   2.0000     -10.266812      -279.3742
  44   2.0000     -10.256282      -279.0876
  45   2.0000     -10.251408      -278.9550
  46   2.0000      -8.047502      -218.9837
  47   2.0000      -8.047496      -218.9835
  48   2.0000      -8.024485      -218.3573
  49   2.0000      -6.016628      -163.7208
  50   2.0000      -6.016190      -163.7089
  51   2.0000      -6.012968      -163.6212
  52   2.0000      -6.012868      -163.6185
  53   2.0000      -6.009672      -163.5315
  54   2.0000      -6.009618      -163.5300
  55   2.0000      -5.994347      -163.1145
  56   2.0000      -5.989781      -162.9902
  57   2.0000      -5.985970      -162.8865
  58   2.0000      -1.118272       -30.4297
  59   2.0000      -1.117246       -30.4018
  60   2.0000      -1.078127       -29.3373
  61   2.0000      -1.069260       -29.0961
  62   2.0000      -1.041451       -28.3393
  63   2.0000      -1.015320       -27.6283
  64   2.0000      -0.996710       -27.1218
  65   2.0000      -0.990821       -26.9616
  66   2.0000      -0.989442       -26.9241
  67   2.0000      -0.981352       -26.7040
  68   2.0000      -0.952311       -25.9137
  69   2.0000      -0.947912       -25.7940
  70   2.0000      -0.930910       -25.3313
  71   2.0000      -0.917430       -24.9645
  72   2.0000      -0.906168       -24.6581
  73   2.0000      -0.890018       -24.2186
  74   2.0000      -0.873312       -23.7640
  75   2.0000      -0.864266       -23.5179
  76   2.0000      -0.859082       -23.3768
  77   2.0000      -0.852828       -23.2066
  78   2.0000      -0.845745       -23.0139
  79   2.0000      -0.836656       -22.7666
  80   2.0000      -0.820171       -22.3180
  81   2.0000      -0.806202       -21.9379
  82   2.0000      -0.791651       -21.5419
  83   2.0000      -0.780364       -21.2348
  84   2.0000      -0.775245       -21.0955
  85   2.0000      -0.753732       -20.5101
  86   2.0000      -0.750415       -20.4198
  87   2.0000      -0.746845       -20.3227
  88   2.0000      -0.726744       -19.7757
  89   2.0000      -0.726212       -19.7612
  90   2.0000      -0.703525       -19.1439
  91   2.0000      -0.685685       -18.6584
  92   2.0000      -0.682439       -18.5701
  93   2.0000      -0.680274       -18.5112
  94   2.0000      -0.676098       -18.3976
  95   2.0000      -0.663861       -18.0646
  96   2.0000      -0.653344       -17.7784
  97   2.0000      -0.646199       -17.5840
  98   2.0000      -0.639884       -17.4121
  99   2.0000      -0.636408       -17.3175
 100   2.0000      -0.617209       -16.7951
 101   2.0000      -0.612221       -16.6594
 102   2.0000      -0.610258       -16.6060
 103   2.0000      -0.599991       -16.3266
 104   2.0000      -0.597417       -16.2565
 105   2.0000      -0.587701       -15.9922
 106   2.0000      -0.586157       -15.9501
 107   2.0000      -0.577554       -15.7160
 108   2.0000      -0.569706       -15.5025
 109   2.0000      -0.562577       -15.3085
 110   2.0000      -0.554118       -15.0783
 111   2.0000      -0.547439       -14.8966
 112   2.0000      -0.543337       -14.7849
 113   2.0000      -0.539954       -14.6929
 114   2.0000      -0.531627       -14.4663
 115   2.0000      -0.527979       -14.3670
 116   2.0000      -0.522712       -14.2237
 117   2.0000      -0.522518       -14.2184
 118   2.0000      -0.521638       -14.1945
 119   2.0000      -0.519079       -14.1248
 120   2.0000      -0.517004       -14.0684
 121   2.0000      -0.513531       -13.9739
 122   2.0000      -0.508830       -13.8460
 123   2.0000      -0.506707       -13.7882
 124   2.0000      -0.502522       -13.6743
 125   2.0000      -0.500915       -13.6306
 126   2.0000      -0.495170       -13.4742
 127   2.0000      -0.492105       -13.3909
 128   2.0000      -0.484099       -13.1730
 129   2.0000      -0.478837       -13.0298
 130   2.0000      -0.473963       -12.8972
 131   2.0000      -0.468579       -12.7507
 132   2.0000      -0.462470       -12.5844
 133   2.0000      -0.460914       -12.5421
 134   2.0000      -0.458413       -12.4740
 135   2.0000      -0.457467       -12.4483
 136   2.0000      -0.457306       -12.4439
 137   2.0000      -0.452832       -12.3222
 138   2.0000      -0.444554       -12.0969
 139   2.0000      -0.443485       -12.0678
 140   2.0000      -0.442048       -12.0287
 141   2.0000      -0.436759       -11.8848
 142   2.0000      -0.436626       -11.8812
 143   2.0000      -0.433977       -11.8091
 144   2.0000      -0.430360       -11.7107
 145   2.0000      -0.427814       -11.6414
 146   2.0000      -0.416756       -11.3405
 147   2.0000      -0.416580       -11.3357
 148   2.0000      -0.403913       -10.9910
 149   2.0000      -0.401671       -10.9300
 150   2.0000      -0.400213       -10.8904
 151   2.0000      -0.395835       -10.7712
 152   2.0000      -0.394814       -10.7434
 153   2.0000      -0.393819       -10.7164
 154   2.0000      -0.387165       -10.5353
 155   2.0000      -0.373804       -10.1717
 156   2.0000      -0.369717       -10.0605
 157   2.0000      -0.362384        -9.8610
 158   2.0000      -0.351033        -9.5521
 159   2.0000      -0.345498        -9.4015
 160   2.0000      -0.323470        -8.8021
 161   2.0000      -0.322955        -8.7880
 162   2.0000      -0.314974        -8.5709
 163   2.0000      -0.304998        -8.2994
 164   2.0000      -0.299140        -8.1400
 165   2.0000      -0.278537        -7.5794
 166   2.0000      -0.272776        -7.4226
 167   2.0000      -0.253203        -6.8900
 168   2.0000      -0.233926        -6.3655
 169   2.0000      -0.219146        -5.9633
 170   0.0000      -0.060892        -1.6570
 171   0.0000      -0.025153        -0.6845
 172   0.0000      -0.000259        -0.0070
 173   0.0000       0.005116         0.1392
 174   0.0000       0.037883         1.0309

MULLIKEN ATOMIC CHARGES
-----------------------
   0 C :    0.065276
   1 N :   -0.041968
   2 C :    0.097694
   3 C :   -0.158698
   4 C :    0.090865
   5 N :   -0.033508
   6 C :    0.088495
   7 C :   -0.131082
   8 C :    0.026126
   9 C :    0.025737
  10 C :   -0.094307
  11 S :    0.066141
  12 C :   -0.111442
  13 N :   -0.051840
  14 N :   -0.065112
  15 C :    0.054793
  16 C :   -0.008574
  17 C :   -0.083736
  18 S :    0.095594
  19 C :   -0.074813
  20 C :   -0.072698
  21 C :   -0.050314
  22 C :    0.140563
  23 C :   -0.074884
  24 C :   -0.243338
  25 N :    0.139601
  26 C :   -0.076138
  27 C :   -0.245920
  28 N :    0.144781
  29 C :    0.135003
  30 C :   -0.008841
  31 C :    0.011372
  32 C :   -0.008588
  33 C :    0.044976
  34 N :   -0.108689
  35 C :    0.034162
  36 N :   -0.088348
  37 C :    0.042327
  38 N :   -0.199655
  39 C :    0.194134
  40 C :   -0.187966
  41 S :    0.063415
  42 C :   -0.241429
  43 C :    0.168874
  44 N :   -0.190203
  45 C :    0.312787
  46 H :   -0.006384
  47 H :    0.123087
  48 H :   -0.038126
  49 H :    0.119878
  50 H :   -0.034388
  51 H :   -0.003992
  52 H :   -0.023352
  53 H :   -0.010595
  54 H :    0.012597
  55 H :    0.057091
  56 H :    0.048739
  57 H :    0.052875
  58 H :    0.052861
  59 H :    0.042680
  60 H :    0.053293
  61 H :   -0.017968
  62 H :   -0.010307
  63 H :   -0.001205
  64 H :    0.000688
  65 H :    0.015600
  66 H :    0.000714
  67 H :    0.125918
  68 H :    0.027970
  69 H :    0.021705
Sum of atomic charges:    0.0000000

LOEWDIN ATOMIC CHARGES
----------------------
   0 C :    0.002530
   1 N :    0.064791
   2 C :   -0.036645
   3 C :   -0.082192
   4 C :   -0.021216
   5 N :    0.075322
   6 C :   -0.025048
   7 C :   -0.112180
   8 C :    0.014983
   9 C :   -0.086289
  10 C :   -0.140088
  11 S :    0.357106
  12 C :   -0.155782
  13 N :   -0.083061
  14 N :   -0.096942
  15 C :   -0.064934
  16 C :   -0.007485
  17 C :   -0.168861
  18 S :    0.435738
  19 C :   -0.158691
  20 C :   -0.066386
  21 C :   -0.054971
  22 C :   -0.006159
  23 C :   -0.034338
  24 C :   -0.035016
  25 N :   -0.053379
  26 C :   -0.034632
  27 C :   -0.036013
  28 N :   -0.052422
  29 C :   -0.007991
  30 C :   -0.049382
  31 C :   -0.017122
  32 C :   -0.107388
  33 C :    0.064081
  34 N :   -0.116424
  35 C :    0.058766
  36 N :   -0.105808
  37 C :    0.059924
  38 N :    0.001536
  39 C :   -0.026424
  40 C :   -0.209033
  41 S :    0.395101
  42 C :   -0.243488
  43 C :   -0.023397
  44 N :   -0.059153
  45 C :    0.129957
  46 H :    0.018724
  47 H :    0.088377
  48 H :    0.021676
  49 H :    0.088955
  50 H :    0.023209
  51 H :    0.035867
  52 H :    0.025625
  53 H :    0.022883
  54 H :    0.039701
  55 H :    0.047558
  56 H :    0.045499
  57 H :    0.061462
  58 H :    0.061151
  59 H :    0.041435
  60 H :    0.044974
  61 H :    0.027518
  62 H :    0.022923
  63 H :    0.022624
  64 H :    0.025038
  65 H :    0.023223
  66 H :    0.018130
  67 H :    0.077446
  68 H :    0.019982
  69 H :    0.014521

  Mayer bond orders larger than 0.100000
B(  0-C ,  1-N ) :   1.2005 B(  0-C ,  7-C ) :   1.4941 B(  0-C , 46-H ) :   0.9865
B(  1-N ,  2-C ) :   1.1580 B(  1-N , 47-H ) :   0.9449 B(  2-C ,  3-C ) :   1.2660
B(  2-C ,  6-C ) :   1.3432 B(  3-C ,  4-C ) :   1.4034 B(  3-C , 48-H ) :   1.0296
B(  4-C ,  5-N ) :   1.1679 B(  4-C ,  8-C ) :   1.1068 B(  5-N ,  6-C ) :   1.1808
B(  5-N , 49-H ) :   0.9385 B(  6-C ,  7-C ) :   1.2390 B(  7-C , 50-H ) :   1.0374
B(  8-C ,  9-C ) :   1.6901 B(  8-C , 51-H ) :   0.9699 B(  9-C , 10-C ) :   1.1187
B(  9-C , 52-H ) :   0.9514 B( 10-C , 11-S ) :   1.0783 B( 10-C , 14-N ) :   1.6791
B( 11-S , 12-C ) :   1.0690 B( 12-C , 13-N ) :   1.6982 B( 12-C , 15-C ) :   1.1103
B( 13-N , 14-N ) :   1.2101 B( 15-C , 16-C ) :   1.6918 B( 15-C , 53-H ) :   0.9491
B( 16-C , 17-C ) :   1.1489 B( 16-C , 54-H ) :   0.9716 B( 17-C , 18-S ) :   1.1006
B( 17-C , 21-C ) :   1.4975 B( 18-S , 19-C ) :   1.1118 B( 19-C , 20-C ) :   1.5031
B( 19-C , 30-C ) :   1.1614 B( 20-C , 21-C ) :   1.3094 B( 20-C , 29-C ) :   1.0337
B( 21-C , 22-C ) :   1.0348 B( 22-C , 23-C ) :   1.0609 B( 22-C , 55-H ) :   0.9037
B( 22-C , 56-H ) :   0.9144 B( 23-C , 24-C ) :   1.1045 B( 23-C , 26-C ) :   1.0771
B( 23-C , 57-H ) :   0.8576 B( 24-C , 25-N ) :   3.1053 B( 26-C , 27-C ) :   1.1075
B( 26-C , 29-C ) :   1.0624 B( 26-C , 58-H ) :   0.8587 B( 27-C , 28-N ) :   3.1073
B( 29-C , 59-H ) :   0.9133 B( 29-C , 60-H ) :   0.9044 B( 30-C , 31-C ) :   1.6846
B( 30-C , 61-H ) :   0.9604 B( 31-C , 32-C ) :   1.0846 B( 31-C , 62-H ) :   0.9778
B( 32-C , 33-C ) :   1.3002 B( 32-C , 37-C ) :   1.2966 B( 33-C , 34-N ) :   1.6018
B( 33-C , 63-H ) :   0.9841 B( 34-N , 35-C ) :   1.4221 B( 35-C , 36-N ) :   1.4657
B( 35-C , 38-N ) :   1.1700 B( 36-N , 37-C ) :   1.5890 B( 37-C , 64-H ) :   0.9880
B( 38-N , 39-C ) :   1.0181 B( 38-N , 45-C ) :   0.9486 B( 39-C , 40-C ) :   1.5758
B( 39-C , 43-C ) :   1.2332 B( 40-C , 41-S ) :   1.1104 B( 40-C , 65-H ) :   0.9792
B( 41-S , 42-C ) :   1.0923 B( 42-C , 43-C ) :   1.5461 B( 42-C , 66-H ) :   0.9968
B( 43-C , 44-N ) :   1.1108 B( 44-N , 45-C ) :   1.0112 B( 44-N , 67-H ) :   0.9369
B( 45-C , 68-H ) :   0.9516 B( 45-C , 69-H ) :   0.9532

-----------------------------------------------------------------------------
         ABSORPTION SPECTRUM VIA TRANSITION ELECTRIC DIPOLE MOMENTS
-----------------------------------------------------------------------------
State   Energy  Wavelength   fosc         T2         TX        TY        TZ
        (cm-1)    (nm)                  (au**2)     (au)      (au)      (au)
-----------------------------------------------------------------------------
   0   20199.2    495.1   2.140156000  34.88082   5.89923   0.22954   0.16501
   1   24940.3    401.0   0.289913325   3.82685  -0.68040   0.27212   1.81380
   2   28568.4    350.0   0.328868004   3.78976  -1.40147  -0.25103  -1.32764
   3   29324.5    341.0   0.000845214   0.00949  -0.01511  -0.03287  -0.09044
   4   30585.0    327.0   0.000301374   0.00324   0.03371  -0.04568   0.00456
   5   30864.0    324.0   0.064336235   0.68624  -0.55720  -0.12425  -0.60027
   6   33122.7    301.9   0.344073773   3.41980  -1.67644   0.03542   0.77981
   7   33873.9    295.2   0.113248544   1.10063  -0.44491   0.10390   0.94440
   8   35240.5    283.8   0.072742008   0.67955  -0.55216  -0.01125   0.61199
   9   35996.8    277.8   0.008903260   0.08143   0.18314  -0.02427  -0.21748
  10   36944.3    270.7   0.116615602   1.03917  -0.17451   0.14716   0.99351
  11   37056.9    269.9   0.001405104   0.01248  -0.01846  -0.06770  -0.08694
  12   37658.8    265.5   0.053868051   0.47091   0.18022  -0.10594  -0.65361
  13   38445.6    260.1   0.107328366   0.91906  -0.21317   0.04669   0.93351
  14   38880.1    257.2   0.005753831   0.04872  -0.01584   0.21942  -0.01797
  15   39561.6    252.8   0.001824936   0.01519  -0.04501  -0.03674  -0.10868
  16   40103.3    249.4   0.180040984   1.47798   0.00314  -0.15864  -1.20532

FINAL SINGLE POINT ENERGY     -3011.304483772961

DIPOLE MOMENT
-------------
                                X             Y             Z
Electronic contribution:      8.02752      -0.32314      -9.22622
Nuclear contribution   :     -8.63213      -0.02571       8.79312
                        -----------------------------------------
Total Dipole Moment    :     -0.60461      -0.34885      -0.43310
                        -----------------------------------------
Magnitude (a.u.)       :      0.82148
Magnitude (Debye)      :      2.08804

Rotational constants in cm-1:     0.002541     0.000480     0.000411
Rotational constants in MHz :    76.184901    14.399213    12.307906

                             ****ORCA TERMINATED NORMALLY****
TOTAL RUN TIME: 0 days 0 hours 3 minutes 36 seconds 538 msec
