                         Program Version 4.2.0 -  RELEASE  -
|  1> # ORCA input file
|  2> # SCF done       -187.731283669816          0.000415948877
|  3> ! CAM-B3LYP def2-SVP def2/J RIJCOSX Grid4 TightSCF
|  4> %maxcore 5000
|  5> %tddft
|  6>     Mode sTDDFT
|  7>     Ethresh 5.0
|  8>     maxcore 5000
|  9> end
| 10>
| 11> %pal
| 12>   nprocs 6
| 13>   end
| 14> * xyz 0 1
| 15>    C       -1.45383         0.80671        -7.20118
| 16>    O       -2.69877         0.41801        -6.99505
| 17>    C       -2.66778        -0.73009        -6.27636
| 18>    C       -1.35754        -1.07814        -6.02194
| 19>    C       -0.55880        -0.07924        -6.63117
| 20>    C        0.89602         0.00636        -6.65148
| 21>    O        1.52856         0.89942        -7.15056
| 22>    C       -3.88817        -1.40604        -5.94959
| 23>    C       -5.02459        -1.53043        -6.71695
| 24>    N       -5.26254        -1.06168        -8.03074
| 25>    O       -6.41363        -1.09563        -8.42400
| 26>    O       -4.31640        -0.69185        -8.69816
| 27>    C       -5.98157        -2.36128        -6.02166
| 28>    C       -5.42232        -2.79416        -4.86713
| 29>    C       -4.11958        -2.19992        -4.73012
| 30>    C       -3.33114        -2.22174        -3.59822
| 31>    C       -2.43317        -1.20116        -3.15471
| 32>    C       -2.05459        -1.48065        -1.87708
| 33>    C       -2.65153        -2.71339        -1.46110
| 34>    N       -2.35482        -3.23826        -0.18895
| 35>    O       -1.39188        -2.76873         0.38933
| 36>    O       -3.06818        -4.11044         0.28450
| 37>    C       -3.42688        -3.22373        -2.51288
| 38>    C       -3.99753        -4.48351        -2.76423
| 39>    C       -4.34327        -5.45865        -1.86088
| 40>    C       -4.89316        -6.67909        -2.27698
| 41>    N       -5.31161        -7.65995        -1.41978
| 42>    C       -5.29373        -7.60318         0.02452
| 43>    C       -6.46287        -6.78884         0.57052
| 44>    C       -5.84251        -8.77483        -2.10041
| 45>    O       -6.25243        -9.77147        -1.55672
| 46>    C       -5.72670        -8.41045        -3.50467
| 47>    C       -5.13485        -7.15156        -3.59129
| 48>    C       -5.00786        -6.82426        -5.00230
| 49>    O       -4.58329        -5.83768        -5.56781
| 50>    N       -5.52215        -7.94477        -5.67598
| 51>    C       -5.60275        -7.94266        -7.11801
| 52>    C       -4.33617        -8.50794        -7.75747
| 53>    C       -5.97045        -8.90701        -4.80310
| 54>    C       -6.62583       -10.11694        -5.05419
| 55>    C       -6.67833       -10.83877        -6.22353
| 56>    C       -7.48050       -11.96984        -6.43174
| 57>    C       -8.59778       -12.42214        -5.70763
| 58>    N       -9.45192       -11.70124        -4.84824
| 59>    O       -9.34185       -10.48681        -4.79117
| 60>    O      -10.29301       -12.33948        -4.24259
| 61>    C       -8.90910       -13.74874        -6.11445
| 62>    C       -7.99805       -14.15314        -7.05152
| 63>    C       -7.12192       -13.06859        -7.34751
| 64>    C       -6.15408       -13.06480        -8.33909
| 65>    C       -5.70278       -11.95880        -9.12142
| 66>    C       -4.89875       -12.42621       -10.11399
| 67>    C       -4.76202       -13.85253        -9.97882
| 68>    N       -3.82754       -14.56128       -10.76074
| 69>    O       -3.19030       -13.91258       -11.57244
| 70>    O       -3.67532       -15.75492       -10.57212
| 71>    C       -5.52599       -14.28106        -8.90195
| 72>    C       -5.63481       -15.54799        -8.26921
| 73>    C       -5.60855       -16.76398        -8.87421
| 74>    C       -5.70892       -17.97797        -8.14736
| 75>    O       -5.64554       -18.00240        -6.79892
| 76>    C       -5.72038       -19.28268        -6.40818
| 77>    C       -5.83567       -20.11857        -7.47788
| 78>    C       -5.83716       -19.28710        -8.62621
| 79>    C       -5.98196       -19.70569       -10.01138
| 80>    O       -6.15241       -18.96824       -10.94893
| 81>    H       -1.28460         1.71163        -7.75195
| 82>    H       -1.01688        -1.94704        -5.49755
| 83>    H        1.39270        -0.84522        -6.14766
| 84>    H       -6.96073        -2.57622        -6.40492
| 85>    H       -5.90705        -3.38460        -4.11570
| 86>    H       -2.20008        -0.30773        -3.69819
| 87>    H       -1.42084        -0.89129        -1.24119
| 88>    H       -4.18163        -4.68988        -3.81090
| 89>    H       -4.21856        -5.28632        -0.80344
| 90>    H       -4.34234        -7.18489         0.36095
| 91>    H       -5.37255        -8.63756         0.36937
| 92>    H       -6.40851        -5.75603         0.23519
| 93>    H       -6.43727        -6.80201         1.65594
| 94>    H       -7.40583        -7.21726         0.23934
| 95>    H       -5.71517        -6.89758        -7.42217
| 96>    H       -6.49506        -8.49566        -7.41973
| 97>    H       -3.48848        -7.87385        -7.51055
| 98>    H       -4.44562        -8.52917        -8.83809
| 99>    H       -4.12235        -9.51489        -7.40435
|100>    H       -7.10651       -10.51669        -4.17167
|101>    H       -5.98466       -10.59802        -7.01251
|102>    H       -9.74869       -14.30379        -5.74035
|103>    H       -8.02036       -15.08267        -7.58608
|104>    H       -6.04712       -10.94778        -9.02863
|105>    H       -4.42103       -11.86145       -10.89213
|106>    H       -5.79565       -15.51885        -7.19797
|107>    H       -5.54548       -16.87426        -9.94584
|108>    H       -5.67952       -19.47474        -5.35362
|109>    H       -5.91778       -21.18564        -7.45763
|110>    H       -5.94038       -20.80371       -10.14109
|111> *
|112>
|113>                          ****END OF INPUT****

CARTESIAN COORDINATES (ANGSTROEM)
---------------------------------
  C     -1.453830    0.806710   -7.201180
  O     -2.698770    0.418010   -6.995050
  C     -2.667780   -0.730090   -6.276360
  C     -1.357540   -1.078140   -6.021940
  C     -0.558800   -0.079240   -6.631170
  C      0.896020    0.006360   -6.651480
  O      1.528560    0.899420   -7.150560
  C     -3.888170   -1.406040   -5.949590
  C     -5.024590   -1.530430   -6.716950
  N     -5.262540   -1.061680   -8.030740
  O     -6.413630   -1.095630   -8.424000
  O     -4.316400   -0.691850   -8.698160
  C     -5.981570   -2.361280   -6.021660
  C     -5.422320   -2.794160   -4.867130
  C     -4.119580   -2.199920   -4.730120
  C     -3.331140   -2.221740   -3.598220
  C     -2.433170   -1.201160   -3.154710
  C     -2.054590   -1.480650   -1.877080
  C     -2.651530   -2.713390   -1.461100
  N     -2.354820   -3.238260   -0.188950
  O     -1.391880   -2.768730    0.389330
  O     -3.068180   -4.110440    0.284500
  C     -3.426880   -3.223730   -2.512880
  C     -3.997530   -4.483510   -2.764230
  C     -4.343270   -5.458650   -1.860880
  C     -4.893160   -6.679090   -2.276980
  N     -5.311610   -7.659950   -1.419780
  C     -5.293730   -7.603180    0.024520
  C     -6.462870   -6.788840    0.570520
  C     -5.842510   -8.774830   -2.100410
  O     -6.252430   -9.771470   -1.556720
  C     -5.726700   -8.410450   -3.504670
  C     -5.134850   -7.151560   -3.591290
  C     -5.007860   -6.824260   -5.002300
  O     -4.583290   -5.837680   -5.567810
  N     -5.522150   -7.944770   -5.675980
  C     -5.602750   -7.942660   -7.118010
  C     -4.336170   -8.507940   -7.757470
  C     -5.970450   -8.907010   -4.803100
  C     -6.625830  -10.116940   -5.054190
  C     -6.678330  -10.838770   -6.223530
  C     -7.480500  -11.969840   -6.431740
  C     -8.597780  -12.422140   -5.707630
  N     -9.451920  -11.701240   -4.848240
  O     -9.341850  -10.486810   -4.791170
  O    -10.293010  -12.339480   -4.242590
  C     -8.909100  -13.748740   -6.114450
  C     -7.998050  -14.153140   -7.051520
  C     -7.121920  -13.068590   -7.347510
  C     -6.154080  -13.064800   -8.339090
  C     -5.702780  -11.958800   -9.121420
  C     -4.898750  -12.426210  -10.113990
  C     -4.762020  -13.852530   -9.978820
  N     -3.827540  -14.561280  -10.760740
  O     -3.190300  -13.912580  -11.572440
  O     -3.675320  -15.754920  -10.572120
  C     -5.525990  -14.281060   -8.901950
  C     -5.634810  -15.547990   -8.269210
  C     -5.608550  -16.763980   -8.874210
  C     -5.708920  -17.977970   -8.147360
  O     -5.645540  -18.002400   -6.798920
  C     -5.720380  -19.282680   -6.408180
  C     -5.835670  -20.118570   -7.477880
  C     -5.837160  -19.287100   -8.626210
  C     -5.981960  -19.705690  -10.011380
  O     -6.152410  -18.968240  -10.948930
  H     -1.284600    1.711630   -7.751950
  H     -1.016880   -1.947040   -5.497550
  H      1.392700   -0.845220   -6.147660
  H     -6.960730   -2.576220   -6.404920
  H     -5.907050   -3.384600   -4.115700
  H     -2.200080   -0.307730   -3.698190
  H     -1.420840   -0.891290   -1.241190
  H     -4.181630   -4.689880   -3.810900
  H     -4.218560   -5.286320   -0.803440
  H     -4.342340   -7.184890    0.360950
  H     -5.372550   -8.637560    0.369370
  H     -6.408510   -5.756030    0.235190
  H     -6.437270   -6.802010    1.655940
  H     -7.405830   -7.217260    0.239340
  H     -5.715170   -6.897580   -7.422170
  H     -6.495060   -8.495660   -7.419730
  H     -3.488480   -7.873850   -7.510550
  H     -4.445620   -8.529170   -8.838090
  H     -4.122350   -9.514890   -7.404350
  H     -7.106510  -10.516690   -4.171670
  H     -5.984660  -10.598020   -7.012510
  H     -9.748690  -14.303790   -5.740350
  H     -8.020360  -15.082670   -7.586080
  H     -6.047120  -10.947780   -9.028630
  H     -4.421030  -11.861450  -10.892130
  H     -5.795650  -15.518850   -7.197970
  H     -5.545480  -16.874260   -9.945840
  H     -5.679520  -19.474740   -5.353620
  H     -5.917780  -21.185640   -7.457630
  H     -5.940380  -20.803710  -10.141090

 Total Charge           Charge          ....    0
 Multiplicity           Mult            ....    1
 Number of Electrons    NEL             ....  460
 Basis Dimension        Dim             .... 1074

ORBITAL ENERGIES
----------------

  NO   OCC          E(Eh)            E(eV)
   0   2.0000     -19.319207      -525.7024
   1   2.0000     -19.315495      -525.6013
   2   2.0000     -19.252889      -523.8978
   3   2.0000     -19.250907      -523.8438
   4   2.0000     -19.241413      -523.5855
   5   2.0000     -19.240531      -523.5615
   6   2.0000     -19.237993      -523.4924
   7   2.0000     -19.234307      -523.3921
   8   2.0000     -19.233883      -523.3806
   9   2.0000     -19.233595      -523.3727
  10   2.0000     -19.218451      -522.9606
  11   2.0000     -19.217281      -522.9288
  12   2.0000     -19.214052      -522.8409
  13   2.0000     -19.211752      -522.7783
  14   2.0000     -14.660619      -398.9357
  15   2.0000     -14.650443      -398.6588
  16   2.0000     -14.646088      -398.5403
  17   2.0000     -14.643815      -398.4785
  18   2.0000     -14.473336      -393.8395
  19   2.0000     -14.472057      -393.8047
  20   2.0000     -10.395947      -282.8881
  21   2.0000     -10.393943      -282.8336
  22   2.0000     -10.365979      -282.0726
  23   2.0000     -10.365602      -282.0624
  24   2.0000     -10.363350      -282.0011
  25   2.0000     -10.358411      -281.8667
  26   2.0000     -10.357499      -281.8419
  27   2.0000     -10.355014      -281.7743
  28   2.0000     -10.354611      -281.7633
  29   2.0000     -10.347161      -281.5606
  30   2.0000     -10.346116      -281.5321
  31   2.0000     -10.341759      -281.4136
  32   2.0000     -10.338471      -281.3241
  33   2.0000     -10.338305      -281.3196
  34   2.0000     -10.333472      -281.1881
  35   2.0000     -10.331716      -281.1403
  36   2.0000     -10.330067      -281.0954
  37   2.0000     -10.329577      -281.0821
  38   2.0000     -10.328141      -281.0430
  39   2.0000     -10.327745      -281.0322
  40   2.0000     -10.324489      -280.9436
  41   2.0000     -10.323376      -280.9134
  42   2.0000     -10.323261      -280.9102
  43   2.0000     -10.318217      -280.7730
  44   2.0000     -10.315699      -280.7045
  45   2.0000     -10.312899      -280.6282
  46   2.0000     -10.311413      -280.5878
  47   2.0000     -10.308765      -280.5157
  48   2.0000     -10.308171      -280.4996
  49   2.0000     -10.304093      -280.3886
  50   2.0000     -10.303092      -280.3614
  51   2.0000     -10.302720      -280.3513
  52   2.0000     -10.302623      -280.3486
  53   2.0000     -10.300645      -280.2948
  54   2.0000     -10.298723      -280.2425
  55   2.0000     -10.298015      -280.2232
  56   2.0000     -10.293341      -280.0960
  57   2.0000     -10.293093      -280.0893
  58   2.0000     -10.293066      -280.0886
  59   2.0000     -10.291794      -280.0539
  60   2.0000     -10.289270      -279.9853
  61   2.0000     -10.288820      -279.9730
  62   2.0000     -10.287716      -279.9430
  63   2.0000     -10.286794      -279.9179
  64   2.0000     -10.276655      -279.6420
  65   2.0000     -10.270526      -279.4752
  66   2.0000      -1.331103       -36.2212
  67   2.0000      -1.322051       -35.9748
  68   2.0000      -1.316231       -35.8165
  69   2.0000      -1.314352       -35.7653
  70   2.0000      -1.242841       -33.8194
  71   2.0000      -1.234420       -33.5903
  72   2.0000      -1.155316       -31.4377
  73   2.0000      -1.148691       -31.2575
  74   2.0000      -1.147765       -31.2323
  75   2.0000      -1.139446       -31.0059
  76   2.0000      -1.133377       -30.8408
  77   2.0000      -1.131948       -30.8019
  78   2.0000      -1.131593       -30.7922
  79   2.0000      -1.131338       -30.7853
  80   2.0000      -1.084884       -29.5212
  81   2.0000      -1.075448       -29.2644
  82   2.0000      -1.028179       -27.9782
  83   2.0000      -1.019378       -27.7387
  84   2.0000      -1.006808       -27.3966
  85   2.0000      -0.998717       -27.1765
  86   2.0000      -0.947849       -25.7923
  87   2.0000      -0.929761       -25.3001
  88   2.0000      -0.928316       -25.2608
  89   2.0000      -0.927130       -25.2285
  90   2.0000      -0.922463       -25.1015
  91   2.0000      -0.919480       -25.0203
  92   2.0000      -0.918455       -24.9924
  93   2.0000      -0.910729       -24.7822
  94   2.0000      -0.898214       -24.4416
  95   2.0000      -0.888532       -24.1782
  96   2.0000      -0.887138       -24.1402
  97   2.0000      -0.880406       -23.9571
  98   2.0000      -0.864457       -23.5231
  99   2.0000      -0.860915       -23.4267
 100   2.0000      -0.852217       -23.1900
 101   2.0000      -0.835926       -22.7467
 102   2.0000      -0.831092       -22.6152
 103   2.0000      -0.821077       -22.3427
 104   2.0000      -0.801705       -21.8155
 105   2.0000      -0.794918       -21.6308
 106   2.0000      -0.780642       -21.2423
 107   2.0000      -0.774423       -21.0731
 108   2.0000      -0.767694       -20.8900
 109   2.0000      -0.760507       -20.6944
 110   2.0000      -0.756057       -20.5734
 111   2.0000      -0.739426       -20.1208
 112   2.0000      -0.734223       -19.9792
 113   2.0000      -0.729612       -19.8538
 114   2.0000      -0.725032       -19.7291
 115   2.0000      -0.723074       -19.6759
 116   2.0000      -0.712255       -19.3814
 117   2.0000      -0.707813       -19.2606
 118   2.0000      -0.697398       -18.9772
 119   2.0000      -0.696947       -18.9649
 120   2.0000      -0.694310       -18.8931
 121   2.0000      -0.681853       -18.5542
 122   2.0000      -0.674769       -18.3614
 123   2.0000      -0.669032       -18.2053
 124   2.0000      -0.663239       -18.0476
 125   2.0000      -0.657461       -17.8904
 126   2.0000      -0.647348       -17.6152
 127   2.0000      -0.640955       -17.4413
 128   2.0000      -0.640497       -17.4288
 129   2.0000      -0.633755       -17.2453
 130   2.0000      -0.631882       -17.1944
 131   2.0000      -0.629903       -17.1405
 132   2.0000      -0.628701       -17.1078
 133   2.0000      -0.627109       -17.0645
 134   2.0000      -0.625385       -17.0176
 135   2.0000      -0.620229       -16.8773
 136   2.0000      -0.617132       -16.7930
 137   2.0000      -0.615676       -16.7534
 138   2.0000      -0.613166       -16.6851
 139   2.0000      -0.607328       -16.5262
 140   2.0000      -0.605034       -16.4638
 141   2.0000      -0.601862       -16.3775
 142   2.0000      -0.600960       -16.3530
 143   2.0000      -0.592169       -16.1137
 144   2.0000      -0.588806       -16.0222
 145   2.0000      -0.588227       -16.0065
 146   2.0000      -0.585613       -15.9353
 147   2.0000      -0.582961       -15.8632
 148   2.0000      -0.582146       -15.8410
 149   2.0000      -0.578671       -15.7464
 150   2.0000      -0.575953       -15.6725
 151   2.0000      -0.575143       -15.6504
 152   2.0000      -0.567210       -15.4346
 153   2.0000      -0.562534       -15.3073
 154   2.0000      -0.556692       -15.1484
 155   2.0000      -0.554319       -15.0838
 156   2.0000      -0.547953       -14.9106
 157   2.0000      -0.547690       -14.9034
 158   2.0000      -0.545445       -14.8423
 159   2.0000      -0.542761       -14.7693
 160   2.0000      -0.541323       -14.7301
 161   2.0000      -0.539967       -14.6932
 162   2.0000      -0.533060       -14.5053
 163   2.0000      -0.529798       -14.4165
 164   2.0000      -0.529092       -14.3973
 165   2.0000      -0.525221       -14.2920
 166   2.0000      -0.522938       -14.2299
 167   2.0000      -0.520472       -14.1628
 168   2.0000      -0.517039       -14.0693
 169   2.0000      -0.514732       -14.0066
 170   2.0000      -0.512981       -13.9589
 171   2.0000      -0.511634       -13.9223
 172   2.0000      -0.507622       -13.8131
 173   2.0000      -0.506648       -13.7866
 174   2.0000      -0.500371       -13.6158
 175   2.0000      -0.499951       -13.6044
 176   2.0000      -0.496815       -13.5190
 177   2.0000      -0.494933       -13.4678
 178   2.0000      -0.491781       -13.3820
 179   2.0000      -0.487289       -13.2598
 180   2.0000      -0.485461       -13.2101
 181   2.0000      -0.484798       -13.1920
 182   2.0000      -0.484258       -13.1773
 183   2.0000      -0.482320       -13.1246
 184   2.0000      -0.477599       -12.9961
 185   2.0000      -0.476319       -12.9613
 186   2.0000      -0.473466       -12.8837
 187   2.0000      -0.472067       -12.8456
 188   2.0000      -0.469286       -12.7699
 189   2.0000      -0.466629       -12.6976
 190   2.0000      -0.466224       -12.6866
 191   2.0000      -0.465167       -12.6578
 192   2.0000      -0.461026       -12.5452
 193   2.0000      -0.457869       -12.4592
 194   2.0000      -0.450696       -12.2641
 195   2.0000      -0.448640       -12.2081
 196   2.0000      -0.446898       -12.1607
 197   2.0000      -0.436796       -11.8858
 198   2.0000      -0.435048       -11.8383
 199   2.0000      -0.407493       -11.0885
 200   2.0000      -0.400338       -10.8937
 201   2.0000      -0.396871       -10.7994
 202   2.0000      -0.391709       -10.6589
 203   2.0000      -0.389082       -10.5875
 204   2.0000      -0.387438       -10.5427
 205   2.0000      -0.383338       -10.4311
 206   2.0000      -0.381170       -10.3722
 207   2.0000      -0.378556       -10.3010
 208   2.0000      -0.378073       -10.2879
 209   2.0000      -0.376668       -10.2497
 210   2.0000      -0.376566       -10.2469
 211   2.0000      -0.375882       -10.2283
 212   2.0000      -0.373250       -10.1566
 213   2.0000      -0.369994       -10.0680
 214   2.0000      -0.366686        -9.9780
 215   2.0000      -0.360610        -9.8127
 216   2.0000      -0.358633        -9.7589
 217   2.0000      -0.353963        -9.6318
 218   2.0000      -0.351711        -9.5705
 219   2.0000      -0.347035        -9.4433
 220   2.0000      -0.343163        -9.3379
 221   2.0000      -0.339113        -9.2277
 222   2.0000      -0.338703        -9.2166
 223   2.0000      -0.337772        -9.1912
 224   2.0000      -0.331267        -9.0142
 225   2.0000      -0.315510        -8.5855
 226   2.0000      -0.305186        -8.3045
 227   2.0000      -0.291240        -7.9250
 228   2.0000      -0.275444        -7.4952
 229   2.0000      -0.244401        -6.6505
 230   0.0000      -0.156573        -4.2606
 231   0.0000      -0.136159        -3.7051
 232   0.0000      -0.093489        -2.5440
 233   0.0000      -0.063787        -1.7357
 234   0.0000      -0.047661        -1.2969

MULLIKEN ATOMIC CHARGES
-----------------------
   0 C :    0.146922
   1 O :   -0.137382
   2 C :    0.034623
   3 C :   -0.048058
   4 C :   -0.039711
   5 C :    0.162732
   6 O :   -0.175449
   7 C :    0.097628
   8 C :    0.081886
   9 N :    0.261748
  10 O :   -0.245922
  11 O :   -0.236350
  12 C :    0.020887
  13 C :    0.017590
  14 C :    0.063846
  15 C :   -0.006635
  16 C :    0.007628
  17 C :    0.012449
  18 C :    0.079598
  19 N :    0.276363
  20 O :   -0.239188
  21 O :   -0.254240
  22 C :    0.087569
  23 C :   -0.089000
  24 C :   -0.021070
  25 C :    0.159285
  26 N :   -0.261445
  27 C :    0.093896
  28 C :    0.002950
  29 C :    0.158616
  30 O :   -0.163407
  31 C :   -0.032120
  32 C :   -0.069637
  33 C :    0.167508
  34 O :   -0.204964
  35 N :   -0.261592
  36 C :    0.104241
  37 C :   -0.003417
  38 C :    0.099621
  39 C :    0.033901
  40 C :   -0.020096
  41 C :    0.073185
  42 C :    0.044983
  43 N :    0.262479
  44 O :   -0.255611
  45 O :   -0.244201
  46 C :    0.031425
  47 C :   -0.027149
  48 C :    0.034420
  49 C :    0.034215
  50 C :   -0.004613
  51 C :    0.019474
  52 C :    0.072245
  53 N :    0.265915
  54 O :   -0.251012
  55 O :   -0.247005
  56 C :    0.078342
  57 C :   -0.101879
  58 C :    0.049236
  59 C :    0.098726
  60 O :   -0.180175
  61 C :    0.154830
  62 C :   -0.017850
  63 C :   -0.028472
  64 C :    0.158996
  65 O :   -0.175695
  66 H :    0.035517
  67 H :    0.004487
  68 H :   -0.019902
  69 H :    0.006299
  70 H :    0.000369
  71 H :    0.011408
  72 H :    0.009443
  73 H :    0.039083
  74 H :    0.007206
  75 H :    0.040942
  76 H :    0.045272
  77 H :    0.019268
  78 H :    0.032317
  79 H :    0.030912
  80 H :    0.039750
  81 H :    0.032253
  82 H :    0.032987
  83 H :    0.030264
  84 H :    0.030336
  85 H :    0.022758
  86 H :   -0.044780
  87 H :    0.005998
  88 H :    0.006049
  89 H :   -0.010173
  90 H :    0.008458
  91 H :    0.028071
  92 H :    0.037474
  93 H :    0.024074
  94 H :    0.001494
  95 H :   -0.014250
Sum of atomic charges:   -0.0000000

LOEWDIN ATOMIC CHARGES
----------------------
   0 C :    0.108715
   1 O :    0.062905
   2 C :    0.013988
   3 C :   -0.022720
   4 C :   -0.138810
   5 C :    0.106833
   6 O :   -0.131271
   7 C :   -0.009266
   8 C :   -0.031757
   9 N :    0.280664
  10 O :   -0.209491
  11 O :   -0.203397
  12 C :    0.023504
  13 C :   -0.032614
  14 C :    0.056186
  15 C :    0.037499
  16 C :   -0.033327
  17 C :    0.010421
  18 C :   -0.035781
  19 N :    0.286565
  20 O :   -0.202705
  21 O :   -0.214866
  22 C :   -0.001135
  23 C :    0.019009
  24 C :   -0.018824
  25 C :    0.084456
  26 N :    0.004409
  27 C :    0.038803
  28 C :   -0.058664
  29 C :    0.082523
  30 O :   -0.165801
  31 C :   -0.084538
  32 C :   -0.112669
  33 C :    0.080405
  34 O :   -0.192439
  35 N :    0.004646
  36 C :    0.037940
  37 C :   -0.062142
  38 C :    0.064006
  39 C :    0.018843
  40 C :   -0.016843
  41 C :    0.006838
  42 C :   -0.059969
  43 N :    0.283246
  44 O :   -0.218862
  45 O :   -0.208995
  46 C :    0.027868
  47 C :   -0.052103
  48 C :    0.038523
  49 C :    0.039767
  50 C :   -0.062474
  51 C :    0.027947
  52 C :   -0.056159
  53 N :    0.284042
  54 O :   -0.215588
  55 O :   -0.205666
  56 C :    0.017351
  57 C :   -0.027387
  58 C :    0.017838
  59 C :    0.056330
  60 O :    0.032695
  61 C :    0.054213
  62 C :   -0.054265
  63 C :   -0.109177
  64 C :    0.109001
  65 O :   -0.128541
  66 H :    0.038102
  67 H :    0.036601
  68 H :   -0.003816
  69 H :    0.039747
  70 H :    0.032373
  71 H :    0.033542
  72 H :    0.039957
  73 H :    0.041186
  74 H :    0.030012
  75 H :    0.030630
  76 H :    0.039027
  77 H :    0.023795
  78 H :    0.034991
  79 H :    0.032322
  80 H :    0.037258
  81 H :    0.026648
  82 H :    0.035030
  83 H :    0.031941
  84 H :    0.022181
  85 H :    0.046951
  86 H :    0.030538
  87 H :    0.039711
  88 H :    0.032083
  89 H :    0.025405
  90 H :    0.038666
  91 H :    0.037219
  92 H :    0.043110
  93 H :    0.029042
  94 H :    0.036315
  95 H :   -0.000301

  Mayer bond orders larger than 0.100000
B(  0-C ,  1-O ) :   1.2215 B(  0-C ,  4-C ) :   1.4442 B(  0-C , 66-H ) :   1.0043
B(  1-O ,  2-C ) :   1.1647 B(  2-C ,  3-C ) :   1.5120 B(  2-C ,  7-C ) :   0.9967
B(  3-C ,  4-C ) :   1.1993 B(  3-C , 67-H ) :   1.0091 B(  4-C ,  5-C ) :   0.9720
B(  5-C ,  6-O ) :   2.2023 B(  5-C , 68-H ) :   0.9604 B(  7-C ,  8-C ) :   1.5892
B(  7-C , 14-C ) :   1.0788 B(  8-C ,  9-N ) :   0.9261 B(  8-C , 12-C ) :   1.1065
B(  9-N , 10-O ) :   1.5244 B(  9-N , 11-O ) :   1.5304 B( 10-O , 11-O ) :   0.2731
B( 12-C , 13-C ) :   1.5972 B( 12-C , 69-H ) :   1.0142 B( 13-C , 14-C ) :   1.1193
B( 13-C , 70-H ) :   1.0019 B( 14-C , 15-C ) :   1.4982 B( 15-C , 16-C ) :   1.1364
B( 15-C , 22-C ) :   1.0173 B( 16-C , 17-C ) :   1.5513 B( 16-C , 71-H ) :   1.0037
B( 17-C , 18-C ) :   1.1588 B( 17-C , 72-H ) :   1.0091 B( 18-C , 19-N ) :   0.9536
B( 18-C , 22-C ) :   1.4447 B( 19-N , 20-O ) :   1.5422 B( 19-N , 21-O ) :   1.4645
B( 20-O , 21-O ) :   0.2554 B( 21-O , 74-H ) :   0.1004 B( 22-C , 23-C ) :   1.1865
B( 23-C , 24-C ) :   1.5189 B( 23-C , 73-H ) :   0.9359 B( 24-C , 25-C ) :   1.1886
B( 24-C , 74-H ) :   0.9477 B( 25-C , 26-N ) :   1.1890 B( 25-C , 32-C ) :   1.2344
B( 26-N , 27-C ) :   0.9337 B( 26-N , 29-C ) :   1.0276 B( 27-C , 28-C ) :   1.1224
B( 27-C , 75-H ) :   0.9486 B( 27-C , 76-H ) :   0.9287 B( 28-C , 77-H ) :   0.9681
B( 28-C , 78-H ) :   0.9677 B( 28-C , 79-H ) :   0.9641 B( 29-C , 30-O ) :   2.1591
B( 29-C , 31-C ) :   0.9608 B( 31-C , 32-C ) :   1.3304 B( 31-C , 38-C ) :   1.2703
B( 32-C , 33-C ) :   0.9815 B( 33-C , 34-O ) :   2.0110 B( 33-C , 35-N ) :   1.0778
B( 34-O , 73-H ) :   0.1121 B( 35-N , 36-C ) :   0.9370 B( 35-N , 38-C ) :   1.1614
B( 36-C , 37-C ) :   1.1184 B( 36-C , 80-H ) :   0.9285 B( 36-C , 81-H ) :   0.9481
B( 37-C , 82-H ) :   0.9576 B( 37-C , 83-H ) :   0.9670 B( 37-C , 84-H ) :   0.9636
B( 38-C , 39-C ) :   1.2780 B( 39-C , 40-C ) :   1.4849 B( 39-C , 85-H ) :   0.9263
B( 40-C , 41-C ) :   1.2288 B( 40-C , 86-H ) :   0.9460 B( 41-C , 42-C ) :   1.4122
B( 41-C , 48-C ) :   1.0277 B( 42-C , 43-N ) :   0.9498 B( 42-C , 46-C ) :   1.1755
B( 43-N , 44-O ) :   1.5108 B( 43-N , 45-O ) :   1.5299 B( 44-O , 45-O ) :   0.2535
B( 46-C , 47-C ) :   1.5167 B( 46-C , 87-H ) :   1.0087 B( 47-C , 48-C ) :   1.1650
B( 47-C , 88-H ) :   1.0035 B( 48-C , 49-C ) :   1.4636 B( 49-C , 50-C ) :   1.1300
B( 49-C , 56-C ) :   1.0441 B( 50-C , 51-C ) :   1.5731 B( 50-C , 89-H ) :   0.9933
B( 51-C , 52-C ) :   1.1294 B( 51-C , 90-H ) :   1.0053 B( 52-C , 53-N ) :   0.9512
B( 52-C , 56-C ) :   1.5172 B( 53-N , 54-O ) :   1.5313 B( 53-N , 55-O ) :   1.5084
B( 54-O , 55-O ) :   0.2570 B( 56-C , 57-C ) :   1.1089 B( 57-C , 58-C ) :   1.6184
B( 57-C , 91-H ) :   0.9544 B( 58-C , 59-C ) :   1.1977 B( 58-C , 92-H ) :   0.9361
B( 59-C , 60-O ) :   1.1786 B( 59-C , 63-C ) :   1.3942 B( 60-O , 61-C ) :   1.1365
B( 61-C , 62-C ) :   1.5451 B( 61-C , 93-H ) :   1.0048 B( 62-C , 63-C ) :   1.2118
B( 62-C , 94-H ) :   1.0037 B( 63-C , 64-C ) :   0.9986 B( 64-C , 65-O ) :   2.1450
B( 64-C , 95-H ) :   0.9595

-----------------------------------------------------------------------------
         ABSORPTION SPECTRUM VIA TRANSITION ELECTRIC DIPOLE MOMENTS
-----------------------------------------------------------------------------
State   Energy  Wavelength   fosc         T2         TX        TY        TZ
        (cm-1)    (nm)                  (au**2)     (au)      (au)      (au)
-----------------------------------------------------------------------------
   0    4550.7   2197.5   0.296827722  21.47352   1.18204   4.17470   1.62732
   1    8674.9   1152.8   0.055880960   2.12068   0.27257  -0.54583  -1.32229
   2   10593.8    943.9   0.053747060   1.67023   0.40306  -1.22735   0.03735
   3   11999.7    833.4   0.033583059   0.92135   0.39768   0.32821  -0.80961
   4   15805.3    632.7   0.015636033   0.32569   0.22978   0.42615   0.30214
   5   16996.8    588.3   0.099760891   1.93227   0.50886   0.17035   1.28231
   6   17627.5    567.3   0.087165930   1.62791  -0.59419  -0.83599  -0.75893
   7   19259.6    519.2   0.001840573   0.03146  -0.00235   0.16876  -0.05455
   8   21697.2    460.9   0.034027403   0.51630   0.20080  -0.67025   0.16355
   9   22006.6    454.4   0.001155015   0.01728   0.00314   0.12663   0.03512
  10   22434.4    445.7   0.044061634   0.64658   0.03270   0.64028  -0.48533
  11   22629.3    441.9   0.217021047   3.15723  -0.50386  -1.66677  -0.35389
  12   23204.3    431.0   0.013137722   0.18639  -0.07554  -0.17358   0.38802
  13   23732.0    421.4   0.016988674   0.23567  -0.23457  -0.42494  -0.00843
  14   24512.3    408.0   0.089674539   1.20437  -0.69491   0.80788  -0.26229
  15   24803.1    403.2   0.086228207   1.14451   0.55141   0.34794  -0.84817
  16   25045.6    399.3   0.018982866   0.24952  -0.14726   0.44062  -0.18354
  17   25140.0    397.8   0.090489051   1.18497   0.18485   0.75499  -0.76210
  18   25717.7    388.8   0.153989200   1.97121  -0.30142  -0.92805  -1.00949
  19   25869.3    386.6   0.018990723   0.24168   0.41625  -0.12150  -0.23162
  20   25895.6    386.2   0.148867737   1.89256  -1.02891   0.83686   0.36547
  21   26251.6    380.9   0.072101168   0.90420  -0.63820  -0.52949  -0.46534
  22   26408.0    378.7   0.023219178   0.28946   0.43146   0.28800   0.14266
  23   26766.5    373.6   0.006199382   0.07625  -0.14888  -0.11334  -0.20308
  24   26960.0    370.9   0.128649528   1.57096   0.73546   0.36935  -0.94532
  25   27523.9    363.3   0.012153122   0.14536   0.10610  -0.11422  -0.34794
  26   28203.0    354.6   0.041573936   0.48529  -0.60549  -0.02471   0.34359
  27   28477.0    351.2   0.144279972   1.66796  -0.57833  -0.12270  -1.14824
  28   28831.7    346.8   0.019059295   0.21763   0.35445   0.00159   0.30329
  29   28972.5    345.2   0.046695509   0.53060  -0.13262   0.64500  -0.31143
  30   30191.4    331.2   0.055503367   0.60522   0.37055   0.44872  -0.51630
  31   30250.5    330.6   0.028453353   0.30965  -0.34478   0.00208   0.43678
  32   30623.5    326.5   0.012202561   0.13118   0.07187   0.35403  -0.02610
  33   30691.9    325.8   0.025577625   0.27435   0.29610   0.43129  -0.02584
  34   30742.4    325.3   0.082857676   0.88730  -0.67320  -0.32714   0.57192
  35   30849.2    324.2   0.038255530   0.40825   0.21444   0.54733  -0.25039
  36   31019.2    322.4   0.028429580   0.30173   0.33380   0.16191  -0.40508
  37   31234.9    320.2   0.065750362   0.69300   0.34433   0.72961  -0.20520
  38   31324.1    319.2   0.289198008   3.03943  -1.05137  -0.74153   1.17651
  39   31503.1    317.4   0.103419969   1.08075  -0.05329  -0.23223  -1.01192
  40   31553.8    316.9   0.139554382   1.45602  -1.18145  -0.24421  -0.02347
  41   31634.0    316.1   0.111213598   1.15739   0.51237   0.43542   0.83981
  42   32034.6    312.2   0.142692159   1.46641   0.36280   1.14100  -0.18138
  43   32187.3    310.7   0.008563580   0.08759   0.08706   0.27957   0.04302
  44   32833.0    304.6   0.046202982   0.46327  -0.52594  -0.06996   0.42634
  45   32889.7    304.0   0.118969508   1.19084  -0.77403  -0.35720   0.68127
  46   33138.8    301.8   0.040953937   0.40685   0.37942   0.39033  -0.33247
  47   33503.4    298.5   0.036247459   0.35618  -0.00998   0.17187   0.57143
  48   33795.1    295.9   0.109136755   1.06315  -0.08661  -0.09666  -1.02289
  49   34082.1    293.4   0.007047168   0.06807  -0.25654   0.02808   0.03837
  50   34371.7    290.9   0.111271866   1.06576  -0.39369  -0.51080  -0.80613
  51   34567.5    289.3   0.287478441   2.73787   1.41465   0.13380   0.84778
  52   34638.9    288.7   0.046667686   0.44353  -0.15966   0.57130   0.30275
  53   34662.9    288.5   0.009940584   0.09441   0.06251  -0.29810   0.04049
  54   34801.1    287.3   0.050763525   0.48021   0.19711  -0.65290   0.12281
  55   34868.5    286.8   0.053146001   0.50178  -0.46696  -0.13560  -0.51511
  56   35074.6    285.1   0.000142852   0.00134   0.03599  -0.00583  -0.00344
  57   35244.0    283.7   0.070773639   0.66109  -0.39976   0.22352   0.67181
  58   35326.3    283.1   0.054970488   0.51228   0.14130   0.68816   0.13692
  59   35574.8    281.1   0.030357509   0.28093   0.26628  -0.07578   0.45197
  60   36174.2    276.4   0.005069134   0.04613   0.19130  -0.09519  -0.02185
  61   36349.0    275.1   0.006428551   0.05822  -0.18143  -0.08008  -0.13745
  62   36803.3    271.7   0.007279846   0.06512   0.18262   0.07294  -0.16263
  63   36919.7    270.9   0.027668310   0.24672   0.33023   0.13632   0.34509
  64   37445.0    267.1   0.037896620   0.33318  -0.12828   0.42751  -0.36601
  65   37661.4    265.5   0.012930479   0.11303  -0.16433   0.29328  -0.00340
  66   37857.9    264.1   0.090586671   0.78774  -0.42865   0.77715  -0.00561
  67   37875.9    264.0   0.062775946   0.54564  -0.10030   0.10050   0.72490
  68   37925.7    263.7   0.018483001   0.16044   0.05394  -0.04789   0.39400
  69   38010.0    263.1   0.047303824   0.40971  -0.10194  -0.29427  -0.55922
  70   38350.9    260.8   0.006778250   0.05819   0.06959   0.21758  -0.07748
  71   38381.6    260.5   0.023665320   0.20299  -0.29519  -0.19140   0.28146
  72   38442.7    260.1   0.005350467   0.04582   0.10605   0.14392   0.11773
  73   38723.4    258.2   0.041214177   0.35039  -0.13904   0.56720   0.09664
  74   39400.0    253.8   0.010574057   0.08835  -0.10177  -0.27862   0.01918
  75   39458.2    253.4   0.007103350   0.05927   0.12769   0.17094  -0.11722
  76   39902.6    250.6   0.024525209   0.20234  -0.23214   0.23086  -0.30848
  77   39984.9    250.1   0.047759504   0.39322  -0.27780   0.13168  -0.54655
  78   40212.6    248.7   0.005208847   0.04264   0.10860  -0.09764   0.14600

FINAL SINGLE POINT ENERGY     -3148.163838619982

DIPOLE MOMENT
-------------
                                X             Y             Z
Electronic contribution:      2.57512      10.95840     -10.24369
Nuclear contribution   :     -2.88118     -12.25303      12.09769
                        -----------------------------------------
Total Dipole Moment    :     -0.30606      -1.29463       1.85399
                        -----------------------------------------
Magnitude (a.u.)       :      2.28189
Magnitude (Debye)      :      5.80011

Rotational constants in cm-1:     0.001732     0.000421     0.000378
Rotational constants in MHz :    51.929495    12.614010    11.340249

                             ****ORCA TERMINATED NORMALLY****
TOTAL RUN TIME: 0 days 0 hours 10 minutes 4 seconds 996 msec
