                         Program Version 4.2.0 -  RELEASE  -
|  1> # ORCA input file
|  2> # SCF done       -167.288416907286          0.000386354243
|  3> ! CAM-B3LYP def2-SVP def2/J RIJCOSX Grid4 TightSCF
|  4> %maxcore 5000
|  5> %tddft
|  6>     Mode sTDDFT
|  7>     Ethresh 5.0
|  8>     maxcore 5000
|  9> end
| 10>
| 11> %pal
| 12>   nprocs 6
| 13>   end
| 14> * xyz 0 1
| 15>    C       -0.87945        -0.46964        -3.31165
| 16>    C       -1.62541         0.65203        -3.64723
| 17>    C       -2.59383         0.59309        -4.79548
| 18>    C       -3.81586        -0.24978        -4.42539
| 19>    C       -1.46041         1.81501        -2.89138
| 20>    C       -0.56226         1.83239        -1.82766
| 21>    C        0.16329         0.70271        -1.50390
| 22>    C        0.00531        -0.45246        -2.24977
| 23>    C       -2.20198         3.04237        -3.19731
| 24>    C       -3.45188         3.39063        -2.75627
| 25>    N       -4.32058         2.61654        -1.96324
| 26>    O       -5.38237         3.12228        -1.64182
| 27>    O       -3.96844         1.49547        -1.63964
| 28>    C       -3.79083         4.72184        -3.23064
| 29>    C       -2.73127         5.20877        -3.90549
| 30>    C       -1.67650         4.20965        -3.91019
| 31>    C       -0.43570         4.30148        -4.49572
| 32>    C        0.38654         3.20135        -4.91186
| 33>    C        1.36824         3.67075        -5.72584
| 34>    C        1.27273         5.10052        -5.79563
| 35>    N        2.22271         5.89503        -6.46159
| 36>    O        2.22109         7.09900        -6.26284
| 37>    O        3.00899         5.32223        -7.19696
| 38>    C        0.20194         5.53208        -5.01892
| 39>    C       -0.13217         6.86795        -4.72414
| 40>    C       -0.69105         7.28245        -3.54589
| 41>    C       -1.04945         8.62153        -3.30493
| 42>    N       -1.41390         9.11830        -2.07394
| 43>    C       -1.41855         8.39404        -0.82566
| 44>    C       -0.00771         8.18816        -0.28113
| 45>    C       -1.72487        10.48498        -2.12699
| 46>    O       -2.05886        11.13921        -1.15908
| 47>    C       -1.56280        10.83517        -3.52387
| 48>    C       -1.15108         9.68038        -4.21631
| 49>    C       -1.04986        10.01276        -5.62549
| 50>    O       -0.77252         9.34787        -6.59799
| 51>    N       -1.38299        11.38096        -5.68058
| 52>    C       -1.42504        12.08690        -6.94012
| 53>    C       -2.84659        12.18407        -7.48653
| 54>    C       -1.70198        11.88317        -4.44751
| 55>    C       -2.08733        13.22488        -4.22727
| 56>    C       -2.37775        13.70400        -2.98722
| 57>    C       -2.75865        15.03991        -2.71334
| 58>    S       -3.05823        15.47579        -1.04285
| 59>    C       -3.44288        17.12500        -1.43358
| 60>    C       -3.33149        17.31584        -2.79177
| 61>    C       -2.94664        16.15488        -3.51797
| 62>    C       -2.81467        16.47433        -4.93930
| 63>    O       -2.53362        15.73670        -5.85650
| 64>    C       -3.09917        17.96029        -5.07356
| 65>    C       -3.44037        18.47390        -3.68248
| 66>    O       -3.73474        19.60903        -3.40186
| 67>    C       -3.71662        18.06884        -0.35839
| 68>    C       -4.88677        18.83620        -0.29213
| 69>    C       -6.00992        18.66559        -1.27328
| 70>    C       -6.68456        17.30026        -1.12914
| 71>    C       -5.02759        19.72404         0.76639
| 72>    C       -4.05406        19.85812         1.73927
| 73>    C       -2.91259        19.07634         1.68344
| 74>    C       -2.75335        18.18126         0.64592
| 75>    H       -0.99624        -1.36922        -3.89829
| 76>    H       -2.10112         0.15013        -5.66533
| 77>    H       -2.91224         1.60220        -5.06709
| 78>    H       -3.53730        -1.29357        -4.30584
| 79>    H       -4.57505        -0.17977        -5.20079
| 80>    H       -4.23768         0.09268        -3.48405
| 81>    H       -0.44422         2.73885        -1.25135
| 82>    H        0.85159         0.72612        -0.67261
| 83>    H        0.57200        -1.33814        -2.00494
| 84>    H       -4.74380         5.18356        -3.05873
| 85>    H       -2.68371         6.13802        -4.43717
| 86>    H        0.18709         2.17337        -4.68652
| 87>    H        2.12078         3.10286        -6.23968
| 88>    H        0.16383         7.61172        -5.45560
| 89>    H       -0.82949         6.57030        -2.74395
| 90>    H       -1.92792         7.43563        -0.96298
| 91>    H       -1.99806         9.00292        -0.12625
| 92>    H        0.60224         7.61991        -0.97999
| 93>    H       -0.05298         7.65115         0.66209
| 94>    H        0.46862         9.15035        -0.11013
| 95>    H       -0.80347        11.51086        -7.63094
| 96>    H       -0.99401        13.08273        -6.81591
| 97>    H       -3.26633        11.18957        -7.61808
| 98>    H       -2.83117        12.68603        -8.44931
| 99>    H       -3.48401        12.74986        -6.81147
|100>    H       -2.14316        13.88366        -5.08107
|101>    H       -2.32290        13.04347        -2.13061
|102>    H       -3.91829        18.14272        -5.77271
|103>    H       -2.22813        18.48288        -5.47582
|104>    H       -5.63999        18.79023        -2.28995
|105>    H       -6.75196        19.44589        -1.09678
|106>    H       -5.99151        16.49256        -1.35323
|107>    H       -7.52766        17.22620        -1.81177
|108>    H       -7.04963        17.16462        -0.11322
|109>    H       -5.92525        20.32178         0.82821
|110>    H       -4.19049        20.56306         2.54538
|111>    H       -2.15117        19.16210         2.44343
|112>    H       -1.86324        17.57091         0.58864
|113> *
|114>
|115>                          ****END OF INPUT****

CARTESIAN COORDINATES (ANGSTROEM)
---------------------------------
  C     -0.879450   -0.469640   -3.311650
  C     -1.625410    0.652030   -3.647230
  C     -2.593830    0.593090   -4.795480
  C     -3.815860   -0.249780   -4.425390
  C     -1.460410    1.815010   -2.891380
  C     -0.562260    1.832390   -1.827660
  C      0.163290    0.702710   -1.503900
  C      0.005310   -0.452460   -2.249770
  C     -2.201980    3.042370   -3.197310
  C     -3.451880    3.390630   -2.756270
  N     -4.320580    2.616540   -1.963240
  O     -5.382370    3.122280   -1.641820
  O     -3.968440    1.495470   -1.639640
  C     -3.790830    4.721840   -3.230640
  C     -2.731270    5.208770   -3.905490
  C     -1.676500    4.209650   -3.910190
  C     -0.435700    4.301480   -4.495720
  C      0.386540    3.201350   -4.911860
  C      1.368240    3.670750   -5.725840
  C      1.272730    5.100520   -5.795630
  N      2.222710    5.895030   -6.461590
  O      2.221090    7.099000   -6.262840
  O      3.008990    5.322230   -7.196960
  C      0.201940    5.532080   -5.018920
  C     -0.132170    6.867950   -4.724140
  C     -0.691050    7.282450   -3.545890
  C     -1.049450    8.621530   -3.304930
  N     -1.413900    9.118300   -2.073940
  C     -1.418550    8.394040   -0.825660
  C     -0.007710    8.188160   -0.281130
  C     -1.724870   10.484980   -2.126990
  O     -2.058860   11.139210   -1.159080
  C     -1.562800   10.835170   -3.523870
  C     -1.151080    9.680380   -4.216310
  C     -1.049860   10.012760   -5.625490
  O     -0.772520    9.347870   -6.597990
  N     -1.382990   11.380960   -5.680580
  C     -1.425040   12.086900   -6.940120
  C     -2.846590   12.184070   -7.486530
  C     -1.701980   11.883170   -4.447510
  C     -2.087330   13.224880   -4.227270
  C     -2.377750   13.704000   -2.987220
  C     -2.758650   15.039910   -2.713340
  S     -3.058230   15.475790   -1.042850
  C     -3.442880   17.125000   -1.433580
  C     -3.331490   17.315840   -2.791770
  C     -2.946640   16.154880   -3.517970
  C     -2.814670   16.474330   -4.939300
  O     -2.533620   15.736700   -5.856500
  C     -3.099170   17.960290   -5.073560
  C     -3.440370   18.473900   -3.682480
  O     -3.734740   19.609030   -3.401860
  C     -3.716620   18.068840   -0.358390
  C     -4.886770   18.836200   -0.292130
  C     -6.009920   18.665590   -1.273280
  C     -6.684560   17.300260   -1.129140
  C     -5.027590   19.724040    0.766390
  C     -4.054060   19.858120    1.739270
  C     -2.912590   19.076340    1.683440
  C     -2.753350   18.181260    0.645920
  H     -0.996240   -1.369220   -3.898290
  H     -2.101120    0.150130   -5.665330
  H     -2.912240    1.602200   -5.067090
  H     -3.537300   -1.293570   -4.305840
  H     -4.575050   -0.179770   -5.200790
  H     -4.237680    0.092680   -3.484050
  H     -0.444220    2.738850   -1.251350
  H      0.851590    0.726120   -0.672610
  H      0.572000   -1.338140   -2.004940
  H     -4.743800    5.183560   -3.058730
  H     -2.683710    6.138020   -4.437170
  H      0.187090    2.173370   -4.686520
  H      2.120780    3.102860   -6.239680
  H      0.163830    7.611720   -5.455600
  H     -0.829490    6.570300   -2.743950
  H     -1.927920    7.435630   -0.962980
  H     -1.998060    9.002920   -0.126250
  H      0.602240    7.619910   -0.979990
  H     -0.052980    7.651150    0.662090
  H      0.468620    9.150350   -0.110130
  H     -0.803470   11.510860   -7.630940
  H     -0.994010   13.082730   -6.815910
  H     -3.266330   11.189570   -7.618080
  H     -2.831170   12.686030   -8.449310
  H     -3.484010   12.749860   -6.811470
  H     -2.143160   13.883660   -5.081070
  H     -2.322900   13.043470   -2.130610
  H     -3.918290   18.142720   -5.772710
  H     -2.228130   18.482880   -5.475820
  H     -5.639990   18.790230   -2.289950
  H     -6.751960   19.445890   -1.096780
  H     -5.991510   16.492560   -1.353230
  H     -7.527660   17.226200   -1.811770
  H     -7.049630   17.164620   -0.113220
  H     -5.925250   20.321780    0.828210
  H     -4.190490   20.563060    2.545380
  H     -2.151170   19.162100    2.443430
  H     -1.863240   17.570910    0.588640

 Total Charge           Charge          ....    0
 Multiplicity           Mult            ....    1
 Number of Electrons    NEL             ....  428
 Basis Dimension        Dim             .... 1034

ORBITAL ENERGIES
----------------

  NO   OCC          E(Eh)            E(eV)
   0   2.0000     -88.985274     -2421.4124
   1   2.0000     -19.239491      -523.5332
   2   2.0000     -19.238112      -523.4956
   3   2.0000     -19.229370      -523.2578
   4   2.0000     -19.229166      -523.2522
   5   2.0000     -19.226631      -523.1832
   6   2.0000     -19.218246      -522.9551
   7   2.0000     -19.200156      -522.4628
   8   2.0000     -19.194587      -522.3113
   9   2.0000     -14.646579      -398.5537
  10   2.0000     -14.638395      -398.3310
  11   2.0000     -14.458874      -393.4460
  12   2.0000     -14.457849      -393.4181
  13   2.0000     -10.381266      -282.4886
  14   2.0000     -10.379543      -282.4417
  15   2.0000     -10.378312      -282.4082
  16   2.0000     -10.372321      -282.2452
  17   2.0000     -10.347150      -281.5603
  18   2.0000     -10.341263      -281.4001
  19   2.0000     -10.334359      -281.2122
  20   2.0000     -10.334008      -281.2027
  21   2.0000     -10.329977      -281.0930
  22   2.0000     -10.329062      -281.0681
  23   2.0000     -10.324848      -280.9534
  24   2.0000     -10.324026      -280.9310
  25   2.0000     -10.317304      -280.7481
  26   2.0000     -10.313995      -280.6581
  27   2.0000     -10.312454      -280.6161
  28   2.0000     -10.306608      -280.4571
  29   2.0000     -10.304613      -280.4028
  30   2.0000     -10.303798      -280.3806
  31   2.0000     -10.299020      -280.2506
  32   2.0000     -10.297519      -280.2098
  33   2.0000     -10.296907      -280.1931
  34   2.0000     -10.294099      -280.1167
  35   2.0000     -10.291896      -280.0567
  36   2.0000     -10.291534      -280.0469
  37   2.0000     -10.290217      -280.0111
  38   2.0000     -10.287721      -279.9431
  39   2.0000     -10.284762      -279.8626
  40   2.0000     -10.282975      -279.8140
  41   2.0000     -10.282005      -279.7876
  42   2.0000     -10.280794      -279.7546
  43   2.0000     -10.278613      -279.6953
  44   2.0000     -10.275575      -279.6126
  45   2.0000     -10.274273      -279.5772
  46   2.0000     -10.272724      -279.5350
  47   2.0000     -10.272399      -279.5262
  48   2.0000     -10.271745      -279.5084
  49   2.0000     -10.269429      -279.4454
  50   2.0000     -10.269221      -279.4397
  51   2.0000     -10.267918      -279.4043
  52   2.0000     -10.267838      -279.4021
  53   2.0000     -10.267589      -279.3953
  54   2.0000     -10.266567      -279.3675
  55   2.0000     -10.264752      -279.3181
  56   2.0000     -10.262880      -279.2672
  57   2.0000     -10.260030      -279.1896
  58   2.0000     -10.255981      -279.0794
  59   2.0000     -10.247491      -278.8484
  60   2.0000      -8.080190      -219.8731
  61   2.0000      -6.049243      -164.6083
  62   2.0000      -6.044940      -164.4912
  63   2.0000      -6.042916      -164.4361
  64   2.0000      -1.317590       -35.8534
  65   2.0000      -1.308403       -35.6035
  66   2.0000      -1.142768       -31.0963
  67   2.0000      -1.140629       -31.0381
  68   2.0000      -1.134860       -30.8811
  69   2.0000      -1.134072       -30.8597
  70   2.0000      -1.133062       -30.8322
  71   2.0000      -1.125789       -30.6343
  72   2.0000      -1.070521       -29.1303
  73   2.0000      -1.061496       -28.8848
  74   2.0000      -1.015537       -27.6342
  75   2.0000      -1.015485       -27.6327
  76   2.0000      -0.995170       -27.0799
  77   2.0000      -0.961951       -26.1760
  78   2.0000      -0.954582       -25.9755
  79   2.0000      -0.934945       -25.4411
  80   2.0000      -0.931209       -25.3395
  81   2.0000      -0.917667       -24.9710
  82   2.0000      -0.912634       -24.8340
  83   2.0000      -0.906900       -24.6780
  84   2.0000      -0.881254       -23.9801
  85   2.0000      -0.879178       -23.9237
  86   2.0000      -0.875927       -23.8352
  87   2.0000      -0.875003       -23.8100
  88   2.0000      -0.866607       -23.5816
  89   2.0000      -0.861343       -23.4383
  90   2.0000      -0.844482       -22.9795
  91   2.0000      -0.832673       -22.6582
  92   2.0000      -0.825116       -22.4526
  93   2.0000      -0.823229       -22.4012
  94   2.0000      -0.817363       -22.2416
  95   2.0000      -0.810980       -22.0679
  96   2.0000      -0.805932       -21.9305
  97   2.0000      -0.787221       -21.4214
  98   2.0000      -0.781619       -21.2689
  99   2.0000      -0.763897       -20.7867
 100   2.0000      -0.762892       -20.7593
 101   2.0000      -0.735131       -20.0039
 102   2.0000      -0.725189       -19.7334
 103   2.0000      -0.724422       -19.7125
 104   2.0000      -0.713564       -19.4171
 105   2.0000      -0.712451       -19.3868
 106   2.0000      -0.710250       -19.3269
 107   2.0000      -0.707222       -19.2445
 108   2.0000      -0.697991       -18.9933
 109   2.0000      -0.696983       -18.9659
 110   2.0000      -0.684421       -18.6240
 111   2.0000      -0.676732       -18.4148
 112   2.0000      -0.668640       -18.1946
 113   2.0000      -0.663440       -18.0531
 114   2.0000      -0.660415       -17.9708
 115   2.0000      -0.653667       -17.7872
 116   2.0000      -0.648227       -17.6391
 117   2.0000      -0.632885       -17.2217
 118   2.0000      -0.630297       -17.1513
 119   2.0000      -0.628809       -17.1108
 120   2.0000      -0.621642       -16.9157
 121   2.0000      -0.618619       -16.8335
 122   2.0000      -0.617049       -16.7908
 123   2.0000      -0.611596       -16.6424
 124   2.0000      -0.604192       -16.4409
 125   2.0000      -0.598242       -16.2790
 126   2.0000      -0.591698       -16.1009
 127   2.0000      -0.589147       -16.0315
 128   2.0000      -0.584794       -15.9131
 129   2.0000      -0.577538       -15.7156
 130   2.0000      -0.576150       -15.6778
 131   2.0000      -0.573692       -15.6109
 132   2.0000      -0.570331       -15.5195
 133   2.0000      -0.568986       -15.4829
 134   2.0000      -0.567341       -15.4381
 135   2.0000      -0.562101       -15.2955
 136   2.0000      -0.559710       -15.2305
 137   2.0000      -0.559381       -15.2215
 138   2.0000      -0.547547       -14.8995
 139   2.0000      -0.543721       -14.7954
 140   2.0000      -0.535226       -14.5642
 141   2.0000      -0.533424       -14.5152
 142   2.0000      -0.532556       -14.4916
 143   2.0000      -0.531875       -14.4731
 144   2.0000      -0.530669       -14.4402
 145   2.0000      -0.528276       -14.3751
 146   2.0000      -0.527287       -14.3482
 147   2.0000      -0.521399       -14.1880
 148   2.0000      -0.517042       -14.0694
 149   2.0000      -0.514299       -13.9948
 150   2.0000      -0.513565       -13.9748
 151   2.0000      -0.511504       -13.9187
 152   2.0000      -0.508932       -13.8488
 153   2.0000      -0.506790       -13.7905
 154   2.0000      -0.504991       -13.7415
 155   2.0000      -0.504263       -13.7217
 156   2.0000      -0.497912       -13.5489
 157   2.0000      -0.497618       -13.5409
 158   2.0000      -0.494260       -13.4495
 159   2.0000      -0.493382       -13.4256
 160   2.0000      -0.491562       -13.3761
 161   2.0000      -0.489774       -13.3274
 162   2.0000      -0.483053       -13.1445
 163   2.0000      -0.482925       -13.1411
 164   2.0000      -0.478230       -13.0133
 165   2.0000      -0.474849       -12.9213
 166   2.0000      -0.470716       -12.8088
 167   2.0000      -0.470232       -12.7957
 168   2.0000      -0.469745       -12.7824
 169   2.0000      -0.468233       -12.7413
 170   2.0000      -0.464977       -12.6527
 171   2.0000      -0.458429       -12.4745
 172   2.0000      -0.456912       -12.4332
 173   2.0000      -0.453501       -12.3404
 174   2.0000      -0.451345       -12.2817
 175   2.0000      -0.445543       -12.1238
 176   2.0000      -0.443776       -12.0758
 177   2.0000      -0.441654       -12.0180
 178   2.0000      -0.440884       -11.9971
 179   2.0000      -0.438613       -11.9353
 180   2.0000      -0.438076       -11.9207
 181   2.0000      -0.431998       -11.7553
 182   2.0000      -0.431490       -11.7414
 183   2.0000      -0.429713       -11.6931
 184   2.0000      -0.425474       -11.5777
 185   2.0000      -0.423864       -11.5339
 186   2.0000      -0.423203       -11.5159
 187   2.0000      -0.412774       -11.2321
 188   2.0000      -0.406337       -11.0570
 189   2.0000      -0.404387       -11.0039
 190   2.0000      -0.404350       -11.0029
 191   2.0000      -0.387021       -10.5314
 192   2.0000      -0.385209       -10.4821
 193   2.0000      -0.379889       -10.3373
 194   2.0000      -0.374876       -10.2009
 195   2.0000      -0.370219       -10.0742
 196   2.0000      -0.366756        -9.9799
 197   2.0000      -0.363535        -9.8923
 198   2.0000      -0.355438        -9.6720
 199   2.0000      -0.354576        -9.6485
 200   2.0000      -0.353306        -9.6140
 201   2.0000      -0.348588        -9.4856
 202   2.0000      -0.340093        -9.2544
 203   2.0000      -0.337337        -9.1794
 204   2.0000      -0.335969        -9.1422
 205   2.0000      -0.326245        -8.8776
 206   2.0000      -0.321941        -8.7604
 207   2.0000      -0.319325        -8.6893
 208   2.0000      -0.316848        -8.6219
 209   2.0000      -0.316517        -8.6129
 210   2.0000      -0.306435        -8.3385
 211   2.0000      -0.299932        -8.1616
 212   2.0000      -0.294547        -8.0150
 213   2.0000      -0.238090        -6.4788
 214   0.0000      -0.130577        -3.5532
 215   0.0000      -0.091173        -2.4809
 216   0.0000      -0.052000        -1.4150
 217   0.0000      -0.037143        -1.0107
 218   0.0000      -0.026175        -0.7123

MULLIKEN ATOMIC CHARGES
-----------------------
   0 C :   -0.039477
   1 C :   -0.017042
   2 C :    0.087790
   3 C :    0.006067
   4 C :   -0.048340
   5 C :    0.026177
   6 C :    0.020989
   7 C :    0.043440
   8 C :   -0.031988
   9 C :    0.085772
  10 N :    0.264339
  11 O :   -0.244044
  12 O :   -0.227757
  13 C :    0.019571
  14 C :   -0.002571
  15 C :    0.031715
  16 C :    0.039334
  17 C :    0.015194
  18 C :    0.022142
  19 C :    0.092506
  20 N :    0.271749
  21 O :   -0.245194
  22 O :   -0.253228
  23 C :    0.031651
  24 C :   -0.023225
  25 C :   -0.052380
  26 C :    0.119057
  27 N :   -0.254583
  28 C :    0.095313
  29 C :    0.003686
  30 C :    0.165173
  31 O :   -0.214548
  32 C :   -0.076442
  33 C :   -0.042542
  34 C :    0.157526
  35 O :   -0.180897
  36 N :   -0.256202
  37 C :    0.098061
  38 C :    0.011343
  39 C :    0.142508
  40 C :   -0.032698
  41 C :    0.073273
  42 C :   -0.149134
  43 S :    0.216144
  44 C :   -0.237853
  45 C :    0.091716
  46 C :    0.011452
  47 C :    0.037602
  48 O :   -0.164106
  49 C :    0.061272
  50 C :    0.024490
  51 O :   -0.143177
  52 C :    0.029978
  53 C :   -0.006494
  54 C :    0.095264
  55 C :    0.007066
  56 C :   -0.047164
  57 C :    0.043038
  58 C :    0.022090
  59 C :   -0.005219
  60 H :   -0.027128
  61 H :    0.005960
  62 H :    0.003160
  63 H :    0.010712
  64 H :    0.013404
  65 H :    0.023531
  66 H :   -0.035456
  67 H :   -0.014581
  68 H :   -0.014656
  69 H :   -0.004564
  70 H :    0.010854
  71 H :   -0.003070
  72 H :    0.005966
  73 H :    0.051354
  74 H :    0.004844
  75 H :    0.024682
  76 H :    0.044763
  77 H :    0.018671
  78 H :    0.024639
  79 H :    0.029833
  80 H :    0.043537
  81 H :    0.037707
  82 H :    0.023544
  83 H :    0.025828
  84 H :    0.019618
  85 H :   -0.009858
  86 H :    0.000231
  87 H :    0.066148
  88 H :    0.069942
  89 H :    0.012474
  90 H :   -0.005377
  91 H :    0.013380
  92 H :    0.015357
  93 H :    0.012686
  94 H :   -0.023713
  95 H :   -0.011245
  96 H :   -0.011674
  97 H :   -0.019687
Sum of atomic charges:   -0.0000000

LOEWDIN ATOMIC CHARGES
----------------------
   0 C :   -0.022119
   1 C :   -0.008441
   2 C :   -0.030100
   3 C :   -0.051502
   4 C :   -0.039710
   5 C :   -0.012491
   6 C :   -0.025301
   7 C :   -0.016599
   8 C :    0.019619
   9 C :   -0.034530
  10 N :    0.283646
  11 O :   -0.208533
  12 O :   -0.195867
  13 C :   -0.008426
  14 C :   -0.036041
  15 C :    0.026606
  16 C :    0.050982
  17 C :   -0.038558
  18 C :    0.024250
  19 C :   -0.045343
  20 N :    0.283791
  21 O :   -0.208553
  22 O :   -0.217491
  23 C :    0.006808
  24 C :    0.021468
  25 C :   -0.019065
  26 C :    0.057797
  27 N :    0.001204
  28 C :    0.036680
  29 C :   -0.060729
  30 C :    0.077155
  31 O :   -0.206103
  32 C :   -0.122506
  33 C :   -0.098866
  34 C :    0.082263
  35 O :   -0.173649
  36 N :    0.005405
  37 C :    0.038781
  38 C :   -0.058298
  39 C :    0.085618
  40 C :   -0.030801
  41 C :    0.004105
  42 C :   -0.141799
  43 S :    0.507752
  44 C :   -0.115493
  45 C :   -0.100919
  46 C :   -0.090242
  47 C :    0.084635
  48 O :   -0.141031
  49 C :   -0.067630
  50 C :    0.076515
  51 O :   -0.128317
  52 C :   -0.056871
  53 C :    0.008697
  54 C :   -0.029431
  55 C :   -0.051430
  56 C :   -0.023196
  57 C :   -0.009713
  58 C :   -0.027946
  59 C :   -0.013690
  60 H :    0.026752
  61 H :    0.028302
  62 H :    0.023532
  63 H :    0.021956
  64 H :    0.023000
  65 H :    0.022518
  66 H :    0.025182
  67 H :    0.028846
  68 H :    0.028943
  69 H :    0.036100
  70 H :    0.034020
  71 H :    0.036157
  72 H :    0.039424
  73 H :    0.045756
  74 H :    0.032615
  75 H :    0.023401
  76 H :    0.038199
  77 H :    0.023003
  78 H :    0.031306
  79 H :    0.032509
  80 H :    0.038141
  81 H :    0.029953
  82 H :    0.029121
  83 H :    0.032915
  84 H :    0.024183
  85 H :    0.030122
  86 H :    0.034940
  87 H :    0.062498
  88 H :    0.064826
  89 H :    0.029072
  90 H :    0.027723
  91 H :    0.016955
  92 H :    0.025225
  93 H :    0.023680
  94 H :    0.027930
  95 H :    0.030172
  96 H :    0.029912
  97 H :    0.024667

  Mayer bond orders larger than 0.100000
B(  0-C ,  1-C ) :   1.3749 B(  0-C ,  7-C ) :   1.3854 B(  0-C , 60-H ) :   0.9918
B(  1-C ,  2-C ) :   1.0564 B(  1-C ,  4-C ) :   1.4376 B(  2-C ,  3-C ) :   1.1021
B(  2-C , 61-H ) :   0.9274 B(  2-C , 62-H ) :   0.9157 B(  3-C , 63-H ) :   0.9708
B(  3-C , 64-H ) :   0.9668 B(  3-C , 65-H ) :   0.9586 B(  4-C ,  5-C ) :   1.4057
B(  4-C ,  8-C ) :   0.9327 B(  5-C ,  6-C ) :   1.3787 B(  5-C , 66-H ) :   0.9958
B(  6-C ,  7-C ) :   1.3754 B(  6-C , 67-H ) :   0.9901 B(  7-C , 68-H ) :   0.9918
B(  8-C ,  9-C ) :   1.6651 B(  8-C , 15-C ) :   1.0806 B(  9-C , 10-N ) :   0.9294
B(  9-C , 13-C ) :   1.0996 B( 10-N , 11-O ) :   1.5268 B( 10-N , 12-O ) :   1.5084
B( 11-O , 12-O ) :   0.2688 B( 13-C , 14-C ) :   1.6305 B( 13-C , 69-H ) :   1.0134
B( 14-C , 15-C ) :   1.0873 B( 14-C , 70-H ) :   0.9897 B( 15-C , 16-C ) :   1.5138
B( 16-C , 17-C ) :   1.1346 B( 16-C , 23-C ) :   0.9903 B( 17-C , 18-C ) :   1.5542
B( 17-C , 71-H ) :   1.0098 B( 18-C , 19-C ) :   1.1305 B( 18-C , 72-H ) :   1.0142
B( 19-C , 20-N ) :   0.9487 B( 19-C , 23-C ) :   1.4996 B( 20-N , 21-O ) :   1.4999
B( 20-N , 22-O ) :   1.5212 B( 21-O , 22-O ) :   0.2611 B( 23-C , 24-C ) :   1.1990
B( 24-C , 25-C ) :   1.5246 B( 24-C , 73-H ) :   0.9278 B( 25-C , 26-C ) :   1.1957
B( 25-C , 74-H ) :   0.9488 B( 26-C , 27-N ) :   1.1515 B( 26-C , 33-C ) :   1.3288
B( 27-N , 28-C ) :   0.9464 B( 27-N , 30-C ) :   1.0698 B( 28-C , 29-C ) :   1.1195
B( 28-C , 75-H ) :   0.9491 B( 28-C , 76-H ) :   0.9287 B( 29-C , 77-H ) :   0.9684
B( 29-C , 78-H ) :   0.9677 B( 29-C , 79-H ) :   0.9634 B( 30-C , 31-O ) :   2.0178
B( 30-C , 32-C ) :   0.9912 B( 31-O , 86-H ) :   0.1173 B( 32-C , 33-C ) :   1.2859
B( 32-C , 39-C ) :   1.2829 B( 33-C , 34-C ) :   0.9643 B( 34-C , 35-O ) :   2.0901
B( 34-C , 36-N ) :   1.0443 B( 36-N , 37-C ) :   0.9371 B( 36-N , 39-C ) :   1.1844
B( 37-C , 38-C ) :   1.1250 B( 37-C , 80-H ) :   0.9291 B( 37-C , 81-H ) :   0.9474
B( 38-C , 82-H ) :   0.9636 B( 38-C , 83-H ) :   0.9675 B( 38-C , 84-H ) :   0.9671
B( 39-C , 40-C ) :   1.1738 B( 40-C , 41-C ) :   1.5940 B( 40-C , 85-H ) :   0.9360
B( 41-C , 42-C ) :   1.1566 B( 41-C , 86-H ) :   0.9296 B( 42-C , 43-S ) :   1.1447
B( 42-C , 46-C ) :   1.4380 B( 43-S , 44-C ) :   1.1858 B( 44-C , 45-C ) :   1.5126
B( 44-C , 52-C ) :   0.9930 B( 45-C , 46-C ) :   1.1996 B( 45-C , 50-C ) :   0.9371
B( 46-C , 47-C ) :   0.9580 B( 47-C , 48-O ) :   2.1218 B( 47-C , 49-C ) :   1.0030
B( 48-O , 85-H ) :   0.1150 B( 49-C , 50-C ) :   0.9870 B( 49-C , 87-H ) :   0.8960
B( 49-C , 88-H ) :   0.8943 B( 50-C , 51-O ) :   2.2096 B( 52-C , 53-C ) :   1.4036
B( 52-C , 59-C ) :   1.3764 B( 53-C , 54-C ) :   1.0649 B( 53-C , 56-C ) :   1.3994
B( 54-C , 55-C ) :   1.0956 B( 54-C , 89-H ) :   0.9103 B( 54-C , 90-H ) :   0.9209
B( 55-C , 91-H ) :   0.9715 B( 55-C , 92-H ) :   0.9661 B( 55-C , 93-H ) :   0.9668
B( 56-C , 57-C ) :   1.3823 B( 56-C , 94-H ) :   0.9893 B( 57-C , 58-C ) :   1.3765
B( 57-C , 95-H ) :   0.9920 B( 58-C , 59-C ) :   1.3920 B( 58-C , 96-H ) :   0.9909
B( 59-C , 97-H ) :   0.9929

-----------------------------------------------------------------------------
         ABSORPTION SPECTRUM VIA TRANSITION ELECTRIC DIPOLE MOMENTS
-----------------------------------------------------------------------------
State   Energy  Wavelength   fosc         T2         TX        TY        TZ
        (cm-1)    (nm)                  (au**2)     (au)      (au)      (au)
-----------------------------------------------------------------------------
   0    7853.6   1273.3   0.314375505  13.17813   0.47958  -3.59612  -0.12668
   1   16053.8    622.9   0.341026924   6.99338  -0.96949   2.45934  -0.07144
   2   17196.4    581.5   0.019227788   0.36810   0.16382  -0.58416  -0.00448
   3   19026.3    525.6   0.000719130   0.01244   0.11016   0.01568  -0.00793
   4   20471.3    488.5   0.002045015   0.03289   0.17541   0.04491  -0.01003
   5   21955.3    455.5   0.003207309   0.04809   0.21732  -0.00713   0.02852
   6   23214.5    430.8   0.033228891   0.47123  -0.34133   0.50995   0.30769
   7   24036.9    416.0   0.209750282   2.87276   0.46341  -1.46627  -0.71278
   8   24578.0    406.9   0.084466873   1.13140  -0.10507   1.00712   0.32568
   9   25309.2    395.1   0.003621947   0.04711  -0.04218   0.16337   0.13654
  10   26227.5    381.3   0.015700724   0.19708   0.37103   0.20796  -0.12715
  11   27610.7    362.2   0.118575265   1.41381  -0.64557  -0.99624  -0.06760
  12   28143.1    355.3   0.002435118   0.02849   0.10956  -0.12489  -0.02974
  13   28164.2    355.1   0.001471340   0.01720  -0.00237  -0.09114  -0.09427
  14   29458.3    339.5   0.023813859   0.26613  -0.40638   0.17974   0.26207
  15   29848.7    335.0   0.038957024   0.42967   0.25232   0.37217   0.47696
  16   29943.4    334.0   0.075104360   0.82573   0.12736  -0.89586   0.08336
  17   30214.0    331.0   0.189237922   2.06194  -0.73194   0.54791   1.10725
  18   30611.3    326.7   0.088488496   0.95166  -0.78977  -0.38475   0.42413
  19   30656.7    326.2   0.161630443   1.73569   1.03460  -0.09638  -0.80994
  20   30897.0    323.7   0.061770670   0.65818  -0.44675  -0.67705  -0.01385
  21   31166.1    320.9   0.239538980   2.53028   0.98513  -0.25344  -1.22294
  22   32521.3    307.5   0.041141595   0.41647  -0.36653  -0.50946   0.15029
  23   32661.8    306.2   0.223485549   2.25261  -1.20733  -0.15624   0.87781
  24   32754.7    305.3   0.166366121   1.67212  -0.91386   0.50989   0.75960
  25   33089.8    302.2   0.024382277   0.24258   0.14555  -0.47037  -0.01224
  26   33183.0    301.4   0.004147362   0.04115  -0.03408  -0.12934  -0.15250
  27   33223.7    301.0   0.010374716   0.10280   0.25541  -0.14458  -0.12908
  28   33475.6    298.7   0.004860419   0.04780  -0.02568  -0.21410   0.03607
  29   34117.0    293.1   0.029385218   0.28355   0.46523   0.05836  -0.25240
  30   34546.4    289.5   0.007587665   0.07231   0.17081  -0.19410  -0.07385
  31   34789.0    287.4   0.005723923   0.05417   0.17253  -0.15607  -0.00658
  32   35464.1    282.0   0.004917323   0.04565  -0.09574   0.19063  -0.01184
  33   35685.9    280.2   0.012140174   0.11200  -0.07065  -0.31652   0.08260
  34   36278.0    275.6   0.027797716   0.25226  -0.07140  -0.30590  -0.39190
  35   36399.2    274.7   0.032397699   0.29302  -0.30924  -0.24779   0.36877
  36   36528.8    273.8   0.017900529   0.16133  -0.03729  -0.01337  -0.39970
  37   36566.2    273.5   0.015590443   0.14036   0.19767  -0.31652  -0.03324
  38   36786.7    271.8   0.041953544   0.37545   0.28330  -0.51891  -0.16102
  39   37081.7    269.7   0.029396369   0.26098  -0.35053  -0.31992   0.18911
  40   37918.8    263.7   0.010798058   0.09375  -0.04002   0.13701   0.27088
  41   38200.8    261.8   0.085274925   0.73489  -0.22411   0.12046   0.81863
  42   38654.2    258.7   0.033682180   0.28687  -0.46480  -0.16941   0.20525
  43   39006.0    256.4   0.031363356   0.26471   0.24535  -0.34547  -0.29183
  44   39106.4    255.7   0.016598542   0.13973  -0.33489   0.06510   0.15278
  45   39997.6    250.0   0.024864605   0.20466  -0.15307   0.24880   0.34543

FINAL SINGLE POINT ENERGY     -3029.249555694122

DIPOLE MOMENT
-------------
                                X             Y             Z
Electronic contribution:     16.41096       5.39680      -5.55017
Nuclear contribution   :    -16.81207      -4.31844       6.55439
                        -----------------------------------------
Total Dipole Moment    :     -0.40111       1.07836       1.00421
                        -----------------------------------------
Magnitude (a.u.)       :      1.52715
Magnitude (Debye)      :      3.88172

Rotational constants in cm-1:     0.002747     0.000466     0.000432
Rotational constants in MHz :    82.352849    13.976961    12.938930

                             ****ORCA TERMINATED NORMALLY****
TOTAL RUN TIME: 0 days 0 hours 9 minutes 4 seconds 318 msec
