                         Program Version 4.2.0 -  RELEASE  -
|  1> # ORCA input file
|  2> # SCF done       -199.084786492936          0.000684167059
|  3> ! CAM-B3LYP def2-SVP def2/J RIJCOSX Grid4 TightSCF
|  4> %maxcore 5000
|  5> %tddft
|  6>     Mode sTDDFT
|  7>     Ethresh 5.0
|  8>     maxcore 5000
|  9> end
| 10>
| 11> %pal
| 12>   nprocs 6
| 13>   end
| 14> * xyz 0 1
| 15>    C       -0.98246        -5.01297        -4.10092
| 16>    C       -0.12914        -4.11511        -3.20859
| 17>    N        1.27320        -4.23982        -3.51595
| 18>    C        2.08468        -5.26422        -3.13611
| 19>    C        3.32670        -5.07144        -3.66597
| 20>    C        4.67640        -5.58442        -3.72221
| 21>    O        5.19683        -6.57715        -3.26733
| 22>    N        5.38381        -4.62383        -4.49326
| 23>    C        6.73772        -4.88514        -4.92402
| 24>    C        6.77498        -5.36330        -6.37344
| 25>    C        4.55699        -3.61271        -4.89888
| 26>    N        4.96647        -2.52252        -5.64176
| 27>    C        5.99668        -1.66583        -5.31214
| 28>    O        6.82544        -1.86455        -4.45620
| 29>    C        5.89488        -0.44064        -6.21746
| 30>    C        7.19616        -0.29743        -7.04082
| 31>    C        7.62285        -1.69169        -7.47777
| 32>    O        7.00288        -2.46548        -8.16830
| 33>    N        8.83143        -1.97800        -6.87130
| 34>    C        9.36424        -3.25077        -6.95024
| 35>    C       10.08435        -3.83550        -5.97751
| 36>    C       10.62596        -5.15336        -5.98863
| 37>    S       11.05894        -5.82345        -4.43633
| 38>    C       11.55456        -7.31688        -5.13338
| 39>    N       12.10221        -8.36998        -4.45933
| 40>    C       12.39980        -8.52996        -3.14250
| 41>    S       13.39287        -9.86905        -2.66927
| 42>    C       13.34678        -9.45137        -0.97246
| 43>    C       14.04687       -10.25449        -0.04103
| 44>    S       14.90437       -11.68691        -0.63058
| 45>    C       15.47982       -12.08351         0.95158
| 46>    C       15.04679       -11.18600         1.86265
| 47>    C       14.23142       -10.14188         1.31680
| 48>    C       13.85423        -9.26648         2.39969
| 49>    C       14.39239        -9.71960         3.55201
| 50>    C       15.18095       -10.94993         3.32430
| 51>    O       15.79356       -11.60820         4.13317
| 52>    C       12.57133        -8.30779        -0.79648
| 53>    N       12.29054        -7.70032         0.37445
| 54>    C       11.51269        -6.65477         0.32415
| 55>    C       10.98563        -6.14132        -0.88508
| 56>    N       11.24714        -6.69356        -2.03815
| 57>    C       12.03166        -7.78121        -2.02713
| 58>    C       11.38897        -7.31378        -6.52501
| 59>    C       11.68279        -8.35228        -7.42272
| 60>    C       11.50062        -8.16575        -8.77361
| 61>    C       11.80046        -9.22325        -9.66132
| 62>    N       12.05354       -10.10586       -10.34686
| 63>    C       11.03668        -6.90784        -9.26169
| 64>    C       10.91006        -6.73004       -10.74750
| 65>    F       12.08101        -6.91043       -11.38478
| 66>    F       10.03912        -7.59296       -11.29662
| 67>    F       10.48729        -5.50264       -11.08630
| 68>    C       10.72951        -5.88808        -8.40790
| 69>    C       10.86740        -6.06466        -7.01420
| 70>    C        9.29766        -0.87617        -6.14636
| 71>    C       10.50557        -0.69439        -5.50046
| 72>    C       10.75379         0.52605        -4.87833
| 73>    C       12.04037         0.74293        -4.14215
| 74>    C        9.79947         1.53589        -4.92727
| 75>    C        8.60366         1.36488        -5.60817
| 76>    C        8.36121         0.15756        -6.22445
| 77>    C        4.68976        -0.73927        -7.04762
| 78>    C        4.08936        -0.02564        -8.06049
| 79>    C        2.97175        -0.56627        -8.68046
| 80>    C        2.46927        -1.80919        -8.31766
| 81>    C        1.25940        -2.37828        -8.99063
| 82>    C        3.08631        -2.53535        -7.30116
| 83>    C        4.17493        -1.97784        -6.66975
| 84>    C        3.28825        -3.84773        -4.42357
| 85>    C        1.95604        -3.30554        -4.33076
| 86>    O        1.43324        -2.30905        -4.78725
| 87>    H       -2.03316        -4.88755        -3.85502
| 88>    H       -0.71304        -6.05810        -3.96456
| 89>    H       -0.83507        -4.74836        -5.14513
| 90>    H       -0.28898        -4.36145        -2.15493
| 91>    H       -0.39053        -3.06689        -3.37742
| 92>    H        1.71952        -6.05087        -2.50195
| 93>    H        7.10542        -5.67393        -4.26124
| 94>    H        7.34867        -3.99132        -4.78558
| 95>    H        6.08460        -6.19359        -6.50804
| 96>    H        7.77620        -5.70628        -6.61931
| 97>    H        6.50177        -4.56532        -7.06097
| 98>    H        5.77182         0.45538        -5.60136
| 99>    H        6.99801         0.34548        -7.90195
|100>    H        9.04026        -3.77244        -7.83886
|101>    H       10.22625        -3.30310        -5.04719
|102>    H       12.41780        -9.12585        -5.05610
|103>    H       16.09574       -12.95053         1.08658
|104>    H       13.23551        -8.39895         2.26436
|105>    H       14.28838        -9.27806         4.52628
|106>    H       11.28851        -6.17773         1.26840
|107>    H       10.35206        -5.26698        -0.89870
|108>    H       12.05231        -9.30721        -7.07658
|109>    H       10.40857        -4.93951        -8.80316
|110>    H       11.26123        -1.46322        -5.48979
|111>    H       12.81206         0.06327        -4.49459
|112>    H       11.89118         0.56482        -3.07693
|113>    H       12.38775         1.76620        -4.26358
|114>    H       10.00179         2.47585        -4.43628
|115>    H        7.88273         2.16689        -5.66032
|116>    H        4.47336         0.93642        -8.36554
|117>    H        2.48598        -0.01040        -9.46847
|118>    H        0.96516        -1.77579        -9.84556
|119>    H        0.43043        -2.40813        -8.28439
|120>    H        1.45057        -3.39606        -9.32559
|121>    H        2.71311        -3.50825        -7.02523
|122> *
|123>
|124>                          ****END OF INPUT****

CARTESIAN COORDINATES (ANGSTROEM)
---------------------------------
  C     -0.982460   -5.012970   -4.100920
  C     -0.129140   -4.115110   -3.208590
  N      1.273200   -4.239820   -3.515950
  C      2.084680   -5.264220   -3.136110
  C      3.326700   -5.071440   -3.665970
  C      4.676400   -5.584420   -3.722210
  O      5.196830   -6.577150   -3.267330
  N      5.383810   -4.623830   -4.493260
  C      6.737720   -4.885140   -4.924020
  C      6.774980   -5.363300   -6.373440
  C      4.556990   -3.612710   -4.898880
  N      4.966470   -2.522520   -5.641760
  C      5.996680   -1.665830   -5.312140
  O      6.825440   -1.864550   -4.456200
  C      5.894880   -0.440640   -6.217460
  C      7.196160   -0.297430   -7.040820
  C      7.622850   -1.691690   -7.477770
  O      7.002880   -2.465480   -8.168300
  N      8.831430   -1.978000   -6.871300
  C      9.364240   -3.250770   -6.950240
  C     10.084350   -3.835500   -5.977510
  C     10.625960   -5.153360   -5.988630
  S     11.058940   -5.823450   -4.436330
  C     11.554560   -7.316880   -5.133380
  N     12.102210   -8.369980   -4.459330
  C     12.399800   -8.529960   -3.142500
  S     13.392870   -9.869050   -2.669270
  C     13.346780   -9.451370   -0.972460
  C     14.046870  -10.254490   -0.041030
  S     14.904370  -11.686910   -0.630580
  C     15.479820  -12.083510    0.951580
  C     15.046790  -11.186000    1.862650
  C     14.231420  -10.141880    1.316800
  C     13.854230   -9.266480    2.399690
  C     14.392390   -9.719600    3.552010
  C     15.180950  -10.949930    3.324300
  O     15.793560  -11.608200    4.133170
  C     12.571330   -8.307790   -0.796480
  N     12.290540   -7.700320    0.374450
  C     11.512690   -6.654770    0.324150
  C     10.985630   -6.141320   -0.885080
  N     11.247140   -6.693560   -2.038150
  C     12.031660   -7.781210   -2.027130
  C     11.388970   -7.313780   -6.525010
  C     11.682790   -8.352280   -7.422720
  C     11.500620   -8.165750   -8.773610
  C     11.800460   -9.223250   -9.661320
  N     12.053540  -10.105860  -10.346860
  C     11.036680   -6.907840   -9.261690
  C     10.910060   -6.730040  -10.747500
  F     12.081010   -6.910430  -11.384780
  F     10.039120   -7.592960  -11.296620
  F     10.487290   -5.502640  -11.086300
  C     10.729510   -5.888080   -8.407900
  C     10.867400   -6.064660   -7.014200
  C      9.297660   -0.876170   -6.146360
  C     10.505570   -0.694390   -5.500460
  C     10.753790    0.526050   -4.878330
  C     12.040370    0.742930   -4.142150
  C      9.799470    1.535890   -4.927270
  C      8.603660    1.364880   -5.608170
  C      8.361210    0.157560   -6.224450
  C      4.689760   -0.739270   -7.047620
  C      4.089360   -0.025640   -8.060490
  C      2.971750   -0.566270   -8.680460
  C      2.469270   -1.809190   -8.317660
  C      1.259400   -2.378280   -8.990630
  C      3.086310   -2.535350   -7.301160
  C      4.174930   -1.977840   -6.669750
  C      3.288250   -3.847730   -4.423570
  C      1.956040   -3.305540   -4.330760
  O      1.433240   -2.309050   -4.787250
  H     -2.033160   -4.887550   -3.855020
  H     -0.713040   -6.058100   -3.964560
  H     -0.835070   -4.748360   -5.145130
  H     -0.288980   -4.361450   -2.154930
  H     -0.390530   -3.066890   -3.377420
  H      1.719520   -6.050870   -2.501950
  H      7.105420   -5.673930   -4.261240
  H      7.348670   -3.991320   -4.785580
  H      6.084600   -6.193590   -6.508040
  H      7.776200   -5.706280   -6.619310
  H      6.501770   -4.565320   -7.060970
  H      5.771820    0.455380   -5.601360
  H      6.998010    0.345480   -7.901950
  H      9.040260   -3.772440   -7.838860
  H     10.226250   -3.303100   -5.047190
  H     12.417800   -9.125850   -5.056100
  H     16.095740  -12.950530    1.086580
  H     13.235510   -8.398950    2.264360
  H     14.288380   -9.278060    4.526280
  H     11.288510   -6.177730    1.268400
  H     10.352060   -5.266980   -0.898700
  H     12.052310   -9.307210   -7.076580
  H     10.408570   -4.939510   -8.803160
  H     11.261230   -1.463220   -5.489790
  H     12.812060    0.063270   -4.494590
  H     11.891180    0.564820   -3.076930
  H     12.387750    1.766200   -4.263580
  H     10.001790    2.475850   -4.436280
  H      7.882730    2.166890   -5.660320
  H      4.473360    0.936420   -8.365540
  H      2.485980   -0.010400   -9.468470
  H      0.965160   -1.775790   -9.845560
  H      0.430430   -2.408130   -8.284390
  H      1.450570   -3.396060   -9.325590
  H      2.713110   -3.508250   -7.025230

 Total Charge           Charge          ....    0
 Multiplicity           Mult            ....    1
 Number of Electrons    NEL             ....  524
 Basis Dimension        Dim             .... 1195

ORBITAL ENERGIES
----------------

  NO   OCC          E(Eh)            E(eV)
   0   2.0000     -88.994758     -2421.6705
   1   2.0000     -88.983769     -2421.3715
   2   2.0000     -88.961388     -2420.7624
   3   2.0000     -24.797309      -674.7691
   4   2.0000     -24.790917      -674.5951
   5   2.0000     -24.790528      -674.5846
   6   2.0000     -19.213705      -522.8315
   7   2.0000     -19.209410      -522.7146
   8   2.0000     -19.198084      -522.4064
   9   2.0000     -19.187247      -522.1115
  10   2.0000     -19.184000      -522.0232
  11   2.0000     -14.503903      -394.6713
  12   2.0000     -14.479063      -393.9953
  13   2.0000     -14.472570      -393.8186
  14   2.0000     -14.452394      -393.2696
  15   2.0000     -14.451194      -393.2370
  16   2.0000     -14.448226      -393.1562
  17   2.0000     -14.440656      -392.9502
  18   2.0000     -14.403030      -391.9264
  19   2.0000     -10.514568      -286.1159
  20   2.0000     -10.396530      -282.9040
  21   2.0000     -10.388717      -282.6914
  22   2.0000     -10.377020      -282.3731
  23   2.0000     -10.376473      -282.3582
  24   2.0000     -10.373064      -282.2654
  25   2.0000     -10.369616      -282.1716
  26   2.0000     -10.368338      -282.1368
  27   2.0000     -10.348594      -281.5996
  28   2.0000     -10.336044      -281.2581
  29   2.0000     -10.332171      -281.1527
  30   2.0000     -10.331943      -281.1465
  31   2.0000     -10.331596      -281.1370
  32   2.0000     -10.329081      -281.0686
  33   2.0000     -10.324810      -280.9524
  34   2.0000     -10.323591      -280.9192
  35   2.0000     -10.321764      -280.8695
  36   2.0000     -10.321468      -280.8614
  37   2.0000     -10.321120      -280.8520
  38   2.0000     -10.317268      -280.7471
  39   2.0000     -10.312680      -280.6223
  40   2.0000     -10.311008      -280.5768
  41   2.0000     -10.309073      -280.5241
  42   2.0000     -10.308340      -280.5042
  43   2.0000     -10.308153      -280.4991
  44   2.0000     -10.306600      -280.4568
  45   2.0000     -10.305972      -280.4397
  46   2.0000     -10.304388      -280.3967
  47   2.0000     -10.303293      -280.3669
  48   2.0000     -10.302775      -280.3528
  49   2.0000     -10.300647      -280.2948
  50   2.0000     -10.291840      -280.0552
  51   2.0000     -10.290937      -280.0306
  52   2.0000     -10.284022      -279.8425
  53   2.0000     -10.283702      -279.8338
  54   2.0000     -10.281067      -279.7620
  55   2.0000     -10.280710      -279.7523
  56   2.0000     -10.279817      -279.7280
  57   2.0000     -10.275974      -279.6235
  58   2.0000     -10.273685      -279.5612
  59   2.0000     -10.273006      -279.5427
  60   2.0000     -10.272528      -279.5297
  61   2.0000     -10.269888      -279.4578
  62   2.0000     -10.268843      -279.4294
  63   2.0000     -10.268663      -279.4245
  64   2.0000     -10.265524      -279.3391
  65   2.0000     -10.265212      -279.3306
  66   2.0000     -10.264068      -279.2995
  67   2.0000     -10.260589      -279.2048
  68   2.0000     -10.259594      -279.1777
  69   2.0000     -10.258384      -279.1448
  70   2.0000     -10.256959      -279.1060
  71   2.0000     -10.247072      -278.8370
  72   2.0000      -8.090283      -220.1478
  73   2.0000      -8.077131      -219.7899
  74   2.0000      -8.057234      -219.2485
  75   2.0000      -6.059750      -164.8942
  76   2.0000      -6.055484      -164.7781
  77   2.0000      -6.052119      -164.6865
  78   2.0000      -6.046370      -164.5301
  79   2.0000      -6.042038      -164.4122
  80   2.0000      -6.039587      -164.3455
  81   2.0000      -6.026988      -164.0027
  82   2.0000      -6.022403      -163.8779
  83   2.0000      -6.018835      -163.7808
  84   2.0000      -1.383216       -37.6392
  85   2.0000      -1.286901       -35.0184
  86   2.0000      -1.282491       -34.8984
  87   2.0000      -1.161111       -31.5954
  88   2.0000      -1.150155       -31.2973
  89   2.0000      -1.130001       -30.7489
  90   2.0000      -1.122157       -30.5354
  91   2.0000      -1.112942       -30.2847
  92   2.0000      -1.110459       -30.2171
  93   2.0000      -1.092300       -29.7230
  94   2.0000      -1.087431       -29.5905
  95   2.0000      -1.074116       -29.2282
  96   2.0000      -1.056833       -28.7579
  97   2.0000      -1.044883       -28.4327
  98   2.0000      -1.023450       -27.8495
  99   2.0000      -1.015503       -27.6332
 100   2.0000      -1.001601       -27.2550
 101   2.0000      -0.991487       -26.9797
 102   2.0000      -0.981227       -26.7005
 103   2.0000      -0.965452       -26.2713
 104   2.0000      -0.958330       -26.0775
 105   2.0000      -0.950904       -25.8754
 106   2.0000      -0.930395       -25.3173
 107   2.0000      -0.924264       -25.1505
 108   2.0000      -0.923241       -25.1227
 109   2.0000      -0.908196       -24.7133
 110   2.0000      -0.893026       -24.3005
 111   2.0000      -0.876871       -23.8609
 112   2.0000      -0.874005       -23.7829
 113   2.0000      -0.871470       -23.7139
 114   2.0000      -0.868325       -23.6283
 115   2.0000      -0.865572       -23.5534
 116   2.0000      -0.846537       -23.0354
 117   2.0000      -0.843699       -22.9582
 118   2.0000      -0.838722       -22.8228
 119   2.0000      -0.830588       -22.6014
 120   2.0000      -0.824271       -22.4296
 121   2.0000      -0.814386       -22.1606
 122   2.0000      -0.808855       -22.0101
 123   2.0000      -0.801938       -21.8218
 124   2.0000      -0.797584       -21.7034
 125   2.0000      -0.784695       -21.3526
 126   2.0000      -0.777400       -21.1541
 127   2.0000      -0.772761       -21.0279
 128   2.0000      -0.758144       -20.6301
 129   2.0000      -0.756614       -20.5885
 130   2.0000      -0.756129       -20.5753
 131   2.0000      -0.755931       -20.5699
 132   2.0000      -0.744529       -20.2597
 133   2.0000      -0.741599       -20.1799
 134   2.0000      -0.726386       -19.7660
 135   2.0000      -0.719245       -19.5716
 136   2.0000      -0.713785       -19.4231
 137   2.0000      -0.712528       -19.3889
 138   2.0000      -0.708815       -19.2878
 139   2.0000      -0.703310       -19.1380
 140   2.0000      -0.691276       -18.8106
 141   2.0000      -0.686065       -18.6688
 142   2.0000      -0.681923       -18.5561
 143   2.0000      -0.679073       -18.4785
 144   2.0000      -0.669300       -18.2126
 145   2.0000      -0.666307       -18.1311
 146   2.0000      -0.664660       -18.0863
 147   2.0000      -0.660281       -17.9672
 148   2.0000      -0.658883       -17.9291
 149   2.0000      -0.652482       -17.7549
 150   2.0000      -0.644245       -17.5308
 151   2.0000      -0.641396       -17.4533
 152   2.0000      -0.632965       -17.2238
 153   2.0000      -0.622464       -16.9381
 154   2.0000      -0.618758       -16.8373
 155   2.0000      -0.617048       -16.7907
 156   2.0000      -0.613544       -16.6954
 157   2.0000      -0.611144       -16.6301
 158   2.0000      -0.607561       -16.5326
 159   2.0000      -0.596334       -16.2271
 160   2.0000      -0.592857       -16.1325
 161   2.0000      -0.591906       -16.1066
 162   2.0000      -0.586706       -15.9651
 163   2.0000      -0.580807       -15.8046
 164   2.0000      -0.577584       -15.7169
 165   2.0000      -0.570957       -15.5365
 166   2.0000      -0.568691       -15.4749
 167   2.0000      -0.567154       -15.4330
 168   2.0000      -0.561845       -15.2886
 169   2.0000      -0.557425       -15.1683
 170   2.0000      -0.554363       -15.0850
 171   2.0000      -0.552528       -15.0350
 172   2.0000      -0.550674       -14.9846
 173   2.0000      -0.545975       -14.8567
 174   2.0000      -0.544603       -14.8194
 175   2.0000      -0.543554       -14.7909
 176   2.0000      -0.542296       -14.7566
 177   2.0000      -0.540980       -14.7208
 178   2.0000      -0.537139       -14.6163
 179   2.0000      -0.535148       -14.5621
 180   2.0000      -0.530460       -14.4345
 181   2.0000      -0.528485       -14.3808
 182   2.0000      -0.526112       -14.3162
 183   2.0000      -0.522145       -14.2083
 184   2.0000      -0.518527       -14.1098
 185   2.0000      -0.517345       -14.0777
 186   2.0000      -0.514914       -14.0115
 187   2.0000      -0.511431       -13.9167
 188   2.0000      -0.510694       -13.8967
 189   2.0000      -0.509185       -13.8556
 190   2.0000      -0.508924       -13.8485
 191   2.0000      -0.506032       -13.7698
 192   2.0000      -0.504261       -13.7216
 193   2.0000      -0.502732       -13.6800
 194   2.0000      -0.500651       -13.6234
 195   2.0000      -0.498490       -13.5646
 196   2.0000      -0.497873       -13.5478
 197   2.0000      -0.496557       -13.5120
 198   2.0000      -0.496304       -13.5051
 199   2.0000      -0.494200       -13.4479
 200   2.0000      -0.491827       -13.3833
 201   2.0000      -0.491037       -13.3618
 202   2.0000      -0.489118       -13.3096
 203   2.0000      -0.487152       -13.2561
 204   2.0000      -0.478599       -13.0233
 205   2.0000      -0.478347       -13.0165
 206   2.0000      -0.475458       -12.9379
 207   2.0000      -0.472764       -12.8646
 208   2.0000      -0.471849       -12.8397
 209   2.0000      -0.469703       -12.7813
 210   2.0000      -0.469201       -12.7676
 211   2.0000      -0.468258       -12.7419
 212   2.0000      -0.465241       -12.6598
 213   2.0000      -0.463598       -12.6151
 214   2.0000      -0.461857       -12.5678
 215   2.0000      -0.457623       -12.4526
 216   2.0000      -0.457156       -12.4398
 217   2.0000      -0.456446       -12.4205
 218   2.0000      -0.455369       -12.3912
 219   2.0000      -0.453555       -12.3419
 220   2.0000      -0.449961       -12.2441
 221   2.0000      -0.448302       -12.1989
 222   2.0000      -0.447662       -12.1815
 223   2.0000      -0.440721       -11.9926
 224   2.0000      -0.438641       -11.9360
 225   2.0000      -0.437073       -11.8934
 226   2.0000      -0.435282       -11.8446
 227   2.0000      -0.432835       -11.7780
 228   2.0000      -0.431543       -11.7429
 229   2.0000      -0.431138       -11.7319
 230   2.0000      -0.425839       -11.5877
 231   2.0000      -0.420085       -11.4311
 232   2.0000      -0.416831       -11.3425
 233   2.0000      -0.416373       -11.3301
 234   2.0000      -0.412489       -11.2244
 235   2.0000      -0.406728       -11.0676
 236   2.0000      -0.405838       -11.0434
 237   2.0000      -0.403168       -10.9708
 238   2.0000      -0.402030       -10.9398
 239   2.0000      -0.388372       -10.5681
 240   2.0000      -0.382968       -10.4211
 241   2.0000      -0.380566       -10.3557
 242   2.0000      -0.377653       -10.2765
 243   2.0000      -0.356153        -9.6914
 244   2.0000      -0.353013        -9.6060
 245   2.0000      -0.349193        -9.5020
 246   2.0000      -0.346937        -9.4406
 247   2.0000      -0.343343        -9.3428
 248   2.0000      -0.341082        -9.2813
 249   2.0000      -0.338779        -9.2187
 250   2.0000      -0.329339        -8.9618
 251   2.0000      -0.327137        -8.9018
 252   2.0000      -0.319878        -8.7043
 253   2.0000      -0.316192        -8.6040
 254   2.0000      -0.311636        -8.4801
 255   2.0000      -0.306187        -8.3318
 256   2.0000      -0.300362        -8.1733
 257   2.0000      -0.293651        -7.9906
 258   2.0000      -0.288574        -7.8525
 259   2.0000      -0.264973        -7.2103
 260   2.0000      -0.251952        -6.8560
 261   2.0000      -0.228450        -6.2164
 262   0.0000      -0.083908        -2.2833
 263   0.0000      -0.054690        -1.4882
 264   0.0000      -0.045986        -1.2514
 265   0.0000      -0.036596        -0.9958
 266   0.0000      -0.019403        -0.5280

MULLIKEN ATOMIC CHARGES
-----------------------
   0 C :   -0.002243
   1 C :    0.113805
   2 N :   -0.261912
   3 C :    0.043585
   4 C :   -0.015445
   5 C :    0.176912
   6 O :   -0.178074
   7 N :   -0.261659
   8 C :    0.100975
   9 C :   -0.011287
  10 C :    0.150965
  11 N :   -0.187525
  12 C :    0.120015
  13 O :   -0.183385
  14 C :    0.051626
  15 C :    0.051653
  16 C :    0.103478
  17 O :   -0.185479
  18 N :   -0.169231
  19 C :    0.052799
  20 C :    0.047065
  21 C :   -0.157584
  22 S :    0.181138
  23 C :   -0.098710
  24 N :    0.038966
  25 C :   -0.195483
  26 S :    0.151961
  27 C :   -0.140569
  28 C :   -0.115886
  29 S :    0.087822
  30 C :   -0.116923
  31 C :   -0.001469
  32 C :    0.038812
  33 C :    0.061766
  34 C :   -0.059670
  35 C :    0.159737
  36 O :   -0.142138
  37 C :    0.037095
  38 N :   -0.025168
  39 C :    0.039736
  40 C :    0.033486
  41 N :   -0.046779
  42 C :    0.082132
  43 C :    0.129155
  44 C :   -0.070501
  45 C :   -0.091257
  46 C :   -0.170155
  47 N :    0.126484
  48 C :   -0.056722
  49 C :    0.522681
  50 F :   -0.160146
  51 F :   -0.157342
  52 F :   -0.154353
  53 C :   -0.084928
  54 C :    0.147201
  55 C :    0.245571
  56 C :   -0.132410
  57 C :   -0.036765
  58 C :    0.085514
  59 C :   -0.003226
  60 C :   -0.050131
  61 C :   -0.003113
  62 C :    0.006723
  63 C :   -0.050882
  64 C :   -0.002113
  65 C :   -0.038163
  66 C :    0.087805
  67 C :   -0.080961
  68 C :    0.249070
  69 C :   -0.068651
  70 C :    0.130153
  71 O :   -0.194582
  72 H :    0.023735
  73 H :    0.015102
  74 H :    0.028132
  75 H :    0.017200
  76 H :    0.041109
  77 H :    0.014077
  78 H :    0.029773
  79 H :    0.038658
  80 H :    0.013946
  81 H :    0.017143
  82 H :    0.036851
  83 H :    0.049671
  84 H :    0.045688
  85 H :    0.035154
  86 H :    0.003766
  87 H :    0.142626
  88 H :    0.034617
  89 H :   -0.004584
  90 H :   -0.012930
  91 H :    0.018065
  92 H :    0.017424
  93 H :   -0.020504
  94 H :   -0.010635
  95 H :   -0.038912
  96 H :    0.013628
  97 H :    0.036022
  98 H :    0.021923
  99 H :   -0.032640
 100 H :   -0.029756
 101 H :   -0.037964
 102 H :   -0.033572
 103 H :    0.007192
 104 H :    0.037440
 105 H :    0.023014
 106 H :   -0.033323
Sum of atomic charges:   -0.0000000

LOEWDIN ATOMIC CHARGES
----------------------
   0 C :   -0.061029
   1 C :    0.037981
   2 N :   -0.003222
   3 C :    0.089986
   4 C :   -0.129027
   5 C :    0.086384
   6 O :   -0.183230
   7 N :    0.000862
   8 C :    0.031174
   9 C :   -0.068890
  10 C :    0.121710
  11 N :    0.011273
  12 C :    0.095925
  13 O :   -0.169615
  14 C :   -0.017538
  15 C :   -0.020183
  16 C :    0.086544
  17 O :   -0.171369
  18 N :    0.018684
  19 C :    0.028568
  20 C :   -0.074944
  21 C :   -0.195913
  22 S :    0.529822
  23 C :   -0.131027
  24 N :    0.037590
  25 C :   -0.132804
  26 S :    0.458126
  27 C :   -0.213765
  28 C :   -0.169546
  29 S :    0.396209
  30 C :   -0.130534
  31 C :   -0.093495
  32 C :   -0.058316
  33 C :    0.034795
  34 C :   -0.059628
  35 C :    0.071644
  36 O :   -0.134254
  37 C :   -0.038154
  38 N :   -0.029859
  39 C :    0.018039
  40 C :   -0.002515
  41 N :   -0.046043
  42 C :   -0.088286
  43 C :   -0.079454
  44 C :    0.020830
  45 C :   -0.067116
  46 C :   -0.043694
  47 N :   -0.047379
  48 C :   -0.070036
  49 C :    0.169609
  50 F :   -0.058875
  51 F :   -0.055810
  52 F :   -0.055521
  53 C :    0.016002
  54 C :   -0.045020
  55 C :    0.043407
  56 C :   -0.055375
  57 C :   -0.008822
  58 C :   -0.043929
  59 C :   -0.037859
  60 C :   -0.011951
  61 C :   -0.042739
  62 C :   -0.044533
  63 C :   -0.015530
  64 C :   -0.035010
  65 C :   -0.003352
  66 C :   -0.044303
  67 C :   -0.026592
  68 C :    0.045415
  69 C :   -0.151193
  70 C :    0.071939
  71 O :   -0.200112
  72 H :    0.030105
  73 H :    0.022461
  74 H :    0.030420
  75 H :    0.024305
  76 H :    0.035974
  77 H :    0.032755
  78 H :    0.031921
  79 H :    0.020728
  80 H :    0.025258
  81 H :    0.026937
  82 H :    0.022869
  83 H :    0.054830
  84 H :    0.052347
  85 H :    0.030052
  86 H :    0.030857
  87 H :    0.096318
  88 H :    0.033801
  89 H :    0.025228
  90 H :    0.027779
  91 H :    0.028781
  92 H :    0.028569
  93 H :    0.033114
  94 H :    0.035706
  95 H :    0.026628
  96 H :    0.029615
  97 H :    0.039311
  98 H :    0.033286
  99 H :    0.025048
 100 H :    0.028019
 101 H :    0.025247
 102 H :    0.024530
 103 H :    0.027997
 104 H :    0.040145
 105 H :    0.034280
 106 H :    0.029656

  Mayer bond orders larger than 0.100000
B(  0-C ,  1-C ) :   1.1169 B(  0-C , 72-H ) :   0.9693 B(  0-C , 73-H ) :   0.9691
B(  0-C , 74-H ) :   0.9677 B(  1-C ,  2-N ) :   0.9448 B(  1-C , 75-H ) :   0.9538
B(  1-C , 76-H ) :   0.9340 B(  2-N ,  3-C ) :   1.1851 B(  2-N , 70-C ) :   1.0394
B(  3-C ,  4-C ) :   1.4817 B(  3-C , 77-H ) :   0.9912 B(  4-C ,  5-C ) :   0.9612
B(  4-C , 69-C ) :   1.1726 B(  5-C ,  6-O ) :   2.1806 B(  5-C ,  7-N ) :   0.9940
B(  7-N ,  8-C ) :   0.9273 B(  7-N , 10-C ) :   1.2250 B(  8-C ,  9-C ) :   1.1201
B(  8-C , 78-H ) :   0.9246 B(  8-C , 79-H ) :   0.9328 B(  9-C , 80-H ) :   0.9579
B(  9-C , 81-H ) :   0.9665 B(  9-C , 82-H ) :   0.9551 B( 10-C , 11-N ) :   1.0394
B( 10-C , 69-C ) :   1.4296 B( 11-N , 12-C ) :   1.0790 B( 11-N , 68-C ) :   0.9642
B( 12-C , 13-O ) :   2.1197 B( 12-C , 14-C ) :   0.9185 B( 14-C , 15-C ) :   1.0261
B( 14-C , 62-C ) :   0.9674 B( 14-C , 83-H ) :   0.8695 B( 15-C , 16-C ) :   0.9229
B( 15-C , 61-C ) :   0.9666 B( 15-C , 84-H ) :   0.8771 B( 16-C , 17-O ) :   2.1048
B( 16-C , 18-N ) :   1.1005 B( 18-N , 19-C ) :   1.0368 B( 18-N , 55-C ) :   0.9936
B( 19-C , 20-C ) :   1.6961 B( 19-C , 85-H ) :   0.9637 B( 20-C , 21-C ) :   1.1562
B( 20-C , 86-H ) :   0.9333 B( 21-C , 22-S ) :   1.0967 B( 21-C , 54-C ) :   1.3817
B( 22-S , 23-C ) :   1.1806 B( 23-C , 24-N ) :   1.1822 B( 23-C , 43-C ) :   1.2894
B( 24-N , 25-C ) :   1.1841 B( 24-N , 87-H ) :   0.8795 B( 25-C , 26-S ) :   1.1685
B( 25-C , 27-C ) :   0.1247 B( 25-C , 42-C ) :   1.3150 B( 26-S , 27-C ) :   1.0984
B( 27-C , 28-C ) :   1.1840 B( 27-C , 37-C ) :   1.4320 B( 28-C , 29-S ) :   1.0890
B( 28-C , 32-C ) :   1.5368 B( 29-S , 30-C ) :   1.1235 B( 30-C , 31-C ) :   1.6254
B( 30-C , 88-H ) :   0.9703 B( 31-C , 32-C ) :   1.1793 B( 31-C , 35-C ) :   0.8816
B( 32-C , 33-C ) :   1.0778 B( 33-C , 34-C ) :   1.6376 B( 33-C , 89-H ) :   0.9953
B( 34-C , 35-C ) :   1.0182 B( 34-C , 90-H ) :   1.0058 B( 35-C , 36-O ) :   2.2303
B( 37-C , 38-N ) :   1.4112 B( 37-C , 42-C ) :   1.2030 B( 38-N , 39-C ) :   1.6822
B( 39-C , 40-C ) :   1.1822 B( 39-C , 91-H ) :   0.9720 B( 40-C , 41-N ) :   1.6647
B( 40-C , 92-H ) :   0.9723 B( 41-N , 42-C ) :   1.3574 B( 43-C , 44-C ) :   1.1528
B( 43-C , 54-C ) :   1.2067 B( 44-C , 45-C ) :   1.5967 B( 44-C , 93-H ) :   0.9863
B( 45-C , 46-C ) :   1.0659 B( 45-C , 48-C ) :   1.1970 B( 46-C , 47-N ) :   3.0377
B( 48-C , 49-C ) :   0.9428 B( 48-C , 53-C ) :   1.5742 B( 49-C , 50-F ) :   1.1612
B( 49-C , 51-F ) :   1.1611 B( 49-C , 52-F ) :   1.1642 B( 53-C , 54-C ) :   1.1648
B( 53-C , 94-H ) :   0.9916 B( 55-C , 56-C ) :   1.3509 B( 55-C , 61-C ) :   1.3843
B( 56-C , 57-C ) :   1.3411 B( 56-C , 95-H ) :   1.0045 B( 57-C , 58-C ) :   1.0497
B( 57-C , 59-C ) :   1.4137 B( 58-C , 96-H ) :   0.9606 B( 58-C , 97-H ) :   0.9545
B( 58-C , 98-H ) :   0.9604 B( 59-C , 60-C ) :   1.3477 B( 59-C , 99-H ) :   0.9918
B( 60-C , 61-C ) :   1.4222 B( 60-C ,100-H ) :   1.0036 B( 62-C , 63-C ) :   1.4210
B( 62-C , 68-C ) :   1.3883 B( 63-C , 64-C ) :   1.3452 B( 63-C ,101-H ) :   1.0008
B( 64-C , 65-C ) :   1.4191 B( 64-C ,102-H ) :   0.9881 B( 65-C , 66-C ) :   1.0520
B( 65-C , 67-C ) :   1.3352 B( 66-C ,103-H ) :   0.9601 B( 66-C ,104-H ) :   0.9543
B( 66-C ,105-H ) :   0.9573 B( 67-C , 68-C ) :   1.3807 B( 67-C ,106-H ) :   0.9996
B( 69-C , 70-C ) :   0.9656 B( 70-C , 71-O ) :   2.1343

-----------------------------------------------------------------------------
         ABSORPTION SPECTRUM VIA TRANSITION ELECTRIC DIPOLE MOMENTS
-----------------------------------------------------------------------------
State   Energy  Wavelength   fosc         T2         TX        TY        TZ
        (cm-1)    (nm)                  (au**2)     (au)      (au)      (au)
-----------------------------------------------------------------------------
   0   14821.7    674.7   0.677891043  15.05702  -1.44382   1.77538  -3.13376
   1   20332.7    491.8   0.168035404   2.72071   0.67834  -1.29593   0.76232
   2   23315.8    428.9   0.010449878   0.14755  -0.19024  -0.03140  -0.33222
   3   25755.8    388.3   0.000545425   0.00697   0.01236  -0.02492   0.07873
   4   25950.2    385.4   0.178441760   2.26377   0.72870  -0.53087   1.20455
   5   26980.2    370.6   0.346217586   4.22454  -1.93349   0.24561   0.65256
   6   27437.6    364.5   0.000678483   0.00814  -0.06024  -0.06551  -0.01488
   7   27734.5    360.6   0.009222814   0.10948  -0.15218  -0.25306   0.14926
   8   28337.7    352.9   0.002359508   0.02741  -0.05781  -0.15001   0.03958
   9   28726.9    348.1   0.098308395   1.12662   0.43115  -0.96735   0.07048
  10   28943.3    345.5   0.141627763   1.61092  -0.49242   1.14780   0.22583
  11   29444.4    339.6   0.274763453   3.07207   0.30337  -1.08221  -1.34494
  12   30441.0    328.5   0.017412894   0.18832  -0.17306   0.33446   0.21564
  13   30986.0    322.7   0.000092688   0.00098  -0.01159  -0.02207   0.01906
  14   31408.8    318.4   0.220172018   2.30774   0.82346  -0.97717   0.82146
  15   31807.2    314.4   0.002444341   0.02530   0.11236  -0.11221   0.00908
  16   32618.4    306.6   0.005891545   0.05946   0.13234  -0.19189  -0.07158
  17   33048.5    302.6   0.137925917   1.37395  -0.61279   0.92717  -0.37254
  18   33735.5    296.4   0.039756565   0.38797  -0.19056   0.56604  -0.17680
  19   34335.2    291.2   0.003253419   0.03119  -0.17080   0.00891   0.04407
  20   34589.1    289.1   0.057337958   0.54573   0.32159  -0.42125   0.51465
  21   35409.1    282.4   0.090679971   0.84309  -0.30224   0.66364  -0.55796
  22   35825.7    279.1   0.015124861   0.13899  -0.33577   0.12492  -0.10315
  23   35982.3    277.9   0.015599524   0.14272   0.15480  -0.11776   0.32387
  24   36472.7    274.2   0.062344467   0.56274   0.34623  -0.41356   0.52137
  25   36490.1    274.0   0.031337272   0.28272  -0.28049   0.17867  -0.41489
  26   36774.6    271.9   0.035202918   0.31514   0.13233  -0.52391  -0.15216
  27   37102.1    269.5   0.026259474   0.23300   0.26952  -0.30253   0.26237
  28   37788.4    264.6   0.020946825   0.18249   0.40855   0.12473   0.00466
  29   37852.3    264.2   0.033849454   0.29440  -0.08808   0.12478   0.52064
  30   38017.2    263.0   0.125296362   1.08501   0.48495   0.63772   0.66570
  31   38246.3    261.5   0.030212288   0.26006  -0.17243   0.03705   0.47849
  32   38421.0    260.3   0.034275494   0.29369   0.04316  -0.06238  -0.53660
  33   38769.9    257.9   0.003714622   0.03154   0.11906  -0.09849   0.08755
  34   38866.1    257.3   0.059321099   0.50247   0.33688  -0.61553  -0.10055
  35   39013.3    256.3   0.077045195   0.65014  -0.32925   0.51289   0.52791
  36   39150.8    255.4   0.023660934   0.19896   0.16116   0.37432  -0.18131
  37   39263.4    254.7   0.007531374   0.06315   0.21196  -0.07568  -0.11177
  38   39371.0    254.0   0.007880883   0.06590  -0.10172   0.11529   0.20557
  39   39528.9    253.0   0.008360929   0.06963  -0.11191   0.15648   0.18062
  40   39658.0    252.2   0.002559418   0.02125   0.10919  -0.09656   0.00024
  41   39780.5    251.4   0.073789178   0.61066   0.13643   0.10791   0.76184
  42   40279.2    248.3   0.028826681   0.23561   0.37007  -0.30661  -0.06818

FINAL SINGLE POINT ENERGY     -4344.756117967852

DIPOLE MOMENT
-------------
                                X             Y             Z
Electronic contribution:     71.85502     -55.36319     -13.77536
Nuclear contribution   :    -73.20502      58.27026      14.85685
                        -----------------------------------------
Total Dipole Moment    :     -1.35000       2.90707       1.08149
                        -----------------------------------------
Magnitude (a.u.)       :      3.38277
Magnitude (Debye)      :      8.59833

Rotational constants in cm-1:     0.001128     0.000466     0.000412
Rotational constants in MHz :    33.816741    13.967662    12.346152

                             ****ORCA TERMINATED NORMALLY****
TOTAL RUN TIME: 0 days 0 hours 10 minutes 54 seconds 665 msec
