                         Program Version 4.2.0 -  RELEASE  -
|  1> # ORCA input file
|  2> # SCF done       -208.241670518160          0.000770838721
|  3> ! CAM-B3LYP def2-SVP def2/J RIJCOSX Grid4 TightSCF
|  4> %maxcore 5000
|  5> %tddft
|  6>     Mode sTDDFT
|  7>     Ethresh 5.0
|  8>     maxcore 5000
|  9> end
| 10>
| 11> %pal
| 12>   nprocs 6
| 13>   end
| 14> * xyz 0 1
| 15>    C       -1.32831         2.47559        -5.64395
| 16>    N       -2.54224         2.44654        -5.02828
| 17>    C       -3.79761         2.12486        -5.66120
| 18>    C       -4.30346         3.28083        -6.51989
| 19>    C       -2.45148         2.87103        -3.68591
| 20>    O       -3.40077         2.96216        -2.93115
| 21>    C       -1.04780         3.15170        -3.51185
| 22>    C       -0.38204         2.90126        -4.75428
| 23>    C        1.02576         3.17809        -4.55783
| 24>    O        1.97267         3.16939        -5.30684
| 25>    N        1.13074         3.51882        -3.17995
| 26>    C        2.32731         4.17355        -2.69833
| 27>    C        2.10264         5.66718        -2.48126
| 28>    C       -0.10034         3.49142        -2.56664
| 29>    C       -0.38984         3.74510        -1.19174
| 30>    S       -1.87690         4.54066        -0.83693
| 31>    C       -1.57632         4.54361         0.86274
| 32>    C       -0.38646         3.85246         1.15681
| 33>    C        0.28563         3.39006        -0.01820
| 34>    C        1.42505         2.57118         0.10990
| 35>    C        1.91834         2.29708         1.35584
| 36>    C        3.14157         1.43675         1.51867
| 37>    F        3.66780         1.07040         0.33876
| 38>    F        4.12108         2.06205         2.18784
| 39>    F        2.88144         0.29922         2.18320
| 40>    C        1.26160         2.76787         2.52636
| 41>    C        1.75578         2.44329         3.81243
| 42>    N        2.12902         2.19362         4.86567
| 43>    C        0.10331         3.50516         2.42385
| 44>    C       -2.37390         5.24823         1.80047
| 45>    N       -3.72806         5.45757         1.72207
| 46>    C       -4.64306         4.96264         0.71932
| 47>    C       -4.91261         6.00564        -0.36100
| 48>    C       -4.20290         6.22686         2.80377
| 49>    O       -5.36351         6.55291         2.93488
| 50>    C       -3.02211         6.49225         3.59932
| 51>    C       -1.91289         5.88818         2.94924
| 52>    C       -0.70695         6.35052         3.59692
| 53>    O        0.46899         6.13751         3.38319
| 54>    N       -1.16706         7.21065         4.61464
| 55>    C       -0.24689         7.76582         5.57844
| 56>    C       -0.37957         7.09876         6.94378
| 57>    C       -2.53989         7.29000         4.63288
| 58>    C       -3.32153         8.08458         5.51101
| 59>    S       -2.82620         9.63650         6.09702
| 60>    C       -4.34044         9.93802         6.87357
| 61>    C       -5.22146         8.86577         6.66790
| 62>    C       -4.63202         7.80166         5.92162
| 63>    C       -5.34331         6.59937         5.74178
| 64>    C       -6.63524         6.51815         6.17643
| 65>    C       -7.42214         5.25008         5.99131
| 66>    F       -6.69865         4.27329         5.42329
| 67>    F       -7.86823         4.75141         7.15752
| 68>    F       -8.50096         5.42355         5.21346
| 69>    C       -7.27487         7.63091         6.79433
| 70>    C       -8.63544         7.56341         7.17913
| 71>    N       -9.73456         7.54788         7.50043
| 72>    C       -6.57256         8.78619         7.04512
| 73>    C       -4.57430        11.04968         7.73074
| 74>    N       -4.07020        12.31859         7.56879
| 75>    C       -3.36014        12.82952         6.42151
| 76>    C       -4.24613        12.89209         5.18098
| 77>    C       -4.46955        13.18174         8.61786
| 78>    O       -4.16371        14.34998         8.66485
| 79>    C       -5.23952        12.33009         9.49915
| 80>    C       -5.29893        11.02506         8.91099
| 81>    C       -5.95782        10.14490         9.85120
| 82>    O       -6.19877         8.95519         9.83170
| 83>    N       -6.28429        10.99257        10.93371
| 84>    C       -7.02956        10.53044        12.07895
| 85>    C       -8.51376        10.86173        11.95007
| 86>    C       -5.85937        12.26346        10.71693
| 87>    H       -1.22362         2.17662        -6.67044
| 88>    H       -4.50802         1.91856        -4.85636
| 89>    H       -3.67070         1.22463        -6.26913
| 90>    H       -4.44903         4.16668        -5.90655
| 91>    H       -5.25225         3.01359        -6.97594
| 92>    H       -3.59084         3.51533        -7.30765
| 93>    H        3.07575         4.01531        -3.48024
| 94>    H        2.68472         3.71551        -1.77519
| 95>    H        1.74300         6.13268        -3.39622
| 96>    H        3.03928         6.13799        -2.19710
| 97>    H        1.37620         5.84042        -1.68956
| 98>    H        1.87444         2.12471        -0.76257
| 99>    H       -0.43485         3.78298         3.31353
|100>    H       -5.57944         4.73169         1.23550
|101>    H       -4.24180         4.04676         0.28092
|102>    H       -5.40277         6.87157         0.07658
|103>    H       -5.56040         5.57910        -1.12052
|104>    H       -3.98681         6.32504        -0.83425
|105>    H       -0.39592         8.84661         5.65672
|106>    H        0.75011         7.57905         5.16906
|107>    H       -1.37253         7.24983         7.36202
|108>    H        0.35196         7.51905         7.62748
|109>    H       -0.19818         6.03016         6.85753
|110>    H       -4.86471         5.75196         5.28226
|111>    H       -7.06033         9.62506         7.51202
|112>    H       -2.47048        12.22143         6.23204
|113>    H       -3.04159        13.83774         6.70206
|114>    H       -4.58911        11.90070         4.89211
|115>    H       -3.68820        13.32081         4.35353
|116>    H       -5.11509        13.51630         5.37455
|117>    H       -6.61151        10.98498        12.98134
|118>    H       -6.89356         9.44663        12.12334
|119>    H       -8.66212        11.93607        11.86342
|120>    H       -9.04702        10.50468        12.82626
|121>    H       -8.93050        10.37796        11.07003
|122>    H       -6.01293        13.03156        11.45226
|123> *
|124>
|125>                          ****END OF INPUT****

CARTESIAN COORDINATES (ANGSTROEM)
---------------------------------
  C     -1.328310    2.475590   -5.643950
  N     -2.542240    2.446540   -5.028280
  C     -3.797610    2.124860   -5.661200
  C     -4.303460    3.280830   -6.519890
  C     -2.451480    2.871030   -3.685910
  O     -3.400770    2.962160   -2.931150
  C     -1.047800    3.151700   -3.511850
  C     -0.382040    2.901260   -4.754280
  C      1.025760    3.178090   -4.557830
  O      1.972670    3.169390   -5.306840
  N      1.130740    3.518820   -3.179950
  C      2.327310    4.173550   -2.698330
  C      2.102640    5.667180   -2.481260
  C     -0.100340    3.491420   -2.566640
  C     -0.389840    3.745100   -1.191740
  S     -1.876900    4.540660   -0.836930
  C     -1.576320    4.543610    0.862740
  C     -0.386460    3.852460    1.156810
  C      0.285630    3.390060   -0.018200
  C      1.425050    2.571180    0.109900
  C      1.918340    2.297080    1.355840
  C      3.141570    1.436750    1.518670
  F      3.667800    1.070400    0.338760
  F      4.121080    2.062050    2.187840
  F      2.881440    0.299220    2.183200
  C      1.261600    2.767870    2.526360
  C      1.755780    2.443290    3.812430
  N      2.129020    2.193620    4.865670
  C      0.103310    3.505160    2.423850
  C     -2.373900    5.248230    1.800470
  N     -3.728060    5.457570    1.722070
  C     -4.643060    4.962640    0.719320
  C     -4.912610    6.005640   -0.361000
  C     -4.202900    6.226860    2.803770
  O     -5.363510    6.552910    2.934880
  C     -3.022110    6.492250    3.599320
  C     -1.912890    5.888180    2.949240
  C     -0.706950    6.350520    3.596920
  O      0.468990    6.137510    3.383190
  N     -1.167060    7.210650    4.614640
  C     -0.246890    7.765820    5.578440
  C     -0.379570    7.098760    6.943780
  C     -2.539890    7.290000    4.632880
  C     -3.321530    8.084580    5.511010
  S     -2.826200    9.636500    6.097020
  C     -4.340440    9.938020    6.873570
  C     -5.221460    8.865770    6.667900
  C     -4.632020    7.801660    5.921620
  C     -5.343310    6.599370    5.741780
  C     -6.635240    6.518150    6.176430
  C     -7.422140    5.250080    5.991310
  F     -6.698650    4.273290    5.423290
  F     -7.868230    4.751410    7.157520
  F     -8.500960    5.423550    5.213460
  C     -7.274870    7.630910    6.794330
  C     -8.635440    7.563410    7.179130
  N     -9.734560    7.547880    7.500430
  C     -6.572560    8.786190    7.045120
  C     -4.574300   11.049680    7.730740
  N     -4.070200   12.318590    7.568790
  C     -3.360140   12.829520    6.421510
  C     -4.246130   12.892090    5.180980
  C     -4.469550   13.181740    8.617860
  O     -4.163710   14.349980    8.664850
  C     -5.239520   12.330090    9.499150
  C     -5.298930   11.025060    8.910990
  C     -5.957820   10.144900    9.851200
  O     -6.198770    8.955190    9.831700
  N     -6.284290   10.992570   10.933710
  C     -7.029560   10.530440   12.078950
  C     -8.513760   10.861730   11.950070
  C     -5.859370   12.263460   10.716930
  H     -1.223620    2.176620   -6.670440
  H     -4.508020    1.918560   -4.856360
  H     -3.670700    1.224630   -6.269130
  H     -4.449030    4.166680   -5.906550
  H     -5.252250    3.013590   -6.975940
  H     -3.590840    3.515330   -7.307650
  H      3.075750    4.015310   -3.480240
  H      2.684720    3.715510   -1.775190
  H      1.743000    6.132680   -3.396220
  H      3.039280    6.137990   -2.197100
  H      1.376200    5.840420   -1.689560
  H      1.874440    2.124710   -0.762570
  H     -0.434850    3.782980    3.313530
  H     -5.579440    4.731690    1.235500
  H     -4.241800    4.046760    0.280920
  H     -5.402770    6.871570    0.076580
  H     -5.560400    5.579100   -1.120520
  H     -3.986810    6.325040   -0.834250
  H     -0.395920    8.846610    5.656720
  H      0.750110    7.579050    5.169060
  H     -1.372530    7.249830    7.362020
  H      0.351960    7.519050    7.627480
  H     -0.198180    6.030160    6.857530
  H     -4.864710    5.751960    5.282260
  H     -7.060330    9.625060    7.512020
  H     -2.470480   12.221430    6.232040
  H     -3.041590   13.837740    6.702060
  H     -4.589110   11.900700    4.892110
  H     -3.688200   13.320810    4.353530
  H     -5.115090   13.516300    5.374550
  H     -6.611510   10.984980   12.981340
  H     -6.893560    9.446630   12.123340
  H     -8.662120   11.936070   11.863420
  H     -9.047020   10.504680   12.826260
  H     -8.930500   10.377960   11.070030
  H     -6.012930   13.031560   11.452260

 Total Charge           Charge          ....    0
 Multiplicity           Mult            ....    1
 Number of Electrons    NEL             ....  526
 Basis Dimension        Dim             .... 1196

ORBITAL ENERGIES
----------------

  NO   OCC          E(Eh)            E(eV)
   0   2.0000     -89.006003     -2421.9765
   1   2.0000     -89.005307     -2421.9575
   2   2.0000     -24.804942      -674.9768
   3   2.0000     -24.798935      -674.8133
   4   2.0000     -24.798269      -674.7952
   5   2.0000     -24.794527      -674.6934
   6   2.0000     -24.788323      -674.5246
   7   2.0000     -24.787505      -674.5023
   8   2.0000     -19.204802      -522.5892
   9   2.0000     -19.204665      -522.5855
  10   2.0000     -19.203648      -522.5578
  11   2.0000     -19.201954      -522.5117
  12   2.0000     -19.201059      -522.4874
  13   2.0000     -19.195857      -522.3458
  14   2.0000     -14.471205      -393.7815
  15   2.0000     -14.469863      -393.7450
  16   2.0000     -14.467968      -393.6934
  17   2.0000     -14.467107      -393.6700
  18   2.0000     -14.464590      -393.6015
  19   2.0000     -14.463895      -393.5826
  20   2.0000     -14.406837      -392.0300
  21   2.0000     -14.400635      -391.8612
  22   2.0000     -10.522981      -286.3449
  23   2.0000     -10.512238      -286.0525
  24   2.0000     -10.388818      -282.6941
  25   2.0000     -10.388433      -282.6836
  26   2.0000     -10.388262      -282.6790
  27   2.0000     -10.387214      -282.6505
  28   2.0000     -10.384509      -282.5769
  29   2.0000     -10.383094      -282.5383
  30   2.0000     -10.365096      -282.0486
  31   2.0000     -10.364030      -282.0196
  32   2.0000     -10.362719      -281.9839
  33   2.0000     -10.360848      -281.9330
  34   2.0000     -10.346114      -281.5321
  35   2.0000     -10.344548      -281.4895
  36   2.0000     -10.343903      -281.4719
  37   2.0000     -10.342409      -281.4313
  38   2.0000     -10.342082      -281.4224
  39   2.0000     -10.341147      -281.3969
  40   2.0000     -10.331740      -281.1409
  41   2.0000     -10.324333      -280.9394
  42   2.0000     -10.323288      -280.9110
  43   2.0000     -10.321927      -280.8739
  44   2.0000     -10.320480      -280.8345
  45   2.0000     -10.319007      -280.7945
  46   2.0000     -10.318573      -280.7826
  47   2.0000     -10.316993      -280.7397
  48   2.0000     -10.316798      -280.7343
  49   2.0000     -10.315414      -280.6967
  50   2.0000     -10.315328      -280.6944
  51   2.0000     -10.315047      -280.6867
  52   2.0000     -10.314387      -280.6687
  53   2.0000     -10.314213      -280.6640
  54   2.0000     -10.313704      -280.6501
  55   2.0000     -10.311156      -280.5808
  56   2.0000     -10.307375      -280.4779
  57   2.0000     -10.305891      -280.4376
  58   2.0000     -10.303641      -280.3763
  59   2.0000     -10.299832      -280.2727
  60   2.0000     -10.282123      -279.7908
  61   2.0000     -10.280780      -279.7542
  62   2.0000     -10.277479      -279.6644
  63   2.0000     -10.277292      -279.6593
  64   2.0000     -10.275049      -279.5983
  65   2.0000     -10.274698      -279.5888
  66   2.0000     -10.271160      -279.4925
  67   2.0000     -10.271030      -279.4889
  68   2.0000     -10.270685      -279.4796
  69   2.0000     -10.270676      -279.4793
  70   2.0000     -10.267762      -279.4000
  71   2.0000     -10.266429      -279.3637
  72   2.0000      -8.099668      -220.4032
  73   2.0000      -8.099134      -220.3886
  74   2.0000      -6.068676      -165.1371
  75   2.0000      -6.068181      -165.1236
  76   2.0000      -6.064141      -165.0137
  77   2.0000      -6.063954      -165.0086
  78   2.0000      -6.062848      -164.9785
  79   2.0000      -6.062083      -164.9577
  80   2.0000      -1.391434       -37.8629
  81   2.0000      -1.380860       -37.5751
  82   2.0000      -1.294618       -35.2284
  83   2.0000      -1.291029       -35.1307
  84   2.0000      -1.284318       -34.9481
  85   2.0000      -1.279776       -34.8245
  86   2.0000      -1.149091       -31.2683
  87   2.0000      -1.145965       -31.1833
  88   2.0000      -1.143142       -31.1065
  89   2.0000      -1.141660       -31.0661
  90   2.0000      -1.139043       -30.9949
  91   2.0000      -1.135979       -30.9116
  92   2.0000      -1.081286       -29.4233
  93   2.0000      -1.077739       -29.3268
  94   2.0000      -1.075368       -29.2623
  95   2.0000      -1.073649       -29.2155
  96   2.0000      -1.069041       -29.0901
  97   2.0000      -1.066628       -29.0244
  98   2.0000      -1.030565       -28.0431
  99   2.0000      -1.025909       -27.9164
 100   2.0000      -0.997617       -27.1465
 101   2.0000      -0.990854       -26.9625
 102   2.0000      -0.970933       -26.4204
 103   2.0000      -0.962873       -26.2011
 104   2.0000      -0.944950       -25.7134
 105   2.0000      -0.940410       -25.5898
 106   2.0000      -0.938648       -25.5419
 107   2.0000      -0.920198       -25.0399
 108   2.0000      -0.913601       -24.8603
 109   2.0000      -0.889164       -24.1954
 110   2.0000      -0.887402       -24.1474
 111   2.0000      -0.885435       -24.0939
 112   2.0000      -0.882705       -24.0196
 113   2.0000      -0.880236       -23.9525
 114   2.0000      -0.871222       -23.7072
 115   2.0000      -0.866074       -23.5671
 116   2.0000      -0.843702       -22.9583
 117   2.0000      -0.833316       -22.6757
 118   2.0000      -0.831476       -22.6256
 119   2.0000      -0.831180       -22.6176
 120   2.0000      -0.828202       -22.5365
 121   2.0000      -0.811927       -22.0937
 122   2.0000      -0.803966       -21.8770
 123   2.0000      -0.798143       -21.7186
 124   2.0000      -0.790855       -21.5203
 125   2.0000      -0.775089       -21.0912
 126   2.0000      -0.771483       -20.9931
 127   2.0000      -0.770620       -20.9696
 128   2.0000      -0.769613       -20.9422
 129   2.0000      -0.766776       -20.8650
 130   2.0000      -0.751625       -20.4528
 131   2.0000      -0.744083       -20.2475
 132   2.0000      -0.726458       -19.7679
 133   2.0000      -0.722125       -19.6500
 134   2.0000      -0.720137       -19.5959
 135   2.0000      -0.718464       -19.5504
 136   2.0000      -0.714264       -19.4361
 137   2.0000      -0.708004       -19.2658
 138   2.0000      -0.698667       -19.0117
 139   2.0000      -0.697016       -18.9668
 140   2.0000      -0.689435       -18.7605
 141   2.0000      -0.686918       -18.6920
 142   2.0000      -0.678102       -18.4521
 143   2.0000      -0.672691       -18.3048
 144   2.0000      -0.671312       -18.2673
 145   2.0000      -0.669806       -18.2264
 146   2.0000      -0.663715       -18.0606
 147   2.0000      -0.661985       -18.0135
 148   2.0000      -0.661205       -17.9923
 149   2.0000      -0.660180       -17.9644
 150   2.0000      -0.655846       -17.8465
 151   2.0000      -0.636396       -17.3172
 152   2.0000      -0.627917       -17.0865
 153   2.0000      -0.621038       -16.8993
 154   2.0000      -0.615243       -16.7416
 155   2.0000      -0.610375       -16.6092
 156   2.0000      -0.609122       -16.5751
 157   2.0000      -0.602979       -16.4079
 158   2.0000      -0.601052       -16.3555
 159   2.0000      -0.598171       -16.2770
 160   2.0000      -0.594616       -16.1803
 161   2.0000      -0.592494       -16.1226
 162   2.0000      -0.588323       -16.0091
 163   2.0000      -0.585302       -15.9269
 164   2.0000      -0.580500       -15.7962
 165   2.0000      -0.578053       -15.7296
 166   2.0000      -0.570339       -15.5197
 167   2.0000      -0.568623       -15.4730
 168   2.0000      -0.563202       -15.3255
 169   2.0000      -0.558943       -15.2096
 170   2.0000      -0.558322       -15.1927
 171   2.0000      -0.554973       -15.1016
 172   2.0000      -0.553281       -15.0555
 173   2.0000      -0.552390       -15.0313
 174   2.0000      -0.550145       -14.9702
 175   2.0000      -0.547110       -14.8876
 176   2.0000      -0.545711       -14.8496
 177   2.0000      -0.542814       -14.7707
 178   2.0000      -0.541698       -14.7404
 179   2.0000      -0.540915       -14.7191
 180   2.0000      -0.539906       -14.6916
 181   2.0000      -0.537640       -14.6299
 182   2.0000      -0.535360       -14.5679
 183   2.0000      -0.531681       -14.4678
 184   2.0000      -0.530500       -14.4356
 185   2.0000      -0.526118       -14.3164
 186   2.0000      -0.525924       -14.3111
 187   2.0000      -0.524642       -14.2762
 188   2.0000      -0.521000       -14.1771
 189   2.0000      -0.519266       -14.1299
 190   2.0000      -0.517324       -14.0771
 191   2.0000      -0.515304       -14.0221
 192   2.0000      -0.514520       -14.0008
 193   2.0000      -0.513828       -13.9820
 194   2.0000      -0.512909       -13.9570
 195   2.0000      -0.510806       -13.8997
 196   2.0000      -0.508959       -13.8495
 197   2.0000      -0.507936       -13.8216
 198   2.0000      -0.506436       -13.7808
 199   2.0000      -0.504200       -13.7200
 200   2.0000      -0.499008       -13.5787
 201   2.0000      -0.494091       -13.4449
 202   2.0000      -0.490692       -13.3524
 203   2.0000      -0.486926       -13.2499
 204   2.0000      -0.486363       -13.2346
 205   2.0000      -0.484344       -13.1797
 206   2.0000      -0.483649       -13.1608
 207   2.0000      -0.482148       -13.1199
 208   2.0000      -0.478873       -13.0308
 209   2.0000      -0.476898       -12.9771
 210   2.0000      -0.476133       -12.9562
 211   2.0000      -0.475958       -12.9515
 212   2.0000      -0.473954       -12.8969
 213   2.0000      -0.471075       -12.8186
 214   2.0000      -0.469933       -12.7875
 215   2.0000      -0.467864       -12.7312
 216   2.0000      -0.466582       -12.6963
 217   2.0000      -0.465271       -12.6607
 218   2.0000      -0.464863       -12.6496
 219   2.0000      -0.463473       -12.6117
 220   2.0000      -0.460831       -12.5398
 221   2.0000      -0.460524       -12.5315
 222   2.0000      -0.459423       -12.5015
 223   2.0000      -0.458365       -12.4728
 224   2.0000      -0.456832       -12.4310
 225   2.0000      -0.448269       -12.1980
 226   2.0000      -0.447070       -12.1654
 227   2.0000      -0.444720       -12.1014
 228   2.0000      -0.443478       -12.0676
 229   2.0000      -0.441713       -12.0196
 230   2.0000      -0.438376       -11.9288
 231   2.0000      -0.437866       -11.9149
 232   2.0000      -0.436445       -11.8763
 233   2.0000      -0.434711       -11.8291
 234   2.0000      -0.431058       -11.7297
 235   2.0000      -0.428995       -11.6735
 236   2.0000      -0.422378       -11.4935
 237   2.0000      -0.421023       -11.4566
 238   2.0000      -0.419669       -11.4198
 239   2.0000      -0.417291       -11.3551
 240   2.0000      -0.414821       -11.2879
 241   2.0000      -0.410863       -11.1802
 242   2.0000      -0.410311       -11.1651
 243   2.0000      -0.404354       -11.0030
 244   2.0000      -0.402157       -10.9432
 245   2.0000      -0.381646       -10.3851
 246   2.0000      -0.377236       -10.2651
 247   2.0000      -0.360944        -9.8218
 248   2.0000      -0.358151        -9.7458
 249   2.0000      -0.353337        -9.6148
 250   2.0000      -0.346437        -9.4270
 251   2.0000      -0.344482        -9.3738
 252   2.0000      -0.340384        -9.2623
 253   2.0000      -0.339528        -9.2390
 254   2.0000      -0.339331        -9.2337
 255   2.0000      -0.332195        -9.0395
 256   2.0000      -0.329458        -8.9650
 257   2.0000      -0.325762        -8.8644
 258   2.0000      -0.310913        -8.4604
 259   2.0000      -0.303370        -8.2551
 260   2.0000      -0.276847        -7.5334
 261   2.0000      -0.264890        -7.2080
 262   2.0000      -0.246456        -6.7064
 263   0.0000      -0.115814        -3.1515
 264   0.0000      -0.088831        -2.4172
 265   0.0000      -0.058297        -1.5864
 266   0.0000      -0.045979        -1.2512
 267   0.0000      -0.031388        -0.8541

MULLIKEN ATOMIC CHARGES
-----------------------
   0 C :    0.055375
   1 N :   -0.262701
   2 C :    0.109863
   3 C :   -0.001902
   4 C :    0.155576
   5 O :   -0.203363
   6 C :   -0.094540
   7 C :   -0.006938
   8 C :    0.169881
   9 O :   -0.169263
  10 N :   -0.270459
  11 C :    0.095039
  12 C :   -0.004153
  13 C :    0.141479
  14 C :   -0.223870
  15 S :    0.274440
  16 C :   -0.171545
  17 C :    0.111580
  18 C :    0.167351
  19 C :   -0.105109
  20 C :   -0.054703
  21 C :    0.527542
  22 F :   -0.156903
  23 F :   -0.153684
  24 F :   -0.155664
  25 C :   -0.092207
  26 C :   -0.161464
  27 N :    0.136050
  28 C :    0.010600
  29 C :    0.136517
  30 N :   -0.255831
  31 C :    0.086092
  32 C :    0.004375
  33 C :    0.142653
  34 O :   -0.184197
  35 C :   -0.070912
  36 C :   -0.094924
  37 C :    0.138098
  38 O :   -0.188907
  39 N :   -0.257258
  40 C :    0.082879
  41 C :   -0.000731
  42 C :    0.120758
  43 C :   -0.169078
  44 S :    0.188198
  45 C :   -0.174212
  46 C :    0.133183
  47 C :    0.129736
  48 C :   -0.029680
  49 C :   -0.054041
  50 C :    0.524172
  51 F :   -0.156130
  52 F :   -0.159273
  53 F :   -0.154881
  54 C :   -0.081505
  55 C :   -0.160907
  56 N :    0.131047
  57 C :    0.000073
  58 C :    0.125763
  59 N :   -0.266820
  60 C :    0.087369
  61 C :   -0.001033
  62 C :    0.169109
  63 O :   -0.176279
  64 C :   -0.019840
  65 C :   -0.078374
  66 C :    0.141907
  67 O :   -0.182591
  68 N :   -0.257864
  69 C :    0.107545
  70 C :   -0.002535
  71 C :    0.057473
  72 H :    0.021388
  73 H :    0.044551
  74 H :    0.023306
  75 H :    0.029862
  76 H :    0.027286
  77 H :    0.017352
  78 H :    0.052222
  79 H :    0.022145
  80 H :    0.024728
  81 H :    0.030543
  82 H :    0.025581
  83 H :    0.015870
  84 H :    0.003065
  85 H :    0.043243
  86 H :    0.044650
  87 H :    0.037362
  88 H :    0.033301
  89 H :    0.010829
  90 H :    0.026841
  91 H :    0.053978
  92 H :    0.027417
  93 H :    0.029655
  94 H :    0.034363
  95 H :   -0.002490
  96 H :   -0.001877
  97 H :    0.023401
  98 H :    0.050580
  99 H :    0.025700
 100 H :    0.026548
 101 H :    0.030088
 102 H :    0.020549
 103 H :    0.048288
 104 H :    0.015103
 105 H :    0.027787
 106 H :    0.039267
 107 H :    0.022065
Sum of atomic charges:   -0.0000000

LOEWDIN ATOMIC CHARGES
----------------------
   0 C :    0.100922
   1 N :    0.000324
   2 C :    0.039062
   3 C :   -0.059847
   4 C :    0.071499
   5 O :   -0.206818
   6 C :   -0.129413
   7 C :   -0.130425
   8 C :    0.086446
   9 O :   -0.173897
  10 N :   -0.012648
  11 C :    0.034249
  12 C :   -0.060604
  13 C :    0.051296
  14 C :   -0.180862
  15 S :    0.595414
  16 C :   -0.186637
  17 C :   -0.025355
  18 C :   -0.033322
  19 C :    0.004961
  20 C :   -0.058100
  21 C :    0.169311
  22 F :   -0.056703
  23 F :   -0.051100
  24 F :   -0.054302
  25 C :   -0.054245
  26 C :   -0.037237
  27 N :   -0.039344
  28 C :    0.057009
  29 C :    0.057027
  30 N :    0.002844
  31 C :    0.031265
  32 C :   -0.062381
  33 C :    0.077458
  34 O :   -0.182330
  35 C :   -0.120686
  36 C :   -0.130924
  37 C :    0.074778
  38 O :   -0.189380
  39 N :   -0.002190
  40 C :    0.027898
  41 C :   -0.061306
  42 C :    0.053102
  43 C :   -0.184000
  44 S :    0.527335
  45 C :   -0.179169
  46 C :   -0.025126
  47 C :   -0.020061
  48 C :    0.031036
  49 C :   -0.055892
  50 C :    0.171069
  51 F :   -0.055875
  52 F :   -0.057833
  53 F :   -0.052466
  54 C :   -0.047801
  55 C :   -0.034887
  56 N :   -0.043514
  57 C :    0.048713
  58 C :    0.053949
  59 N :   -0.011772
  60 C :    0.027712
  61 C :   -0.062256
  62 C :    0.082790
  63 O :   -0.183222
  64 C :   -0.133957
  65 C :   -0.120690
  66 C :    0.074590
  67 O :   -0.181693
  68 N :    0.003110
  69 C :    0.039076
  70 C :   -0.059536
  71 C :    0.104048
  72 H :    0.035737
  73 H :    0.037459
  74 H :    0.026847
  75 H :    0.031445
  76 H :    0.032152
  77 H :    0.023397
  78 H :    0.039474
  79 H :    0.021557
  80 H :    0.029283
  81 H :    0.034854
  82 H :    0.023671
  83 H :    0.039332
  84 H :    0.045083
  85 H :    0.039638
  86 H :    0.023179
  87 H :    0.032607
  88 H :    0.035798
  89 H :    0.010859
  90 H :    0.009999
  91 H :    0.041197
  92 H :    0.021496
  93 H :    0.034405
  94 H :    0.033994
  95 H :    0.038033
  96 H :    0.043028
  97 H :    0.009480
  98 H :    0.040116
  99 H :    0.021214
 100 H :    0.032741
 101 H :    0.032404
 102 H :    0.025965
 103 H :    0.038694
 104 H :    0.022679
 105 H :    0.032545
 106 H :    0.034738
 107 H :    0.036409

  Mayer bond orders larger than 0.100000
B(  0-C ,  1-N ) :   1.1906 B(  0-C ,  7-C ) :   1.4691 B(  0-C , 72-H ) :   0.9885
B(  1-N ,  2-C ) :   0.9379 B(  1-N ,  4-C ) :   1.0472 B(  2-C ,  3-C ) :   1.1188
B(  2-C , 73-H ) :   0.9349 B(  2-C , 74-H ) :   0.9538 B(  3-C , 75-H ) :   0.9675
B(  3-C , 76-H ) :   0.9691 B(  3-C , 77-H ) :   0.9689 B(  4-C ,  5-O ) :   2.1168
B(  4-C ,  6-C ) :   0.9763 B(  6-C ,  7-C ) :   1.1777 B(  6-C , 13-C ) :   1.4437
B(  7-C ,  8-C ) :   0.9549 B(  8-C ,  9-O ) :   2.1869 B(  8-C , 10-N ) :   0.9914
B( 10-N , 11-C ) :   0.9443 B( 10-N , 13-C ) :   1.2063 B( 11-C , 12-C ) :   1.1174
B( 11-C , 78-H ) :   0.9273 B( 11-C , 79-H ) :   0.9443 B( 12-C , 80-H ) :   0.9660
B( 12-C , 81-H ) :   0.9668 B( 12-C , 82-H ) :   0.9667 B( 13-C , 14-C ) :   1.0680
B( 14-C , 15-S ) :   1.2219 B( 14-C , 16-C ) :   0.1343 B( 14-C , 18-C ) :   1.3208
B( 15-S , 16-C ) :   1.1814 B( 16-C , 17-C ) :   1.3147 B( 16-C , 29-C ) :   1.0977
B( 17-C , 18-C ) :   1.2119 B( 17-C , 28-C ) :   1.2096 B( 18-C , 19-C ) :   1.1804
B( 19-C , 20-C ) :   1.5530 B( 19-C , 83-H ) :   0.9856 B( 20-C , 21-C ) :   0.9392
B( 20-C , 25-C ) :   1.2209 B( 21-C , 22-F ) :   1.1621 B( 21-C , 23-F ) :   1.1634
B( 21-C , 24-F ) :   1.1673 B( 25-C , 26-C ) :   1.0741 B( 25-C , 28-C ) :   1.5538
B( 26-C , 27-N ) :   3.0433 B( 28-C , 84-H ) :   0.9820 B( 29-C , 30-N ) :   1.2098
B( 29-C , 36-C ) :   1.3887 B( 30-N , 31-C ) :   0.9343 B( 30-N , 33-C ) :   1.0278
B( 31-C , 32-C ) :   1.1155 B( 31-C , 85-H ) :   0.9308 B( 31-C , 86-H ) :   0.9480
B( 32-C , 87-H ) :   0.9646 B( 32-C , 88-H ) :   0.9668 B( 32-C , 89-H ) :   0.9630
B( 33-C , 34-O ) :   2.1192 B( 33-C , 35-C ) :   0.9777 B( 35-C , 36-C ) :   1.1954
B( 35-C , 42-C ) :   1.4109 B( 36-C , 37-C ) :   0.9874 B( 37-C , 38-O ) :   2.1132
B( 37-C , 39-N ) :   1.0308 B( 39-N , 40-C ) :   0.9395 B( 39-N , 42-C ) :   1.2006
B( 40-C , 41-C ) :   1.1141 B( 40-C , 90-H ) :   0.9465 B( 40-C , 91-H ) :   0.9236
B( 41-C , 92-H ) :   0.9677 B( 41-C , 93-H ) :   0.9668 B( 41-C , 94-H ) :   0.9642
B( 42-C , 43-C ) :   1.0915 B( 43-C , 44-S ) :   1.1460 B( 43-C , 45-C ) :   0.1290
B( 43-C , 47-C ) :   1.3544 B( 44-S , 45-C ) :   1.1576 B( 45-C , 46-C ) :   1.3325
B( 45-C , 58-C ) :   1.0754 B( 46-C , 47-C ) :   1.2104 B( 46-C , 57-C ) :   1.1925
B( 47-C , 48-C ) :   1.1862 B( 48-C , 49-C ) :   1.5729 B( 48-C , 95-H ) :   0.9783
B( 49-C , 50-C ) :   0.9400 B( 49-C , 54-C ) :   1.2070 B( 50-C , 51-F ) :   1.1629
B( 50-C , 52-F ) :   1.1626 B( 50-C , 53-F ) :   1.1642 B( 54-C , 55-C ) :   1.0732
B( 54-C , 57-C ) :   1.5687 B( 55-C , 56-N ) :   3.0418 B( 57-C , 96-H ) :   0.9828
B( 58-C , 59-N ) :   1.1992 B( 58-C , 65-C ) :   1.4460 B( 59-N , 60-C ) :   0.9463
B( 59-N , 62-C ) :   0.9987 B( 60-C , 61-C ) :   1.1136 B( 60-C , 97-H ) :   0.9468
B( 60-C , 98-H ) :   0.9240 B( 61-C , 99-H ) :   0.9678 B( 61-C ,100-H ) :   0.9670
B( 61-C ,101-H ) :   0.9647 B( 62-C , 63-O ) :   2.1817 B( 62-C , 64-C ) :   0.9601
B( 64-C , 65-C ) :   1.1817 B( 64-C , 71-C ) :   1.4522 B( 65-C , 66-C ) :   0.9731
B( 66-C , 67-O ) :   2.1185 B( 66-C , 68-N ) :   1.0389 B( 68-N , 69-C ) :   0.9339
B( 68-N , 71-C ) :   1.2038 B( 69-C , 70-C ) :   1.1212 B( 69-C ,102-H ) :   0.9532
B( 69-C ,103-H ) :   0.9342 B( 70-C ,104-H ) :   0.9685 B( 70-C ,105-H ) :   0.9690
B( 70-C ,106-H ) :   0.9671 B( 71-C ,107-H ) :   0.9898

-----------------------------------------------------------------------------
         ABSORPTION SPECTRUM VIA TRANSITION ELECTRIC DIPOLE MOMENTS
-----------------------------------------------------------------------------
State   Energy  Wavelength   fosc         T2         TX        TY        TZ
        (cm-1)    (nm)                  (au**2)     (au)      (au)      (au)
-----------------------------------------------------------------------------
   0   13286.3    752.7   0.958898735  23.75981  -1.11026   2.57092   3.98968
   1   17623.3    567.4   0.032914489   0.61486  -0.77183   0.12797   0.05262
   2   19026.3    525.6   0.028064356   0.48560   0.15913  -0.08564   0.67301
   3   19376.5    516.1   0.007370765   0.12523  -0.18425   0.30005   0.03542
   4   23393.9    427.5   0.172636586   2.42944  -0.91379   1.08195   0.65099
   5   24921.4    401.3   0.091855520   1.21341   0.79963  -0.03446   0.75685
   6   25236.1    396.3   0.085630986   1.11708   0.15023  -0.27761  -1.00869
   7   26275.7    380.6   0.087897148   1.10128  -1.03487   0.15118   0.08645
   8   26785.5    373.3   0.000495587   0.00609   0.03484   0.03174   0.06221
   9   27343.4    365.7   0.009238460   0.11123   0.28410   0.17450   0.00812
  10   27652.9    361.6   0.000066271   0.00079  -0.01233  -0.01433   0.02077
  11   27850.1    359.1   0.035543238   0.42015   0.62566  -0.15745   0.06257
  12   28248.2    354.0   0.004909858   0.05722  -0.16433   0.14621   0.09401
  13   28677.2    348.7   0.023746411   0.27261   0.50002  -0.06486  -0.13558
  14   28886.7    346.2   0.062977462   0.71773  -0.72740  -0.04265  -0.43221
  15   29329.6    341.0   0.016945004   0.19020  -0.10169   0.02041   0.42361
  16   30070.7    332.5   0.077566146   0.84919  -0.31219   0.18994  -0.84596
  17   31452.6    317.9   0.103144011   1.07960   0.66829   0.74171  -0.28784
  18   31555.4    316.9   0.142520136   1.48689   1.16036  -0.28454  -0.24391
  19   31850.9    314.0   0.039385286   0.40709   0.45981   0.43105  -0.09930
  20   32279.3    309.8   0.014193240   0.14475   0.23243   0.30117   0.00532
  21   33038.7    302.7   0.024258352   0.24172  -0.31332   0.25600   0.27931
  22   33150.5    301.7   0.075083824   0.74565   0.81733   0.19700   0.19700
  23   33421.5    299.2   0.035557888   0.35026   0.31978   0.35352  -0.35075
  24   33825.5    295.6   0.039295181   0.38245  -0.24597  -0.13322  -0.55154
  25   34187.1    292.5   0.054140895   0.52136   0.41326   0.50999  -0.30081
  26   34749.8    287.8   0.184405116   1.74702   0.03473   0.90192  -0.96558
  27   34979.3    285.9   0.140845965   1.32559  -0.83723  -0.69580   0.37485
  28   36255.7    275.8   0.102175260   0.92778  -0.94910  -0.13978  -0.08636
  29   36691.8    272.5   0.002798665   0.02511   0.01105   0.13914  -0.07502
  30   36886.1    271.1   0.005274859   0.04708   0.06201  -0.00597   0.20784
  31   37004.3    270.2   0.019834303   0.17646   0.33740  -0.01565   0.24975
  32   37528.4    266.5   0.074724572   0.65551  -0.65772  -0.14940  -0.44788
  33   37801.5    264.5   0.032917993   0.28668   0.43058   0.11807   0.29554
  34   37935.8    263.6   0.044835913   0.38909   0.06468  -0.61455   0.08507
  35   38295.2    261.1   0.001945221   0.01672   0.11541   0.00659   0.05796
  36   38589.3    259.1   0.156167366   1.33229  -0.47142  -0.04554   1.05261
  37   38874.4    257.2   0.023840672   0.20190   0.34954   0.08477   0.26933
  38   39206.2    255.1   0.029819380   0.25039   0.01053   0.43013   0.25547
  39   39657.7    252.2   0.048901227   0.40595   0.26717  -0.32012  -0.48176
  40   39963.5    250.2   0.060277610   0.49656   0.10062  -0.61983  -0.31975
  41   40078.2    249.5   0.067804403   0.55696   0.46668  -0.16907   0.55730

FINAL SINGLE POINT ENERGY     -4207.540887802424

DIPOLE MOMENT
-------------
                                X             Y             Z
Electronic contribution:     16.89990     -50.49680      17.70036
Nuclear contribution   :    -16.93809      52.34085     -19.69632
                        -----------------------------------------
Total Dipole Moment    :     -0.03819       1.84404      -1.99596
                        -----------------------------------------
Magnitude (a.u.)       :      2.71768
Magnitude (Debye)      :      6.90780

Rotational constants in cm-1:     0.001620     0.000417     0.000388
Rotational constants in MHz :    48.575546    12.509587    11.627317

                             ****ORCA TERMINATED NORMALLY****
TOTAL RUN TIME: 0 days 0 hours 10 minutes 2 seconds 830 msec
