                         Program Version 4.2.0 -  RELEASE  -
|  1> # ORCA input file
|  2> # SCF done       -232.729942755423          0.000631175252
|  3> ! CAM-B3LYP def2-SVP def2/J RIJCOSX Grid4 TightSCF
|  4> %maxcore 5000
|  5> %tddft
|  6>     Mode sTDDFT
|  7>     Ethresh 5.0
|  8>     maxcore 5000
|  9> end
| 10>
| 11> %pal
| 12>   nprocs 6
| 13>   end
| 14> * xyz 0 1
| 15>    C      -12.89487         6.98472        -1.02504
| 16>    N      -12.00836         6.05950        -0.56484
| 17>    C      -12.34833         4.81016         0.06917
| 18>    C      -12.80338         5.01767         1.51120
| 19>    C      -10.67597         6.50667        -0.69990
| 20>    O       -9.70589         5.86234        -0.35131
| 21>    C      -10.81297         7.80675        -1.30864
| 22>    C      -12.20937         8.06795        -1.49548
| 23>    C      -12.32865         9.36776        -2.12119
| 24>    O      -13.28549        10.04580        -2.41080
| 25>    N      -10.98507         9.77807        -2.33894
| 26>    C      -10.70234        11.13305        -2.76744
| 27>    C      -11.21663        11.41310        -4.17702
| 28>    C      -10.09380         8.85545        -1.84471
| 29>    C       -8.66089         8.92629        -1.83303
| 30>    S       -7.86915         8.29510        -0.42771
| 31>    C       -6.31294         8.60161        -1.07808
| 32>    C       -6.37865         9.16913        -2.34648
| 33>    C       -7.73454         9.33586        -2.79090
| 34>    C       -7.96491         9.81485        -4.09832
| 35>    C       -6.91117        10.20760        -4.87239
| 36>    C       -7.13495        10.73937        -6.25996
| 37>    F       -8.42790        10.72146        -6.61551
| 38>    F       -6.72616        12.01327        -6.38632
| 39>    F       -6.47724        10.03037        -7.19220
| 40>    C       -5.56907        10.12873        -4.39250
| 41>    C       -4.48552        10.59077        -5.17364
| 42>    N       -3.57604        10.96528        -5.76140
| 43>    C       -5.30929         9.58984        -3.15587
| 44>    N       -5.17054         8.34195        -0.34354
| 45>    C       -4.97695         8.84410         0.92904
| 46>    O       -5.78107         9.51914         1.52051
| 47>    C       -3.57200         8.45244         1.36922
| 48>    C       -3.09874         7.58996         0.24463
| 49>    C       -4.07039         7.57981        -0.75880
| 50>    C       -3.90339         6.87065        -1.92824
| 51>    C       -2.71434         6.16453        -2.10971
| 52>    C       -1.74496         6.18215        -1.11419
| 53>    C       -1.92751         6.88731         0.06846
| 54>    C       -2.50244         5.40253        -3.38044
| 55>    C       -2.74291         9.75097         1.51965
| 56>    C       -3.38069        10.60335         2.61494
| 57>    O       -3.42991        10.32346         3.78482
| 58>    N       -3.88738        11.74758         2.02132
| 59>    C       -3.59931        11.75856         0.64870
| 60>    C       -2.85995        10.62143         0.31029
| 61>    C       -2.41162        10.43921        -0.97944
| 62>    C       -2.73505        11.39084        -1.93836
| 63>    C       -3.51149        12.49911        -1.62253
| 64>    C       -3.86988        13.50252        -2.67364
| 65>    C       -3.94194        12.69188        -0.31030
| 66>    C       -4.56211        12.76442         2.65951
| 67>    C       -4.89473        12.78395         3.96294
| 68>    C       -5.57587        13.85574         4.61508
| 69>    S       -5.36107        14.03724         6.31797
| 70>    C       -6.36092        15.44447         6.39574
| 71>    C       -6.81535        15.79995         5.12498
| 72>    C       -6.40645        14.86576         4.11244
| 73>    C       -6.89509        15.02739         2.80117
| 74>    C       -7.63046        16.13298         2.47765
| 75>    C       -8.15116        16.32227         1.08289
| 76>    F       -7.80912        15.30821         0.26585
| 77>    F       -9.49043        16.40195         1.03586
| 78>    F       -7.67743        17.43637         0.50089
| 79>    C       -7.89875        17.14421         3.44706
| 80>    C       -8.58539        18.32580         3.08247
| 81>    N       -9.14402        19.29053         2.81857
| 82>    C       -7.50599        16.96895         4.75336
| 83>    C       -6.55562        16.07992         7.66151
| 84>    N       -7.74258        16.61529         8.11532
| 85>    C       -9.06507        16.33091         7.60616
| 86>    C       -9.42523        14.85768         7.77905
| 87>    C       -7.59517        17.16969         9.41418
| 88>    O       -8.51171        17.66539        10.02738
| 89>    C       -6.19755        16.97296         9.73051
| 90>    C       -5.59781        16.26683         8.63493
| 91>    C       -4.19908        16.07840         8.93347
| 92>    O       -3.29444        15.53665         8.33150
| 93>    N       -4.04615        16.68089        10.20371
| 94>    C       -2.77707        16.74746        10.88382
| 95>    C       -2.14473        18.13118        10.76129
| 96>    C       -5.21847        17.20608        10.65295
| 97>    H      -13.95223         6.79732        -0.99559
| 98>    H      -11.44407         4.19620         0.04884
| 99>    H      -13.13256         4.31592        -0.51145
|100>    H      -12.01318         5.49340         2.08688
|101>    H      -13.03748         4.05936         1.96604
|102>    H      -13.68915         5.64808         1.54769
|103>    H       -9.62695        11.30330        -2.69336
|104>    H      -11.21034        11.81309        -2.07411
|105>    H      -10.80971        10.71629        -4.90582
|106>    H      -10.93739        12.42127        -4.46940
|107>    H      -12.29934        11.32970        -4.19294
|108>    H       -8.96833         9.85316        -4.48656
|109>    H       -4.29475         9.50399        -2.80083
|110>    H       -3.59825         7.94458         2.33727
|111>    H       -4.66938         6.85199        -2.68813
|112>    H       -0.82881         5.63093        -1.26202
|113>    H       -1.16599         6.88188         0.83304
|114>    H       -1.57417         4.83940        -3.34870
|115>    H       -2.46428         6.08678        -4.22744
|116>    H       -3.32599         4.71137        -3.55040
|117>    H       -1.71586         9.48829         1.78323
|118>    H       -1.81930         9.57542        -1.24153
|119>    H       -2.38378        11.26724        -2.95207
|120>    H       -3.24421        14.38883        -2.57022
|121>    H       -4.90675        13.81587        -2.57119
|122>    H       -3.71853        13.09594        -3.67001
|123>    H       -4.53331        13.56399        -0.07798
|124>    H       -4.77485        13.60200         2.01401
|125>    H       -4.58133        11.96965         4.59859
|126>    H       -6.71545        14.26616         2.06064
|127>    H       -7.69269        17.74678         5.47775
|128>    H       -9.14818        16.61239         6.55504
|129>    H       -9.74440        16.95412         8.19452
|130>    H       -8.75833        14.22550         7.19615
|131>    H      -10.44455        14.68895         7.44378
|132>    H       -9.35103        14.57241         8.82578
|133>    H       -2.13414        16.00027        10.41076
|134>    H       -2.91947        16.48518        11.93642
|135>    H       -1.98873        18.37888         9.71430
|136>    H       -1.18460        18.14414        11.26913
|137>    H       -2.78608        18.88854        11.20675
|138>    H       -5.27109        17.70718        11.60172
|139> *
|140>
|141>                          ****END OF INPUT****

CARTESIAN COORDINATES (ANGSTROEM)
---------------------------------
  C    -12.894870    6.984720   -1.025040
  N    -12.008360    6.059500   -0.564840
  C    -12.348330    4.810160    0.069170
  C    -12.803380    5.017670    1.511200
  C    -10.675970    6.506670   -0.699900
  O     -9.705890    5.862340   -0.351310
  C    -10.812970    7.806750   -1.308640
  C    -12.209370    8.067950   -1.495480
  C    -12.328650    9.367760   -2.121190
  O    -13.285490   10.045800   -2.410800
  N    -10.985070    9.778070   -2.338940
  C    -10.702340   11.133050   -2.767440
  C    -11.216630   11.413100   -4.177020
  C    -10.093800    8.855450   -1.844710
  C     -8.660890    8.926290   -1.833030
  S     -7.869150    8.295100   -0.427710
  C     -6.312940    8.601610   -1.078080
  C     -6.378650    9.169130   -2.346480
  C     -7.734540    9.335860   -2.790900
  C     -7.964910    9.814850   -4.098320
  C     -6.911170   10.207600   -4.872390
  C     -7.134950   10.739370   -6.259960
  F     -8.427900   10.721460   -6.615510
  F     -6.726160   12.013270   -6.386320
  F     -6.477240   10.030370   -7.192200
  C     -5.569070   10.128730   -4.392500
  C     -4.485520   10.590770   -5.173640
  N     -3.576040   10.965280   -5.761400
  C     -5.309290    9.589840   -3.155870
  N     -5.170540    8.341950   -0.343540
  C     -4.976950    8.844100    0.929040
  O     -5.781070    9.519140    1.520510
  C     -3.572000    8.452440    1.369220
  C     -3.098740    7.589960    0.244630
  C     -4.070390    7.579810   -0.758800
  C     -3.903390    6.870650   -1.928240
  C     -2.714340    6.164530   -2.109710
  C     -1.744960    6.182150   -1.114190
  C     -1.927510    6.887310    0.068460
  C     -2.502440    5.402530   -3.380440
  C     -2.742910    9.750970    1.519650
  C     -3.380690   10.603350    2.614940
  O     -3.429910   10.323460    3.784820
  N     -3.887380   11.747580    2.021320
  C     -3.599310   11.758560    0.648700
  C     -2.859950   10.621430    0.310290
  C     -2.411620   10.439210   -0.979440
  C     -2.735050   11.390840   -1.938360
  C     -3.511490   12.499110   -1.622530
  C     -3.869880   13.502520   -2.673640
  C     -3.941940   12.691880   -0.310300
  C     -4.562110   12.764420    2.659510
  C     -4.894730   12.783950    3.962940
  C     -5.575870   13.855740    4.615080
  S     -5.361070   14.037240    6.317970
  C     -6.360920   15.444470    6.395740
  C     -6.815350   15.799950    5.124980
  C     -6.406450   14.865760    4.112440
  C     -6.895090   15.027390    2.801170
  C     -7.630460   16.132980    2.477650
  C     -8.151160   16.322270    1.082890
  F     -7.809120   15.308210    0.265850
  F     -9.490430   16.401950    1.035860
  F     -7.677430   17.436370    0.500890
  C     -7.898750   17.144210    3.447060
  C     -8.585390   18.325800    3.082470
  N     -9.144020   19.290530    2.818570
  C     -7.505990   16.968950    4.753360
  C     -6.555620   16.079920    7.661510
  N     -7.742580   16.615290    8.115320
  C     -9.065070   16.330910    7.606160
  C     -9.425230   14.857680    7.779050
  C     -7.595170   17.169690    9.414180
  O     -8.511710   17.665390   10.027380
  C     -6.197550   16.972960    9.730510
  C     -5.597810   16.266830    8.634930
  C     -4.199080   16.078400    8.933470
  O     -3.294440   15.536650    8.331500
  N     -4.046150   16.680890   10.203710
  C     -2.777070   16.747460   10.883820
  C     -2.144730   18.131180   10.761290
  C     -5.218470   17.206080   10.652950
  H    -13.952230    6.797320   -0.995590
  H    -11.444070    4.196200    0.048840
  H    -13.132560    4.315920   -0.511450
  H    -12.013180    5.493400    2.086880
  H    -13.037480    4.059360    1.966040
  H    -13.689150    5.648080    1.547690
  H     -9.626950   11.303300   -2.693360
  H    -11.210340   11.813090   -2.074110
  H    -10.809710   10.716290   -4.905820
  H    -10.937390   12.421270   -4.469400
  H    -12.299340   11.329700   -4.192940
  H     -8.968330    9.853160   -4.486560
  H     -4.294750    9.503990   -2.800830
  H     -3.598250    7.944580    2.337270
  H     -4.669380    6.851990   -2.688130
  H     -0.828810    5.630930   -1.262020
  H     -1.165990    6.881880    0.833040
  H     -1.574170    4.839400   -3.348700
  H     -2.464280    6.086780   -4.227440
  H     -3.325990    4.711370   -3.550400
  H     -1.715860    9.488290    1.783230
  H     -1.819300    9.575420   -1.241530
  H     -2.383780   11.267240   -2.952070
  H     -3.244210   14.388830   -2.570220
  H     -4.906750   13.815870   -2.571190
  H     -3.718530   13.095940   -3.670010
  H     -4.533310   13.563990   -0.077980
  H     -4.774850   13.602000    2.014010
  H     -4.581330   11.969650    4.598590
  H     -6.715450   14.266160    2.060640
  H     -7.692690   17.746780    5.477750
  H     -9.148180   16.612390    6.555040
  H     -9.744400   16.954120    8.194520
  H     -8.758330   14.225500    7.196150
  H    -10.444550   14.688950    7.443780
  H     -9.351030   14.572410    8.825780
  H     -2.134140   16.000270   10.410760
  H     -2.919470   16.485180   11.936420
  H     -1.988730   18.378880    9.714300
  H     -1.184600   18.144140   11.269130
  H     -2.786080   18.888540   11.206750
  H     -5.271090   17.707180   11.601720

 Total Charge           Charge          ....    0
 Multiplicity           Mult            ....    1
 Number of Electrons    NEL             ....  592
 Basis Dimension        Dim             .... 1366

ORBITAL ENERGIES
----------------

  NO   OCC          E(Eh)            E(eV)
   0   2.0000     -88.997609     -2421.7481
   1   2.0000     -88.983445     -2421.3626
   2   2.0000     -24.808528      -675.0744
   3   2.0000     -24.803224      -674.9300
   4   2.0000     -24.801946      -674.8953
   5   2.0000     -24.801673      -674.8878
   6   2.0000     -24.796081      -674.7357
   7   2.0000     -24.795591      -674.7223
   8   2.0000     -19.220761      -523.0235
   9   2.0000     -19.214033      -522.8404
  10   2.0000     -19.194973      -522.3218
  11   2.0000     -19.194852      -522.3185
  12   2.0000     -19.187381      -522.1152
  13   2.0000     -19.187062      -522.1065
  14   2.0000     -14.488995      -394.2656
  15   2.0000     -14.481021      -394.0486
  16   2.0000     -14.462820      -393.5533
  17   2.0000     -14.460084      -393.4789
  18   2.0000     -14.452948      -393.2847
  19   2.0000     -14.452577      -393.2746
  20   2.0000     -14.416333      -392.2884
  21   2.0000     -14.405530      -391.9944
  22   2.0000     -10.525732      -286.4197
  23   2.0000     -10.519616      -286.2533
  24   2.0000     -10.401783      -283.0469
  25   2.0000     -10.394537      -282.8497
  26   2.0000     -10.380953      -282.4801
  27   2.0000     -10.379795      -282.4486
  28   2.0000     -10.373389      -282.2743
  29   2.0000     -10.372094      -282.2390
  30   2.0000     -10.365240      -282.0525
  31   2.0000     -10.358104      -281.8583
  32   2.0000     -10.347555      -281.5713
  33   2.0000     -10.338805      -281.3332
  34   2.0000     -10.335242      -281.2362
  35   2.0000     -10.335192      -281.2349
  36   2.0000     -10.333766      -281.1961
  37   2.0000     -10.332906      -281.1727
  38   2.0000     -10.331867      -281.1444
  39   2.0000     -10.329762      -281.0871
  40   2.0000     -10.328872      -281.0629
  41   2.0000     -10.326657      -281.0026
  42   2.0000     -10.324047      -280.9316
  43   2.0000     -10.320474      -280.8344
  44   2.0000     -10.318938      -280.7926
  45   2.0000     -10.318529      -280.7814
  46   2.0000     -10.316119      -280.7159
  47   2.0000     -10.315740      -280.7056
  48   2.0000     -10.314537      -280.6728
  49   2.0000     -10.314424      -280.6698
  50   2.0000     -10.314140      -280.6620
  51   2.0000     -10.313892      -280.6553
  52   2.0000     -10.313465      -280.6437
  53   2.0000     -10.312514      -280.6178
  54   2.0000     -10.311094      -280.5791
  55   2.0000     -10.309390      -280.5328
  56   2.0000     -10.308697      -280.5139
  57   2.0000     -10.307829      -280.4903
  58   2.0000     -10.304419      -280.3975
  59   2.0000     -10.303364      -280.3688
  60   2.0000     -10.302839      -280.3545
  61   2.0000     -10.296090      -280.1709
  62   2.0000     -10.293353      -280.0964
  63   2.0000     -10.292794      -280.0812
  64   2.0000     -10.290316      -280.0137
  65   2.0000     -10.288139      -279.9545
  66   2.0000     -10.287942      -279.9491
  67   2.0000     -10.286726      -279.9160
  68   2.0000     -10.286672      -279.9146
  69   2.0000     -10.284006      -279.8420
  70   2.0000     -10.280611      -279.7497
  71   2.0000     -10.274690      -279.5885
  72   2.0000     -10.273468      -279.5553
  73   2.0000     -10.269642      -279.4512
  74   2.0000     -10.267744      -279.3995
  75   2.0000     -10.266575      -279.3677
  76   2.0000     -10.265353      -279.3345
  77   2.0000     -10.264612      -279.3143
  78   2.0000     -10.261323      -279.2248
  79   2.0000     -10.260400      -279.1997
  80   2.0000     -10.260132      -279.1924
  81   2.0000     -10.258370      -279.1445
  82   2.0000      -8.091881      -220.1913
  83   2.0000      -8.078149      -219.8176
  84   2.0000      -6.060654      -164.9188
  85   2.0000      -6.056385      -164.8026
  86   2.0000      -6.055122      -164.7683
  87   2.0000      -6.047003      -164.5473
  88   2.0000      -6.042736      -164.4312
  89   2.0000      -6.041263      -164.3911
  90   2.0000      -1.394440       -37.9447
  91   2.0000      -1.388339       -37.7786
  92   2.0000      -1.298201       -35.3258
  93   2.0000      -1.293774       -35.2054
  94   2.0000      -1.291650       -35.1476
  95   2.0000      -1.287995       -35.0481
  96   2.0000      -1.168128       -31.7864
  97   2.0000      -1.154787       -31.4234
  98   2.0000      -1.138887       -30.9907
  99   2.0000      -1.131657       -30.7939
 100   2.0000      -1.131074       -30.7781
 101   2.0000      -1.123997       -30.5855
 102   2.0000      -1.092875       -29.7386
 103   2.0000      -1.082597       -29.4590
 104   2.0000      -1.070505       -29.1299
 105   2.0000      -1.062753       -28.9190
 106   2.0000      -1.061685       -28.8899
 107   2.0000      -1.054130       -28.6843
 108   2.0000      -1.026191       -27.9241
 109   2.0000      -1.017623       -27.6909
 110   2.0000      -1.004876       -27.3441
 111   2.0000      -0.993614       -27.0376
 112   2.0000      -0.979987       -26.6668
 113   2.0000      -0.970020       -26.3956
 114   2.0000      -0.964372       -26.2419
 115   2.0000      -0.962700       -26.1964
 116   2.0000      -0.941134       -25.6095
 117   2.0000      -0.933542       -25.4030
 118   2.0000      -0.926675       -25.2161
 119   2.0000      -0.918502       -24.9937
 120   2.0000      -0.907511       -24.6946
 121   2.0000      -0.895606       -24.3707
 122   2.0000      -0.886619       -24.1261
 123   2.0000      -0.880985       -23.9728
 124   2.0000      -0.879684       -23.9374
 125   2.0000      -0.874363       -23.7926
 126   2.0000      -0.870114       -23.6770
 127   2.0000      -0.864784       -23.5320
 128   2.0000      -0.858055       -23.3489
 129   2.0000      -0.852901       -23.2086
 130   2.0000      -0.847518       -23.0621
 131   2.0000      -0.839580       -22.8461
 132   2.0000      -0.828234       -22.5374
 133   2.0000      -0.824735       -22.4422
 134   2.0000      -0.819223       -22.2922
 135   2.0000      -0.814892       -22.1743
 136   2.0000      -0.806058       -21.9339
 137   2.0000      -0.796577       -21.6760
 138   2.0000      -0.787753       -21.4358
 139   2.0000      -0.784038       -21.3347
 140   2.0000      -0.774222       -21.0676
 141   2.0000      -0.769276       -20.9331
 142   2.0000      -0.766182       -20.8489
 143   2.0000      -0.763813       -20.7844
 144   2.0000      -0.760858       -20.7040
 145   2.0000      -0.758938       -20.6518
 146   2.0000      -0.748950       -20.3800
 147   2.0000      -0.741597       -20.1799
 148   2.0000      -0.734670       -19.9914
 149   2.0000      -0.723365       -19.6838
 150   2.0000      -0.714831       -19.4516
 151   2.0000      -0.714167       -19.4335
 152   2.0000      -0.712063       -19.3762
 153   2.0000      -0.709331       -19.3019
 154   2.0000      -0.706040       -19.2123
 155   2.0000      -0.695549       -18.9269
 156   2.0000      -0.693264       -18.8647
 157   2.0000      -0.685615       -18.6565
 158   2.0000      -0.680883       -18.5278
 159   2.0000      -0.679916       -18.5014
 160   2.0000      -0.675914       -18.3926
 161   2.0000      -0.675837       -18.3904
 162   2.0000      -0.674984       -18.3672
 163   2.0000      -0.670486       -18.2449
 164   2.0000      -0.669708       -18.2237
 165   2.0000      -0.660649       -17.9772
 166   2.0000      -0.653048       -17.7703
 167   2.0000      -0.652283       -17.7495
 168   2.0000      -0.647294       -17.6138
 169   2.0000      -0.639054       -17.3895
 170   2.0000      -0.633530       -17.2392
 171   2.0000      -0.624349       -16.9894
 172   2.0000      -0.621855       -16.9215
 173   2.0000      -0.618998       -16.8438
 174   2.0000      -0.609399       -16.5826
 175   2.0000      -0.606175       -16.4949
 176   2.0000      -0.603002       -16.4085
 177   2.0000      -0.597519       -16.2593
 178   2.0000      -0.596399       -16.2288
 179   2.0000      -0.594474       -16.1765
 180   2.0000      -0.589559       -16.0427
 181   2.0000      -0.586740       -15.9660
 182   2.0000      -0.581672       -15.8281
 183   2.0000      -0.579297       -15.7635
 184   2.0000      -0.577685       -15.7196
 185   2.0000      -0.574946       -15.6451
 186   2.0000      -0.570513       -15.5245
 187   2.0000      -0.567373       -15.4390
 188   2.0000      -0.564327       -15.3561
 189   2.0000      -0.561245       -15.2723
 190   2.0000      -0.560334       -15.2475
 191   2.0000      -0.559781       -15.2324
 192   2.0000      -0.557335       -15.1659
 193   2.0000      -0.555524       -15.1166
 194   2.0000      -0.554207       -15.0807
 195   2.0000      -0.551592       -15.0096
 196   2.0000      -0.549987       -14.9659
 197   2.0000      -0.548250       -14.9186
 198   2.0000      -0.545665       -14.8483
 199   2.0000      -0.541408       -14.7325
 200   2.0000      -0.539944       -14.6926
 201   2.0000      -0.536854       -14.6085
 202   2.0000      -0.536192       -14.5905
 203   2.0000      -0.532203       -14.4820
 204   2.0000      -0.531158       -14.4536
 205   2.0000      -0.529243       -14.4014
 206   2.0000      -0.527095       -14.3430
 207   2.0000      -0.526106       -14.3161
 208   2.0000      -0.523644       -14.2491
 209   2.0000      -0.523184       -14.2366
 210   2.0000      -0.521964       -14.2034
 211   2.0000      -0.519169       -14.1273
 212   2.0000      -0.517127       -14.0717
 213   2.0000      -0.516659       -14.0590
 214   2.0000      -0.515777       -14.0350
 215   2.0000      -0.512342       -13.9415
 216   2.0000      -0.510793       -13.8994
 217   2.0000      -0.509704       -13.8698
 218   2.0000      -0.507900       -13.8207
 219   2.0000      -0.507431       -13.8079
 220   2.0000      -0.507033       -13.7971
 221   2.0000      -0.505385       -13.7522
 222   2.0000      -0.502373       -13.6703
 223   2.0000      -0.501583       -13.6488
 224   2.0000      -0.500449       -13.6179
 225   2.0000      -0.499492       -13.5919
 226   2.0000      -0.495533       -13.4842
 227   2.0000      -0.493386       -13.4257
 228   2.0000      -0.490907       -13.3583
 229   2.0000      -0.489698       -13.3254
 230   2.0000      -0.486207       -13.2304
 231   2.0000      -0.485382       -13.2079
 232   2.0000      -0.483909       -13.1678
 233   2.0000      -0.480207       -13.0671
 234   2.0000      -0.477264       -12.9870
 235   2.0000      -0.474902       -12.9227
 236   2.0000      -0.472453       -12.8561
 237   2.0000      -0.472329       -12.8527
 238   2.0000      -0.471888       -12.8407
 239   2.0000      -0.469740       -12.7823
 240   2.0000      -0.468655       -12.7528
 241   2.0000      -0.467360       -12.7175
 242   2.0000      -0.466120       -12.6838
 243   2.0000      -0.465494       -12.6667
 244   2.0000      -0.464932       -12.6515
 245   2.0000      -0.461558       -12.5596
 246   2.0000      -0.461135       -12.5481
 247   2.0000      -0.458569       -12.4783
 248   2.0000      -0.457918       -12.4606
 249   2.0000      -0.456152       -12.4125
 250   2.0000      -0.454629       -12.3711
 251   2.0000      -0.453174       -12.3315
 252   2.0000      -0.452068       -12.3014
 253   2.0000      -0.449060       -12.2195
 254   2.0000      -0.448914       -12.2156
 255   2.0000      -0.445991       -12.1360
 256   2.0000      -0.442183       -12.0324
 257   2.0000      -0.437455       -11.9037
 258   2.0000      -0.437100       -11.8941
 259   2.0000      -0.435754       -11.8575
 260   2.0000      -0.432742       -11.7755
 261   2.0000      -0.432173       -11.7600
 262   2.0000      -0.431553       -11.7432
 263   2.0000      -0.428898       -11.6709
 264   2.0000      -0.428430       -11.6582
 265   2.0000      -0.424457       -11.5501
 266   2.0000      -0.421130       -11.4595
 267   2.0000      -0.419384       -11.4120
 268   2.0000      -0.417872       -11.3709
 269   2.0000      -0.416281       -11.3276
 270   2.0000      -0.409944       -11.1551
 271   2.0000      -0.408487       -11.1155
 272   2.0000      -0.406109       -11.0508
 273   2.0000      -0.403893       -10.9905
 274   2.0000      -0.398153       -10.8343
 275   2.0000      -0.382523       -10.4090
 276   2.0000      -0.379148       -10.3172
 277   2.0000      -0.364209        -9.9106
 278   2.0000      -0.353161        -9.6100
 279   2.0000      -0.352818        -9.6007
 280   2.0000      -0.350215        -9.5298
 281   2.0000      -0.345441        -9.3999
 282   2.0000      -0.340016        -9.2523
 283   2.0000      -0.333069        -9.0633
 284   2.0000      -0.332118        -9.0374
 285   2.0000      -0.331048        -9.0083
 286   2.0000      -0.326511        -8.8848
 287   2.0000      -0.326037        -8.8719
 288   2.0000      -0.321719        -8.7544
 289   2.0000      -0.315684        -8.5902
 290   2.0000      -0.314524        -8.5586
 291   2.0000      -0.303597        -8.2613
 292   2.0000      -0.290852        -7.9145
 293   2.0000      -0.272029        -7.4023
 294   2.0000      -0.256623        -6.9831
 295   2.0000      -0.243493        -6.6258
 296   0.0000      -0.083366        -2.2685
 297   0.0000      -0.079290        -2.1576
 298   0.0000      -0.050308        -1.3690
 299   0.0000      -0.038910        -1.0588
 300   0.0000      -0.019384        -0.5275

MULLIKEN ATOMIC CHARGES
-----------------------
   0 C :    0.048806
   1 N :   -0.263886
   2 C :    0.109720
   3 C :   -0.003847
   4 C :    0.155684
   5 O :   -0.202826
   6 C :   -0.118376
   7 C :    0.005155
   8 C :    0.173837
   9 O :   -0.179035
  10 N :   -0.269899
  11 C :    0.103611
  12 C :   -0.014796
  13 C :    0.137119
  14 C :   -0.248418
  15 S :    0.323728
  16 C :   -0.080918
  17 C :    0.126128
  18 C :    0.190561
  19 C :   -0.089829
  20 C :   -0.043715
  21 C :    0.525465
  22 F :   -0.153010
  23 F :   -0.158680
  24 F :   -0.157641
  25 C :   -0.089876
  26 C :   -0.135242
  27 N :    0.111281
  28 C :   -0.045987
  29 N :   -0.186534
  30 C :    0.118401
  31 O :   -0.179626
  32 C :    0.062599
  33 C :   -0.013249
  34 C :    0.229162
  35 C :   -0.130458
  36 C :   -0.043837
  37 C :   -0.004573
  38 C :   -0.050994
  39 C :    0.092294
  40 C :    0.042391
  41 C :    0.160084
  42 O :   -0.181281
  43 N :   -0.144419
  44 C :    0.234573
  45 C :   -0.075471
  46 C :   -0.018743
  47 C :   -0.042402
  48 C :   -0.033326
  49 C :    0.086550
  50 C :   -0.139448
  51 C :    0.064944
  52 C :    0.035668
  53 C :   -0.118129
  54 S :    0.276665
  55 C :   -0.256322
  56 C :    0.174499
  57 C :    0.103517
  58 C :   -0.090732
  59 C :   -0.058789
  60 C :    0.521407
  61 F :   -0.164089
  62 F :   -0.156042
  63 F :   -0.157469
  64 C :   -0.089792
  65 C :   -0.160744
  66 N :    0.137342
  67 C :   -0.067257
  68 C :    0.118303
  69 N :   -0.271085
  70 C :    0.096393
  71 C :    0.000548
  72 C :    0.164512
  73 O :   -0.177676
  74 C :   -0.007661
  75 C :   -0.075431
  76 C :    0.142443
  77 O :   -0.192992
  78 N :   -0.266985
  79 C :    0.111279
  80 C :   -0.000362
  81 C :    0.053023
  82 H :    0.019921
  83 H :    0.043723
  84 H :    0.020821
  85 H :    0.032205
  86 H :    0.025346
  87 H :    0.016422
  88 H :    0.033070
  89 H :    0.033379
  90 H :    0.018633
  91 H :    0.024767
  92 H :    0.052501
  93 H :   -0.019261
  94 H :   -0.003440
  95 H :    0.057384
  96 H :   -0.022097
  97 H :   -0.025100
  98 H :   -0.021932
  99 H :    0.013754
 100 H :    0.036411
 101 H :    0.031889
 102 H :    0.043347
 103 H :   -0.015517
 104 H :   -0.011505
 105 H :    0.036727
 106 H :    0.023071
 107 H :    0.029123
 108 H :   -0.038962
 109 H :    0.011440
 110 H :    0.030510
 111 H :   -0.006678
 112 H :    0.017002
 113 H :    0.019398
 114 H :    0.048566
 115 H :    0.022930
 116 H :    0.024876
 117 H :    0.024905
 118 H :    0.042871
 119 H :    0.018386
 120 H :    0.031233
 121 H :    0.023209
 122 H :    0.014718
 123 H :    0.016169
Sum of atomic charges:   -0.0000000

LOEWDIN ATOMIC CHARGES
----------------------
   0 C :    0.098758
   1 N :   -0.001471
   2 C :    0.038298
   3 C :   -0.060407
   4 C :    0.070890
   5 O :   -0.206258
   6 C :   -0.139363
   7 C :   -0.130297
   8 C :    0.087756
   9 O :   -0.177946
  10 N :   -0.011627
  11 C :    0.038900
  12 C :   -0.062363
  13 C :    0.054699
  14 C :   -0.196042
  15 S :    0.603938
  16 C :   -0.134253
  17 C :   -0.059602
  18 C :   -0.035363
  19 C :    0.010046
  20 C :   -0.065666
  21 C :    0.169497
  22 F :   -0.053059
  23 F :   -0.056490
  24 F :   -0.055122
  25 C :   -0.067746
  26 C :   -0.034416
  27 N :   -0.050563
  28 C :    0.039887
  29 N :   -0.008568
  30 C :    0.087932
  31 O :   -0.171083
  32 C :   -0.019964
  33 C :   -0.048649
  34 C :    0.037063
  35 C :   -0.053014
  36 C :   -0.005687
  37 C :   -0.039989
  38 C :   -0.011512
  39 C :   -0.043482
  40 C :   -0.017867
  41 C :    0.097609
  42 O :   -0.158185
  43 N :    0.024379
  44 C :    0.039887
  45 C :   -0.057919
  46 C :   -0.014585
  47 C :   -0.044038
  48 C :   -0.002765
  49 C :   -0.045298
  50 C :   -0.055546
  51 C :    0.044776
  52 C :   -0.072725
  53 C :   -0.150716
  54 S :    0.565078
  55 C :   -0.205198
  56 C :   -0.035165
  57 C :   -0.054164
  58 C :    0.015111
  59 C :   -0.077241
  60 C :    0.169898
  61 F :   -0.064425
  62 F :   -0.055710
  63 F :   -0.055623
  64 C :   -0.058203
  65 C :   -0.041278
  66 N :   -0.039561
  67 C :    0.026736
  68 C :    0.053182
  69 N :   -0.013935
  70 C :    0.033626
  71 C :   -0.061002
  72 C :    0.083656
  73 O :   -0.182380
  74 C :   -0.131978
  75 C :   -0.131519
  76 C :    0.071392
  77 O :   -0.200285
  78 N :   -0.003624
  79 C :    0.038090
  80 C :   -0.060238
  81 C :    0.096209
  82 H :    0.034703
  83 H :    0.036816
  84 H :    0.025565
  85 H :    0.032229
  86 H :    0.031121
  87 H :    0.022989
  88 H :    0.027360
  89 H :    0.034357
  90 H :    0.018432
  91 H :    0.032306
  92 H :    0.034959
  93 H :    0.037788
  94 H :    0.042934
  95 H :    0.056674
  96 H :    0.032029
  97 H :    0.027812
  98 H :    0.031599
  99 H :    0.031198
 100 H :    0.040501
 101 H :    0.038525
 102 H :    0.050963
 103 H :    0.033934
 104 H :    0.030255
 105 H :    0.041794
 106 H :    0.034625
 107 H :    0.035745
 108 H :    0.027234
 109 H :    0.028203
 110 H :    0.038849
 111 H :    0.034448
 112 H :    0.045241
 113 H :    0.021182
 114 H :    0.038129
 115 H :    0.022751
 116 H :    0.031966
 117 H :    0.029372
 118 H :    0.036662
 119 H :    0.024435
 120 H :    0.031979
 121 H :    0.030327
 122 H :    0.022354
 123 H :    0.033534

  Mayer bond orders larger than 0.100000
B(  0-C ,  1-N ) :   1.1879 B(  0-C ,  7-C ) :   1.4701 B(  0-C , 82-H ) :   0.9897
B(  1-N ,  2-C ) :   0.9387 B(  1-N ,  4-C ) :   1.0419 B(  2-C ,  3-C ) :   1.1211
B(  2-C , 83-H ) :   0.9345 B(  2-C , 84-H ) :   0.9538 B(  3-C , 85-H ) :   0.9673
B(  3-C , 86-H ) :   0.9686 B(  3-C , 87-H ) :   0.9689 B(  4-C ,  5-O ) :   2.1239
B(  4-C ,  6-C ) :   0.9807 B(  6-C ,  7-C ) :   1.1766 B(  6-C , 13-C ) :   1.4423
B(  7-C ,  8-C ) :   0.9604 B(  8-C ,  9-O ) :   2.1613 B(  8-C , 10-N ) :   0.9979
B( 10-N , 11-C ) :   0.9325 B( 10-N , 13-C ) :   1.2114 B( 11-C , 12-C ) :   1.1042
B( 11-C , 88-H ) :   0.9526 B( 11-C , 89-H ) :   0.9419 B( 12-C , 90-H ) :   0.9632
B( 12-C , 91-H ) :   0.9641 B( 12-C , 92-H ) :   0.9562 B( 13-C , 14-C ) :   1.0793
B( 14-C , 15-S ) :   1.2241 B( 14-C , 16-C ) :   0.1202 B( 14-C , 18-C ) :   1.3453
B( 15-S , 16-C ) :   1.2364 B( 16-C , 17-C ) :   1.3391 B( 16-C , 29-N ) :   1.0216
B( 17-C , 18-C ) :   1.2090 B( 17-C , 28-C ) :   1.1566 B( 18-C , 19-C ) :   1.1657
B( 19-C , 20-C ) :   1.5592 B( 19-C , 93-H ) :   0.9960 B( 20-C , 21-C ) :   0.9437
B( 20-C , 25-C ) :   1.1964 B( 21-C , 22-F ) :   1.1667 B( 21-C , 23-F ) :   1.1580
B( 21-C , 24-F ) :   1.1625 B( 25-C , 26-C ) :   1.0768 B( 25-C , 28-C ) :   1.5691
B( 26-C , 27-N ) :   2.9595 B( 28-C , 94-H ) :   0.9864 B( 29-N , 30-C ) :   1.0693
B( 29-N , 34-C ) :   0.9797 B( 30-C , 31-O ) :   2.1613 B( 30-C , 32-C ) :   0.8972
B( 32-C , 33-C ) :   0.9809 B( 32-C , 40-C ) :   1.0354 B( 32-C , 95-H ) :   0.8776
B( 33-C , 34-C ) :   1.3699 B( 33-C , 38-C ) :   1.4235 B( 34-C , 35-C ) :   1.3714
B( 35-C , 36-C ) :   1.3198 B( 35-C , 96-H ) :   1.0138 B( 36-C , 37-C ) :   1.4199
B( 36-C , 39-C ) :   1.0494 B( 37-C , 38-C ) :   1.3342 B( 37-C , 97-H ) :   0.9905
B( 38-C , 98-H ) :   1.0066 B( 39-C , 99-H ) :   0.9606 B( 39-C ,100-H ) :   0.9552
B( 39-C ,101-H ) :   0.9564 B( 40-C , 41-C ) :   0.9342 B( 40-C , 45-C ) :   0.9507
B( 40-C ,102-H ) :   0.8809 B( 41-C , 42-O ) :   2.1388 B( 41-C , 43-N ) :   1.0678
B( 43-N , 44-C ) :   1.0046 B( 43-N , 51-C ) :   1.0696 B( 44-C , 45-C ) :   1.3596
B( 44-C , 50-C ) :   1.3475 B( 45-C , 46-C ) :   1.4532 B( 46-C , 47-C ) :   1.3145
B( 46-C ,103-H ) :   1.0008 B( 47-C , 48-C ) :   1.4094 B( 47-C ,104-H ) :   0.9902
B( 48-C , 49-C ) :   1.0505 B( 48-C , 50-C ) :   1.3377 B( 49-C ,105-H ) :   0.9501
B( 49-C ,106-H ) :   0.9564 B( 49-C ,107-H ) :   0.9588 B( 50-C ,108-H ) :   1.0088
B( 51-C , 52-C ) :   1.7147 B( 51-C ,109-H ) :   0.9700 B( 52-C , 53-C ) :   1.1042
B( 52-C ,110-H ) :   0.9369 B( 53-C , 54-S ) :   1.2074 B( 53-C , 55-C ) :   0.1217
B( 53-C , 57-C ) :   1.3493 B( 54-S , 55-C ) :   1.1944 B( 55-C , 56-C ) :   1.3347
B( 55-C , 68-C ) :   1.0817 B( 56-C , 57-C ) :   1.1992 B( 56-C , 67-C ) :   1.1803
B( 57-C , 58-C ) :   1.1752 B( 58-C , 59-C ) :   1.5562 B( 58-C ,111-H ) :   0.9848
B( 59-C , 60-C ) :   0.9466 B( 59-C , 64-C ) :   1.2080 B( 60-C , 61-F ) :   1.1529
B( 60-C , 62-F ) :   1.1702 B( 60-C , 63-F ) :   1.1603 B( 64-C , 65-C ) :   1.0655
B( 64-C , 67-C ) :   1.5625 B( 65-C , 66-N ) :   3.0431 B( 67-C ,112-H ) :   0.9882
B( 68-C , 69-N ) :   1.1972 B( 68-C , 75-C ) :   1.4541 B( 69-N , 70-C ) :   0.9495
B( 69-N , 72-C ) :   0.9967 B( 70-C , 71-C ) :   1.1178 B( 70-C ,113-H ) :   0.9444
B( 70-C ,114-H ) :   0.9273 B( 71-C ,115-H ) :   0.9667 B( 71-C ,116-H ) :   0.9672
B( 71-C ,117-H ) :   0.9655 B( 72-C , 73-O ) :   2.1803 B( 72-C , 74-C ) :   0.9583
B( 74-C , 75-C ) :   1.1691 B( 74-C , 81-C ) :   1.4705 B( 75-C , 76-C ) :   0.9733
B( 76-C , 77-O ) :   2.1485 B( 76-C , 78-N ) :   1.0324 B( 78-N , 79-C ) :   0.9410
B( 78-N , 81-C ) :   1.1892 B( 79-C , 80-C ) :   1.1200 B( 79-C ,118-H ) :   0.9337
B( 79-C ,119-H ) :   0.9542 B( 80-C ,120-H ) :   0.9670 B( 80-C ,121-H ) :   0.9687
B( 80-C ,122-H ) :   0.9693 B( 81-C ,123-H ) :   0.9888

-----------------------------------------------------------------------------
         ABSORPTION SPECTRUM VIA TRANSITION ELECTRIC DIPOLE MOMENTS
-----------------------------------------------------------------------------
State   Energy  Wavelength   fosc         T2         TX        TY        TZ
        (cm-1)    (nm)                  (au**2)     (au)      (au)      (au)
-----------------------------------------------------------------------------
   0   18675.5    535.5   0.427543266   7.53675  -0.54603  -1.19346  -2.41128
   1   20002.3    499.9   0.208990278   3.43971   1.51258   0.96282  -0.47411
   2   24115.7    414.7   0.088443505   1.20737  -0.41330   0.54526   0.85979
   3   24128.1    414.5   0.136070558   1.85659   0.52871  -0.69964  -1.04286
   4   26021.3    384.3   0.103285149   1.30672  -1.13781  -0.08507  -0.06985
   5   27076.2    369.3   0.307576805   3.73974  -1.81858   0.61701  -0.22759
   6   27444.4    364.4   0.258041084   3.09536  -0.20011   1.41259  -1.02951
   7   29031.1    344.5   0.000003023   0.00003   0.00317   0.00291   0.00397
   8   29471.8    339.3   0.003402681   0.03801   0.15704   0.10934  -0.03732
   9   29640.6    337.4   0.012149057   0.13494  -0.29401   0.11177  -0.18975
  10   29844.6    335.1   0.021711952   0.23950   0.29493  -0.24570   0.30356
  11   30321.4    329.8   0.058526408   0.63545   0.38955   0.58901  -0.36981
  12   30560.6    327.2   0.019631835   0.21148  -0.32695   0.02028  -0.32277
  13   31622.2    316.2   0.134595721   1.40125   0.47620  -0.94014  -0.53908
  14   32291.2    309.7   0.002537679   0.02587  -0.09321   0.10714   0.07553
  15   32526.3    307.4   0.163275122   1.65258   1.22304  -0.39477  -0.02995
  16   32678.1    306.0   0.035546719   0.35811  -0.14084  -0.13583   0.56553
  17   34036.5    293.8   0.027285925   0.26392  -0.50586  -0.04868   0.07521
  18   34396.6    290.7   0.043377914   0.41517   0.33360   0.34637  -0.42884
  19   34655.0    288.6   0.020262580   0.19249  -0.30550   0.14624   0.27888
  20   34804.7    287.3   0.045901748   0.43418   0.44824  -0.46094   0.14419
  21   35010.2    285.6   0.007979216   0.07503   0.10529  -0.11308  -0.22618
  22   35415.0    282.4   0.006456184   0.06002  -0.15279   0.18613   0.04500
  23   36123.0    276.8   0.023497979   0.21415   0.00948  -0.30310   0.34956
  24   36816.4    271.6   0.006069407   0.05427  -0.16249   0.11722  -0.11887
  25   37114.8    269.4   0.129457838   1.14830  -0.68582   0.81575  -0.11184
  26   37185.0    268.9   0.024009829   0.21257  -0.31329   0.33772  -0.01901
  27   37567.7    266.2   0.075352072   0.66032  -0.01751   0.12277  -0.80308
  28   38020.8    263.0   0.003400878   0.02945  -0.04818  -0.12749  -0.10427
  29   38152.4    262.1   0.012328884   0.10638   0.13884   0.15483  -0.25126
  30   38629.7    258.9   0.131238944   1.11845  -0.55768  -0.32313   0.83847
  31   38899.6    257.1   0.041010491   0.34708   0.35140  -0.05242  -0.46994
  32   38928.6    256.9   0.011088332   0.09377  -0.03052  -0.29266  -0.08479
  33   39273.2    254.6   0.039173342   0.32837  -0.33404  -0.05598   0.46223
  34   39666.5    252.1   0.350140455   2.90599   1.10865  -1.25347  -0.32510
  35   39855.3    250.9   0.010964988   0.09057   0.25022  -0.14798   0.07786
  36   40072.3    249.5   0.031124317   0.25570   0.31439  -0.39330  -0.04662

FINAL SINGLE POINT ENERGY     -4591.749826285979

DIPOLE MOMENT
-------------
                                X             Y             Z
Electronic contribution:    -10.75025      26.17368     -44.66896
Nuclear contribution   :     12.33466     -30.06645      45.82172
                        -----------------------------------------
Total Dipole Moment    :      1.58441      -3.89277       1.15276
                        -----------------------------------------
Magnitude (a.u.)       :      4.35808
Magnitude (Debye)      :     11.07736

Rotational constants in cm-1:     0.000985     0.000396     0.000369
Rotational constants in MHz :    29.538289    11.869748    11.049709

                             ****ORCA TERMINATED NORMALLY****
TOTAL RUN TIME: 0 days 0 hours 13 minutes 43 seconds 346 msec
