                         Program Version 4.2.0 -  RELEASE  -
|  1> # ORCA input file
|  2> # SCF done       -183.833746115485          0.000689634767
|  3> ! CAM-B3LYP def2-SVP def2/J RIJCOSX Grid4 TightSCF
|  4> %maxcore 5000
|  5> %tddft
|  6>     Mode sTDDFT
|  7>     Ethresh 5.0
|  8>     maxcore 5000
|  9> end
| 10>
| 11> %pal
| 12>   nprocs 6
| 13>   end
| 14> * xyz 0 1
| 15>    C       -2.09257        -3.39638        -6.60910
| 16>    C       -0.86451        -3.86644        -6.17128
| 17>    C        0.39001        -3.68158        -6.93459
| 18>    O        0.52713        -3.13609        -7.98487
| 19>    S        1.73392        -4.42327        -6.00692
| 20>    C        0.66298        -4.93683        -4.65484
| 21>    O        1.08101        -5.48898        -3.68132
| 22>    C       -0.72741        -4.54916        -4.96546
| 23>    C       -1.82543        -4.80177        -4.11763
| 24>    C       -3.07593        -4.35972        -4.59594
| 25>    C       -3.18738        -3.67007        -5.80268
| 26>    C       -4.56256        -3.27138        -6.18068
| 27>    O       -4.89377        -2.63954        -7.13566
| 28>    S       -5.69597        -3.90441        -4.95051
| 29>    C       -4.38404        -4.65917        -3.96898
| 30>    O       -4.62274        -5.30833        -2.99787
| 31>    C       -1.62574        -5.48856        -2.86123
| 32>    C       -2.17022        -5.11705        -1.69024
| 33>    C       -1.92294        -5.78448        -0.45004
| 34>    S       -2.81261        -5.31206         0.96032
| 35>    C       -2.01792        -6.51302         1.91555
| 36>    C       -2.47676        -6.77640         3.26094
| 37>    O       -3.22877        -6.06982         3.88690
| 38>    C       -1.07314        -7.21613         1.17007
| 39>    C       -1.04421        -6.80963        -0.17337
| 40>    C       -0.21373        -8.26597         1.66732
| 41>    N        0.49001        -8.22887         2.84515
| 42>    C        0.76005        -7.06375         3.65665
| 43>    C        1.63071        -6.05730         2.91032
| 44>    C        1.21742        -9.42527         3.04404
| 45>    O        1.93862        -9.61297         4.00358
| 46>    C        0.89084       -10.24085         1.90013
| 47>    C        0.03076        -9.47860         1.05804
| 48>    C       -0.30033       -10.28503        -0.09818
| 49>    O       -0.96565       -10.06012        -1.08525
| 50>    N        0.36999       -11.50165         0.13507
| 51>    C        0.34092       -12.56620        -0.83857
| 52>    C        1.63109       -12.63077        -1.65270
| 53>    C        1.08069       -11.48713         1.31473
| 54>    C        1.83241       -12.59284         1.79352
| 55>    C        2.58109       -12.52415         2.92205
| 56>    C        3.36793       -13.59196         3.43284
| 57>    S        4.42930       -13.29994         4.76834
| 58>    C        4.99755       -14.92719         4.73932
| 59>    C        5.98832       -15.40335         5.66796
| 60>    O        6.41533       -16.53831         5.69911
| 61>    C        4.37527       -15.66125         3.72982
| 62>    C        3.46101       -14.90579         2.99991
| 63>    C        4.70610       -17.06712         3.48402
| 64>    C        4.46390       -18.05853         4.44062
| 65>    C        3.78913       -17.77767         5.72850
| 66>    O        3.23015       -16.77361         6.05555
| 67>    S        3.88070       -19.23358         6.75217
| 68>    C        4.68157       -20.21865         5.47235
| 69>    O        5.01766       -21.34571         5.66002
| 70>    C        4.85851       -19.38022         4.26369
| 71>    C        5.46941       -19.81678         3.07462
| 72>    C        5.70665       -18.82027         2.11775
| 73>    C        5.35088       -17.48565         2.31996
| 74>    C        5.74407       -16.57180         1.22803
| 75>    O        5.58595       -15.38895         1.16144
| 76>    S        6.53533       -17.52379        -0.06652
| 77>    C        6.35632       -19.08194         0.81995
| 78>    O        6.72183       -20.12341         0.36766
| 79>    C        5.84798       -21.20351         2.82373
| 80>    C        5.02249       -22.23180         2.94995
| 81>    H       -2.19675        -2.85897        -7.53837
| 82>    H       -0.92283        -6.30830        -2.88497
| 83>    H       -2.82494        -4.25855        -1.63566
| 84>    H       -2.10233        -7.73414         3.67489
| 85>    H       -0.38606        -7.25106        -0.89823
| 86>    H        1.28727        -7.43540         4.53964
| 87>    H       -0.17265        -6.59194         3.97471
| 88>    H        2.56701        -6.52007         2.60721
| 89>    H        1.85273        -5.21461         3.55851
| 90>    H        1.12041        -5.68909         2.02239
| 91>    H       -0.50028       -12.34275        -1.50087
| 92>    H        0.14774       -13.51850        -0.33612
| 93>    H        1.78520       -11.69159        -2.17806
| 94>    H        1.56335       -13.43013        -2.38540
| 95>    H        2.49188       -12.81365        -1.01322
| 96>    H        1.80289       -13.50529         1.21743
| 97>    H        2.61709       -11.59599         3.47745
| 98>    H        6.34030       -14.63748         6.38099
| 99>    H        2.87964       -15.30732         2.19027
|100>    H        6.85146       -21.34877         2.44801
|101>    H        3.99861       -22.11297         3.26293
|102>    H        5.34361       -23.23315         2.72627
|103> *
|104>
|105>                          ****END OF INPUT****

CARTESIAN COORDINATES (ANGSTROEM)
---------------------------------
  C     -2.092570   -3.396380   -6.609100
  C     -0.864510   -3.866440   -6.171280
  C      0.390010   -3.681580   -6.934590
  O      0.527130   -3.136090   -7.984870
  S      1.733920   -4.423270   -6.006920
  C      0.662980   -4.936830   -4.654840
  O      1.081010   -5.488980   -3.681320
  C     -0.727410   -4.549160   -4.965460
  C     -1.825430   -4.801770   -4.117630
  C     -3.075930   -4.359720   -4.595940
  C     -3.187380   -3.670070   -5.802680
  C     -4.562560   -3.271380   -6.180680
  O     -4.893770   -2.639540   -7.135660
  S     -5.695970   -3.904410   -4.950510
  C     -4.384040   -4.659170   -3.968980
  O     -4.622740   -5.308330   -2.997870
  C     -1.625740   -5.488560   -2.861230
  C     -2.170220   -5.117050   -1.690240
  C     -1.922940   -5.784480   -0.450040
  S     -2.812610   -5.312060    0.960320
  C     -2.017920   -6.513020    1.915550
  C     -2.476760   -6.776400    3.260940
  O     -3.228770   -6.069820    3.886900
  C     -1.073140   -7.216130    1.170070
  C     -1.044210   -6.809630   -0.173370
  C     -0.213730   -8.265970    1.667320
  N      0.490010   -8.228870    2.845150
  C      0.760050   -7.063750    3.656650
  C      1.630710   -6.057300    2.910320
  C      1.217420   -9.425270    3.044040
  O      1.938620   -9.612970    4.003580
  C      0.890840  -10.240850    1.900130
  C      0.030760   -9.478600    1.058040
  C     -0.300330  -10.285030   -0.098180
  O     -0.965650  -10.060120   -1.085250
  N      0.369990  -11.501650    0.135070
  C      0.340920  -12.566200   -0.838570
  C      1.631090  -12.630770   -1.652700
  C      1.080690  -11.487130    1.314730
  C      1.832410  -12.592840    1.793520
  C      2.581090  -12.524150    2.922050
  C      3.367930  -13.591960    3.432840
  S      4.429300  -13.299940    4.768340
  C      4.997550  -14.927190    4.739320
  C      5.988320  -15.403350    5.667960
  O      6.415330  -16.538310    5.699110
  C      4.375270  -15.661250    3.729820
  C      3.461010  -14.905790    2.999910
  C      4.706100  -17.067120    3.484020
  C      4.463900  -18.058530    4.440620
  C      3.789130  -17.777670    5.728500
  O      3.230150  -16.773610    6.055550
  S      3.880700  -19.233580    6.752170
  C      4.681570  -20.218650    5.472350
  O      5.017660  -21.345710    5.660020
  C      4.858510  -19.380220    4.263690
  C      5.469410  -19.816780    3.074620
  C      5.706650  -18.820270    2.117750
  C      5.350880  -17.485650    2.319960
  C      5.744070  -16.571800    1.228030
  O      5.585950  -15.388950    1.161440
  S      6.535330  -17.523790   -0.066520
  C      6.356320  -19.081940    0.819950
  O      6.721830  -20.123410    0.367660
  C      5.847980  -21.203510    2.823730
  C      5.022490  -22.231800    2.949950
  H     -2.196750   -2.858970   -7.538370
  H     -0.922830   -6.308300   -2.884970
  H     -2.824940   -4.258550   -1.635660
  H     -2.102330   -7.734140    3.674890
  H     -0.386060   -7.251060   -0.898230
  H      1.287270   -7.435400    4.539640
  H     -0.172650   -6.591940    3.974710
  H      2.567010   -6.520070    2.607210
  H      1.852730   -5.214610    3.558510
  H      1.120410   -5.689090    2.022390
  H     -0.500280  -12.342750   -1.500870
  H      0.147740  -13.518500   -0.336120
  H      1.785200  -11.691590   -2.178060
  H      1.563350  -13.430130   -2.385400
  H      2.491880  -12.813650   -1.013220
  H      1.802890  -13.505290    1.217430
  H      2.617090  -11.595990    3.477450
  H      6.340300  -14.637480    6.380990
  H      2.879640  -15.307320    2.190270
  H      6.851460  -21.348770    2.448010
  H      3.998610  -22.112970    3.262930
  H      5.343610  -23.233150    2.726270

 Total Charge           Charge          ....    0
 Multiplicity           Mult            ....    1
 Number of Electrons    NEL             ....  504
 Basis Dimension        Dim             .... 1058

ORBITAL ENERGIES
----------------

  NO   OCC          E(Eh)            E(eV)
   0   2.0000     -88.981486     -2421.3093
   1   2.0000     -88.976611     -2421.1767
   2   2.0000     -88.961329     -2420.7608
   3   2.0000     -88.959848     -2420.7205
   4   2.0000     -88.957031     -2420.6439
   5   2.0000     -88.952189     -2420.5121
   6   2.0000     -19.255337      -523.9644
   7   2.0000     -19.253999      -523.9279
   8   2.0000     -19.252204      -523.8791
   9   2.0000     -19.251857      -523.8697
  10   2.0000     -19.249969      -523.8183
  11   2.0000     -19.249292      -523.7999
  12   2.0000     -19.243537      -523.6433
  13   2.0000     -19.243439      -523.6406
  14   2.0000     -19.222980      -523.0839
  15   2.0000     -19.215432      -522.8785
  16   2.0000     -19.197854      -522.4002
  17   2.0000     -19.196751      -522.3701
  18   2.0000     -14.461136      -393.5075
  19   2.0000     -14.460146      -393.4806
  20   2.0000     -10.417430      -283.4727
  21   2.0000     -10.416540      -283.4485
  22   2.0000     -10.415155      -283.4108
  23   2.0000     -10.413368      -283.3621
  24   2.0000     -10.413053      -283.3536
  25   2.0000     -10.411231      -283.3040
  26   2.0000     -10.408055      -283.2176
  27   2.0000     -10.406670      -283.1799
  28   2.0000     -10.381731      -282.5013
  29   2.0000     -10.380092      -282.4567
  30   2.0000     -10.372554      -282.2515
  31   2.0000     -10.365393      -282.0567
  32   2.0000     -10.349734      -281.6306
  33   2.0000     -10.348118      -281.5866
  34   2.0000     -10.346410      -281.5401
  35   2.0000     -10.338808      -281.3333
  36   2.0000     -10.338167      -281.3158
  37   2.0000     -10.337406      -281.2951
  38   2.0000     -10.337335      -281.2932
  39   2.0000     -10.337322      -281.2928
  40   2.0000     -10.336181      -281.2618
  41   2.0000     -10.332754      -281.1685
  42   2.0000     -10.331942      -281.1464
  43   2.0000     -10.330448      -281.1058
  44   2.0000     -10.329704      -281.0855
  45   2.0000     -10.328731      -281.0591
  46   2.0000     -10.327897      -281.0364
  47   2.0000     -10.323923      -280.9282
  48   2.0000     -10.315625      -280.7024
  49   2.0000     -10.315346      -280.6948
  50   2.0000     -10.314558      -280.6734
  51   2.0000     -10.314261      -280.6653
  52   2.0000     -10.314055      -280.6597
  53   2.0000     -10.310761      -280.5701
  54   2.0000     -10.309726      -280.5419
  55   2.0000     -10.307568      -280.4832
  56   2.0000     -10.302335      -280.3408
  57   2.0000     -10.299972      -280.2765
  58   2.0000     -10.298634      -280.2401
  59   2.0000     -10.293299      -280.0949
  60   2.0000     -10.286154      -279.9005
  61   2.0000     -10.280891      -279.7573
  62   2.0000     -10.270176      -279.4657
  63   2.0000     -10.269477      -279.4467
  64   2.0000     -10.266737      -279.3721
  65   2.0000     -10.265807      -279.3468
  66   2.0000      -8.077081      -219.7886
  67   2.0000      -8.072136      -219.6540
  68   2.0000      -8.060546      -219.3386
  69   2.0000      -8.059091      -219.2990
  70   2.0000      -8.056346      -219.2243
  71   2.0000      -8.051522      -219.0930
  72   2.0000      -6.046016      -164.5205
  73   2.0000      -6.041985      -164.4108
  74   2.0000      -6.041134      -164.3876
  75   2.0000      -6.039748      -164.3499
  76   2.0000      -6.037021      -164.2757
  77   2.0000      -6.034721      -164.2131
  78   2.0000      -6.029397      -164.0682
  79   2.0000      -6.027930      -164.0283
  80   2.0000      -6.026139      -163.9796
  81   2.0000      -6.025191      -163.9538
  82   2.0000      -6.024664      -163.9394
  83   2.0000      -6.021928      -163.8650
  84   2.0000      -6.021604      -163.8562
  85   2.0000      -6.020333      -163.8216
  86   2.0000      -6.020177      -163.8173
  87   2.0000      -6.017411      -163.7421
  88   2.0000      -6.017080      -163.7331
  89   2.0000      -6.012637      -163.6122
  90   2.0000      -1.179864       -32.1057
  91   2.0000      -1.178143       -32.0589
  92   2.0000      -1.175655       -31.9912
  93   2.0000      -1.175321       -31.9821
  94   2.0000      -1.173930       -31.9442
  95   2.0000      -1.171303       -31.8728
  96   2.0000      -1.170341       -31.8466
  97   2.0000      -1.166249       -31.7352
  98   2.0000      -1.140290       -31.0289
  99   2.0000      -1.135862       -30.9084
 100   2.0000      -1.133599       -30.8468
 101   2.0000      -1.129946       -30.7474
 102   2.0000      -1.071311       -29.1519
 103   2.0000      -1.063017       -28.9262
 104   2.0000      -1.028699       -27.9923
 105   2.0000      -1.026540       -27.9336
 106   2.0000      -1.007994       -27.4289
 107   2.0000      -1.004733       -27.3402
 108   2.0000      -0.975632       -26.5483
 109   2.0000      -0.969807       -26.3898
 110   2.0000      -0.941330       -25.6149
 111   2.0000      -0.937655       -25.5149
 112   2.0000      -0.933655       -25.4061
 113   2.0000      -0.925093       -25.1731
 114   2.0000      -0.917913       -24.9777
 115   2.0000      -0.915222       -24.9045
 116   2.0000      -0.899094       -24.4656
 117   2.0000      -0.881945       -23.9989
 118   2.0000      -0.868307       -23.6278
 119   2.0000      -0.867295       -23.6003
 120   2.0000      -0.861132       -23.4326
 121   2.0000      -0.860444       -23.4139
 122   2.0000      -0.855081       -23.2679
 123   2.0000      -0.839228       -22.8365
 124   2.0000      -0.837767       -22.7968
 125   2.0000      -0.825615       -22.4661
 126   2.0000      -0.805781       -21.9264
 127   2.0000      -0.804700       -21.8970
 128   2.0000      -0.800174       -21.7738
 129   2.0000      -0.785518       -21.3750
 130   2.0000      -0.774887       -21.0857
 131   2.0000      -0.765985       -20.8435
 132   2.0000      -0.763616       -20.7790
 133   2.0000      -0.746393       -20.3104
 134   2.0000      -0.737131       -20.0583
 135   2.0000      -0.727296       -19.7907
 136   2.0000      -0.725156       -19.7325
 137   2.0000      -0.723844       -19.6968
 138   2.0000      -0.715132       -19.4597
 139   2.0000      -0.708466       -19.2783
 140   2.0000      -0.700167       -19.0525
 141   2.0000      -0.689194       -18.7539
 142   2.0000      -0.676759       -18.4156
 143   2.0000      -0.667970       -18.1764
 144   2.0000      -0.667025       -18.1507
 145   2.0000      -0.659735       -17.9523
 146   2.0000      -0.653043       -17.7702
 147   2.0000      -0.648072       -17.6349
 148   2.0000      -0.639609       -17.4047
 149   2.0000      -0.638403       -17.3718
 150   2.0000      -0.634612       -17.2687
 151   2.0000      -0.633247       -17.2315
 152   2.0000      -0.624012       -16.9802
 153   2.0000      -0.619045       -16.8451
 154   2.0000      -0.617830       -16.8120
 155   2.0000      -0.615409       -16.7461
 156   2.0000      -0.610562       -16.6142
 157   2.0000      -0.608554       -16.5596
 158   2.0000      -0.604076       -16.4378
 159   2.0000      -0.597718       -16.2647
 160   2.0000      -0.592308       -16.1175
 161   2.0000      -0.584711       -15.9108
 162   2.0000      -0.578602       -15.7446
 163   2.0000      -0.576300       -15.6819
 164   2.0000      -0.574251       -15.6262
 165   2.0000      -0.571588       -15.5537
 166   2.0000      -0.566004       -15.4017
 167   2.0000      -0.562331       -15.3018
 168   2.0000      -0.559926       -15.2364
 169   2.0000      -0.558126       -15.1874
 170   2.0000      -0.555183       -15.1073
 171   2.0000      -0.553992       -15.0749
 172   2.0000      -0.551870       -15.0171
 173   2.0000      -0.550985       -14.9931
 174   2.0000      -0.549199       -14.9445
 175   2.0000      -0.546984       -14.8842
 176   2.0000      -0.546731       -14.8773
 177   2.0000      -0.543400       -14.7867
 178   2.0000      -0.540947       -14.7199
 179   2.0000      -0.540329       -14.7031
 180   2.0000      -0.537464       -14.6251
 181   2.0000      -0.534934       -14.5563
 182   2.0000      -0.533504       -14.5174
 183   2.0000      -0.532225       -14.4826
 184   2.0000      -0.528866       -14.3912
 185   2.0000      -0.523878       -14.2554
 186   2.0000      -0.522390       -14.2150
 187   2.0000      -0.520726       -14.1697
 188   2.0000      -0.518480       -14.1085
 189   2.0000      -0.517954       -14.0942
 190   2.0000      -0.517496       -14.0818
 191   2.0000      -0.517214       -14.0741
 192   2.0000      -0.514634       -14.0039
 193   2.0000      -0.511928       -13.9303
 194   2.0000      -0.508838       -13.8462
 195   2.0000      -0.508430       -13.8351
 196   2.0000      -0.506303       -13.7772
 197   2.0000      -0.503652       -13.7051
 198   2.0000      -0.500357       -13.6154
 199   2.0000      -0.488790       -13.3006
 200   2.0000      -0.487132       -13.2555
 201   2.0000      -0.484087       -13.1727
 202   2.0000      -0.483357       -13.1528
 203   2.0000      -0.481492       -13.1021
 204   2.0000      -0.480578       -13.0772
 205   2.0000      -0.478727       -13.0268
 206   2.0000      -0.475627       -12.9425
 207   2.0000      -0.474574       -12.9138
 208   2.0000      -0.472118       -12.8470
 209   2.0000      -0.470940       -12.8149
 210   2.0000      -0.468215       -12.7408
 211   2.0000      -0.465833       -12.6760
 212   2.0000      -0.464055       -12.6276
 213   2.0000      -0.458563       -12.4781
 214   2.0000      -0.457417       -12.4469
 215   2.0000      -0.452317       -12.3082
 216   2.0000      -0.447479       -12.1765
 217   2.0000      -0.443786       -12.0760
 218   2.0000      -0.441608       -12.0168
 219   2.0000      -0.438573       -11.9342
 220   2.0000      -0.431999       -11.7553
 221   2.0000      -0.430350       -11.7104
 222   2.0000      -0.417452       -11.3595
 223   2.0000      -0.407343       -11.0844
 224   2.0000      -0.395800       -10.7703
 225   2.0000      -0.386581       -10.5194
 226   2.0000      -0.385897       -10.5008
 227   2.0000      -0.384495       -10.4626
 228   2.0000      -0.380557       -10.3555
 229   2.0000      -0.379223       -10.3192
 230   2.0000      -0.372520       -10.1368
 231   2.0000      -0.367513       -10.0005
 232   2.0000      -0.366607        -9.9759
 233   2.0000      -0.364789        -9.9264
 234   2.0000      -0.361936        -9.8488
 235   2.0000      -0.359424        -9.7804
 236   2.0000      -0.356644        -9.7048
 237   2.0000      -0.355879        -9.6840
 238   2.0000      -0.355133        -9.6637
 239   2.0000      -0.352624        -9.5954
 240   2.0000      -0.350873        -9.5478
 241   2.0000      -0.347810        -9.4644
 242   2.0000      -0.342726        -9.3261
 243   2.0000      -0.341353        -9.2887
 244   2.0000      -0.338892        -9.2217
 245   2.0000      -0.335952        -9.1417
 246   2.0000      -0.325324        -8.8525
 247   2.0000      -0.322514        -8.7761
 248   2.0000      -0.319617        -8.6972
 249   2.0000      -0.306222        -8.3327
 250   2.0000      -0.293004        -7.9730
 251   2.0000      -0.250750        -6.8232
 252   0.0000      -0.106394        -2.8951
 253   0.0000      -0.100022        -2.7217
 254   0.0000      -0.093798        -2.5524
 255   0.0000      -0.080864        -2.2004
 256   0.0000      -0.065937        -1.7942

MULLIKEN ATOMIC CHARGES
-----------------------
   0 C :   -0.056643
   1 C :    0.051555
   2 C :    0.052851
   3 O :   -0.110444
   4 S :    0.017093
   5 C :    0.038475
   6 O :   -0.127354
   7 C :    0.049410
   8 C :    0.042214
   9 C :    0.036908
  10 C :    0.046590
  11 C :    0.054377
  12 O :   -0.113765
  13 S :    0.017567
  14 C :    0.030179
  15 O :   -0.111180
  16 C :   -0.050123
  17 C :    0.133470
  18 C :   -0.111762
  19 S :    0.204279
  20 C :   -0.210032
  21 C :    0.147804
  22 O :   -0.186846
  23 C :    0.080200
  24 C :    0.017069
  25 C :    0.038598
  26 N :   -0.256403
  27 C :    0.095069
  28 C :   -0.001771
  29 C :    0.172749
  30 O :   -0.208520
  31 C :   -0.090012
  32 C :   -0.010905
  33 C :    0.136901
  34 O :   -0.187626
  35 N :   -0.268891
  36 C :    0.097462
  37 C :    0.000554
  38 C :    0.149725
  39 C :   -0.027080
  40 C :    0.087614
  41 C :   -0.089026
  42 S :    0.195897
  43 C :   -0.153233
  44 C :    0.196672
  45 O :   -0.212047
  46 C :    0.040146
  47 C :    0.038801
  48 C :   -0.013160
  49 C :    0.092575
  50 C :    0.040802
  51 O :   -0.126008
  52 S :    0.022671
  53 C :    0.027219
  54 O :   -0.105202
  55 C :    0.018916
  56 C :    0.001040
  57 C :    0.040438
  58 C :    0.048020
  59 C :    0.034670
  60 O :   -0.118759
  61 S :    0.016495
  62 C :    0.029547
  63 O :   -0.118634
  64 C :   -0.036621
  65 C :    0.032649
  66 H :    0.022824
  67 H :    0.040727
  68 H :   -0.006240
  69 H :    0.007361
  70 H :    0.008172
  71 H :    0.048423
  72 H :    0.027626
  73 H :    0.025825
  74 H :    0.026825
  75 H :    0.027245
  76 H :    0.046118
  77 H :    0.021690
  78 H :    0.028880
  79 H :    0.026095
  80 H :    0.021390
  81 H :   -0.025181
  82 H :    0.012457
  83 H :   -0.010603
  84 H :   -0.018414
  85 H :    0.034176
  86 H :    0.023352
  87 H :    0.038028
Sum of atomic charges:   -0.0000000

LOEWDIN ATOMIC CHARGES
----------------------
   0 C :    0.040849
   1 C :   -0.049594
   2 C :   -0.046571
   3 O :   -0.103690
   4 S :    0.305324
   5 C :   -0.041791
   6 O :   -0.108996
   7 C :   -0.057996
   8 C :    0.040228
   9 C :   -0.060083
  10 C :   -0.048042
  11 C :   -0.049714
  12 O :   -0.106340
  13 S :    0.306528
  14 C :   -0.043527
  15 O :   -0.101025
  16 C :   -0.022124
  17 C :    0.004949
  18 C :   -0.155753
  19 S :    0.504742
  20 C :   -0.230966
  21 C :    0.071679
  22 O :   -0.141674
  23 C :   -0.042474
  24 C :   -0.019696
  25 C :    0.065197
  26 N :   -0.000021
  27 C :    0.035658
  28 C :   -0.059797
  29 C :    0.080159
  30 O :   -0.198867
  31 C :   -0.129152
  32 C :   -0.113558
  33 C :    0.081257
  34 O :   -0.191380
  35 N :   -0.005676
  36 C :    0.035547
  37 C :   -0.061274
  38 C :    0.085392
  39 C :   -0.041392
  40 C :    0.017410
  41 C :   -0.154420
  42 S :    0.505602
  43 C :   -0.228639
  44 C :    0.095237
  45 O :   -0.154821
  46 C :   -0.019707
  47 C :   -0.021511
  48 C :    0.030567
  49 C :   -0.028288
  50 C :   -0.048737
  51 O :   -0.112295
  52 S :    0.313513
  53 C :   -0.040823
  54 O :   -0.098324
  55 C :   -0.052070
  56 C :    0.041518
  57 C :   -0.058620
  58 C :   -0.049492
  59 C :   -0.047000
  60 O :   -0.110180
  61 S :    0.302502
  62 C :   -0.041968
  63 O :   -0.103106
  64 C :   -0.032188
  65 C :    0.008093
  66 H :    0.052497
  67 H :    0.040208
  68 H :    0.029175
  69 H :    0.004684
  70 H :    0.040134
  71 H :    0.038438
  72 H :    0.024262
  73 H :    0.029858
  74 H :    0.032767
  75 H :    0.025703
  76 H :    0.038756
  77 H :    0.022012
  78 H :    0.032419
  79 H :    0.031645
  80 H :    0.023672
  81 H :    0.028952
  82 H :    0.038243
  83 H :    0.001345
  84 H :    0.030215
  85 H :    0.039881
  86 H :    0.023250
  87 H :    0.033299

  Mayer bond orders larger than 0.100000
B(  0-C ,  1-C ) :   1.3334 B(  0-C , 10-C ) :   1.3432 B(  0-C , 66-H ) :   1.0267
B(  1-C ,  2-C ) :   0.8378 B(  1-C ,  7-C ) :   1.3423 B(  2-C ,  3-O ) :   2.2319
B(  2-C ,  4-S ) :   1.0245 B(  3-O ,  4-S ) :   0.1095 B(  4-S ,  5-C ) :   1.0304
B(  4-S ,  6-O ) :   0.1058 B(  5-C ,  6-O ) :   2.1647 B(  5-C ,  7-C ) :   0.8564
B(  7-C ,  8-C ) :   1.3705 B(  8-C ,  9-C ) :   1.3603 B(  8-C , 16-C ) :   1.0868
B(  9-C , 10-C ) :   1.3421 B(  9-C , 14-C ) :   0.8449 B( 10-C , 11-C ) :   0.8384
B( 11-C , 12-O ) :   2.2254 B( 11-C , 13-S ) :   1.0287 B( 12-O , 13-S ) :   0.1101
B( 13-S , 14-C ) :   1.0216 B( 13-S , 15-O ) :   0.1065 B( 14-C , 15-O ) :   2.1976
B( 16-C , 17-C ) :   1.7661 B( 16-C , 67-H ) :   0.9337 B( 17-C , 18-C ) :   1.1160
B( 17-C , 68-H ) :   0.9511 B( 18-C , 19-S ) :   1.1567 B( 18-C , 24-C ) :   1.4691
B( 19-S , 20-C ) :   1.1248 B( 20-C , 21-C ) :   1.0174 B( 20-C , 23-C ) :   1.4075
B( 21-C , 22-O ) :   2.1704 B( 21-C , 69-H ) :   0.9517 B( 23-C , 24-C ) :   1.3077
B( 23-C , 25-C ) :   0.9956 B( 24-C , 70-H ) :   0.9969 B( 25-C , 26-N ) :   1.1991
B( 25-C , 32-C ) :   1.4619 B( 26-N , 27-C ) :   0.9427 B( 26-N , 29-C ) :   1.0389
B( 27-C , 28-C ) :   1.1172 B( 27-C , 71-H ) :   0.9269 B( 27-C , 72-H ) :   0.9456
B( 28-C , 73-H ) :   0.9651 B( 28-C , 74-H ) :   0.9670 B( 28-C , 75-H ) :   0.9680
B( 29-C , 30-O ) :   2.0230 B( 29-C , 31-C ) :   1.0025 B( 30-O , 82-H ) :   0.1141
B( 31-C , 32-C ) :   1.2020 B( 31-C , 38-C ) :   1.3592 B( 32-C , 33-C ) :   0.9517
B( 33-C , 34-O ) :   2.1533 B( 33-C , 35-N ) :   1.0344 B( 35-N , 36-C ) :   0.9451
B( 35-N , 38-C ) :   1.1571 B( 36-C , 37-C ) :   1.1205 B( 36-C , 76-H ) :   0.9273
B( 36-C , 77-H ) :   0.9498 B( 37-C , 78-H ) :   0.9632 B( 37-C , 79-H ) :   0.9677
B( 37-C , 80-H ) :   0.9685 B( 38-C , 39-C ) :   1.1551 B( 39-C , 40-C ) :   1.6351
B( 39-C , 81-H ) :   0.9630 B( 40-C , 41-C ) :   1.1124 B( 40-C , 82-H ) :   0.9367
B( 41-C , 42-S ) :   1.1778 B( 41-C , 47-C ) :   1.4302 B( 42-S , 43-C ) :   1.1146
B( 43-C , 44-C ) :   1.0335 B( 43-C , 46-C ) :   1.4677 B( 44-C , 45-O ) :   2.0762
B( 44-C , 83-H ) :   0.9561 B( 46-C , 47-C ) :   1.3467 B( 46-C , 48-C ) :   0.9580
B( 47-C , 84-H ) :   0.9940 B( 48-C , 49-C ) :   1.4076 B( 48-C , 58-C ) :   1.4545
B( 49-C , 50-C ) :   0.8278 B( 49-C , 55-C ) :   1.3366 B( 50-C , 51-O ) :   2.1814
B( 50-C , 52-S ) :   1.0368 B( 51-O , 52-S ) :   0.1103 B( 52-S , 53-C ) :   1.0199
B( 52-S , 54-O ) :   0.1066 B( 53-C , 54-O ) :   2.2114 B( 53-C , 55-C ) :   0.8345
B( 55-C , 56-C ) :   1.3553 B( 56-C , 57-C ) :   1.3982 B( 56-C , 64-C ) :   1.0638
B( 57-C , 58-C ) :   1.2832 B( 57-C , 62-C ) :   0.8459 B( 58-C , 59-C ) :   0.8350
B( 59-C , 60-O ) :   2.1852 B( 59-C , 61-S ) :   1.0327 B( 60-O , 61-S ) :   0.1098
B( 61-S , 62-C ) :   1.0223 B( 61-S , 63-O ) :   0.1056 B( 62-C , 63-O ) :   2.1805
B( 64-C , 65-C ) :   1.9758 B( 64-C , 85-H ) :   0.9359 B( 65-C , 86-H ) :   0.9646
B( 65-C , 87-H ) :   0.9520

-----------------------------------------------------------------------------
         ABSORPTION SPECTRUM VIA TRANSITION ELECTRIC DIPOLE MOMENTS
-----------------------------------------------------------------------------
State   Energy  Wavelength   fosc         T2         TX        TY        TZ
        (cm-1)    (nm)                  (au**2)     (au)      (au)      (au)
-----------------------------------------------------------------------------
   0   17971.2    556.4   0.666636438  12.21201   1.67056  -3.05380   0.30913
   1   19755.1    506.2   0.002157059   0.03595   0.05538  -0.18016   0.02052
   2   20087.7    497.8   0.005541953   0.09083  -0.28947   0.05761  -0.06093
   3   21761.7    459.5   0.022594364   0.34181  -0.56413   0.11467  -0.10204
   4   22227.1    449.9   0.049898242   0.73906   0.16393  -0.55198   0.63836
   5   24037.9    416.0   0.003258369   0.04463   0.05216   0.00491  -0.20465
   6   25865.4    386.6   0.054893050   0.69867   0.33225   0.62744  -0.44113
   7   26264.3    380.7   0.050335398   0.63093  -0.37611   0.69920   0.02422
   8   27183.2    367.9   0.578122348   7.00156   0.11721   0.57187  -2.58085
   9   27798.4    359.7   0.042029757   0.49775  -0.45490   0.21445   0.49480
  10   28358.7    352.6   0.012677160   0.14717   0.26532  -0.13898   0.23971
  11   28540.1    350.4   0.013432033   0.15494  -0.37981  -0.00519   0.10323
  12   28826.9    346.9   0.040714853   0.46498  -0.52182   0.26243  -0.35186
  13   28898.7    346.0   0.003054492   0.03480   0.10403  -0.11461  -0.10411
  14   29182.4    342.7   0.084887690   0.95763   0.48624  -0.68914   0.49627
  15   29510.5    338.9   0.052135089   0.58161   0.44874  -0.27776  -0.55054
  16   29641.0    337.4   0.006481406   0.07199   0.08368  -0.16024   0.19826
  17   30086.0    332.4   0.137686647   1.50662  -0.74019   0.66641  -0.71738
  18   30193.0    331.2   0.203356629   2.21731   0.75284  -0.80784   0.99897
  19   30275.1    330.3   0.248158585   2.69848  -0.70213   0.74592  -1.28417
  20   30971.6    322.9   0.036378588   0.38669  -0.07979  -0.38641  -0.48063
  21   31718.2    315.3   0.067419514   0.69977   0.57618  -0.58820   0.14767
  22   31848.2    314.0   0.015893514   0.16429  -0.02308  -0.17798   0.36343
  23   32306.9    309.5   0.017883059   0.18223  -0.19298   0.24467   0.29176
  24   32339.2    309.2   0.007238099   0.07368  -0.16621   0.04868  -0.20902
  25   33338.6    300.0   0.164210415   1.62155   0.54572  -0.99050   0.58536
  26   33565.2    297.9   0.051118799   0.50138   0.41040   0.06971   0.57279
  27   33591.1    297.7   0.090721362   0.88912  -0.65269  -0.37718  -0.56644
  28   33877.6    295.2   0.038582092   0.37493   0.04864   0.17673  -0.58423
  29   34007.7    294.1   0.011860834   0.11482  -0.01689  -0.17616  -0.28896
  30   34537.0    289.5   0.001848431   0.01762   0.05676   0.09941  -0.06720
  31   34660.0    288.5   0.111374316   1.05787   0.22045  -1.00393  -0.03733
  32   34733.3    287.9   0.029951988   0.28389  -0.22790   0.46793   0.11400
  33   34895.9    286.6   0.000700824   0.00661   0.05428  -0.04845  -0.03629
  34   35031.1    285.5   0.000000138   0.00000  -0.00099   0.00023  -0.00052
  35   35424.5    282.3   0.035884650   0.33349  -0.42153  -0.07716  -0.38710
  36   35501.8    281.7   0.036310188   0.33671   0.20142   0.45463   0.29908
  37   35798.4    279.3   0.022495188   0.20687  -0.39597  -0.09126  -0.20434
  38   35972.3    278.0   0.010291675   0.09419   0.12177   0.13472   0.24741
  39   36055.7    277.3   0.008433929   0.07701   0.25335  -0.07873  -0.08139
  40   36590.9    273.3   0.002971463   0.02673  -0.01408   0.00046  -0.16290
  41   36763.8    272.0   0.017994696   0.16114   0.14336   0.37480  -0.01067
  42   36866.9    271.2   0.034230447   0.30567   0.55183  -0.00753   0.03310
  43   36919.4    270.9   0.008747306   0.07800  -0.20939   0.09765  -0.15691
  44   37458.6    267.0   0.108512171   0.95368  -0.45085   0.51225  -0.69858
  45   37552.2    266.3   0.123429218   1.08208   0.47657  -0.63829   0.66899
  46   37869.0    264.1   0.059760985   0.51953  -0.34766   0.19478   0.60060
  47   37924.4    263.7   0.000811301   0.00704   0.06854  -0.02691   0.04025
  48   38326.6    260.9   0.042246882   0.36289  -0.45569   0.20436   0.33685
  49   38551.6    259.4   0.011989964   0.10239   0.04652   0.01457   0.31625
  50   38579.9    259.2   0.001549690   0.01322  -0.09168   0.00787   0.06897
  51   38989.7    256.5   0.028909794   0.24410  -0.01224   0.18859  -0.45649
  52   39059.1    256.0   0.009978554   0.08410  -0.26354   0.10020  -0.06789
  53   39153.0    255.4   0.000379746   0.00319  -0.02783   0.02796   0.04046
  54   39389.0    253.9   0.070326540   0.58779   0.23793  -0.07659  -0.72478
  55   39523.0    253.0   0.007839706   0.06530  -0.10998   0.20508   0.10558
  56   39622.0    252.4   0.009117050   0.07575  -0.09777  -0.03972  -0.25419
  57   39716.8    251.8   0.020289293   0.16818   0.40861   0.01807   0.02977
  58   40061.5    249.6   0.010121508   0.08318   0.16250  -0.01770  -0.23760
  59   40073.5    249.5   0.066704793   0.54799  -0.00673   0.25147  -0.69621

FINAL SINGLE POINT ENERGY     -5163.422969615418

DIPOLE MOMENT
-------------
                                X             Y             Z
Electronic contribution:     -3.07840       4.04993     -11.58546
Nuclear contribution   :      3.48531      -4.29197      10.70167
                        -----------------------------------------
Total Dipole Moment    :      0.40690      -0.24204      -0.88378
                        -----------------------------------------
Magnitude (a.u.)       :      1.00261
Magnitude (Debye)      :      2.54843

Rotational constants in cm-1:     0.001919     0.000295     0.000274
Rotational constants in MHz :    57.543643     8.839354     8.203300

                             ****ORCA TERMINATED NORMALLY****
TOTAL RUN TIME: 0 days 0 hours 8 minutes 45 seconds 198 msec
