                         Program Version 4.2.0 -  RELEASE  -
|  1> # ORCA input file
|  2> # SCF done       -178.840834991081          0.000789487903
|  3> ! CAM-B3LYP def2-SVP def2/J RIJCOSX Grid4 TightSCF
|  4> %maxcore 5000
|  5> %tddft
|  6>     Mode sTDDFT
|  7>     Ethresh 5.0
|  8>     maxcore 5000
|  9> end
| 10>
| 11> %pal
| 12>   nprocs 6
| 13>   end
| 14> * xyz 0 1
| 15>    C        4.75448        -3.88414       -11.82622
| 16>    S        4.94646        -5.23253       -10.80088
| 17>    C        4.20721        -4.41536        -9.45208
| 18>    C        3.82909        -3.11571        -9.82596
| 19>    C        4.14749        -2.81959       -11.19029
| 20>    C        3.83531        -1.55061       -11.72997
| 21>    C        3.22997        -0.60776       -10.94888
| 22>    C        2.88180         0.74863       -11.47885
| 23>    C        2.91857        -0.91132        -9.59920
| 24>    C        3.20520        -2.12471        -9.04483
| 25>    C        4.05124        -5.02879        -8.19657
| 26>    C        4.45647        -6.29733        -7.89877
| 27>    C        4.32615        -6.92200        -6.64911
| 28>    S        4.90322        -8.56629        -6.46885
| 29>    C        4.45449        -8.67832        -4.77876
| 30>    C        3.89442        -7.46280        -4.39921
| 31>    C        3.81499        -6.47869        -5.42448
| 32>    C        3.27402        -5.31240        -4.81916
| 33>    C        3.07281        -5.60985        -3.50332
| 34>    N        3.43839        -6.90335        -3.24265
| 35>    C        4.73791        -9.84173        -4.03328
| 36>    C        4.11650       -10.34022        -2.87526
| 37>    C        2.91714        -9.92211        -2.27763
| 38>    C        2.44579       -10.58772        -1.17303
| 39>    C        3.14075       -11.66699        -0.61614
| 40>    C        4.30863       -12.14785        -1.17668
| 41>    C        4.78602       -11.50307        -2.36251
| 42>    C        5.82896       -11.90779        -3.16433
| 43>    S        6.04775       -10.88248        -4.50877
| 44>    C        5.07262       -13.24008        -0.63708
| 45>    C        4.58694       -14.22374         0.14745
| 46>    C        5.30876       -15.37504         0.59362
| 47>    C        6.15740       -16.20431        -0.14046
| 48>    N        6.58897       -16.11784        -1.46689
| 49>    O        6.55407       -15.04580        -2.06268
| 50>    O        7.00345       -17.14711        -1.98411
| 51>    C        6.42841       -17.39621         0.62544
| 52>    C        5.84547       -17.27650         1.83771
| 53>    C        5.17056       -16.00427         1.91287
| 54>    C        4.61946       -15.44078         3.05212
| 55>    C        3.70702       -14.33808         3.13005
| 56>    C        3.11199       -14.33610         4.35174
| 57>    C        3.67845       -15.38504         5.14637
| 58>    N        3.30981       -15.59826         6.47427
| 59>    O        2.44503       -14.86970         6.94386
| 60>    O        3.84430       -16.50130         7.10935
| 61>    C        4.67987       -16.02167         4.40862
| 62>    C        5.64240       -16.91077         4.94144
| 63>    C        6.92741       -17.00383         4.50348
| 64>    C        7.93114       -17.88765         5.00907
| 65>    C        9.22943       -17.81899         4.47402
| 66>    C       10.21945       -18.67821         4.87729
| 67>    C        9.96132       -19.65498         5.84977
| 68>    C        8.67435       -19.71971         6.40438
| 69>    C        7.68657       -18.86117         5.99285
| 70>    N       10.95080       -20.53489         6.24664
| 71>    C       11.96635       -20.91924         5.35516
| 72>    C       13.27833       -21.05323         5.80540
| 73>    C       14.27424       -21.44445         4.93120
| 74>    C       13.97899       -21.70152         3.60233
| 75>    C       12.67533       -21.57124         3.15175
| 76>    C       11.67116       -21.18735         4.01941
| 77>    C       10.96170       -21.06869         7.54583
| 78>    C       11.30264       -22.40457         7.74938
| 79>    C       11.32905       -22.92549         9.02870
| 80>    C       11.01320       -22.12785        10.11649
| 81>    C       10.67408       -20.79936         9.91760
| 82>    C       10.65099       -20.26707         8.64291
| 83>    H        5.09493        -3.93532       -12.84109
| 84>    H        4.08339        -1.34600       -12.76099
| 85>    H        3.17542         0.84851       -12.52046
| 86>    H        3.38473         1.52145       -10.89839
| 87>    H        1.80877         0.92056       -11.40025
| 88>    H        2.43946        -0.14848        -9.00249
| 89>    H        2.95635        -2.32795        -8.01434
| 90>    H        3.57981        -4.43323        -7.43040
| 91>    H        4.92449        -6.88624        -8.67775
| 92>    H        3.06598        -4.37079        -5.28367
| 93>    H        2.68506        -4.98648        -2.72074
| 94>    H        3.45176        -7.33435        -2.33415
| 95>    H        2.34439        -9.11973        -2.71570
| 96>    H        1.51990       -10.27186        -0.71529
| 97>    H        2.75209       -12.11763         0.28422
| 98>    H        6.44549       -12.77808        -3.05583
| 99>    H        6.11535       -13.25597        -0.90781
|100>    H        3.54313       -14.20517         0.43303
|101>    H        6.99600       -18.22275         0.24356
|102>    H        5.84269       -18.01658         2.61224
|103>    H        3.49303       -13.64814         2.34140
|104>    H        2.35067       -13.66843         4.70869
|105>    H        5.33796       -17.44205         5.83229
|106>    H        7.25051       -16.34318         3.70834
|107>    H        9.44866       -17.06946         3.72738
|108>    H       11.21028       -18.59960         4.45522
|109>    H        8.45766       -20.47248         7.14764
|110>    H        6.70342       -18.94944         6.42718
|111>    H       13.50916       -20.84512         6.83985
|112>    H       15.28831       -21.54180         5.28904
|113>    H       14.76015       -22.00355         2.92176
|114>    H       12.43601       -21.77779         2.11941
|115>    H       10.65249       -21.09945         3.67128
|116>    H       11.54105       -23.02777         6.89999
|117>    H       11.59104       -23.96259         9.17571
|118>    H       11.03243       -22.53899        11.11406
|119>    H       10.43373       -20.16979        10.76109
|120>    H       10.39982       -19.22793         8.48895
|121> *
|122>
|123>                          ****END OF INPUT****

CARTESIAN COORDINATES (ANGSTROEM)
---------------------------------
  C      4.754480   -3.884140  -11.826220
  S      4.946460   -5.232530  -10.800880
  C      4.207210   -4.415360   -9.452080
  C      3.829090   -3.115710   -9.825960
  C      4.147490   -2.819590  -11.190290
  C      3.835310   -1.550610  -11.729970
  C      3.229970   -0.607760  -10.948880
  C      2.881800    0.748630  -11.478850
  C      2.918570   -0.911320   -9.599200
  C      3.205200   -2.124710   -9.044830
  C      4.051240   -5.028790   -8.196570
  C      4.456470   -6.297330   -7.898770
  C      4.326150   -6.922000   -6.649110
  S      4.903220   -8.566290   -6.468850
  C      4.454490   -8.678320   -4.778760
  C      3.894420   -7.462800   -4.399210
  C      3.814990   -6.478690   -5.424480
  C      3.274020   -5.312400   -4.819160
  C      3.072810   -5.609850   -3.503320
  N      3.438390   -6.903350   -3.242650
  C      4.737910   -9.841730   -4.033280
  C      4.116500  -10.340220   -2.875260
  C      2.917140   -9.922110   -2.277630
  C      2.445790  -10.587720   -1.173030
  C      3.140750  -11.666990   -0.616140
  C      4.308630  -12.147850   -1.176680
  C      4.786020  -11.503070   -2.362510
  C      5.828960  -11.907790   -3.164330
  S      6.047750  -10.882480   -4.508770
  C      5.072620  -13.240080   -0.637080
  C      4.586940  -14.223740    0.147450
  C      5.308760  -15.375040    0.593620
  C      6.157400  -16.204310   -0.140460
  N      6.588970  -16.117840   -1.466890
  O      6.554070  -15.045800   -2.062680
  O      7.003450  -17.147110   -1.984110
  C      6.428410  -17.396210    0.625440
  C      5.845470  -17.276500    1.837710
  C      5.170560  -16.004270    1.912870
  C      4.619460  -15.440780    3.052120
  C      3.707020  -14.338080    3.130050
  C      3.111990  -14.336100    4.351740
  C      3.678450  -15.385040    5.146370
  N      3.309810  -15.598260    6.474270
  O      2.445030  -14.869700    6.943860
  O      3.844300  -16.501300    7.109350
  C      4.679870  -16.021670    4.408620
  C      5.642400  -16.910770    4.941440
  C      6.927410  -17.003830    4.503480
  C      7.931140  -17.887650    5.009070
  C      9.229430  -17.818990    4.474020
  C     10.219450  -18.678210    4.877290
  C      9.961320  -19.654980    5.849770
  C      8.674350  -19.719710    6.404380
  C      7.686570  -18.861170    5.992850
  N     10.950800  -20.534890    6.246640
  C     11.966350  -20.919240    5.355160
  C     13.278330  -21.053230    5.805400
  C     14.274240  -21.444450    4.931200
  C     13.978990  -21.701520    3.602330
  C     12.675330  -21.571240    3.151750
  C     11.671160  -21.187350    4.019410
  C     10.961700  -21.068690    7.545830
  C     11.302640  -22.404570    7.749380
  C     11.329050  -22.925490    9.028700
  C     11.013200  -22.127850   10.116490
  C     10.674080  -20.799360    9.917600
  C     10.650990  -20.267070    8.642910
  H      5.094930   -3.935320  -12.841090
  H      4.083390   -1.346000  -12.760990
  H      3.175420    0.848510  -12.520460
  H      3.384730    1.521450  -10.898390
  H      1.808770    0.920560  -11.400250
  H      2.439460   -0.148480   -9.002490
  H      2.956350   -2.327950   -8.014340
  H      3.579810   -4.433230   -7.430400
  H      4.924490   -6.886240   -8.677750
  H      3.065980   -4.370790   -5.283670
  H      2.685060   -4.986480   -2.720740
  H      3.451760   -7.334350   -2.334150
  H      2.344390   -9.119730   -2.715700
  H      1.519900  -10.271860   -0.715290
  H      2.752090  -12.117630    0.284220
  H      6.445490  -12.778080   -3.055830
  H      6.115350  -13.255970   -0.907810
  H      3.543130  -14.205170    0.433030
  H      6.996000  -18.222750    0.243560
  H      5.842690  -18.016580    2.612240
  H      3.493030  -13.648140    2.341400
  H      2.350670  -13.668430    4.708690
  H      5.337960  -17.442050    5.832290
  H      7.250510  -16.343180    3.708340
  H      9.448660  -17.069460    3.727380
  H     11.210280  -18.599600    4.455220
  H      8.457660  -20.472480    7.147640
  H      6.703420  -18.949440    6.427180
  H     13.509160  -20.845120    6.839850
  H     15.288310  -21.541800    5.289040
  H     14.760150  -22.003550    2.921760
  H     12.436010  -21.777790    2.119410
  H     10.652490  -21.099450    3.671280
  H     11.541050  -23.027770    6.899990
  H     11.591040  -23.962590    9.175710
  H     11.032430  -22.538990   11.114060
  H     10.433730  -20.169790   10.761090
  H     10.399820  -19.227930    8.488950

 Total Charge           Charge          ....    0
 Multiplicity           Mult            ....    1
 Number of Electrons    NEL             ....  488
 Basis Dimension        Dim             .... 1154

ORBITAL ENERGIES
----------------

  NO   OCC          E(Eh)            E(eV)
   0   2.0000     -88.957772     -2420.6640
   1   2.0000     -88.951367     -2420.4898
   2   2.0000     -88.945952     -2420.3424
   3   2.0000     -19.228984      -523.2472
   4   2.0000     -19.227007      -523.1935
   5   2.0000     -19.220729      -523.0226
   6   2.0000     -19.220537      -523.0174
   7   2.0000     -14.636674      -398.2842
   8   2.0000     -14.630423      -398.1141
   9   2.0000     -14.454539      -393.3280
  10   2.0000     -14.451366      -393.2417
  11   2.0000     -10.328310      -281.0476
  12   2.0000     -10.321093      -280.8512
  13   2.0000     -10.319815      -280.8164
  14   2.0000     -10.317400      -280.7507
  15   2.0000     -10.315926      -280.7106
  16   2.0000     -10.315627      -280.7025
  17   2.0000     -10.315243      -280.6920
  18   2.0000     -10.313571      -280.6465
  19   2.0000     -10.310913      -280.5742
  20   2.0000     -10.304109      -280.3891
  21   2.0000     -10.303103      -280.3617
  22   2.0000     -10.303025      -280.3596
  23   2.0000     -10.297631      -280.2128
  24   2.0000     -10.296749      -280.1888
  25   2.0000     -10.293086      -280.0891
  26   2.0000     -10.291570      -280.0479
  27   2.0000     -10.288391      -279.9614
  28   2.0000     -10.284683      -279.8605
  29   2.0000     -10.283913      -279.8395
  30   2.0000     -10.282562      -279.8027
  31   2.0000     -10.282552      -279.8025
  32   2.0000     -10.281657      -279.7781
  33   2.0000     -10.281250      -279.7670
  34   2.0000     -10.281184      -279.7652
  35   2.0000     -10.280863      -279.7565
  36   2.0000     -10.280332      -279.7421
  37   2.0000     -10.280326      -279.7419
  38   2.0000     -10.276979      -279.6508
  39   2.0000     -10.276914      -279.6490
  40   2.0000     -10.275940      -279.6225
  41   2.0000     -10.275639      -279.6144
  42   2.0000     -10.275113      -279.6000
  43   2.0000     -10.274874      -279.5935
  44   2.0000     -10.274648      -279.5874
  45   2.0000     -10.274396      -279.5805
  46   2.0000     -10.274333      -279.5788
  47   2.0000     -10.274295      -279.5778
  48   2.0000     -10.273528      -279.5569
  49   2.0000     -10.273472      -279.5554
  50   2.0000     -10.273174      -279.5473
  51   2.0000     -10.272864      -279.5388
  52   2.0000     -10.272570      -279.5308
  53   2.0000     -10.272446      -279.5275
  54   2.0000     -10.271571      -279.5036
  55   2.0000     -10.271238      -279.4946
  56   2.0000     -10.270669      -279.4791
  57   2.0000     -10.269956      -279.4597
  58   2.0000     -10.269633      -279.4509
  59   2.0000     -10.265498      -279.3384
  60   2.0000     -10.265426      -279.3364
  61   2.0000     -10.265041      -279.3260
  62   2.0000     -10.264918      -279.3226
  63   2.0000     -10.264596      -279.3139
  64   2.0000     -10.258974      -279.1609
  65   2.0000     -10.257132      -279.1108
  66   2.0000     -10.257097      -279.1098
  67   2.0000     -10.255758      -279.0734
  68   2.0000      -8.053124      -219.1366
  69   2.0000      -8.046590      -218.9588
  70   2.0000      -8.041013      -218.8071
  71   2.0000      -6.022161      -163.8713
  72   2.0000      -6.017734      -163.7509
  73   2.0000      -6.016129      -163.7072
  74   2.0000      -6.015532      -163.6909
  75   2.0000      -6.011332      -163.5767
  76   2.0000      -6.010504      -163.5541
  77   2.0000      -6.009632      -163.5304
  78   2.0000      -6.006316      -163.4402
  79   2.0000      -6.002891      -163.3470
  80   2.0000      -1.304269       -35.4910
  81   2.0000      -1.297377       -35.3034
  82   2.0000      -1.119510       -30.4634
  83   2.0000      -1.113478       -30.2993
  84   2.0000      -1.077056       -29.3082
  85   2.0000      -1.075242       -29.2588
  86   2.0000      -1.007077       -27.4040
  87   2.0000      -0.990302       -26.9475
  88   2.0000      -0.986649       -26.8481
  89   2.0000      -0.979389       -26.6505
  90   2.0000      -0.964032       -26.2326
  91   2.0000      -0.960412       -26.1341
  92   2.0000      -0.954461       -25.9722
  93   2.0000      -0.939075       -25.5535
  94   2.0000      -0.931391       -25.3444
  95   2.0000      -0.921020       -25.0622
  96   2.0000      -0.904733       -24.6190
  97   2.0000      -0.900096       -24.4929
  98   2.0000      -0.896200       -24.3868
  99   2.0000      -0.889138       -24.1947
 100   2.0000      -0.872925       -23.7535
 101   2.0000      -0.870491       -23.6873
 102   2.0000      -0.858561       -23.3626
 103   2.0000      -0.856474       -23.3058
 104   2.0000      -0.852889       -23.2083
 105   2.0000      -0.850094       -23.1322
 106   2.0000      -0.840571       -22.8731
 107   2.0000      -0.838165       -22.8076
 108   2.0000      -0.835361       -22.7313
 109   2.0000      -0.833490       -22.6804
 110   2.0000      -0.825733       -22.4693
 111   2.0000      -0.820505       -22.3271
 112   2.0000      -0.815276       -22.1848
 113   2.0000      -0.808636       -22.0041
 114   2.0000      -0.803217       -21.8567
 115   2.0000      -0.790202       -21.5025
 116   2.0000      -0.779429       -21.2093
 117   2.0000      -0.770597       -20.9690
 118   2.0000      -0.760953       -20.7066
 119   2.0000      -0.739781       -20.1305
 120   2.0000      -0.731689       -19.9103
 121   2.0000      -0.723909       -19.6986
 122   2.0000      -0.722219       -19.6526
 123   2.0000      -0.716752       -19.5038
 124   2.0000      -0.705706       -19.2032
 125   2.0000      -0.700125       -19.0514
 126   2.0000      -0.693985       -18.8843
 127   2.0000      -0.693913       -18.8823
 128   2.0000      -0.690114       -18.7790
 129   2.0000      -0.685989       -18.6667
 130   2.0000      -0.678987       -18.4762
 131   2.0000      -0.676102       -18.3977
 132   2.0000      -0.674829       -18.3630
 133   2.0000      -0.667632       -18.1672
 134   2.0000      -0.660733       -17.9795
 135   2.0000      -0.658261       -17.9122
 136   2.0000      -0.644972       -17.5506
 137   2.0000      -0.640854       -17.4385
 138   2.0000      -0.637488       -17.3469
 139   2.0000      -0.630729       -17.1630
 140   2.0000      -0.630385       -17.1536
 141   2.0000      -0.628986       -17.1156
 142   2.0000      -0.624698       -16.9989
 143   2.0000      -0.618041       -16.8177
 144   2.0000      -0.611481       -16.6392
 145   2.0000      -0.609191       -16.5769
 146   2.0000      -0.605983       -16.4896
 147   2.0000      -0.605106       -16.4658
 148   2.0000      -0.598547       -16.2873
 149   2.0000      -0.593035       -16.1373
 150   2.0000      -0.588814       -16.0224
 151   2.0000      -0.583770       -15.8852
 152   2.0000      -0.575973       -15.6730
 153   2.0000      -0.571311       -15.5462
 154   2.0000      -0.566753       -15.4221
 155   2.0000      -0.564154       -15.3514
 156   2.0000      -0.559332       -15.2202
 157   2.0000      -0.556159       -15.1339
 158   2.0000      -0.551917       -15.0184
 159   2.0000      -0.550729       -14.9861
 160   2.0000      -0.541317       -14.7300
 161   2.0000      -0.538639       -14.6571
 162   2.0000      -0.537810       -14.6345
 163   2.0000      -0.536464       -14.5979
 164   2.0000      -0.533338       -14.5129
 165   2.0000      -0.531105       -14.4521
 166   2.0000      -0.526277       -14.3207
 167   2.0000      -0.525343       -14.2953
 168   2.0000      -0.524055       -14.2603
 169   2.0000      -0.519746       -14.1430
 170   2.0000      -0.517363       -14.0782
 171   2.0000      -0.515090       -14.0163
 172   2.0000      -0.513362       -13.9693
 173   2.0000      -0.512001       -13.9322
 174   2.0000      -0.508799       -13.8451
 175   2.0000      -0.505818       -13.7640
 176   2.0000      -0.505766       -13.7626
 177   2.0000      -0.504247       -13.7213
 178   2.0000      -0.499338       -13.5877
 179   2.0000      -0.496840       -13.5197
 180   2.0000      -0.496371       -13.5069
 181   2.0000      -0.494343       -13.4518
 182   2.0000      -0.491456       -13.3732
 183   2.0000      -0.489718       -13.3259
 184   2.0000      -0.487436       -13.2638
 185   2.0000      -0.484683       -13.1889
 186   2.0000      -0.480103       -13.0643
 187   2.0000      -0.475824       -12.9478
 188   2.0000      -0.474369       -12.9082
 189   2.0000      -0.474030       -12.8990
 190   2.0000      -0.467770       -12.7287
 191   2.0000      -0.465140       -12.6571
 192   2.0000      -0.462801       -12.5935
 193   2.0000      -0.460124       -12.5206
 194   2.0000      -0.460025       -12.5179
 195   2.0000      -0.458746       -12.4831
 196   2.0000      -0.455096       -12.3838
 197   2.0000      -0.453960       -12.3529
 198   2.0000      -0.450079       -12.2473
 199   2.0000      -0.441972       -12.0267
 200   2.0000      -0.441200       -12.0057
 201   2.0000      -0.439233       -11.9521
 202   2.0000      -0.437358       -11.9011
 203   2.0000      -0.435643       -11.8545
 204   2.0000      -0.430285       -11.7086
 205   2.0000      -0.426879       -11.6160
 206   2.0000      -0.425566       -11.5802
 207   2.0000      -0.422445       -11.4953
 208   2.0000      -0.420017       -11.4292
 209   2.0000      -0.418693       -11.3932
 210   2.0000      -0.418302       -11.3826
 211   2.0000      -0.413911       -11.2631
 212   2.0000      -0.410707       -11.1759
 213   2.0000      -0.406479       -11.0608
 214   2.0000      -0.398857       -10.8535
 215   2.0000      -0.397514       -10.8169
 216   2.0000      -0.396174       -10.7805
 217   2.0000      -0.390456       -10.6249
 218   2.0000      -0.382317       -10.4034
 219   2.0000      -0.378419       -10.2973
 220   2.0000      -0.375655       -10.2221
 221   2.0000      -0.369064       -10.0427
 222   2.0000      -0.367476        -9.9995
 223   2.0000      -0.361083        -9.8256
 224   2.0000      -0.358441        -9.7537
 225   2.0000      -0.351019        -9.5517
 226   2.0000      -0.347358        -9.4521
 227   2.0000      -0.339665        -9.2428
 228   2.0000      -0.336620        -9.1599
 229   2.0000      -0.335168        -9.1204
 230   2.0000      -0.333828        -9.0839
 231   2.0000      -0.328016        -8.9258
 232   2.0000      -0.326045        -8.8721
 233   2.0000      -0.321818        -8.7571
 234   2.0000      -0.321330        -8.7438
 235   2.0000      -0.311029        -8.4635
 236   2.0000      -0.299136        -8.1399
 237   2.0000      -0.295928        -8.0526
 238   2.0000      -0.288668        -7.8551
 239   2.0000      -0.280925        -7.6444
 240   2.0000      -0.270194        -7.3524
 241   2.0000      -0.247251        -6.7280
 242   2.0000      -0.241717        -6.5775
 243   2.0000      -0.199722        -5.4347
 244   0.0000      -0.118705        -3.2301
 245   0.0000      -0.061311        -1.6684
 246   0.0000      -0.049601        -1.3497
 247   0.0000      -0.029799        -0.8109
 248   0.0000      -0.016968        -0.4617

MULLIKEN ATOMIC CHARGES
-----------------------
   0 C :   -0.133085
   1 S :    0.134812
   2 C :   -0.115274
   3 C :    0.114534
   4 C :    0.111787
   5 C :   -0.051751
   6 C :   -0.043307
   7 C :    0.091694
   8 C :   -0.004902
   9 C :   -0.021032
  10 C :   -0.005442
  11 C :    0.045332
  12 C :   -0.130745
  13 S :    0.126596
  14 C :   -0.188580
  15 C :    0.100020
  16 C :    0.090570
  17 C :   -0.077030
  18 C :    0.086005
  19 N :   -0.060457
  20 C :   -0.153800
  21 C :    0.120226
  22 C :   -0.072632
  23 C :    0.028592
  24 C :   -0.044166
  25 C :    0.095162
  26 C :    0.061515
  27 C :   -0.157119
  28 S :    0.168010
  29 C :    0.038500
  30 C :   -0.077643
  31 C :    0.046579
  32 C :    0.059210
  33 N :    0.281937
  34 O :   -0.269836
  35 O :   -0.254953
  36 C :    0.011305
  37 C :   -0.023533
  38 C :    0.031852
  39 C :    0.059843
  40 C :   -0.017467
  41 C :    0.030686
  42 C :    0.068664
  43 N :    0.277910
  44 O :   -0.264641
  45 O :   -0.267939
  46 C :    0.027087
  47 C :   -0.046782
  48 C :    0.010298
  49 C :    0.087766
  50 C :   -0.019249
  51 C :   -0.034533
  52 C :    0.159994
  53 C :   -0.031292
  54 C :   -0.004131
  55 N :   -0.159217
  56 C :    0.111487
  57 C :   -0.006645
  58 C :    0.015376
  59 C :    0.030945
  60 C :    0.015868
  61 C :   -0.024817
  62 C :    0.114302
  63 C :   -0.010027
  64 C :    0.016495
  65 C :    0.031736
  66 C :    0.013341
  67 C :   -0.024089
  68 H :    0.010338
  69 H :   -0.046448
  70 H :    0.005860
  71 H :    0.023846
  72 H :    0.024620
  73 H :   -0.034997
  74 H :   -0.035574
  75 H :   -0.039004
  76 H :   -0.024229
  77 H :   -0.021142
  78 H :   -0.000423
  79 H :    0.129965
  80 H :   -0.018141
  81 H :   -0.019953
  82 H :   -0.030382
  83 H :    0.036977
  84 H :    0.013637
  85 H :    0.016861
  86 H :   -0.002494
  87 H :    0.008605
  88 H :   -0.032507
  89 H :    0.002431
  90 H :    0.024456
  91 H :    0.010138
  92 H :   -0.017782
  93 H :    0.001516
  94 H :    0.002052
  95 H :   -0.011441
  96 H :   -0.005607
  97 H :   -0.012427
  98 H :   -0.013576
  99 H :   -0.011201
 100 H :   -0.006091
 101 H :   -0.005641
 102 H :   -0.012082
 103 H :   -0.014441
 104 H :   -0.010724
 105 H :   -0.004913
Sum of atomic charges:   -0.0000000

LOEWDIN ATOMIC CHARGES
----------------------
   0 C :   -0.203562
   1 S :    0.470339
   2 C :   -0.179046
   3 C :   -0.050210
   4 C :   -0.050019
   5 C :   -0.028806
   6 C :   -0.029636
   7 C :   -0.044984
   8 C :   -0.029647
   9 C :   -0.014449
  10 C :   -0.041929
  11 C :   -0.055518
  12 C :   -0.170686
  13 S :    0.427638
  14 C :   -0.232230
  15 C :   -0.013269
  16 C :   -0.066244
  17 C :   -0.090941
  18 C :    0.025528
  19 N :    0.058941
  20 C :   -0.193586
  21 C :   -0.060607
  22 C :   -0.021011
  23 C :   -0.038115
  24 C :   -0.015739
  25 C :   -0.022783
  26 C :   -0.045666
  27 C :   -0.204541
  28 S :    0.484423
  29 C :    0.035364
  30 C :   -0.044839
  31 C :    0.016300
  32 C :   -0.050691
  33 N :    0.289980
  34 O :   -0.222941
  35 O :   -0.220126
  36 C :   -0.005967
  37 C :   -0.044896
  38 C :    0.028470
  39 C :    0.041051
  40 C :   -0.062846
  41 C :    0.029854
  42 C :   -0.074131
  43 N :    0.288340
  44 O :   -0.229306
  45 O :   -0.233011
  46 C :    0.031838
  47 C :   -0.041269
  48 C :    0.037969
  49 C :   -0.059952
  50 C :    0.005378
  51 C :   -0.046900
  52 C :    0.046154
  53 C :   -0.041739
  54 C :    0.011973
  55 N :    0.004391
  56 C :    0.019785
  57 C :   -0.033888
  58 C :   -0.016697
  59 C :   -0.032734
  60 C :   -0.017126
  61 C :   -0.037154
  62 C :    0.019605
  63 C :   -0.034397
  64 C :   -0.016608
  65 C :   -0.032539
  66 C :   -0.016692
  67 C :   -0.037269
  68 H :    0.020655
  69 H :    0.023610
  70 H :    0.027885
  71 H :    0.033559
  72 H :    0.033750
  73 H :    0.024079
  74 H :    0.024611
  75 H :    0.030625
  76 H :    0.019580
  77 H :    0.022467
  78 H :    0.023558
  79 H :    0.086303
  80 H :    0.026356
  81 H :    0.028039
  82 H :    0.024273
  83 H :    0.026353
  84 H :    0.030505
  85 H :    0.031738
  86 H :    0.034218
  87 H :    0.032234
  88 H :    0.024557
  89 H :    0.037404
  90 H :    0.034237
  91 H :    0.033994
  92 H :    0.031645
  93 H :    0.035860
  94 H :    0.036503
  95 H :    0.034660
  96 H :    0.033653
  97 H :    0.030035
  98 H :    0.028243
  99 H :    0.030466
 100 H :    0.032507
 101 H :    0.033652
 102 H :    0.030113
 103 H :    0.028014
 104 H :    0.030714
 105 H :    0.032969

  Mayer bond orders larger than 0.100000
B(  0-C ,  1-S ) :   1.1840 B(  0-C ,  2-C ) :   0.1059 B(  0-C ,  4-C ) :   1.4190
B(  0-C , 68-H ) :   0.9684 B(  1-S ,  2-C ) :   1.1508 B(  2-C ,  3-C ) :   1.3234
B(  2-C , 10-C ) :   1.2085 B(  3-C ,  4-C ) :   1.2075 B(  3-C ,  9-C ) :   1.2008
B(  4-C ,  5-C ) :   1.1529 B(  5-C ,  6-C ) :   1.5740 B(  5-C , 69-H ) :   0.9997
B(  6-C ,  7-C ) :   1.0507 B(  6-C ,  8-C ) :   1.2008 B(  7-C , 70-H ) :   0.9617
B(  7-C , 71-H ) :   0.9556 B(  7-C , 72-H ) :   0.9558 B(  8-C ,  9-C ) :   1.5642
B(  8-C , 73-H ) :   0.9867 B(  9-C , 74-H ) :   0.9904 B( 10-C , 11-C ) :   1.6114
B( 10-C , 75-H ) :   0.9674 B( 11-C , 12-C ) :   1.1959 B( 11-C , 76-H ) :   0.9507
B( 12-C , 13-S ) :   1.1088 B( 12-C , 14-C ) :   0.1211 B( 12-C , 16-C ) :   1.3441
B( 13-S , 14-C ) :   1.1082 B( 14-C , 15-C ) :   1.4172 B( 14-C , 20-C ) :   1.1559
B( 15-C , 16-C ) :   1.2527 B( 15-C , 19-N ) :   1.1803 B( 16-C , 17-C ) :   1.1799
B( 17-C , 18-C ) :   1.5777 B( 17-C , 77-H ) :   1.0053 B( 18-C , 19-N ) :   1.1661
B( 18-C , 78-H ) :   0.9846 B( 19-N , 79-H ) :   0.9313 B( 20-C , 21-C ) :   1.3596
B( 20-C , 27-C ) :   0.1121 B( 20-C , 28-S ) :   1.1968 B( 21-C , 22-C ) :   1.2085
B( 21-C , 26-C ) :   1.1878 B( 22-C , 23-C ) :   1.5076 B( 22-C , 80-H ) :   0.9879
B( 23-C , 24-C ) :   1.2348 B( 23-C , 81-H ) :   0.9820 B( 24-C , 25-C ) :   1.4970
B( 24-C , 82-H ) :   0.9883 B( 25-C , 26-C ) :   1.1366 B( 25-C , 29-C ) :   1.0876
B( 26-C , 27-C ) :   1.4783 B( 27-C , 28-S ) :   1.1694 B( 27-C , 83-H ) :   0.9499
B( 29-C , 30-C ) :   1.7179 B( 29-C , 84-H ) :   0.9532 B( 30-C , 31-C ) :   1.1031
B( 30-C , 85-H ) :   0.9387 B( 31-C , 32-C ) :   1.5457 B( 31-C , 38-C ) :   1.0506
B( 32-C , 33-N ) :   0.9651 B( 32-C , 36-C ) :   1.1060 B( 33-N , 34-O ) :   1.4601
B( 33-N , 35-O ) :   1.5283 B( 34-O , 35-O ) :   0.2488 B( 36-C , 37-C ) :   1.6101
B( 36-C , 86-H ) :   1.0131 B( 37-C , 38-C ) :   1.0955 B( 37-C , 87-H ) :   0.9922
B( 38-C , 39-C ) :   1.5281 B( 39-C , 40-C ) :   1.1221 B( 39-C , 46-C ) :   1.0014
B( 40-C , 41-C ) :   1.5602 B( 40-C , 88-H ) :   1.0100 B( 41-C , 42-C ) :   1.1339
B( 41-C , 89-H ) :   1.0106 B( 42-C , 43-N ) :   0.9769 B( 42-C , 46-C ) :   1.4851
B( 43-N , 44-O ) :   1.5193 B( 43-N , 45-O ) :   1.4795 B( 44-O , 45-O ) :   0.2473
B( 46-C , 47-C ) :   1.2078 B( 47-C , 48-C ) :   1.5492 B( 47-C , 90-H ) :   0.9420
B( 48-C , 49-C ) :   1.1360 B( 48-C , 91-H ) :   0.9756 B( 49-C , 50-C ) :   1.2935
B( 49-C , 54-C ) :   1.2997 B( 50-C , 51-C ) :   1.3979 B( 50-C , 92-H ) :   0.9978
B( 51-C , 52-C ) :   1.3352 B( 51-C , 93-H ) :   0.9900 B( 52-C , 53-C ) :   1.3173
B( 52-C , 55-N ) :   1.0563 B( 53-C , 54-C ) :   1.4284 B( 53-C , 94-H ) :   0.9895
B( 54-C , 95-H ) :   0.9874 B( 55-N , 56-C ) :   0.9657 B( 55-N , 62-C ) :   0.9663
B( 56-C , 57-C ) :   1.3971 B( 56-C , 61-C ) :   1.3852 B( 57-C , 58-C ) :   1.3767
B( 57-C , 96-H ) :   0.9898 B( 58-C , 59-C ) :   1.3835 B( 58-C , 97-H ) :   0.9860
B( 59-C , 60-C ) :   1.3845 B( 59-C , 98-H ) :   0.9937 B( 60-C , 61-C ) :   1.3816
B( 60-C , 99-H ) :   0.9855 B( 61-C ,100-H ) :   0.9921 B( 62-C , 63-C ) :   1.3943
B( 62-C , 67-C ) :   1.3860 B( 63-C , 64-C ) :   1.3770 B( 63-C ,101-H ) :   0.9897
B( 64-C , 65-C ) :   1.3835 B( 64-C ,102-H ) :   0.9857 B( 65-C , 66-C ) :   1.3828
B( 65-C ,103-H ) :   0.9949 B( 66-C , 67-C ) :   1.3807 B( 66-C ,104-H ) :   0.9862
B( 67-C ,105-H ) :   0.9926

-----------------------------------------------------------------------------
         ABSORPTION SPECTRUM VIA TRANSITION ELECTRIC DIPOLE MOMENTS
-----------------------------------------------------------------------------
State   Energy  Wavelength   fosc         T2         TX        TY        TZ
        (cm-1)    (nm)                  (au**2)     (au)      (au)      (au)
-----------------------------------------------------------------------------
   0    7049.4   1418.6   0.248988545  11.62800  -0.78343   2.48898  -2.19526
   1   10885.0    918.7   0.246784779   7.46391  -1.81762   1.48580  -1.39734
   2   14562.4    686.7   0.006951713   0.15716  -0.33682  -0.20738   0.02653
   3   16316.0    612.9   1.040600386  20.99649   0.26532  -3.29340   3.17484
   4   18914.4    528.7   0.075448953   1.31321   0.96878  -0.61164  -0.02380
   5   19915.9    502.1   0.129270308   2.13685   0.71290  -1.02806   0.75612
   6   20756.7    481.8   0.252953054   4.01198   0.27965   0.88897  -1.77299
   7   24098.8    415.0   0.023804902   0.32520   0.52699   0.01898  -0.21707
   8   24578.0    406.9   0.017150600   0.22973  -0.14568  -0.34545   0.29860
   9   25220.3    396.5   0.256542638   3.34876   1.55111  -0.93432   0.26432
  10   26092.8    383.2   0.023949912   0.30218   0.30873  -0.41723  -0.18106
  11   26621.0    375.6   0.180903206   2.23717   1.15019  -0.78151  -0.55089
  12   27273.4    366.7   0.026899856   0.32470  -0.21308  -0.13577   0.51075
  13   27363.4    365.5   0.001157722   0.01393  -0.05219  -0.10521   0.01163
  14   27559.0    362.9   0.015724724   0.18784   0.27674  -0.30553   0.13383
  15   27751.5    360.3   0.047319102   0.56134   0.04439   0.44221  -0.60317
  16   27994.5    357.2   0.131754472   1.54942  -0.36612   1.03539  -0.58595
  17   29225.8    342.2   0.056012646   0.63095  -0.68590   0.35576   0.18420
  18   29422.5    339.9   0.090863506   1.01668  -0.15957   0.21926  -0.97116
  19   30304.6    330.0   0.108915869   1.18320  -0.63823   0.67066   0.57104
  20   30392.9    329.0   0.050008822   0.54169  -0.28590   0.53844  -0.41234
  21   30595.1    326.8   0.003844781   0.04137  -0.04615  -0.19493  -0.03526
  22   31315.0    319.3   0.032429503   0.34093  -0.36931   0.38596   0.23573
  23   31661.4    315.8   0.221765412   2.30589   1.08324  -0.85811  -0.62939
  24   32461.3    308.1   0.006201793   0.06290  -0.17868  -0.07225   0.16047
  25   32550.7    307.2   0.031990980   0.32355   0.42665  -0.15670  -0.34201
  26   32597.5    306.8   0.000913522   0.00923  -0.05193   0.00059   0.08080
  27   33149.3    301.7   0.030396777   0.30188  -0.12385  -0.00075   0.53529
  28   33293.1    300.4   0.037953464   0.37529   0.30164  -0.02109  -0.53279
  29   33671.1    297.0   0.033561140   0.32814  -0.11336   0.55735  -0.06821
  30   33735.5    296.4   0.071857002   0.70122   0.06147   0.27424  -0.78882
  31   33965.0    294.4   0.068083016   0.65991  -0.21602   0.10248   0.77636
  32   34353.7    291.1   0.057758803   0.55350   0.20253   0.04576  -0.71442
  33   34538.5    289.5   0.493184866   4.70091   0.86394  -0.38563  -1.95085
  34   34677.6    288.4   0.015120669   0.14355  -0.10902  -0.00533  -0.36282
  35   34807.2    287.3   0.024539931   0.23210   0.11597   0.35833   0.30043
  36   34972.9    285.9   0.040303809   0.37939  -0.12562   0.48625   0.35661
  37   35171.4    284.3   0.047683592   0.44633  -0.54000   0.30092   0.25333
  38   35615.6    280.8   0.026506714   0.24501   0.01721   0.49028  -0.06590
  39   35776.2    279.5   0.000635413   0.00585  -0.01078  -0.07562  -0.00362
  40   36027.8    277.6   0.012261414   0.11204   0.01817   0.02405   0.33337
  41   36055.7    277.3   0.005982688   0.05463  -0.08798  -0.01698   0.21586
  42   36362.0    275.0   0.297978838   2.69782  -1.06067   1.05774  -0.67378
  43   36438.7    274.4   0.021021528   0.18992  -0.06166  -0.27922   0.32887
  44   36955.7    270.6   0.103028935   0.91781   0.32413  -0.88994   0.14406
  45   37146.9    269.2   0.254239650   2.25318   0.60914   0.22945  -1.35259
  46   37393.9    267.4   0.014989042   0.13196   0.23123  -0.18838  -0.20738
  47   37828.1    264.4   0.051767207   0.45052   0.52683  -0.08791  -0.40651
  48   37954.5    263.5   0.058491809   0.50735   0.34824  -0.34136  -0.51918
  49   38258.9    261.4   0.051780059   0.44556   0.34518   0.15034  -0.55119
  50   39068.3    256.0   0.098910663   0.83348   0.56019  -0.49991  -0.51938
  51   39377.0    254.0   0.000920396   0.00769  -0.02992   0.03598   0.07420
  52   39489.4    253.2   0.010904618   0.09091   0.05530  -0.24420   0.16798
  53   39508.8    253.1   0.015733117   0.13110  -0.02247   0.29931  -0.20250
  54   39967.8    250.2   0.037082127   0.30544   0.16403  -0.41039   0.33184
  55   39995.8    250.0   0.041545554   0.34197  -0.08123   0.57654  -0.05452
  56   40230.8    248.6   0.038718221   0.31683   0.16933  -0.45020   0.29238
  57   40302.0    248.1   0.210339363   1.71818   0.63874  -0.38208  -1.07899

FINAL SINGLE POINT ENERGY     -3905.309706320575

DIPOLE MOMENT
-------------
                                X             Y             Z
Electronic contribution:    -14.71083       3.19913     -19.69496
Nuclear contribution   :     16.11319      -3.16633      20.63400
                        -----------------------------------------
Total Dipole Moment    :      1.40236       0.03280       0.93904
                        -----------------------------------------
Magnitude (a.u.)       :      1.68804
Magnitude (Debye)      :      4.29066

Rotational constants in cm-1:     0.002285     0.000211     0.000199
Rotational constants in MHz :    68.509327     6.311470     5.952032

                             ****ORCA TERMINATED NORMALLY****
TOTAL RUN TIME: 0 days 0 hours 13 minutes 7 seconds 912 msec
