                         Program Version 4.2.0 -  RELEASE  -
|  1> # ORCA input file
|  2> # SCF done       -175.590201869107          0.000556454485
|  3> ! CAM-B3LYP def2-SVP def2/J RIJCOSX Grid4 TightSCF
|  4> %maxcore 5000
|  5> %tddft
|  6>     Mode sTDDFT
|  7>     Ethresh 5.0
|  8>     maxcore 5000
|  9> end
| 10>
| 11> %pal
| 12>   nprocs 6
| 13>   end
| 14> * xyz 0 1
| 15>    C        0.92250        -0.02247         1.29119
| 16>    C       -0.25511         0.61315         1.63232
| 17>    C       -0.96142         1.52778         0.77601
| 18>    O       -0.60922         1.86433        -0.32848
| 19>    C       -2.28264         2.09909         1.36955
| 20>    F       -2.06106         2.77021         2.51335
| 21>    F       -2.88428         2.93291         0.52941
| 22>    F       -3.15669         1.11994         1.66039
| 23>    S       -0.77410         0.15845         3.22713
| 24>    C        0.56763        -0.86763         3.39740
| 25>    C        1.40177        -0.87850         2.29751
| 26>    C        2.61603        -1.68384         2.19527
| 27>    C        2.72959        -2.88864         2.87809
| 28>    C        3.87512        -3.66012         2.76532
| 29>    N        3.86534        -4.94406         3.41944
| 30>    O        3.11935        -5.07564         4.36704
| 31>    O        4.56932        -5.81977         2.96551
| 32>    C        4.96916        -3.25181         1.98349
| 33>    C        4.83212        -2.03690         1.30044
| 34>    C        3.68904        -1.27531         1.39610
| 35>    C        6.19994        -4.00645         1.93108
| 36>    C        6.95894        -4.12965         0.82310
| 37>    C        8.15741        -4.90065         0.81309
| 38>    N        8.87715        -5.18780        -0.32350
| 39>    C        8.61836        -4.70304        -1.65613
| 40>    C        9.09260        -3.26279        -1.83900
| 41>    C        9.97841        -6.02461        -0.05484
| 42>    O       10.75585        -6.39438        -0.91217
| 43>    C        9.90472        -6.26066         1.36809
| 44>    C        8.78766        -5.53822         1.87219
| 45>    C        8.74436        -5.72846         3.30319
| 46>    O        8.00682        -5.28823         4.16358
| 47>    N        9.83853        -6.56828         3.57442
| 48>    C       10.08204        -7.06358         4.90675
| 49>    C        9.57363        -8.49248         5.08159
| 50>    C       10.52553        -6.90573         2.43055
| 51>    C       11.66025        -7.76655         2.41910
| 52>    C       12.18651        -8.24396         1.27203
| 53>    C       13.33751        -9.10375         1.19932
| 54>    C       14.33243        -9.18789         2.13802
| 55>    S       15.59403       -10.25616         1.68551
| 56>    C       14.80976       -10.62280         0.21370
| 57>    C       13.62649        -9.95259         0.07438
| 58>    C       12.71838       -10.14763        -1.05854
| 59>    O       11.54500        -9.88769        -1.08630
| 60>    O       13.37962       -10.71227        -2.11302
| 61>    C       12.67900       -10.94355        -3.25109
| 62>    C       13.26580       -11.53786        -4.29761
| 63>    C       12.60250       -11.80862        -5.54148
| 64>    C       13.19198       -12.53095        -6.59125
| 65>    C       14.49682       -13.11589        -6.60648
| 66>    O       15.31692       -13.09732        -5.71421
| 67>    C       14.87205       -13.85034        -7.92956
| 68>    F       14.03402       -14.86778        -8.19698
| 69>    F       14.83269       -13.02849        -8.99351
| 70>    F       16.09917       -14.35815        -7.87202
| 71>    S       12.11548       -12.66194        -7.95353
| 72>    C       10.91675       -11.77161        -7.13083
| 73>    C       11.29638       -11.38653        -5.88269
| 74>    H        1.38349         0.12496         0.33163
| 75>    H        0.70078        -1.40786         4.31477
| 76>    H        1.91702        -3.26687         3.47955
| 77>    H        5.66109        -1.68061         0.70866
| 78>    H        3.63040        -0.33778         0.86516
| 79>    H        6.51357        -4.50855         2.83726
| 80>    H        6.63193        -3.69677        -0.11222
| 81>    H        7.55182        -4.79486        -1.88121
| 82>    H        9.17799        -5.35912        -2.32886
| 83>    H        8.59012        -2.59414        -1.14334
| 84>    H        8.88806        -2.93209        -2.85365
| 85>    H       10.16352        -3.20132        -1.66236
| 86>    H        9.53752        -6.39516         5.57980
| 87>    H       11.15000        -6.99795         5.13475
| 88>    H        8.50325        -8.52824         4.89506
| 89>    H        9.76124        -8.82960         6.09733
| 90>    H       10.06825        -9.16935         4.38819
| 91>    H       12.07733        -8.05677         3.37313
| 92>    H       11.71799        -7.99733         0.32975
| 93>    H       14.41111        -8.64773         3.06005
| 94>    H       15.24412       -11.32592        -0.46868
| 95>    H       11.64557       -10.61855        -3.22183
| 96>    H       14.29686       -11.84554        -4.21446
| 97>    H        9.98146       -11.57410        -7.61793
| 98>    H       10.66575       -10.81220        -5.23065
| 99> *
|100>
|101>                          ****END OF INPUT****

CARTESIAN COORDINATES (ANGSTROEM)
---------------------------------
  C      0.922500   -0.022470    1.291190
  C     -0.255110    0.613150    1.632320
  C     -0.961420    1.527780    0.776010
  O     -0.609220    1.864330   -0.328480
  C     -2.282640    2.099090    1.369550
  F     -2.061060    2.770210    2.513350
  F     -2.884280    2.932910    0.529410
  F     -3.156690    1.119940    1.660390
  S     -0.774100    0.158450    3.227130
  C      0.567630   -0.867630    3.397400
  C      1.401770   -0.878500    2.297510
  C      2.616030   -1.683840    2.195270
  C      2.729590   -2.888640    2.878090
  C      3.875120   -3.660120    2.765320
  N      3.865340   -4.944060    3.419440
  O      3.119350   -5.075640    4.367040
  O      4.569320   -5.819770    2.965510
  C      4.969160   -3.251810    1.983490
  C      4.832120   -2.036900    1.300440
  C      3.689040   -1.275310    1.396100
  C      6.199940   -4.006450    1.931080
  C      6.958940   -4.129650    0.823100
  C      8.157410   -4.900650    0.813090
  N      8.877150   -5.187800   -0.323500
  C      8.618360   -4.703040   -1.656130
  C      9.092600   -3.262790   -1.839000
  C      9.978410   -6.024610   -0.054840
  O     10.755850   -6.394380   -0.912170
  C      9.904720   -6.260660    1.368090
  C      8.787660   -5.538220    1.872190
  C      8.744360   -5.728460    3.303190
  O      8.006820   -5.288230    4.163580
  N      9.838530   -6.568280    3.574420
  C     10.082040   -7.063580    4.906750
  C      9.573630   -8.492480    5.081590
  C     10.525530   -6.905730    2.430550
  C     11.660250   -7.766550    2.419100
  C     12.186510   -8.243960    1.272030
  C     13.337510   -9.103750    1.199320
  C     14.332430   -9.187890    2.138020
  S     15.594030  -10.256160    1.685510
  C     14.809760  -10.622800    0.213700
  C     13.626490   -9.952590    0.074380
  C     12.718380  -10.147630   -1.058540
  O     11.545000   -9.887690   -1.086300
  O     13.379620  -10.712270   -2.113020
  C     12.679000  -10.943550   -3.251090
  C     13.265800  -11.537860   -4.297610
  C     12.602500  -11.808620   -5.541480
  C     13.191980  -12.530950   -6.591250
  C     14.496820  -13.115890   -6.606480
  O     15.316920  -13.097320   -5.714210
  C     14.872050  -13.850340   -7.929560
  F     14.034020  -14.867780   -8.196980
  F     14.832690  -13.028490   -8.993510
  F     16.099170  -14.358150   -7.872020
  S     12.115480  -12.661940   -7.953530
  C     10.916750  -11.771610   -7.130830
  C     11.296380  -11.386530   -5.882690
  H      1.383490    0.124960    0.331630
  H      0.700780   -1.407860    4.314770
  H      1.917020   -3.266870    3.479550
  H      5.661090   -1.680610    0.708660
  H      3.630400   -0.337780    0.865160
  H      6.513570   -4.508550    2.837260
  H      6.631930   -3.696770   -0.112220
  H      7.551820   -4.794860   -1.881210
  H      9.177990   -5.359120   -2.328860
  H      8.590120   -2.594140   -1.143340
  H      8.888060   -2.932090   -2.853650
  H     10.163520   -3.201320   -1.662360
  H      9.537520   -6.395160    5.579800
  H     11.150000   -6.997950    5.134750
  H      8.503250   -8.528240    4.895060
  H      9.761240   -8.829600    6.097330
  H     10.068250   -9.169350    4.388190
  H     12.077330   -8.056770    3.373130
  H     11.717990   -7.997330    0.329750
  H     14.411110   -8.647730    3.060050
  H     15.244120  -11.325920   -0.468680
  H     11.645570  -10.618550   -3.221830
  H     14.296860  -11.845540   -4.214460
  H      9.981460  -11.574100   -7.617930
  H     10.665750  -10.812200   -5.230650

 Total Charge           Charge          ....    0
 Multiplicity           Mult            ....    1
 Number of Electrons    NEL             ....  446
 Basis Dimension        Dim             ....  963

ORBITAL ENERGIES
----------------

  NO   OCC          E(Eh)            E(eV)
   0   2.0000     -88.988187     -2421.4917
   1   2.0000     -88.976427     -2421.1717
   2   2.0000     -88.970416     -2421.0081
   3   2.0000     -24.811591      -675.1577
   4   2.0000     -24.811341      -675.1509
   5   2.0000     -24.806926      -675.0308
   6   2.0000     -24.801235      -674.8759
   7   2.0000     -24.800964      -674.8685
   8   2.0000     -24.796484      -674.7466
   9   2.0000     -19.285786      -524.7929
  10   2.0000     -19.245768      -523.7040
  11   2.0000     -19.243223      -523.6347
  12   2.0000     -19.239129      -523.5233
  13   2.0000     -19.224710      -523.1309
  14   2.0000     -19.221321      -523.0387
  15   2.0000     -19.185590      -522.0665
  16   2.0000     -19.182188      -521.9739
  17   2.0000     -14.649756      -398.6401
  18   2.0000     -14.447966      -393.1492
  19   2.0000     -14.447351      -393.1324
  20   2.0000     -10.521729      -286.3108
  21   2.0000     -10.510798      -286.0133
  22   2.0000     -10.418513      -283.5021
  23   2.0000     -10.394355      -282.8448
  24   2.0000     -10.381608      -282.4979
  25   2.0000     -10.368009      -282.1279
  26   2.0000     -10.366129      -282.0767
  27   2.0000     -10.342175      -281.4249
  28   2.0000     -10.336578      -281.2726
  29   2.0000     -10.332920      -281.1730
  30   2.0000     -10.332094      -281.1506
  31   2.0000     -10.325553      -280.9726
  32   2.0000     -10.321210      -280.8544
  33   2.0000     -10.315993      -280.7125
  34   2.0000     -10.314857      -280.6815
  35   2.0000     -10.314667      -280.6764
  36   2.0000     -10.310851      -280.5725
  37   2.0000     -10.308319      -280.5036
  38   2.0000     -10.308004      -280.4951
  39   2.0000     -10.307943      -280.4934
  40   2.0000     -10.307665      -280.4858
  41   2.0000     -10.306577      -280.4562
  42   2.0000     -10.306301      -280.4487
  43   2.0000     -10.305057      -280.4148
  44   2.0000     -10.304348      -280.3956
  45   2.0000     -10.302549      -280.3466
  46   2.0000     -10.299782      -280.2713
  47   2.0000     -10.297415      -280.2069
  48   2.0000     -10.297250      -280.2024
  49   2.0000     -10.290347      -280.0146
  50   2.0000     -10.289564      -279.9933
  51   2.0000     -10.286610      -279.9129
  52   2.0000     -10.286069      -279.8982
  53   2.0000     -10.284595      -279.8581
  54   2.0000     -10.274435      -279.5816
  55   2.0000     -10.264427      -279.3093
  56   2.0000     -10.259919      -279.1866
  57   2.0000     -10.253518      -279.0124
  58   2.0000     -10.252337      -278.9803
  59   2.0000      -8.083755      -219.9702
  60   2.0000      -8.072758      -219.6709
  61   2.0000      -8.066181      -219.4920
  62   2.0000      -6.052871      -164.7070
  63   2.0000      -6.048363      -164.5843
  64   2.0000      -6.046503      -164.5337
  65   2.0000      -6.041861      -164.4074
  66   2.0000      -6.037333      -164.2842
  67   2.0000      -6.035515      -164.2347
  68   2.0000      -6.035465      -164.2334
  69   2.0000      -6.030944      -164.1103
  70   2.0000      -6.028563      -164.0455
  71   2.0000      -1.400018       -38.0964
  72   2.0000      -1.389639       -37.8140
  73   2.0000      -1.325656       -36.0729
  74   2.0000      -1.302742       -35.4494
  75   2.0000      -1.302546       -35.4441
  76   2.0000      -1.292205       -35.1627
  77   2.0000      -1.291859       -35.1533
  78   2.0000      -1.215529       -33.0762
  79   2.0000      -1.155442       -31.4412
  80   2.0000      -1.144676       -31.1482
  81   2.0000      -1.141138       -31.0519
  82   2.0000      -1.127252       -30.6741
  83   2.0000      -1.121134       -30.5076
  84   2.0000      -1.120195       -30.4821
  85   2.0000      -1.057519       -28.7765
  86   2.0000      -1.049517       -28.5588
  87   2.0000      -1.015093       -27.6221
  88   2.0000      -1.001562       -27.2539
  89   2.0000      -0.997408       -27.1409
  90   2.0000      -0.993821       -27.0433
  91   2.0000      -0.927149       -25.2290
  92   2.0000      -0.922330       -25.0979
  93   2.0000      -0.909199       -24.7406
  94   2.0000      -0.905375       -24.6365
  95   2.0000      -0.904358       -24.6088
  96   2.0000      -0.884157       -24.0591
  97   2.0000      -0.871260       -23.7082
  98   2.0000      -0.868013       -23.6198
  99   2.0000      -0.865607       -23.5544
 100   2.0000      -0.863589       -23.4995
 101   2.0000      -0.849821       -23.1248
 102   2.0000      -0.842937       -22.9375
 103   2.0000      -0.821064       -22.3423
 104   2.0000      -0.817865       -22.2552
 105   2.0000      -0.816846       -22.2275
 106   2.0000      -0.804498       -21.8915
 107   2.0000      -0.802518       -21.8376
 108   2.0000      -0.779008       -21.1979
 109   2.0000      -0.765667       -20.8349
 110   2.0000      -0.757562       -20.6143
 111   2.0000      -0.751558       -20.4509
 112   2.0000      -0.743779       -20.2393
 113   2.0000      -0.733286       -19.9537
 114   2.0000      -0.726585       -19.7714
 115   2.0000      -0.707903       -19.2630
 116   2.0000      -0.705887       -19.2082
 117   2.0000      -0.698481       -19.0066
 118   2.0000      -0.691763       -18.8238
 119   2.0000      -0.688703       -18.7406
 120   2.0000      -0.686917       -18.6920
 121   2.0000      -0.682799       -18.5799
 122   2.0000      -0.679363       -18.4864
 123   2.0000      -0.678184       -18.4543
 124   2.0000      -0.673533       -18.3278
 125   2.0000      -0.672454       -18.2984
 126   2.0000      -0.661344       -17.9961
 127   2.0000      -0.658018       -17.9056
 128   2.0000      -0.653548       -17.7839
 129   2.0000      -0.650446       -17.6995
 130   2.0000      -0.645823       -17.5738
 131   2.0000      -0.640699       -17.4343
 132   2.0000      -0.631768       -17.1913
 133   2.0000      -0.628308       -17.0971
 134   2.0000      -0.615618       -16.7518
 135   2.0000      -0.609625       -16.5888
 136   2.0000      -0.600096       -16.3295
 137   2.0000      -0.597691       -16.2640
 138   2.0000      -0.593041       -16.1375
 139   2.0000      -0.583600       -15.8806
 140   2.0000      -0.581298       -15.8179
 141   2.0000      -0.577614       -15.7177
 142   2.0000      -0.571711       -15.5570
 143   2.0000      -0.570337       -15.5197
 144   2.0000      -0.567025       -15.4295
 145   2.0000      -0.563806       -15.3419
 146   2.0000      -0.562290       -15.3007
 147   2.0000      -0.560703       -15.2575
 148   2.0000      -0.560337       -15.2475
 149   2.0000      -0.556706       -15.1487
 150   2.0000      -0.555145       -15.1063
 151   2.0000      -0.550790       -14.9878
 152   2.0000      -0.550454       -14.9786
 153   2.0000      -0.543535       -14.7903
 154   2.0000      -0.540071       -14.6961
 155   2.0000      -0.533068       -14.5055
 156   2.0000      -0.532309       -14.4849
 157   2.0000      -0.528337       -14.3768
 158   2.0000      -0.525397       -14.2968
 159   2.0000      -0.524303       -14.2670
 160   2.0000      -0.522457       -14.2168
 161   2.0000      -0.521189       -14.1823
 162   2.0000      -0.519883       -14.1467
 163   2.0000      -0.518818       -14.1178
 164   2.0000      -0.516100       -14.0438
 165   2.0000      -0.514374       -13.9968
 166   2.0000      -0.510894       -13.9021
 167   2.0000      -0.508634       -13.8406
 168   2.0000      -0.507713       -13.8156
 169   2.0000      -0.504626       -13.7316
 170   2.0000      -0.501620       -13.6498
 171   2.0000      -0.497847       -13.5471
 172   2.0000      -0.497311       -13.5325
 173   2.0000      -0.496920       -13.5219
 174   2.0000      -0.495061       -13.4713
 175   2.0000      -0.492211       -13.3937
 176   2.0000      -0.489416       -13.3177
 177   2.0000      -0.486500       -13.2384
 178   2.0000      -0.484970       -13.1967
 179   2.0000      -0.483810       -13.1651
 180   2.0000      -0.478050       -13.0084
 181   2.0000      -0.477140       -12.9836
 182   2.0000      -0.473671       -12.8892
 183   2.0000      -0.471015       -12.8170
 184   2.0000      -0.467943       -12.7334
 185   2.0000      -0.465045       -12.6545
 186   2.0000      -0.463982       -12.6256
 187   2.0000      -0.463179       -12.6037
 188   2.0000      -0.458868       -12.4864
 189   2.0000      -0.456496       -12.4219
 190   2.0000      -0.451612       -12.2890
 191   2.0000      -0.448089       -12.1931
 192   2.0000      -0.445530       -12.1235
 193   2.0000      -0.443703       -12.0738
 194   2.0000      -0.442399       -12.0383
 195   2.0000      -0.440910       -11.9978
 196   2.0000      -0.436255       -11.8711
 197   2.0000      -0.434254       -11.8167
 198   2.0000      -0.430503       -11.7146
 199   2.0000      -0.429093       -11.6762
 200   2.0000      -0.423202       -11.5159
 201   2.0000      -0.416728       -11.3397
 202   2.0000      -0.397709       -10.8222
 203   2.0000      -0.385134       -10.4800
 204   2.0000      -0.381714       -10.3870
 205   2.0000      -0.379868       -10.3367
 206   2.0000      -0.375663       -10.2223
 207   2.0000      -0.370488       -10.0815
 208   2.0000      -0.365785        -9.9535
 209   2.0000      -0.363548        -9.8926
 210   2.0000      -0.352930        -9.6037
 211   2.0000      -0.347840        -9.4652
 212   2.0000      -0.345614        -9.4046
 213   2.0000      -0.341315        -9.2877
 214   2.0000      -0.338379        -9.2078
 215   2.0000      -0.333939        -9.0869
 216   2.0000      -0.326518        -8.8850
 217   2.0000      -0.325200        -8.8491
 218   2.0000      -0.309586        -8.4243
 219   2.0000      -0.307610        -8.3705
 220   2.0000      -0.304333        -8.2813
 221   2.0000      -0.286640        -7.7999
 222   2.0000      -0.234123        -6.3708
 223   0.0000      -0.076625        -2.0851
 224   0.0000      -0.059682        -1.6240
 225   0.0000      -0.056040        -1.5249
 226   0.0000      -0.047602        -1.2953
 227   0.0000      -0.025921        -0.7053

MULLIKEN ATOMIC CHARGES
-----------------------
   0 C :    0.020156
   1 C :   -0.162124
   2 C :    0.030499
   3 O :   -0.137833
   4 C :    0.470998
   5 F :   -0.168129
   6 F :   -0.132195
   7 F :   -0.167157
   8 S :    0.205398
   9 C :   -0.105309
  10 C :    0.088868
  11 C :    0.117719
  12 C :   -0.074238
  13 C :    0.150935
  14 N :    0.243168
  15 O :   -0.235211
  16 O :   -0.217608
  17 C :    0.053268
  18 C :   -0.028669
  19 C :    0.005538
  20 C :    0.018516
  21 C :   -0.032253
  22 C :    0.128273
  23 N :   -0.263224
  24 C :    0.100587
  25 C :    0.005184
  26 C :    0.159362
  27 O :   -0.211572
  28 C :   -0.059635
  29 C :   -0.069798
  30 C :    0.171714
  31 O :   -0.213366
  32 N :   -0.259890
  33 C :    0.098817
  34 C :    0.001385
  35 C :    0.126644
  36 C :   -0.028345
  37 C :    0.022466
  38 C :    0.102124
  39 C :   -0.140874
  40 S :    0.152979
  41 C :   -0.089649
  42 C :    0.001853
  43 C :    0.213236
  44 O :   -0.177831
  45 O :   -0.243967
  46 C :    0.160201
  47 C :   -0.012804
  48 C :    0.115288
  49 C :   -0.203106
  50 C :    0.023855
  51 O :   -0.161004
  52 C :    0.467908
  53 F :   -0.169143
  54 F :   -0.168984
  55 F :   -0.136758
  56 S :    0.173189
  57 C :   -0.034852
  58 C :   -0.001567
  59 H :    0.011480
  60 H :    0.044423
  61 H :   -0.001110
  62 H :   -0.010276
  63 H :   -0.010177
  64 H :    0.039221
  65 H :   -0.027517
  66 H :    0.021823
  67 H :    0.042269
  68 H :    0.008677
  69 H :    0.020697
  70 H :    0.030966
  71 H :    0.043521
  72 H :    0.018516
  73 H :    0.034652
  74 H :    0.020279
  75 H :    0.019096
  76 H :   -0.034871
  77 H :    0.042819
  78 H :    0.030696
  79 H :    0.045416
  80 H :    0.029487
  81 H :    0.020894
  82 H :    0.038580
  83 H :   -0.002595
Sum of atomic charges:    0.0000000

LOEWDIN ATOMIC CHARGES
----------------------
   0 C :    0.008601
   1 C :   -0.237686
   2 C :    0.017971
   3 O :   -0.108891
   4 C :    0.129221
   5 F :   -0.063884
   6 F :   -0.032491
   7 F :   -0.063435
   8 S :    0.502648
   9 C :   -0.157323
  10 C :   -0.062877
  11 C :   -0.017384
  12 C :    0.006716
  13 C :   -0.018664
  14 N :    0.285258
  15 O :   -0.203022
  16 O :   -0.178999
  17 C :   -0.005473
  18 C :   -0.004107
  19 C :    0.004695
  20 C :    0.032074
  21 C :   -0.044956
  22 C :    0.073429
  23 N :   -0.002512
  24 C :    0.035613
  25 C :   -0.061743
  26 C :    0.080051
  27 O :   -0.203014
  28 C :   -0.125747
  29 C :   -0.120483
  30 C :    0.082238
  31 O :   -0.200317
  32 N :   -0.001006
  33 C :    0.035691
  34 C :   -0.061382
  35 C :    0.080471
  36 C :   -0.051165
  37 C :    0.041864
  38 C :   -0.047825
  39 C :   -0.176627
  40 S :    0.480810
  41 C :   -0.146999
  42 C :   -0.104007
  43 C :    0.112126
  44 O :   -0.142459
  45 O :   -0.042511
  46 C :    0.085738
  47 C :   -0.061829
  48 C :    0.002950
  49 C :   -0.245973
  50 C :    0.016001
  51 O :   -0.124154
  52 C :    0.129640
  53 F :   -0.065474
  54 F :   -0.065604
  55 F :   -0.036263
  56 S :    0.474809
  57 C :   -0.150376
  58 C :   -0.060833
  59 H :    0.040339
  60 H :    0.031933
  61 H :    0.038628
  62 H :    0.034777
  63 H :    0.034475
  64 H :    0.037051
  65 H :    0.026073
  66 H :    0.022075
  67 H :    0.037209
  68 H :    0.019153
  69 H :    0.029237
  70 H :    0.032862
  71 H :    0.037453
  72 H :    0.020385
  73 H :    0.034276
  74 H :    0.029295
  75 H :    0.023152
  76 H :    0.024589
  77 H :    0.041064
  78 H :    0.024642
  79 H :    0.033502
  80 H :    0.022618
  81 H :    0.039567
  82 H :    0.031018
  83 H :    0.033507

  Mayer bond orders larger than 0.100000
B(  0-C ,  1-C ) :   1.4785 B(  0-C , 10-C ) :   1.2824 B(  0-C , 59-H ) :   1.0035
B(  1-C ,  2-C ) :   1.0068 B(  1-C ,  8-S ) :   1.1418 B(  2-C ,  3-O ) :   2.2210
B(  2-C ,  4-C ) :   0.8812 B(  4-C ,  5-F ) :   1.1374 B(  4-C ,  6-F ) :   1.1954
B(  4-C ,  7-F ) :   1.1405 B(  8-S ,  9-C ) :   1.2233 B(  9-C , 10-C ) :   1.5028
B(  9-C , 60-H ) :   0.9639 B( 10-C , 11-C ) :   0.9837 B( 11-C , 12-C ) :   1.3277
B( 11-C , 19-C ) :   1.3494 B( 12-C , 13-C ) :   1.3788 B( 12-C , 61-H ) :   0.9927
B( 13-C , 14-N ) :   0.8759 B( 13-C , 17-C ) :   1.3564 B( 14-N , 15-O ) :   1.5499
B( 14-N , 16-O ) :   1.5386 B( 15-O , 16-O ) :   0.2686 B( 17-C , 18-C ) :   1.3502
B( 17-C , 20-C ) :   1.0411 B( 18-C , 19-C ) :   1.3892 B( 18-C , 62-H ) :   0.9910
B( 19-C , 63-H ) :   0.9948 B( 20-C , 21-C ) :   1.7022 B( 20-C , 64-H ) :   0.9140
B( 21-C , 22-C ) :   1.1359 B( 21-C , 65-H ) :   0.9631 B( 22-C , 23-N ) :   1.1564
B( 22-C , 29-C ) :   1.3709 B( 23-N , 24-C ) :   0.9507 B( 23-N , 26-C ) :   1.0483
B( 24-C , 25-C ) :   1.1196 B( 24-C , 66-H ) :   0.9506 B( 24-C , 67-H ) :   0.9276
B( 25-C , 68-H ) :   0.9687 B( 25-C , 69-H ) :   0.9682 B( 25-C , 70-H ) :   0.9639
B( 26-C , 27-O ) :   2.0482 B( 26-C , 28-C ) :   0.9889 B( 28-C , 29-C ) :   1.2342
B( 28-C , 35-C ) :   1.3646 B( 29-C , 30-C ) :   0.9875 B( 30-C , 31-O ) :   2.0236
B( 30-C , 32-N ) :   1.0571 B( 31-O , 64-H ) :   0.1093 B( 32-N , 33-C ) :   0.9495
B( 32-N , 35-C ) :   1.1585 B( 33-C , 34-C ) :   1.1198 B( 33-C , 71-H ) :   0.9277
B( 33-C , 72-H ) :   0.9505 B( 34-C , 73-H ) :   0.9640 B( 34-C , 74-H ) :   0.9678
B( 34-C , 75-H ) :   0.9680 B( 35-C , 36-C ) :   1.1322 B( 36-C , 37-C ) :   1.6676
B( 36-C , 76-H ) :   0.9636 B( 37-C , 38-C ) :   1.0791 B( 37-C , 77-H ) :   0.9393
B( 38-C , 39-C ) :   1.5347 B( 38-C , 42-C ) :   1.2272 B( 39-C , 40-S ) :   1.1738
B( 39-C , 78-H ) :   0.9589 B( 40-S , 41-C ) :   1.2104 B( 41-C , 42-C ) :   1.5291
B( 41-C , 79-H ) :   0.9659 B( 42-C , 43-C ) :   0.9522 B( 43-C , 44-O ) :   2.1047
B( 43-C , 45-O ) :   1.1189 B( 45-O , 46-C ) :   1.0420 B( 46-C , 47-C ) :   1.6982
B( 46-C , 80-H ) :   0.9683 B( 47-C , 48-C ) :   1.1286 B( 47-C , 81-H ) :   0.9587
B( 48-C , 49-C ) :   1.4308 B( 48-C , 58-C ) :   1.2727 B( 49-C , 50-C ) :   1.0657
B( 49-C , 56-S ) :   1.1145 B( 50-C , 51-O ) :   2.1317 B( 50-C , 52-C ) :   0.8882
B( 52-C , 53-F ) :   1.1351 B( 52-C , 54-F ) :   1.1359 B( 52-C , 55-F ) :   1.1897
B( 56-S , 57-C ) :   1.2107 B( 57-C , 58-C ) :   1.5489 B( 57-C , 82-H ) :   0.9681
B( 58-C , 83-H ) :   0.9901

-----------------------------------------------------------------------------
         ABSORPTION SPECTRUM VIA TRANSITION ELECTRIC DIPOLE MOMENTS
-----------------------------------------------------------------------------
State   Energy  Wavelength   fosc         T2         TX        TY        TZ
        (cm-1)    (nm)                  (au**2)     (au)      (au)      (au)
-----------------------------------------------------------------------------
   0   17662.7    566.2   0.566955552  10.56738   2.59514  -1.83728   0.67606
   1   23452.7    426.4   0.079924166   1.12192  -0.38730   0.75949  -0.62856
   2   27154.0    368.3   0.006771813   0.08210  -0.16366  -0.02389  -0.23398
   3   27625.1    362.0   0.016124861   0.19216   0.00753  -0.04711  -0.43576
   4   28126.7    355.5   0.007567327   0.08857   0.05138   0.10465  -0.27383
   5   29509.3    338.9   0.007430938   0.08290   0.20158  -0.20548   0.00668
   6   30041.0    332.9   0.013322820   0.14600  -0.28453   0.24390   0.07457
   7   31682.6    315.6   0.811827730   8.43566  -0.95797   1.38599   2.36580
   8   32239.6    310.2   0.129257062   1.31990   1.06179  -0.37230   0.23213
   9   32688.4    305.9   0.194625238   1.96012   1.30537  -0.48280  -0.15180
  10   33659.3    297.1   0.104935215   1.02634   0.93815  -0.27477  -0.26593
  11   33724.1    296.5   0.001629884   0.01591  -0.02225  -0.01615   0.12310
  12   33950.4    294.5   0.077686160   0.75331  -0.66102   0.55875  -0.06450
  13   34527.0    289.6   0.000946475   0.00902  -0.03720   0.04365   0.07573
  14   34709.4    288.1   0.000654662   0.00621  -0.00270  -0.04133  -0.06704
  15   35502.2    281.7   0.102338570   0.94899   0.66516  -0.70869  -0.06568
  16   36074.6    277.2   0.377338301   3.44354   1.39075  -0.98989  -0.72765
  17   36405.7    274.7   0.221602232   2.00392   1.03364  -0.41779  -0.87233
  18   37294.9    268.1   0.131212473   1.15825  -0.04919   0.55494  -0.92080
  19   40125.8    249.2   0.011685958   0.09588   0.12005  -0.22882   0.17061

FINAL SINGLE POINT ENERGY     -4057.070122848309

DIPOLE MOMENT
-------------
                                X             Y             Z
Electronic contribution:    -27.25956      -1.17831     -38.91635
Nuclear contribution   :     27.48476       1.88469      39.72530
                        -----------------------------------------
Total Dipole Moment    :      0.22521       0.70638       0.80895
                        -----------------------------------------
Magnitude (a.u.)       :      1.09731
Magnitude (Debye)      :      2.78915

Rotational constants in cm-1:     0.001844     0.000290     0.000259
Rotational constants in MHz :    55.270821     8.707264     7.765723

                             ****ORCA TERMINATED NORMALLY****
TOTAL RUN TIME: 0 days 0 hours 5 minutes 46 seconds 746 msec
