                         Program Version 4.2.0 -  RELEASE  -
|  1> # ORCA input file
|  2> # SCF done       -152.713147463917          0.000679968161
|  3> ! CAM-B3LYP def2-SVP def2/J RIJCOSX Grid4 TightSCF
|  4> %maxcore 5000
|  5> %tddft
|  6>     Mode sTDDFT
|  7>     Ethresh 5.0
|  8>     maxcore 5000
|  9> end
| 10>
| 11> %pal
| 12>   nprocs 6
| 13>   end
| 14> * xyz 0 1
| 15>    C       -0.45205         1.01103        -0.49814
| 16>    S       -0.60079        -0.46068        -1.38267
| 17>    C       -0.64291        -1.38645         0.06991
| 18>    C       -0.53517        -0.56737         1.19260
| 19>    C       -0.43422         0.81034         0.83763
| 20>    C       -0.40339        -1.09869         2.53024
| 21>    O       -0.23083        -2.25351         2.83930
| 22>    C       -0.45936        -0.02861         3.66246
| 23>    F       -1.54992         0.75264         3.56413
| 24>    F       -0.48739        -0.59151         4.86580
| 25>    F        0.60540         0.79359         3.63321
| 26>    C       -0.82408        -2.81379         0.00269
| 27>    C       -0.11870        -3.60604        -0.91097
| 28>    N       -0.27933        -4.90477        -1.00240
| 29>    C       -1.15525        -5.48166        -0.17399
| 30>    N       -1.90669        -4.80777         0.69999
| 31>    C       -1.76013        -3.51493         0.78687
| 32>    C       -1.35405        -6.90911        -0.20006
| 33>    N       -0.70773        -7.79722        -1.02029
| 34>    C        0.33733        -7.52301        -1.97740
| 35>    C        1.69228        -7.35555        -1.29687
| 36>    C       -1.13640        -9.11934        -0.79144
| 37>    O       -0.70649       -10.07714        -1.40142
| 38>    C       -2.13042        -8.99773         0.25037
| 39>    C       -2.24348        -7.62232         0.59015
| 40>    C       -3.25399        -7.49861         1.62747
| 41>    O       -3.72510        -6.56262         2.22477
| 42>    N       -3.67616        -8.83493         1.84443
| 43>    C       -4.65477        -9.14847         2.85638
| 44>    C       -4.00815        -9.71321         4.11947
| 45>    C       -3.01705        -9.72523         1.03662
| 46>    C       -3.27077       -11.12624         1.05624
| 47>    C       -2.63567       -12.02237         0.27454
| 48>    C       -2.94432       -13.43664         0.35075
| 49>    N       -2.32270       -14.23946        -0.51550
| 50>    C       -2.60493       -15.52634        -0.45607
| 51>    C       -3.50264       -16.04997         0.46190
| 52>    C       -4.10165       -15.13880         1.34151
| 53>    N       -3.81588       -13.84062         1.27210
| 54>    C       -5.04315       -15.57656         2.35481
| 55>    C       -5.57908       -14.72673         3.24557
| 56>    C       -6.50668       -15.08105         4.27650
| 57>    S       -7.07470       -13.84491         5.37944
| 58>    C       -8.04055       -14.95251         6.22331
| 59>    C       -7.95191       -16.22623         5.69806
| 60>    C       -7.07159       -16.28594         4.58453
| 61>    C       -8.64515       -17.40736         6.17397
| 62>    O       -8.56554       -18.51091         5.69763
| 63>    C       -9.56008       -17.17423         7.41259
| 64>    F      -10.52195       -16.26875         7.15614
| 65>    F      -10.16165       -18.29050         7.80707
| 66>    F       -8.86271       -16.70154         8.46192
| 67>    H       -0.38752         1.93880        -1.03017
| 68>    H       -0.33681         1.61269         1.54438
| 69>    H        0.61157        -3.16720        -1.58086
| 70>    H       -2.41991        -3.00344         1.47325
| 71>    H        0.08288        -6.62291        -2.53815
| 72>    H        0.36379        -8.38751        -2.64689
| 73>    H        1.67527        -6.49820        -0.62927
| 74>    H        2.46147        -7.19884        -2.04750
| 75>    H        1.93790        -8.24725        -0.72517
| 76>    H       -5.39247        -9.84663         2.45041
| 77>    H       -5.15425        -8.20433         3.09196
| 78>    H       -3.46154       -10.62863         3.90401
| 79>    H       -4.77324        -9.92688         4.86075
| 80>    H       -3.31459        -8.98706         4.53558
| 81>    H       -4.02380       -11.49465         1.73810
| 82>    H       -1.87928       -11.73341        -0.44074
| 83>    H       -2.09088       -16.15655        -1.17061
| 84>    H       -3.72658       -17.10330         0.50354
| 85>    H       -5.28659       -16.62867         2.36134
| 86>    H       -5.28927       -13.68665         3.19191
| 87>    H       -8.62347       -14.61390         7.05699
| 88>    H       -6.88875       -17.20271         4.05651
| 89> *
| 90>
| 91>                          ****END OF INPUT****

CARTESIAN COORDINATES (ANGSTROEM)
---------------------------------
  C     -0.452050    1.011030   -0.498140
  S     -0.600790   -0.460680   -1.382670
  C     -0.642910   -1.386450    0.069910
  C     -0.535170   -0.567370    1.192600
  C     -0.434220    0.810340    0.837630
  C     -0.403390   -1.098690    2.530240
  O     -0.230830   -2.253510    2.839300
  C     -0.459360   -0.028610    3.662460
  F     -1.549920    0.752640    3.564130
  F     -0.487390   -0.591510    4.865800
  F      0.605400    0.793590    3.633210
  C     -0.824080   -2.813790    0.002690
  C     -0.118700   -3.606040   -0.910970
  N     -0.279330   -4.904770   -1.002400
  C     -1.155250   -5.481660   -0.173990
  N     -1.906690   -4.807770    0.699990
  C     -1.760130   -3.514930    0.786870
  C     -1.354050   -6.909110   -0.200060
  N     -0.707730   -7.797220   -1.020290
  C      0.337330   -7.523010   -1.977400
  C      1.692280   -7.355550   -1.296870
  C     -1.136400   -9.119340   -0.791440
  O     -0.706490  -10.077140   -1.401420
  C     -2.130420   -8.997730    0.250370
  C     -2.243480   -7.622320    0.590150
  C     -3.253990   -7.498610    1.627470
  O     -3.725100   -6.562620    2.224770
  N     -3.676160   -8.834930    1.844430
  C     -4.654770   -9.148470    2.856380
  C     -4.008150   -9.713210    4.119470
  C     -3.017050   -9.725230    1.036620
  C     -3.270770  -11.126240    1.056240
  C     -2.635670  -12.022370    0.274540
  C     -2.944320  -13.436640    0.350750
  N     -2.322700  -14.239460   -0.515500
  C     -2.604930  -15.526340   -0.456070
  C     -3.502640  -16.049970    0.461900
  C     -4.101650  -15.138800    1.341510
  N     -3.815880  -13.840620    1.272100
  C     -5.043150  -15.576560    2.354810
  C     -5.579080  -14.726730    3.245570
  C     -6.506680  -15.081050    4.276500
  S     -7.074700  -13.844910    5.379440
  C     -8.040550  -14.952510    6.223310
  C     -7.951910  -16.226230    5.698060
  C     -7.071590  -16.285940    4.584530
  C     -8.645150  -17.407360    6.173970
  O     -8.565540  -18.510910    5.697630
  C     -9.560080  -17.174230    7.412590
  F    -10.521950  -16.268750    7.156140
  F    -10.161650  -18.290500    7.807070
  F     -8.862710  -16.701540    8.461920
  H     -0.387520    1.938800   -1.030170
  H     -0.336810    1.612690    1.544380
  H      0.611570   -3.167200   -1.580860
  H     -2.419910   -3.003440    1.473250
  H      0.082880   -6.622910   -2.538150
  H      0.363790   -8.387510   -2.646890
  H      1.675270   -6.498200   -0.629270
  H      2.461470   -7.198840   -2.047500
  H      1.937900   -8.247250   -0.725170
  H     -5.392470   -9.846630    2.450410
  H     -5.154250   -8.204330    3.091960
  H     -3.461540  -10.628630    3.904010
  H     -4.773240   -9.926880    4.860750
  H     -3.314590   -8.987060    4.535580
  H     -4.023800  -11.494650    1.738100
  H     -1.879280  -11.733410   -0.440740
  H     -2.090880  -16.156550   -1.170610
  H     -3.726580  -17.103300    0.503540
  H     -5.286590  -16.628670    2.361340
  H     -5.289270  -13.686650    3.191910
  H     -8.623470  -14.613900    7.056990
  H     -6.888750  -17.202710    4.056510

 Total Charge           Charge          ....    0
 Multiplicity           Mult            ....    1
 Number of Electrons    NEL             ....  386
 Basis Dimension        Dim             ....  846

ORBITAL ENERGIES
----------------

  NO   OCC          E(Eh)            E(eV)
   0   2.0000     -88.984763     -2421.3985
   1   2.0000     -88.983131     -2421.3541
   2   2.0000     -24.810253      -675.1213
   3   2.0000     -24.810039      -675.1155
   4   2.0000     -24.809306      -675.0955
   5   2.0000     -24.808837      -675.0828
   6   2.0000     -24.805933      -675.0037
   7   2.0000     -24.803649      -674.9416
   8   2.0000     -19.239973      -523.5463
   9   2.0000     -19.238117      -523.4958
  10   2.0000     -19.182116      -521.9719
  11   2.0000     -19.177960      -521.8588
  12   2.0000     -14.445441      -393.0804
  13   2.0000     -14.442138      -392.9905
  14   2.0000     -14.421134      -392.4190
  15   2.0000     -14.412839      -392.1933
  16   2.0000     -14.412571      -392.1860
  17   2.0000     -14.407455      -392.0468
  18   2.0000     -10.519942      -286.2622
  19   2.0000     -10.518704      -286.2285
  20   2.0000     -10.391034      -282.7544
  21   2.0000     -10.390769      -282.7472
  22   2.0000     -10.366868      -282.0968
  23   2.0000     -10.361356      -281.9468
  24   2.0000     -10.355712      -281.7933
  25   2.0000     -10.343535      -281.4619
  26   2.0000     -10.338476      -281.3242
  27   2.0000     -10.336250      -281.2637
  28   2.0000     -10.333377      -281.1855
  29   2.0000     -10.332790      -281.1695
  30   2.0000     -10.329695      -281.0853
  31   2.0000     -10.328764      -281.0600
  32   2.0000     -10.325380      -280.9679
  33   2.0000     -10.321941      -280.8743
  34   2.0000     -10.320712      -280.8408
  35   2.0000     -10.314068      -280.6601
  36   2.0000     -10.308468      -280.5077
  37   2.0000     -10.304434      -280.3979
  38   2.0000     -10.303249      -280.3657
  39   2.0000     -10.303177      -280.3637
  40   2.0000     -10.300261      -280.2844
  41   2.0000     -10.298460      -280.2353
  42   2.0000     -10.295712      -280.1606
  43   2.0000     -10.288462      -279.9633
  44   2.0000     -10.288341      -279.9600
  45   2.0000     -10.284333      -279.8509
  46   2.0000     -10.284247      -279.8486
  47   2.0000     -10.278838      -279.7014
  48   2.0000     -10.260589      -279.2048
  49   2.0000     -10.259693      -279.1804
  50   2.0000     -10.252838      -278.9939
  51   2.0000     -10.243446      -278.7383
  52   2.0000      -8.080725      -219.8877
  53   2.0000      -8.079229      -219.8470
  54   2.0000      -6.049820      -164.6240
  55   2.0000      -6.048246      -164.5811
  56   2.0000      -6.045389      -164.5034
  57   2.0000      -6.043936      -164.4639
  58   2.0000      -6.043426      -164.4500
  59   2.0000      -6.041972      -164.4104
  60   2.0000      -1.398333       -38.0506
  61   2.0000      -1.396945       -38.0128
  62   2.0000      -1.301391       -35.4127
  63   2.0000      -1.300666       -35.3929
  64   2.0000      -1.299669       -35.3658
  65   2.0000      -1.299168       -35.3522
  66   2.0000      -1.156253       -31.4632
  67   2.0000      -1.154719       -31.4215
  68   2.0000      -1.125129       -30.6163
  69   2.0000      -1.116888       -30.3921
  70   2.0000      -1.094320       -29.7780
  71   2.0000      -1.084379       -29.5075
  72   2.0000      -1.054997       -28.7079
  73   2.0000      -1.043336       -28.3906
  74   2.0000      -1.010195       -27.4888
  75   2.0000      -1.008667       -27.4472
  76   2.0000      -0.987478       -26.8706
  77   2.0000      -0.983562       -26.7641
  78   2.0000      -0.924872       -25.1670
  79   2.0000      -0.920152       -25.0386
  80   2.0000      -0.916389       -24.9362
  81   2.0000      -0.901634       -24.5347
  82   2.0000      -0.883254       -24.0346
  83   2.0000      -0.878815       -23.9138
  84   2.0000      -0.870176       -23.6787
  85   2.0000      -0.861001       -23.4290
  86   2.0000      -0.847892       -23.0723
  87   2.0000      -0.837406       -22.7870
  88   2.0000      -0.818338       -22.2681
  89   2.0000      -0.812396       -22.1064
  90   2.0000      -0.809704       -22.0332
  91   2.0000      -0.804277       -21.8855
  92   2.0000      -0.790855       -21.5203
  93   2.0000      -0.762636       -20.7524
  94   2.0000      -0.757109       -20.6020
  95   2.0000      -0.749458       -20.3938
  96   2.0000      -0.744824       -20.2677
  97   2.0000      -0.736468       -20.0403
  98   2.0000      -0.729635       -19.8544
  99   2.0000      -0.723507       -19.6876
 100   2.0000      -0.698374       -19.0037
 101   2.0000      -0.695980       -18.9386
 102   2.0000      -0.690898       -18.8003
 103   2.0000      -0.689465       -18.7613
 104   2.0000      -0.684160       -18.6169
 105   2.0000      -0.681506       -18.5447
 106   2.0000      -0.680605       -18.5202
 107   2.0000      -0.679242       -18.4831
 108   2.0000      -0.677992       -18.4491
 109   2.0000      -0.658576       -17.9208
 110   2.0000      -0.655426       -17.8351
 111   2.0000      -0.644135       -17.5278
 112   2.0000      -0.643390       -17.5075
 113   2.0000      -0.636804       -17.3283
 114   2.0000      -0.631102       -17.1732
 115   2.0000      -0.628019       -17.0893
 116   2.0000      -0.612624       -16.6704
 117   2.0000      -0.602347       -16.3907
 118   2.0000      -0.595705       -16.2099
 119   2.0000      -0.581664       -15.8279
 120   2.0000      -0.574733       -15.6393
 121   2.0000      -0.569686       -15.5020
 122   2.0000      -0.567990       -15.4558
 123   2.0000      -0.563040       -15.3211
 124   2.0000      -0.559842       -15.2341
 125   2.0000      -0.558928       -15.2092
 126   2.0000      -0.558411       -15.1951
 127   2.0000      -0.557048       -15.1580
 128   2.0000      -0.546964       -14.8836
 129   2.0000      -0.544257       -14.8100
 130   2.0000      -0.541224       -14.7275
 131   2.0000      -0.537256       -14.6195
 132   2.0000      -0.536250       -14.5921
 133   2.0000      -0.531292       -14.4572
 134   2.0000      -0.530892       -14.4463
 135   2.0000      -0.529181       -14.3997
 136   2.0000      -0.527122       -14.3437
 137   2.0000      -0.525731       -14.3059
 138   2.0000      -0.524108       -14.2617
 139   2.0000      -0.522748       -14.2247
 140   2.0000      -0.520611       -14.1665
 141   2.0000      -0.518900       -14.1200
 142   2.0000      -0.511541       -13.9197
 143   2.0000      -0.509251       -13.8574
 144   2.0000      -0.508665       -13.8415
 145   2.0000      -0.506137       -13.7727
 146   2.0000      -0.505717       -13.7613
 147   2.0000      -0.503194       -13.6926
 148   2.0000      -0.501906       -13.6576
 149   2.0000      -0.500512       -13.6196
 150   2.0000      -0.497052       -13.5255
 151   2.0000      -0.494053       -13.4439
 152   2.0000      -0.492305       -13.3963
 153   2.0000      -0.491562       -13.3761
 154   2.0000      -0.487233       -13.2583
 155   2.0000      -0.485238       -13.2040
 156   2.0000      -0.481881       -13.1126
 157   2.0000      -0.480495       -13.0749
 158   2.0000      -0.479694       -13.0531
 159   2.0000      -0.470254       -12.7963
 160   2.0000      -0.468591       -12.7510
 161   2.0000      -0.465731       -12.6732
 162   2.0000      -0.456086       -12.4107
 163   2.0000      -0.451400       -12.2832
 164   2.0000      -0.449999       -12.2451
 165   2.0000      -0.446603       -12.1527
 166   2.0000      -0.444004       -12.0820
 167   2.0000      -0.440540       -11.9877
 168   2.0000      -0.435717       -11.8565
 169   2.0000      -0.432244       -11.7620
 170   2.0000      -0.426612       -11.6087
 171   2.0000      -0.418084       -11.3766
 172   2.0000      -0.416958       -11.3460
 173   2.0000      -0.408603       -11.1186
 174   2.0000      -0.397140       -10.8067
 175   2.0000      -0.387070       -10.5327
 176   2.0000      -0.385601       -10.4927
 177   2.0000      -0.380740       -10.3605
 178   2.0000      -0.375927       -10.2295
 179   2.0000      -0.371521       -10.1096
 180   2.0000      -0.360604        -9.8125
 181   2.0000      -0.354487        -9.6461
 182   2.0000      -0.347757        -9.4630
 183   2.0000      -0.345768        -9.4088
 184   2.0000      -0.338889        -9.2216
 185   2.0000      -0.326897        -8.8953
 186   2.0000      -0.325177        -8.8485
 187   2.0000      -0.323011        -8.7896
 188   2.0000      -0.317407        -8.6371
 189   2.0000      -0.308682        -8.3997
 190   2.0000      -0.305817        -8.3217
 191   2.0000      -0.291483        -7.9317
 192   2.0000      -0.238161        -6.4807
 193   0.0000      -0.084701        -2.3048
 194   0.0000      -0.055189        -1.5018
 195   0.0000      -0.053473        -1.4551
 196   0.0000      -0.042552        -1.1579
 197   0.0000      -0.017672        -0.4809

MULLIKEN ATOMIC CHARGES
-----------------------
   0 C :   -0.065748
   1 S :    0.169935
   2 C :   -0.132837
   3 C :    0.016140
   4 C :    0.056113
   5 C :    0.011555
   6 O :   -0.137219
   7 C :    0.473892
   8 F :   -0.167500
   9 F :   -0.133094
  10 F :   -0.170565
  11 C :   -0.017496
  12 C :    0.046573
  13 N :   -0.059104
  14 C :   -0.185947
  15 N :    0.002438
  16 C :    0.091023
  17 C :    0.198115
  18 N :   -0.258833
  19 C :    0.137790
  20 C :    0.004672
  21 C :    0.152670
  22 O :   -0.201581
  23 C :   -0.066007
  24 C :   -0.060697
  25 C :    0.147950
  26 O :   -0.150110
  27 N :   -0.268626
  28 C :    0.101125
  29 C :    0.001140
  30 C :    0.156734
  31 C :   -0.001635
  32 C :    0.052967
  33 C :   -0.077285
  34 N :   -0.050326
  35 C :    0.083301
  36 C :   -0.047607
  37 C :    0.051948
  38 N :   -0.070240
  39 C :   -0.008502
  40 C :    0.104351
  41 C :   -0.086021
  42 S :    0.163547
  43 C :   -0.047233
  44 C :   -0.033324
  45 C :    0.008433
  46 C :    0.040416
  47 O :   -0.133718
  48 C :    0.467866
  49 F :   -0.169832
  50 F :   -0.131466
  51 F :   -0.169696
  52 H :    0.038477
  53 H :    0.018091
  54 H :    0.004986
  55 H :    0.015668
  56 H :    0.022922
  57 H :    0.031694
  58 H :    0.013824
  59 H :    0.012232
  60 H :    0.018608
  61 H :    0.021328
  62 H :    0.042303
  63 H :    0.017227
  64 H :    0.017951
  65 H :    0.031655
  66 H :   -0.014038
  67 H :    0.020288
  68 H :    0.010668
  69 H :   -0.003633
  70 H :   -0.016634
  71 H :   -0.001081
  72 H :    0.052073
  73 H :    0.006948
Sum of atomic charges:   -0.0000000

LOEWDIN ATOMIC CHARGES
----------------------
   0 C :   -0.176998
   1 S :    0.482247
   2 C :   -0.126784
   3 C :   -0.119845
   4 C :   -0.039758
   5 C :    0.036999
   6 O :   -0.100755
   7 C :    0.141460
   8 F :   -0.061709
   9 F :   -0.033451
  10 F :   -0.061896
  11 C :   -0.093264
  12 C :    0.046898
  13 N :   -0.071243
  14 C :    0.025134
  15 N :   -0.039666
  16 C :    0.081386
  17 C :    0.047352
  18 N :    0.009047
  19 C :    0.034772
  20 C :   -0.061444
  21 C :    0.076677
  22 O :   -0.197320
  23 C :   -0.124438
  24 C :   -0.093177
  25 C :    0.084191
  26 O :   -0.161242
  27 N :   -0.006849
  28 C :    0.034915
  29 C :   -0.062269
  30 C :    0.087644
  31 C :   -0.025619
  32 C :    0.025795
  33 C :    0.026282
  34 N :   -0.080986
  35 C :    0.053601
  36 C :   -0.062703
  37 C :    0.034915
  38 N :   -0.086338
  39 C :   -0.032115
  40 C :   -0.003170
  41 C :   -0.170536
  42 S :    0.482849
  43 C :   -0.148136
  44 C :   -0.120349
  45 C :   -0.015084
  46 C :    0.038442
  47 O :   -0.101293
  48 C :    0.139802
  49 F :   -0.063030
  50 F :   -0.032681
  51 F :   -0.063042
  52 H :    0.029890
  53 H :    0.034593
  54 H :    0.023117
  55 H :    0.030789
  56 H :    0.021595
  57 H :    0.030015
  58 H :    0.018642
  59 H :    0.026991
  60 H :    0.026139
  61 H :    0.022034
  62 H :    0.036829
  63 H :    0.022360
  64 H :    0.028172
  65 H :    0.033163
  66 H :    0.028971
  67 H :    0.042582
  68 H :    0.028318
  69 H :    0.033839
  70 H :    0.028846
  71 H :    0.032216
  72 H :    0.029718
  73 H :    0.037964

  Mayer bond orders larger than 0.100000
B(  0-C ,  1-S ) :   1.1415 B(  0-C ,  4-C ) :   1.6074 B(  0-C , 52-H ) :   0.9653
B(  1-S ,  2-C ) :   1.2250 B(  2-C ,  3-C ) :   1.4859 B(  2-C , 11-C ) :   1.0289
B(  3-C ,  4-C ) :   1.2256 B(  3-C ,  5-C ) :   0.9714 B(  4-C , 53-H ) :   0.9714
B(  5-C ,  6-O ) :   2.1875 B(  5-C ,  7-C ) :   0.8749 B(  7-C ,  8-F ) :   1.1332
B(  7-C ,  9-F ) :   1.1938 B(  7-C , 10-F ) :   1.1117 B( 11-C , 12-C ) :   1.3478
B( 11-C , 16-C ) :   1.2877 B( 12-C , 13-N ) :   1.5422 B( 12-C , 54-H ) :   0.9885
B( 13-N , 14-C ) :   1.5028 B( 14-C , 15-N ) :   1.6382 B( 14-C , 17-C ) :   0.9850
B( 15-N , 16-C ) :   1.6059 B( 15-N , 17-C ) :  -0.1320 B( 16-C , 55-H ) :   0.9886
B( 17-C , 18-N ) :   1.2009 B( 17-C , 24-C ) :   1.3995 B( 18-N , 19-C ) :   0.9386
B( 18-N , 21-C ) :   1.0551 B( 19-C , 20-C ) :   1.1245 B( 19-C , 56-H ) :   0.9357
B( 19-C , 57-H ) :   0.9270 B( 20-C , 58-H ) :   0.9661 B( 20-C , 59-H ) :   0.9678
B( 20-C , 60-H ) :   0.9655 B( 21-C , 22-O ) :   2.0543 B( 21-C , 23-C ) :   0.9837
B( 23-C , 24-C ) :   1.2404 B( 23-C , 30-C ) :   1.3449 B( 24-C , 25-C ) :   0.9415
B( 25-C , 26-O ) :   2.1893 B( 25-C , 27-N ) :   1.0089 B( 27-N , 28-C ) :   0.9497
B( 27-N , 30-C ) :   1.1829 B( 28-C , 29-C ) :   1.1209 B( 28-C , 61-H ) :   0.9498
B( 28-C , 62-H ) :   0.9262 B( 29-C , 63-H ) :   0.9685 B( 29-C , 64-H ) :   0.9673
B( 29-C , 65-H ) :   0.9632 B( 30-C , 31-C ) :   1.1051 B( 31-C , 32-C ) :   1.6461
B( 31-C , 66-H ) :   0.9619 B( 32-C , 33-C ) :   1.0171 B( 32-C , 67-H ) :   0.9598
B( 33-C , 34-N ) :   1.5442 B( 33-C , 38-N ) :   1.5266 B( 34-N , 35-C ) :   1.5451
B( 35-C , 36-C ) :   1.3728 B( 35-C , 68-H ) :   0.9796 B( 36-C , 37-C ) :   1.3258
B( 36-C , 69-H ) :   0.9766 B( 37-C , 38-N ) :   1.5268 B( 37-C , 39-C ) :   1.0693
B( 39-C , 40-C ) :   1.7575 B( 39-C , 70-H ) :   0.9749 B( 40-C , 41-C ) :   1.0656
B( 40-C , 71-H ) :   0.9613 B( 41-C , 42-S ) :   1.1201 B( 41-C , 45-C ) :   1.5366
B( 42-S , 43-C ) :   1.2272 B( 43-C , 44-C ) :   1.5062 B( 43-C , 72-H ) :   0.9400
B( 44-C , 45-C ) :   1.2389 B( 44-C , 46-C ) :   0.9564 B( 45-C , 73-H ) :   1.0037
B( 46-C , 47-O ) :   2.2235 B( 46-C , 48-C ) :   0.8797 B( 48-C , 49-F ) :   1.1257
B( 48-C , 50-F ) :   1.1967 B( 48-C , 51-F ) :   1.1271

-----------------------------------------------------------------------------
         ABSORPTION SPECTRUM VIA TRANSITION ELECTRIC DIPOLE MOMENTS
-----------------------------------------------------------------------------
State   Energy  Wavelength   fosc         T2         TX        TY        TZ
        (cm-1)    (nm)                  (au**2)     (au)      (au)      (au)
-----------------------------------------------------------------------------
   0   16892.9    592.0   0.629204390  12.26208   1.52468   3.00069  -0.96607
   1   24570.4    407.0   0.036632640   0.49083   0.27578  -0.34771  -0.54210
   2   25875.0    386.5   0.005263015   0.06696  -0.07194  -0.20328  -0.14305
   3   26215.6    381.5   0.013352621   0.16768  -0.24715  -0.01864   0.32596
   4   26312.0    380.1   0.000337422   0.00422  -0.00621  -0.02906   0.05778
   5   28643.9    349.1   0.004865599   0.05592   0.01165   0.23442   0.02886
   6   30527.7    327.6   0.004863706   0.05245   0.05435  -0.07291  -0.21019
   7   30936.3    323.2   0.033412642   0.35556   0.11090   0.58480  -0.03577
   8   31225.4    320.3   0.165347228   1.74327   0.34664   1.26696  -0.13391
   9   31339.2    319.1   0.014306085   0.15028   0.03999  -0.32991  -0.19960
  10   31526.7    317.2   0.035661969   0.37239   0.04166  -0.57675  -0.19498
  11   33041.0    302.7   0.145561757   1.45034  -0.34211  -1.15463  -0.01120
  12   33176.3    301.4   0.292701554   2.90451   0.53190   1.61707  -0.08163
  13   33284.9    300.4   0.013582843   0.13434  -0.04631   0.03484  -0.36192
  14   34169.7    292.7   0.690797466   6.65557  -1.55089  -0.96645   1.82106
  15   35400.7    282.5   0.054786632   0.50949   0.09871   0.70308   0.07371
  16   35936.4    278.3   0.366662044   3.35898   0.65801  -1.29148  -1.12164
  17   36050.1    277.4   0.000788179   0.00720  -0.05827   0.02696  -0.05545
  18   36381.4    274.9   0.104400341   0.94471  -0.62968   0.51488   0.53207
  19   36599.7    273.2   0.140463917   1.26346   0.61895  -0.48781  -0.80150
  20   38542.3    259.5   0.059377767   0.50718  -0.02248   0.69484   0.15449
  21   38744.9    258.1   0.010467982   0.08895   0.15498  -0.01483   0.25437
  22   40010.0    249.9   0.171332851   1.40977   0.38156  -0.85809  -0.72654

FINAL SINGLE POINT ENERGY     -3330.498115201727

DIPOLE MOMENT
-------------
                                X             Y             Z
Electronic contribution:    -26.66971      13.94724      39.16770
Nuclear contribution   :     26.73439     -12.69737     -40.16558
                        -----------------------------------------
Total Dipole Moment    :      0.06468       1.24987      -0.99788
                        -----------------------------------------
Magnitude (a.u.)       :      1.60067
Magnitude (Debye)      :      4.06857

Rotational constants in cm-1:     0.002728     0.000441     0.000388
Rotational constants in MHz :    81.790883    13.207003    11.626086

                             ****ORCA TERMINATED NORMALLY****
TOTAL RUN TIME: 0 days 0 hours 4 minutes 15 seconds 289 msec
