                         Program Version 4.2.0 -  RELEASE  -
|  1> # ORCA input file
|  2> # SCF done       -189.823575974399          0.000665411984
|  3> ! CAM-B3LYP def2-SVP def2/J RIJCOSX Grid4 TightSCF
|  4> %maxcore 5000
|  5> %tddft
|  6>     Mode sTDDFT
|  7>     Ethresh 5.0
|  8>     maxcore 5000
|  9> end
| 10>
| 11> %pal
| 12>   nprocs 6
| 13>   end
| 14> * xyz 0 1
| 15>    C       -7.02508         1.19368        -3.22896
| 16>    S       -7.83809         0.48308        -4.56775
| 17>    C       -6.96711        -0.98268        -4.37136
| 18>    C       -6.11541        -0.92439        -3.25402
| 19>    C       -6.15505         0.34773        -2.62420
| 20>    C       -5.44891        -2.08265        -2.72565
| 21>    O       -5.71472        -3.24654        -2.94414
| 22>    C       -4.28266        -1.77947        -1.74338
| 23>    F       -4.71182        -1.34453        -0.54857
| 24>    F       -3.55163        -2.87339        -1.52758
| 25>    F       -3.45427        -0.83918        -2.22658
| 26>    C       -7.02086        -2.05433        -5.31284
| 27>    C       -8.12166        -2.66183        -5.89804
| 28>    N       -9.46146        -2.26140        -5.80910
| 29>    O      -10.31878        -3.06675        -6.11733
| 30>    O       -9.69554        -1.11821        -5.43535
| 31>    C       -7.69798        -3.84255        -6.60048
| 32>    C       -6.35422        -3.96978        -6.45931
| 33>    C       -5.85956        -2.85562        -5.69541
| 34>    C       -4.53394        -2.47733        -5.55857
| 35>    C       -4.02420        -1.14990        -5.50856
| 36>    C       -2.66764        -1.19008        -5.67775
| 37>    C       -2.24971        -2.55118        -5.76812
| 38>    N       -0.89930        -2.93785        -5.83958
| 39>    O       -0.62292        -4.11924        -5.71728
| 40>    O       -0.07755        -2.05590        -6.02013
| 41>    C       -3.36766        -3.38152        -5.66535
| 42>    C       -3.39269        -4.77577        -5.51906
| 43>    C       -4.37206        -5.43000        -4.81213
| 44>    C       -4.41439        -6.82330        -4.66802
| 45>    N       -5.24512        -7.48021        -3.79166
| 46>    C       -6.21953        -6.86352        -2.91950
| 47>    C       -7.50768        -6.52745        -3.66569
| 48>    C       -5.06909        -8.86650        -3.83539
| 49>    O       -5.68018        -9.65614        -3.14260
| 50>    C       -4.04314        -9.06833        -4.84471
| 51>    C       -3.66791        -7.80864        -5.33767
| 52>    C       -2.68371        -8.00639        -6.38432
| 53>    O       -2.12012        -7.23850        -7.12913
| 54>    N       -2.50678        -9.40719        -6.42799
| 55>    C       -1.53750       -10.00437        -7.31488
| 56>    C       -0.24567       -10.35748        -6.58250
| 57>    C       -3.30532       -10.05435        -5.52372
| 58>    C       -3.35440       -11.45468        -5.36630
| 59>    C       -4.17107       -12.05970        -4.45880
| 60>    C       -4.26830       -13.45545        -4.28113
| 61>    S       -3.33977       -14.60093        -5.22564
| 62>    C       -4.05961       -15.94708        -4.40779
| 63>    C       -4.97367       -15.50528        -3.44541
| 64>    C       -5.08551       -14.11167        -3.37988
| 65>    C       -5.70219       -16.39608        -2.63552
| 66>    N       -6.28896       -17.13053        -1.97977
| 67>    C       -3.74991       -17.29880        -4.70366
| 68>    C       -2.86692       -17.68277        -5.65337
| 69>    C       -2.55190       -19.03543        -5.97358
| 70>    S       -1.38960       -19.36652        -7.24260
| 71>    C       -1.55746       -21.04063        -7.04307
| 72>    C       -2.46139       -21.35990        -6.04885
| 73>    C       -3.02340       -20.20668        -5.44315
| 74>    C       -2.83996       -22.69630        -5.62371
| 75>    O       -3.62016       -22.95994        -4.74648
| 76>    C       -2.14619       -23.85048        -6.40659
| 77>    F       -0.80741       -23.79726        -6.28291
| 78>    F       -2.53742       -25.04643        -5.98526
| 79>    F       -2.40921       -23.78143        -7.72440
| 80>    H       -7.25912         2.19970        -2.94233
| 81>    H       -5.59353         0.60453        -1.74527
| 82>    H       -8.36904        -4.47778        -7.14603
| 83>    H       -5.72983        -4.70384        -6.92954
| 84>    H       -4.62315        -0.26116        -5.46573
| 85>    H       -1.99429        -0.35525        -5.72694
| 86>    H       -2.54350        -5.32783        -5.90675
| 87>    H       -5.10164        -4.84614        -4.27052
| 88>    H       -5.78997        -5.96453        -2.47265
| 89>    H       -6.42884        -7.59141        -2.13126
| 90>    H       -7.31794        -5.82593        -4.47474
| 91>    H       -8.21781        -6.07758        -2.97845
| 92>    H       -7.94926        -7.43040        -4.08057
| 93>    H       -1.32903        -9.25438        -8.08280
| 94>    H       -1.97223       -10.88712        -7.79180
| 95>    H        0.19438        -9.46014        -6.15507
| 96>    H        0.46411       -10.79253        -7.28018
| 97>    H       -0.43142       -11.06898        -5.78077
| 98>    H       -2.72185       -12.06362        -5.99827
| 99>    H       -4.80388       -11.45523        -3.82007
|100>    H       -5.74011       -13.59338        -2.70213
|101>    H       -4.27738       -18.03630        -4.11420
|102>    H       -2.35074       -16.92546        -6.22984
|103>    H       -0.98530       -21.70272        -7.66257
|104>    H       -3.74547       -20.27688        -4.65116
|105> *
|106>
|107>                          ****END OF INPUT****

CARTESIAN COORDINATES (ANGSTROEM)
---------------------------------
  C     -7.025080    1.193680   -3.228960
  S     -7.838090    0.483080   -4.567750
  C     -6.967110   -0.982680   -4.371360
  C     -6.115410   -0.924390   -3.254020
  C     -6.155050    0.347730   -2.624200
  C     -5.448910   -2.082650   -2.725650
  O     -5.714720   -3.246540   -2.944140
  C     -4.282660   -1.779470   -1.743380
  F     -4.711820   -1.344530   -0.548570
  F     -3.551630   -2.873390   -1.527580
  F     -3.454270   -0.839180   -2.226580
  C     -7.020860   -2.054330   -5.312840
  C     -8.121660   -2.661830   -5.898040
  N     -9.461460   -2.261400   -5.809100
  O    -10.318780   -3.066750   -6.117330
  O     -9.695540   -1.118210   -5.435350
  C     -7.697980   -3.842550   -6.600480
  C     -6.354220   -3.969780   -6.459310
  C     -5.859560   -2.855620   -5.695410
  C     -4.533940   -2.477330   -5.558570
  C     -4.024200   -1.149900   -5.508560
  C     -2.667640   -1.190080   -5.677750
  C     -2.249710   -2.551180   -5.768120
  N     -0.899300   -2.937850   -5.839580
  O     -0.622920   -4.119240   -5.717280
  O     -0.077550   -2.055900   -6.020130
  C     -3.367660   -3.381520   -5.665350
  C     -3.392690   -4.775770   -5.519060
  C     -4.372060   -5.430000   -4.812130
  C     -4.414390   -6.823300   -4.668020
  N     -5.245120   -7.480210   -3.791660
  C     -6.219530   -6.863520   -2.919500
  C     -7.507680   -6.527450   -3.665690
  C     -5.069090   -8.866500   -3.835390
  O     -5.680180   -9.656140   -3.142600
  C     -4.043140   -9.068330   -4.844710
  C     -3.667910   -7.808640   -5.337670
  C     -2.683710   -8.006390   -6.384320
  O     -2.120120   -7.238500   -7.129130
  N     -2.506780   -9.407190   -6.427990
  C     -1.537500  -10.004370   -7.314880
  C     -0.245670  -10.357480   -6.582500
  C     -3.305320  -10.054350   -5.523720
  C     -3.354400  -11.454680   -5.366300
  C     -4.171070  -12.059700   -4.458800
  C     -4.268300  -13.455450   -4.281130
  S     -3.339770  -14.600930   -5.225640
  C     -4.059610  -15.947080   -4.407790
  C     -4.973670  -15.505280   -3.445410
  C     -5.085510  -14.111670   -3.379880
  C     -5.702190  -16.396080   -2.635520
  N     -6.288960  -17.130530   -1.979770
  C     -3.749910  -17.298800   -4.703660
  C     -2.866920  -17.682770   -5.653370
  C     -2.551900  -19.035430   -5.973580
  S     -1.389600  -19.366520   -7.242600
  C     -1.557460  -21.040630   -7.043070
  C     -2.461390  -21.359900   -6.048850
  C     -3.023400  -20.206680   -5.443150
  C     -2.839960  -22.696300   -5.623710
  O     -3.620160  -22.959940   -4.746480
  C     -2.146190  -23.850480   -6.406590
  F     -0.807410  -23.797260   -6.282910
  F     -2.537420  -25.046430   -5.985260
  F     -2.409210  -23.781430   -7.724400
  H     -7.259120    2.199700   -2.942330
  H     -5.593530    0.604530   -1.745270
  H     -8.369040   -4.477780   -7.146030
  H     -5.729830   -4.703840   -6.929540
  H     -4.623150   -0.261160   -5.465730
  H     -1.994290   -0.355250   -5.726940
  H     -2.543500   -5.327830   -5.906750
  H     -5.101640   -4.846140   -4.270520
  H     -5.789970   -5.964530   -2.472650
  H     -6.428840   -7.591410   -2.131260
  H     -7.317940   -5.825930   -4.474740
  H     -8.217810   -6.077580   -2.978450
  H     -7.949260   -7.430400   -4.080570
  H     -1.329030   -9.254380   -8.082800
  H     -1.972230  -10.887120   -7.791800
  H      0.194380   -9.460140   -6.155070
  H      0.464110  -10.792530   -7.280180
  H     -0.431420  -11.068980   -5.780770
  H     -2.721850  -12.063620   -5.998270
  H     -4.803880  -11.455230   -3.820070
  H     -5.740110  -13.593380   -2.702130
  H     -4.277380  -18.036300   -4.114200
  H     -2.350740  -16.925460   -6.229840
  H     -0.985300  -21.702720   -7.662570
  H     -3.745470  -20.276880   -4.651160

 Total Charge           Charge          ....    0
 Multiplicity           Mult            ....    1
 Number of Electrons    NEL             ....  484
 Basis Dimension        Dim             .... 1047

ORBITAL ENERGIES
----------------

  NO   OCC          E(Eh)            E(eV)
   0   2.0000     -88.990541     -2421.5557
   1   2.0000     -88.988464     -2421.4992
   2   2.0000     -88.986875     -2421.4560
   3   2.0000     -24.818276      -675.3396
   4   2.0000     -24.816099      -675.2804
   5   2.0000     -24.813882      -675.2201
   6   2.0000     -24.813600      -675.2124
   7   2.0000     -24.810818      -675.1367
   8   2.0000     -24.809302      -675.0954
   9   2.0000     -19.251517      -523.8604
  10   2.0000     -19.247966      -523.7638
  11   2.0000     -19.247345      -523.7469
  12   2.0000     -19.244470      -523.6687
  13   2.0000     -19.225964      -523.1651
  14   2.0000     -19.225825      -523.1613
  15   2.0000     -19.207633      -522.6663
  16   2.0000     -19.195764      -522.3433
  17   2.0000     -14.654831      -398.7782
  18   2.0000     -14.635779      -398.2598
  19   2.0000     -14.466609      -393.6564
  20   2.0000     -14.458033      -393.4231
  21   2.0000     -14.415470      -392.2649
  22   2.0000     -10.527308      -286.4626
  23   2.0000     -10.523575      -286.3610
  24   2.0000     -10.402600      -283.0692
  25   2.0000     -10.395006      -282.8625
  26   2.0000     -10.388101      -282.6746
  27   2.0000     -10.380018      -282.4547
  28   2.0000     -10.356534      -281.8156
  29   2.0000     -10.346592      -281.5451
  30   2.0000     -10.341980      -281.4196
  31   2.0000     -10.341121      -281.3962
  32   2.0000     -10.339447      -281.3507
  33   2.0000     -10.335331      -281.2387
  34   2.0000     -10.331082      -281.1230
  35   2.0000     -10.331001      -281.1208
  36   2.0000     -10.330011      -281.0939
  37   2.0000     -10.328950      -281.0650
  38   2.0000     -10.328659      -281.0571
  39   2.0000     -10.327908      -281.0367
  40   2.0000     -10.319547      -280.8091
  41   2.0000     -10.319128      -280.7977
  42   2.0000     -10.318942      -280.7927
  43   2.0000     -10.317157      -280.7441
  44   2.0000     -10.315635      -280.7027
  45   2.0000     -10.314363      -280.6681
  46   2.0000     -10.313531      -280.6454
  47   2.0000     -10.312902      -280.6283
  48   2.0000     -10.311627      -280.5936
  49   2.0000     -10.309799      -280.5439
  50   2.0000     -10.309591      -280.5382
  51   2.0000     -10.305423      -280.4248
  52   2.0000     -10.305411      -280.4245
  53   2.0000     -10.303491      -280.3722
  54   2.0000     -10.301561      -280.3197
  55   2.0000     -10.301265      -280.3117
  56   2.0000     -10.301171      -280.3091
  57   2.0000     -10.298027      -280.2236
  58   2.0000     -10.296572      -280.1840
  59   2.0000     -10.292098      -280.0622
  60   2.0000     -10.284132      -279.8455
  61   2.0000     -10.278494      -279.6921
  62   2.0000     -10.272838      -279.5381
  63   2.0000     -10.272608      -279.5319
  64   2.0000     -10.259599      -279.1779
  65   2.0000      -8.086711      -220.0506
  66   2.0000      -8.083779      -219.9708
  67   2.0000      -8.081555      -219.9103
  68   2.0000      -6.055697      -164.7839
  69   2.0000      -6.052879      -164.7072
  70   2.0000      -6.051448      -164.6683
  71   2.0000      -6.050669      -164.6471
  72   2.0000      -6.049416      -164.6130
  73   2.0000      -6.049030      -164.6025
  74   2.0000      -6.046015      -164.5204
  75   2.0000      -6.045938      -164.5183
  76   2.0000      -6.044493      -164.4790
  77   2.0000      -1.404547       -38.2197
  78   2.0000      -1.402028       -38.1511
  79   2.0000      -1.325968       -36.0814
  80   2.0000      -1.308370       -35.6026
  81   2.0000      -1.305862       -35.5343
  82   2.0000      -1.305853       -35.5341
  83   2.0000      -1.305066       -35.5127
  84   2.0000      -1.304245       -35.4903
  85   2.0000      -1.166222       -31.7345
  86   2.0000      -1.161094       -31.5950
  87   2.0000      -1.147272       -31.2189
  88   2.0000      -1.143722       -31.1223
  89   2.0000      -1.135130       -30.8884
  90   2.0000      -1.123225       -30.5645
  91   2.0000      -1.076767       -29.3003
  92   2.0000      -1.064075       -28.9549
  93   2.0000      -1.026748       -27.9392
  94   2.0000      -1.025640       -27.9091
  95   2.0000      -1.015735       -27.6396
  96   2.0000      -1.007307       -27.4102
  97   2.0000      -0.995445       -27.0874
  98   2.0000      -0.995180       -27.0802
  99   2.0000      -0.942682       -25.6517
 100   2.0000      -0.936097       -25.4725
 101   2.0000      -0.921118       -25.0649
 102   2.0000      -0.917170       -24.9575
 103   2.0000      -0.912019       -24.8173
 104   2.0000      -0.890011       -24.2184
 105   2.0000      -0.887291       -24.1444
 106   2.0000      -0.884381       -24.0652
 107   2.0000      -0.880811       -23.9681
 108   2.0000      -0.875826       -23.8324
 109   2.0000      -0.874280       -23.7904
 110   2.0000      -0.866843       -23.5880
 111   2.0000      -0.845991       -23.0206
 112   2.0000      -0.838793       -22.8247
 113   2.0000      -0.827523       -22.5180
 114   2.0000      -0.826710       -22.4959
 115   2.0000      -0.819475       -22.2991
 116   2.0000      -0.815257       -22.1843
 117   2.0000      -0.795798       -21.6548
 118   2.0000      -0.790715       -21.5165
 119   2.0000      -0.766529       -20.8583
 120   2.0000      -0.765410       -20.8279
 121   2.0000      -0.757175       -20.6038
 122   2.0000      -0.743562       -20.2334
 123   2.0000      -0.731967       -19.9178
 124   2.0000      -0.731696       -19.9105
 125   2.0000      -0.723732       -19.6937
 126   2.0000      -0.716049       -19.4847
 127   2.0000      -0.705804       -19.2059
 128   2.0000      -0.701382       -19.0856
 129   2.0000      -0.700008       -19.0482
 130   2.0000      -0.693327       -18.8664
 131   2.0000      -0.690677       -18.7943
 132   2.0000      -0.687510       -18.7081
 133   2.0000      -0.686274       -18.6745
 134   2.0000      -0.685118       -18.6430
 135   2.0000      -0.684818       -18.6349
 136   2.0000      -0.680441       -18.5157
 137   2.0000      -0.672298       -18.2942
 138   2.0000      -0.662173       -18.0186
 139   2.0000      -0.659417       -17.9436
 140   2.0000      -0.656382       -17.8611
 141   2.0000      -0.649790       -17.6817
 142   2.0000      -0.643400       -17.5078
 143   2.0000      -0.635606       -17.2957
 144   2.0000      -0.632529       -17.2120
 145   2.0000      -0.628441       -17.1008
 146   2.0000      -0.624476       -16.9929
 147   2.0000      -0.617782       -16.8107
 148   2.0000      -0.616323       -16.7710
 149   2.0000      -0.614428       -16.7194
 150   2.0000      -0.607097       -16.5199
 151   2.0000      -0.596856       -16.2413
 152   2.0000      -0.594203       -16.1691
 153   2.0000      -0.594096       -16.1662
 154   2.0000      -0.581838       -15.8326
 155   2.0000      -0.576936       -15.6992
 156   2.0000      -0.575163       -15.6510
 157   2.0000      -0.573713       -15.6115
 158   2.0000      -0.571005       -15.5378
 159   2.0000      -0.567870       -15.4525
 160   2.0000      -0.565178       -15.3793
 161   2.0000      -0.564140       -15.3510
 162   2.0000      -0.563946       -15.3458
 163   2.0000      -0.562080       -15.2950
 164   2.0000      -0.554001       -15.0751
 165   2.0000      -0.552190       -15.0259
 166   2.0000      -0.549503       -14.9527
 167   2.0000      -0.543417       -14.7871
 168   2.0000      -0.539868       -14.6906
 169   2.0000      -0.537975       -14.6391
 170   2.0000      -0.536074       -14.5873
 171   2.0000      -0.535557       -14.5732
 172   2.0000      -0.535336       -14.5672
 173   2.0000      -0.533631       -14.5208
 174   2.0000      -0.530853       -14.4453
 175   2.0000      -0.528754       -14.3881
 176   2.0000      -0.526235       -14.3196
 177   2.0000      -0.525657       -14.3039
 178   2.0000      -0.523499       -14.2451
 179   2.0000      -0.518997       -14.1226
 180   2.0000      -0.514767       -14.0075
 181   2.0000      -0.514254       -13.9936
 182   2.0000      -0.513280       -13.9670
 183   2.0000      -0.512616       -13.9490
 184   2.0000      -0.511071       -13.9069
 185   2.0000      -0.510881       -13.9018
 186   2.0000      -0.508517       -13.8374
 187   2.0000      -0.505219       -13.7477
 188   2.0000      -0.501897       -13.6573
 189   2.0000      -0.500715       -13.6251
 190   2.0000      -0.500142       -13.6096
 191   2.0000      -0.497455       -13.5364
 192   2.0000      -0.494217       -13.4483
 193   2.0000      -0.493231       -13.4215
 194   2.0000      -0.487123       -13.2553
 195   2.0000      -0.486409       -13.2359
 196   2.0000      -0.486101       -13.2275
 197   2.0000      -0.483440       -13.1551
 198   2.0000      -0.481469       -13.1014
 199   2.0000      -0.478165       -13.0115
 200   2.0000      -0.472171       -12.8484
 201   2.0000      -0.470969       -12.8157
 202   2.0000      -0.469431       -12.7739
 203   2.0000      -0.465231       -12.6596
 204   2.0000      -0.463478       -12.6119
 205   2.0000      -0.461524       -12.5587
 206   2.0000      -0.458166       -12.4673
 207   2.0000      -0.452846       -12.3226
 208   2.0000      -0.450841       -12.2680
 209   2.0000      -0.447408       -12.1746
 210   2.0000      -0.445849       -12.1322
 211   2.0000      -0.443266       -12.0619
 212   2.0000      -0.441807       -12.0222
 213   2.0000      -0.438901       -11.9431
 214   2.0000      -0.437526       -11.9057
 215   2.0000      -0.432704       -11.7745
 216   2.0000      -0.425947       -11.5906
 217   2.0000      -0.423747       -11.5307
 218   2.0000      -0.419243       -11.4082
 219   2.0000      -0.395131       -10.7521
 220   2.0000      -0.388898       -10.5825
 221   2.0000      -0.386101       -10.5064
 222   2.0000      -0.380020       -10.3409
 223   2.0000      -0.377607       -10.2752
 224   2.0000      -0.373960       -10.1760
 225   2.0000      -0.368723       -10.0335
 226   2.0000      -0.364713        -9.9243
 227   2.0000      -0.364084        -9.9072
 228   2.0000      -0.359254        -9.7758
 229   2.0000      -0.354501        -9.6464
 230   2.0000      -0.352900        -9.6029
 231   2.0000      -0.352094        -9.5810
 232   2.0000      -0.350026        -9.5247
 233   2.0000      -0.342974        -9.3328
 234   2.0000      -0.341354        -9.2887
 235   2.0000      -0.336557        -9.1582
 236   2.0000      -0.335142        -9.1197
 237   2.0000      -0.326289        -8.8788
 238   2.0000      -0.307701        -8.3730
 239   2.0000      -0.291123        -7.9219
 240   2.0000      -0.282991        -7.7006
 241   2.0000      -0.237105        -6.4520
 242   0.0000      -0.138864        -3.7787
 243   0.0000      -0.099003        -2.6940
 244   0.0000      -0.075416        -2.0522
 245   0.0000      -0.062107        -1.6900
 246   0.0000      -0.048156        -1.3104

MULLIKEN ATOMIC CHARGES
-----------------------
   0 C :   -0.057539
   1 S :    0.251777
   2 C :   -0.221775
   3 C :    0.014434
   4 C :    0.035129
   5 C :    0.036222
   6 O :   -0.161789
   7 C :    0.480236
   8 F :   -0.161869
   9 F :   -0.138584
  10 F :   -0.156846
  11 C :    0.086075
  12 C :    0.068392
  13 N :    0.283458
  14 O :   -0.235785
  15 O :   -0.266980
  16 C :    0.014864
  17 C :    0.010455
  18 C :   -0.009468
  19 C :    0.019863
  20 C :    0.004446
  21 C :    0.025768
  22 C :    0.092919
  23 N :    0.273646
  24 O :   -0.249634
  25 O :   -0.258558
  26 C :    0.033144
  27 C :   -0.020501
  28 C :   -0.046674
  29 C :    0.126015
  30 N :   -0.249216
  31 C :    0.099251
  32 C :    0.009719
  33 C :    0.167385
  34 O :   -0.216009
  35 C :   -0.081437
  36 C :   -0.044385
  37 C :    0.151263
  38 O :   -0.170873
  39 N :   -0.258238
  40 C :    0.097762
  41 C :    0.000053
  42 C :    0.152080
  43 C :   -0.046477
  44 C :    0.045719
  45 C :   -0.045755
  46 S :    0.116908
  47 C :   -0.032996
  48 C :   -0.052764
  49 C :    0.030583
  50 C :   -0.190054
  51 N :    0.137830
  52 C :   -0.005420
  53 C :    0.075460
  54 C :   -0.101985
  55 S :    0.163828
  56 C :   -0.043262
  57 C :   -0.034155
  58 C :    0.007227
  59 C :    0.041675
  60 O :   -0.126683
  61 C :    0.471459
  62 F :   -0.170371
  63 F :   -0.129935
  64 F :   -0.170518
  65 H :    0.038478
  66 H :    0.013543
  67 H :    0.001193
  68 H :    0.008587
  69 H :   -0.008063
  70 H :    0.006529
  71 H :    0.044947
  72 H :    0.021998
  73 H :    0.037496
  74 H :    0.038359
  75 H :    0.014034
  76 H :    0.025159
  77 H :    0.022587
  78 H :    0.049259
  79 H :    0.022718
  80 H :    0.038145
  81 H :    0.026310
  82 H :    0.016519
  83 H :   -0.020087
  84 H :    0.026545
  85 H :    0.018707
  86 H :    0.020909
  87 H :   -0.005953
  88 H :    0.054732
  89 H :    0.018839
Sum of atomic charges:   -0.0000000

LOEWDIN ATOMIC CHARGES
----------------------
   0 C :   -0.177676
   1 S :    0.548824
   2 C :   -0.144699
   3 C :   -0.114203
   4 C :   -0.043963
   5 C :    0.050388
   6 O :   -0.120148
   7 C :    0.141323
   8 F :   -0.054785
   9 F :   -0.038979
  10 F :   -0.054573
  11 C :   -0.022241
  12 C :   -0.031341
  13 N :    0.285289
  14 O :   -0.198704
  15 O :   -0.231558
  16 C :   -0.010839
  17 C :   -0.021398
  18 C :    0.030168
  19 C :    0.048808
  20 C :   -0.060432
  21 C :    0.036248
  22 C :   -0.061546
  23 N :    0.283998
  24 O :   -0.213396
  25 O :   -0.222438
  26 C :    0.010316
  27 C :    0.023939
  28 C :   -0.005182
  29 C :    0.055924
  30 N :    0.008059
  31 C :    0.038778
  32 C :   -0.061268
  33 C :    0.075891
  34 O :   -0.207209
  35 C :   -0.122136
  36 C :   -0.092879
  37 C :    0.083519
  38 O :   -0.166051
  39 N :    0.000401
  40 C :    0.036871
  41 C :   -0.060496
  42 C :    0.089014
  43 C :   -0.064394
  44 C :    0.029819
  45 C :   -0.166997
  46 S :    0.449207
  47 C :   -0.124119
  48 C :   -0.105909
  49 C :    0.002272
  50 C :   -0.034509
  51 N :   -0.046909
  52 C :   -0.032970
  53 C :   -0.022662
  54 C :   -0.172288
  55 S :    0.482461
  56 C :   -0.146256
  57 C :   -0.117817
  58 C :   -0.011092
  59 C :    0.038662
  60 O :   -0.094565
  61 C :    0.139723
  62 F :   -0.062845
  63 F :   -0.030679
  64 F :   -0.062985
  65 H :    0.030252
  66 H :    0.034162
  67 H :    0.037468
  68 H :    0.035058
  69 H :    0.029422
  70 H :    0.040328
  71 H :    0.044391
  72 H :    0.033152
  73 H :    0.028654
  74 H :    0.036061
  75 H :    0.021478
  76 H :    0.032681
  77 H :    0.029151
  78 H :    0.039859
  79 H :    0.022832
  80 H :    0.035642
  81 H :    0.031971
  82 H :    0.021932
  83 H :    0.022022
  84 H :    0.046759
  85 H :    0.049511
  86 H :    0.045035
  87 H :    0.024746
  88 H :    0.030623
  89 H :    0.042046

  Mayer bond orders larger than 0.100000
B(  0-C ,  1-S ) :   1.1568 B(  0-C ,  4-C ) :   1.5632 B(  0-C , 65-H ) :   0.9664
B(  1-S ,  2-C ) :   1.2523 B(  2-C ,  3-C ) :   1.4012 B(  2-C , 11-C ) :   1.0816
B(  3-C ,  4-C ) :   1.2513 B(  3-C ,  5-C ) :   1.0022 B(  4-C , 66-H ) :   0.9796
B(  5-C ,  6-O ) :   2.0765 B(  5-C ,  7-C ) :   0.8801 B(  7-C ,  8-F ) :   1.1203
B(  7-C ,  9-F ) :   1.1889 B(  7-C , 10-F ) :   1.1480 B( 11-C , 12-C ) :   1.5508
B( 11-C , 18-C ) :   1.0750 B( 12-C , 13-N ) :   0.9466 B( 12-C , 16-C ) :   1.1426
B( 13-N , 14-O ) :   1.5453 B( 13-N , 15-O ) :   1.4587 B( 14-O , 15-O ) :   0.2638
B( 16-C , 17-C ) :   1.5514 B( 16-C , 67-H ) :   1.0160 B( 17-C , 18-C ) :   1.1559
B( 17-C , 68-H ) :   0.9977 B( 18-C , 19-C ) :   1.4298 B( 19-C , 20-C ) :   1.1996
B( 19-C , 26-C ) :   1.0030 B( 20-C , 21-C ) :   1.5024 B( 20-C , 69-H ) :   1.0048
B( 21-C , 22-C ) :   1.1640 B( 21-C , 70-H ) :   1.0130 B( 22-C , 23-N ) :   0.9538
B( 22-C , 26-C ) :   1.4443 B( 23-N , 24-O ) :   1.5004 B( 23-N , 25-O ) :   1.5201
B( 24-O , 25-O ) :   0.2567 B( 26-C , 27-C ) :   1.2434 B( 27-C , 28-C ) :   1.4601
B( 27-C , 71-H ) :   0.9380 B( 28-C , 29-C ) :   1.2297 B( 28-C , 72-H ) :   0.9327
B( 29-C , 30-N ) :   1.1581 B( 29-C , 36-C ) :   1.2911 B( 30-N , 31-C ) :   0.9338
B( 30-N , 33-C ) :   1.0837 B( 31-C , 32-C ) :   1.1221 B( 31-C , 73-H ) :   0.9449
B( 31-C , 74-H ) :   0.9293 B( 32-C , 75-H ) :   0.9677 B( 32-C , 76-H ) :   0.9652
B( 32-C , 77-H ) :   0.9608 B( 33-C , 34-O ) :   2.0120 B( 33-C , 35-C ) :   0.9860
B( 34-O , 84-H ) :   0.1243 B( 35-C , 36-C ) :   1.3015 B( 35-C , 42-C ) :   1.2803
B( 36-C , 37-C ) :   0.9675 B( 37-C , 38-O ) :   2.1021 B( 37-C , 39-N ) :   1.0326
B( 39-N , 40-C ) :   0.9427 B( 39-N , 42-C ) :   1.1811 B( 40-C , 41-C ) :   1.1189
B( 40-C , 78-H ) :   0.9280 B( 40-C , 79-H ) :   0.9501 B( 41-C , 80-H ) :   0.9640
B( 41-C , 81-H ) :   0.9682 B( 41-C , 82-H ) :   0.9688 B( 42-C , 43-C ) :   1.2003
B( 43-C , 44-C ) :   1.5415 B( 43-C , 83-H ) :   0.9584 B( 44-C , 45-C ) :   1.1800
B( 44-C , 84-H ) :   0.9468 B( 45-C , 46-S ) :   1.0819 B( 45-C , 49-C ) :   1.4497
B( 46-S , 47-C ) :   1.1324 B( 47-C , 48-C ) :   1.4339 B( 47-C , 52-C ) :   1.1957
B( 48-C , 49-C ) :   1.2706 B( 48-C , 50-C ) :   1.0994 B( 49-C , 85-H ) :   1.0119
B( 50-C , 51-N ) :   3.0216 B( 52-C , 53-C ) :   1.6750 B( 52-C , 86-H ) :   0.9607
B( 53-C , 54-C ) :   1.1097 B( 53-C , 87-H ) :   0.9625 B( 54-C , 55-S ) :   1.1162
B( 54-C , 58-C ) :   1.5198 B( 55-S , 56-C ) :   1.2254 B( 56-C , 57-C ) :   1.5074
B( 56-C , 88-H ) :   0.9384 B( 57-C , 58-C ) :   1.2470 B( 57-C , 59-C ) :   0.9501
B( 58-C , 89-H ) :   1.0026 B( 59-C , 60-O ) :   2.2300 B( 59-C , 61-C ) :   0.8799
B( 61-C , 62-F ) :   1.1234 B( 61-C , 63-F ) :   1.1974 B( 61-C , 64-F ) :   1.1245

-----------------------------------------------------------------------------
         ABSORPTION SPECTRUM VIA TRANSITION ELECTRIC DIPOLE MOMENTS
-----------------------------------------------------------------------------
State   Energy  Wavelength   fosc         T2         TX        TY        TZ
        (cm-1)    (nm)                  (au**2)     (au)      (au)      (au)
-----------------------------------------------------------------------------
   0    5899.5   1695.1   0.283974436  15.84673  -0.87164   3.88420  -0.00159
   1   13896.2    719.6   0.099531883   2.35799   0.07501   1.50216  -0.30964
   2   15219.0    657.1   0.436438134   9.44088  -0.05935   3.04293   0.42180
   3   17358.0    576.1   0.007628584   0.14468   0.05998   0.20892   0.31215
   4   19834.7    504.2   0.040640811   0.67455  -0.38881   0.57643   0.43715
   5   20727.9    482.4   0.357643877   5.68029  -0.02551  -2.38030   0.11760
   6   22634.2    441.8   0.054873757   0.79813   0.12630  -0.88420  -0.01928
   7   23317.9    428.9   0.015228497   0.21500  -0.01206  -0.44937  -0.11368
   8   24661.6    405.5   0.023252879   0.31041   0.53277   0.10217   0.12697
   9   24900.0    401.6   0.043790970   0.57898  -0.72733   0.16069   0.15540
  10   25231.6    396.3   0.062121132   0.81053   0.48003   0.06805   0.75860
  11   25481.2    392.4   0.028957542   0.37413  -0.06450   0.24471   0.55685
  12   25984.1    384.9   0.101476995   1.28569  -0.93591   0.50910   0.38805
  13   26586.4    376.1   0.060430930   0.74830  -0.24895   0.82827  -0.01713
  14   26863.6    372.3   0.352993113   4.32591  -0.52207   2.00643   0.16615
  15   28284.7    353.5   0.017209032   0.20030  -0.40832   0.16394   0.08184
  16   28630.0    349.3   0.012766435   0.14680   0.24579   0.09566   0.27792
  17   28980.2    345.1   0.005356009   0.06084  -0.06684  -0.14964   0.18435
  18   29252.5    341.9   0.270194191   3.04080   1.54787   0.79493  -0.11407
  19   29769.7    335.9   0.037257199   0.41201  -0.20831  -0.60687  -0.01821
  20   29972.8    333.6   0.063338564   0.69569  -0.70368  -0.44780   0.00164
  21   30454.1    328.4   0.048942563   0.52907   0.16947   0.70726   0.01178
  22   30598.8    326.8   0.007004164   0.07536  -0.10362  -0.25395   0.01131
  23   30710.1    325.6   0.035799929   0.38377  -0.34766  -0.51038  -0.04912
  24   31172.9    320.8   0.014881426   0.15716  -0.21790  -0.29337  -0.15367
  25   31566.0    316.8   0.156714405   1.63442   1.03767   0.71702  -0.20865
  26   31939.6    313.1   0.286169780   2.94965  -1.45604  -0.52377  -0.74516
  27   32384.0    308.8   0.040252754   0.40920  -0.06741  -0.09991   0.62823
  28   32747.9    305.4   0.011305745   0.11366   0.11947   0.14134  -0.28179
  29   33150.1    301.7   0.008040524   0.07985  -0.25115   0.00106  -0.12951
  30   33292.0    300.4   0.023580901   0.23318   0.13358  -0.03444  -0.46277
  31   33594.8    297.7   0.227194322   2.22639  -1.37787   0.19146   0.53963
  32   33942.7    294.6   0.102339456   0.99260   0.43172  -0.50726  -0.74088
  33   34587.6    289.1   0.028306475   0.26943  -0.36548  -0.09096  -0.35718
  34   35002.7    285.7   0.193938908   1.82406  -1.16695   0.11610   0.66994
  35   35408.7    282.4   0.010962655   0.10193  -0.10760  -0.16895   0.24860
  36   36035.3    277.5   0.003728429   0.03406   0.07738  -0.16596   0.02308
  37   36039.8    277.5   0.017174760   0.15689  -0.25296   0.26333  -0.15347
  38   36486.0    274.1   0.006446528   0.05817  -0.21563   0.05804   0.09112
  39   36512.5    273.9   0.001781521   0.01606  -0.07419   0.00087   0.10275
  40   36631.9    273.0   0.010613385   0.09538  -0.30452  -0.05148   0.00028
  41   36960.0    270.6   0.112502501   1.00209  -0.95490  -0.23041   0.19277
  42   37083.0    269.7   0.013506979   0.11991   0.21391  -0.20943  -0.17405
  43   37307.2    268.0   0.040836903   0.36036  -0.45231  -0.01055   0.39454
  44   37817.9    264.4   0.021504046   0.18720  -0.30111   0.06967   0.30278
  45   38581.5    259.2   0.009486322   0.08095   0.18624   0.12616  -0.17420
  46   38700.7    258.4   0.093564323   0.79592   0.79062  -0.37066   0.18288
  47   38994.2    256.4   0.102734631   0.86735   0.87530   0.26174   0.18081
  48   39465.5    253.4   0.014784303   0.12333  -0.22602   0.25124   0.09550
  49   39620.5    252.4   0.009804589   0.08147   0.10372  -0.24560  -0.10192
  50   39827.9    251.1   0.008312664   0.06871  -0.09548   0.24042  -0.04234
  51   40015.3    249.9   0.027451369   0.22585  -0.14143   0.05866   0.44989
  52   40208.0    248.7   0.060517615   0.49550  -0.44816  -0.19095   0.50813

FINAL SINGLE POINT ENERGY     -4318.461204142457

DIPOLE MOMENT
-------------
                                X             Y             Z
Electronic contribution:      6.75710     -35.67275       6.66806
Nuclear contribution   :     -6.01008      36.40687      -7.99192
                        -----------------------------------------
Total Dipole Moment    :      0.74702       0.73412      -1.32386
                        -----------------------------------------
Magnitude (a.u.)       :      1.68807
Magnitude (Debye)      :      4.29072

Rotational constants in cm-1:     0.002725     0.000269     0.000259
Rotational constants in MHz :    81.691404     8.052216     7.771283

                             ****ORCA TERMINATED NORMALLY****
TOTAL RUN TIME: 0 days 0 hours 9 minutes 43 seconds 371 msec
