                         Program Version 4.2.0 -  RELEASE  -
|  1> # ORCA input file
|  2> # SCF done       -190.835444128546          0.000753639888
|  3> ! CAM-B3LYP def2-SVP def2/J RIJCOSX Grid4 TightSCF
|  4> %maxcore 5000
|  5> %tddft
|  6>     Mode sTDDFT
|  7>     Ethresh 5.0
|  8>     maxcore 5000
|  9> end
| 10>
| 11> %pal
| 12>   nprocs 6
| 13>   end
| 14> * xyz 0 1
| 15>    C       -2.40255         1.78766        -3.38584
| 16>    C       -1.33087         0.95520        -3.67117
| 17>    C       -0.65592         0.37903        -2.61364
| 18>    C       -1.03967         0.64053        -1.29464
| 19>    C       -0.12698        -0.11078        -0.39461
| 20>    O       -0.10621        -0.15891         0.80846
| 21>    N        0.75142        -0.77558        -1.23612
| 22>    C        0.50455        -0.54114        -2.58244
| 23>    O        1.13935        -1.00906        -3.49317
| 24>    C        1.79070        -1.66426        -0.76129
| 25>    C        1.27000        -3.08905        -0.60894
| 26>    C       -2.09618         1.47051        -1.00703
| 27>    C       -2.80644         2.05260        -2.07197
| 28>    C       -3.92976         2.91264        -1.75395
| 29>    C       -4.87045         3.33247        -2.61462
| 30>    C       -6.00293         4.17219        -2.28623
| 31>    C       -6.11347         4.87148        -1.08373
| 32>    C       -7.22498         5.64943        -0.81429
| 33>    N       -7.17081         6.46138         0.37904
| 34>    O       -6.59701         5.99862         1.33936
| 35>    O       -7.65103         7.57348         0.32307
| 36>    C       -8.29963         5.74129        -1.71335
| 37>    C       -8.15125         5.08463        -2.93935
| 38>    C       -7.03734         4.32649        -3.21961
| 39>    C       -9.54773         6.41423        -1.41382
| 40>    C      -10.16439         6.34046        -0.21930
| 41>    C      -11.41850         6.90197         0.16617
| 42>    N      -12.10572         7.94798        -0.39848
| 43>    C      -11.68748         8.82527        -1.46498
| 44>    C      -12.26773         8.39558        -2.81144
| 45>    C      -13.32878         8.19226         0.27035
| 46>    O      -14.09863         9.07304        -0.04782
| 47>    C      -13.36335         7.20159         1.32025
| 48>    C      -12.17304         6.43978         1.23700
| 49>    C      -12.21365         5.44492         2.28045
| 50>    O      -11.44484         4.56393         2.60054
| 51>    N      -13.44612         5.67819         2.94093
| 52>    C      -13.76838         4.90437         4.11423
| 53>    C      -13.56393         5.70445         5.39876
| 54>    C      -14.13915         6.72242         2.36957
| 55>    C      -15.42682         7.25742         2.66379
| 56>    C      -16.33751         6.86366         3.57916
| 57>    C      -17.65164         7.43676         3.75240
| 58>    C      -18.15959         8.46675         2.95575
| 59>    C      -19.44246         8.94073         3.15643
| 60>    N      -19.94132         9.90239         2.20005
| 61>    O      -19.18681        10.77899         1.84636
| 62>    O      -21.06865         9.73938         1.78359
| 63>    C      -20.27068         8.44777         4.17536
| 64>    C      -19.76142         7.40516         4.95283
| 65>    C      -18.49221         6.91404         4.74751
| 66>    C      -21.58461         9.00248         4.45793
| 67>    C      -21.85558        10.31210         4.50061
| 68>    C      -23.16674        10.87543         4.78106
| 69>    C      -23.22889        12.02929         5.57470
| 70>    C      -24.46071        12.54343         5.90229
| 71>    C      -25.63531        11.94310         5.43419
| 72>    C      -26.78548        12.72804         5.94238
| 73>    O      -27.96661        12.55810         5.77486
| 74>    N      -26.22671        13.75928         6.68396
| 75>    C      -24.83942        13.72064         6.71847
| 76>    O      -24.14066        14.50994         7.30206
| 77>    C      -27.01363        14.75017         7.38610
| 78>    C      -27.37441        14.27629         8.78958
| 79>    C      -25.59154        10.83596         4.62038
| 80>    C      -24.34729        10.28813         4.28086
| 81>    C      -24.29061         9.17332         3.33773
| 82>    C      -25.19329         8.20329         3.26611
| 83>    H       -2.92758         2.25432        -4.20459
| 84>    H       -1.02717         0.76206        -4.68823
| 85>    H        2.13541        -1.28012         0.20175
| 86>    H        2.60506        -1.63158        -1.48899
| 87>    H        0.45001        -3.11469         0.10510
| 88>    H        2.06608        -3.73544        -0.25080
| 89>    H        0.91798        -3.46483        -1.56695
| 90>    H       -2.37899         1.66294         0.01689
| 91>    H       -4.00174         3.18824        -0.71071
| 92>    H       -4.83819         3.00707        -3.64558
| 93>    H       -5.32083         4.85066        -0.35179
| 94>    H       -8.94709         5.15648        -3.66555
| 95>    H       -6.96350         3.82591        -4.17390
| 96>    H      -10.02006         6.89503        -2.25633
| 97>    H       -9.73472         5.72707         0.56418
| 98>    H      -10.59666         8.86648        -1.48357
| 99>    H      -12.07486         9.81945        -1.22080
|100>    H      -12.01133         7.36381        -3.04433
|101>    H      -11.89046         9.04111        -3.59986
|102>    H      -13.35113         8.47854        -2.78228
|103>    H      -13.07570         4.05670         4.10273
|104>    H      -14.78741         4.51585         4.03751
|105>    H      -12.52069         5.99769         5.48518
|106>    H      -13.82393         5.09406         6.25940
|107>    H      -14.17489         6.60441         5.40585
|108>    H      -15.66155         8.08460         2.00662
|109>    H      -16.12309         6.04804         4.25203
|110>    H      -17.57695         8.89391         2.15417
|111>    H      -20.37777         6.99658         5.73941
|112>    H      -18.13092         6.10761         5.36912
|113>    H      -22.35391         8.28467         4.70827
|114>    H      -21.05626        11.03397         4.37960
|115>    H      -22.32418        12.49367         5.93719
|116>    H      -27.91909        14.92486         6.79981
|117>    H      -26.41809        15.66499         7.43379
|118>    H      -27.95339        13.35706         8.73740
|119>    H      -27.96678        15.03483         9.29324
|120>    H      -26.47171        14.09475         9.36846
|121>    H      -26.50099        10.41042         4.22618
|122>    H      -23.44722         9.18190         2.65890
|123>    H      -26.02461         8.13850         3.94903
|124>    H      -25.11798         7.42057         2.53139
|125> *
|126>
|127>                          ****END OF INPUT****

CARTESIAN COORDINATES (ANGSTROEM)
---------------------------------
  C     -2.402550    1.787660   -3.385840
  C     -1.330870    0.955200   -3.671170
  C     -0.655920    0.379030   -2.613640
  C     -1.039670    0.640530   -1.294640
  C     -0.126980   -0.110780   -0.394610
  O     -0.106210   -0.158910    0.808460
  N      0.751420   -0.775580   -1.236120
  C      0.504550   -0.541140   -2.582440
  O      1.139350   -1.009060   -3.493170
  C      1.790700   -1.664260   -0.761290
  C      1.270000   -3.089050   -0.608940
  C     -2.096180    1.470510   -1.007030
  C     -2.806440    2.052600   -2.071970
  C     -3.929760    2.912640   -1.753950
  C     -4.870450    3.332470   -2.614620
  C     -6.002930    4.172190   -2.286230
  C     -6.113470    4.871480   -1.083730
  C     -7.224980    5.649430   -0.814290
  N     -7.170810    6.461380    0.379040
  O     -6.597010    5.998620    1.339360
  O     -7.651030    7.573480    0.323070
  C     -8.299630    5.741290   -1.713350
  C     -8.151250    5.084630   -2.939350
  C     -7.037340    4.326490   -3.219610
  C     -9.547730    6.414230   -1.413820
  C    -10.164390    6.340460   -0.219300
  C    -11.418500    6.901970    0.166170
  N    -12.105720    7.947980   -0.398480
  C    -11.687480    8.825270   -1.464980
  C    -12.267730    8.395580   -2.811440
  C    -13.328780    8.192260    0.270350
  O    -14.098630    9.073040   -0.047820
  C    -13.363350    7.201590    1.320250
  C    -12.173040    6.439780    1.237000
  C    -12.213650    5.444920    2.280450
  O    -11.444840    4.563930    2.600540
  N    -13.446120    5.678190    2.940930
  C    -13.768380    4.904370    4.114230
  C    -13.563930    5.704450    5.398760
  C    -14.139150    6.722420    2.369570
  C    -15.426820    7.257420    2.663790
  C    -16.337510    6.863660    3.579160
  C    -17.651640    7.436760    3.752400
  C    -18.159590    8.466750    2.955750
  C    -19.442460    8.940730    3.156430
  N    -19.941320    9.902390    2.200050
  O    -19.186810   10.778990    1.846360
  O    -21.068650    9.739380    1.783590
  C    -20.270680    8.447770    4.175360
  C    -19.761420    7.405160    4.952830
  C    -18.492210    6.914040    4.747510
  C    -21.584610    9.002480    4.457930
  C    -21.855580   10.312100    4.500610
  C    -23.166740   10.875430    4.781060
  C    -23.228890   12.029290    5.574700
  C    -24.460710   12.543430    5.902290
  C    -25.635310   11.943100    5.434190
  C    -26.785480   12.728040    5.942380
  O    -27.966610   12.558100    5.774860
  N    -26.226710   13.759280    6.683960
  C    -24.839420   13.720640    6.718470
  O    -24.140660   14.509940    7.302060
  C    -27.013630   14.750170    7.386100
  C    -27.374410   14.276290    8.789580
  C    -25.591540   10.835960    4.620380
  C    -24.347290   10.288130    4.280860
  C    -24.290610    9.173320    3.337730
  C    -25.193290    8.203290    3.266110
  H     -2.927580    2.254320   -4.204590
  H     -1.027170    0.762060   -4.688230
  H      2.135410   -1.280120    0.201750
  H      2.605060   -1.631580   -1.488990
  H      0.450010   -3.114690    0.105100
  H      2.066080   -3.735440   -0.250800
  H      0.917980   -3.464830   -1.566950
  H     -2.378990    1.662940    0.016890
  H     -4.001740    3.188240   -0.710710
  H     -4.838190    3.007070   -3.645580
  H     -5.320830    4.850660   -0.351790
  H     -8.947090    5.156480   -3.665550
  H     -6.963500    3.825910   -4.173900
  H    -10.020060    6.895030   -2.256330
  H     -9.734720    5.727070    0.564180
  H    -10.596660    8.866480   -1.483570
  H    -12.074860    9.819450   -1.220800
  H    -12.011330    7.363810   -3.044330
  H    -11.890460    9.041110   -3.599860
  H    -13.351130    8.478540   -2.782280
  H    -13.075700    4.056700    4.102730
  H    -14.787410    4.515850    4.037510
  H    -12.520690    5.997690    5.485180
  H    -13.823930    5.094060    6.259400
  H    -14.174890    6.604410    5.405850
  H    -15.661550    8.084600    2.006620
  H    -16.123090    6.048040    4.252030
  H    -17.576950    8.893910    2.154170
  H    -20.377770    6.996580    5.739410
  H    -18.130920    6.107610    5.369120
  H    -22.353910    8.284670    4.708270
  H    -21.056260   11.033970    4.379600
  H    -22.324180   12.493670    5.937190
  H    -27.919090   14.924860    6.799810
  H    -26.418090   15.664990    7.433790
  H    -27.953390   13.357060    8.737400
  H    -27.966780   15.034830    9.293240
  H    -26.471710   14.094750    9.368460
  H    -26.500990   10.410420    4.226180
  H    -23.447220    9.181900    2.658900
  H    -26.024610    8.138500    3.949030
  H    -25.117980    7.420570    2.531390

 Total Charge           Charge          ....    0
 Multiplicity           Mult            ....    1
 Number of Electrons    NEL             ....  476
 Basis Dimension        Dim             .... 1162

ORBITAL ENERGIES
----------------

  NO   OCC          E(Eh)            E(eV)
   0   2.0000     -19.249695      -523.8108
   1   2.0000     -19.248194      -523.7700
   2   2.0000     -19.248028      -523.7655
   3   2.0000     -19.246379      -523.7206
   4   2.0000     -19.210248      -522.7374
   5   2.0000     -19.209952      -522.7294
   6   2.0000     -19.204377      -522.5777
   7   2.0000     -19.204329      -522.5763
   8   2.0000     -19.191256      -522.2206
   9   2.0000     -19.189158      -522.1635
  10   2.0000     -14.652640      -398.7186
  11   2.0000     -14.652262      -398.7083
  12   2.0000     -14.454347      -393.3228
  13   2.0000     -14.453438      -393.2980
  14   2.0000     -14.450942      -393.2301
  15   2.0000     -14.445508      -393.0823
  16   2.0000     -10.389951      -282.7250
  17   2.0000     -10.389765      -282.7199
  18   2.0000     -10.384198      -282.5684
  19   2.0000     -10.383964      -282.5620
  20   2.0000     -10.374129      -282.2944
  21   2.0000     -10.373308      -282.2721
  22   2.0000     -10.341653      -281.4107
  23   2.0000     -10.341594      -281.4091
  24   2.0000     -10.338787      -281.3327
  25   2.0000     -10.337031      -281.2849
  26   2.0000     -10.316476      -280.7256
  27   2.0000     -10.313636      -280.6483
  28   2.0000     -10.308487      -280.5082
  29   2.0000     -10.308126      -280.4984
  30   2.0000     -10.308009      -280.4952
  31   2.0000     -10.306557      -280.4557
  32   2.0000     -10.305584      -280.4292
  33   2.0000     -10.305466      -280.4260
  34   2.0000     -10.304533      -280.4006
  35   2.0000     -10.304201      -280.3916
  36   2.0000     -10.302249      -280.3384
  37   2.0000     -10.301445      -280.3166
  38   2.0000     -10.301406      -280.3155
  39   2.0000     -10.300973      -280.3037
  40   2.0000     -10.300097      -280.2799
  41   2.0000     -10.299725      -280.2698
  42   2.0000     -10.298630      -280.2400
  43   2.0000     -10.297842      -280.2185
  44   2.0000     -10.297795      -280.2173
  45   2.0000     -10.297752      -280.2161
  46   2.0000     -10.297039      -280.1967
  47   2.0000     -10.296768      -280.1893
  48   2.0000     -10.296697      -280.1874
  49   2.0000     -10.296265      -280.1756
  50   2.0000     -10.295495      -280.1547
  51   2.0000     -10.295466      -280.1539
  52   2.0000     -10.295332      -280.1502
  53   2.0000     -10.294458      -280.1264
  54   2.0000     -10.291412      -280.0436
  55   2.0000     -10.289882      -280.0019
  56   2.0000     -10.289049      -279.9792
  57   2.0000     -10.288807      -279.9727
  58   2.0000     -10.287484      -279.9367
  59   2.0000     -10.287079      -279.9256
  60   2.0000     -10.274163      -279.5742
  61   2.0000     -10.266419      -279.3635
  62   2.0000     -10.265308      -279.3332
  63   2.0000     -10.264298      -279.3057
  64   2.0000     -10.261631      -279.2332
  65   2.0000     -10.260611      -279.2054
  66   2.0000     -10.257716      -279.1267
  67   2.0000     -10.253914      -279.0232
  68   2.0000      -1.329640       -36.1813
  69   2.0000      -1.328613       -36.1534
  70   2.0000      -1.156058       -31.4579
  71   2.0000      -1.150193       -31.2983
  72   2.0000      -1.148781       -31.2599
  73   2.0000      -1.147567       -31.2269
  74   2.0000      -1.133038       -30.8315
  75   2.0000      -1.132561       -30.8186
  76   2.0000      -1.126618       -30.6568
  77   2.0000      -1.126174       -30.6448
  78   2.0000      -1.062895       -28.9228
  79   2.0000      -1.053803       -28.6755
  80   2.0000      -1.046870       -28.4868
  81   2.0000      -1.041014       -28.3274
  82   2.0000      -0.998575       -27.1726
  83   2.0000      -0.996770       -27.1235
  84   2.0000      -0.979342       -26.6493
  85   2.0000      -0.976239       -26.5648
  86   2.0000      -0.935815       -25.4648
  87   2.0000      -0.934038       -25.4165
  88   2.0000      -0.929340       -25.2886
  89   2.0000      -0.915717       -24.9179
  90   2.0000      -0.912555       -24.8319
  91   2.0000      -0.906291       -24.6614
  92   2.0000      -0.899372       -24.4732
  93   2.0000      -0.892968       -24.2989
  94   2.0000      -0.885922       -24.1072
  95   2.0000      -0.877892       -23.8887
  96   2.0000      -0.871466       -23.7138
  97   2.0000      -0.867081       -23.5945
  98   2.0000      -0.853747       -23.2316
  99   2.0000      -0.849984       -23.1293
 100   2.0000      -0.835495       -22.7350
 101   2.0000      -0.826071       -22.4785
 102   2.0000      -0.821693       -22.3594
 103   2.0000      -0.817251       -22.2385
 104   2.0000      -0.806749       -21.9528
 105   2.0000      -0.798474       -21.7276
 106   2.0000      -0.791274       -21.5317
 107   2.0000      -0.781231       -21.2584
 108   2.0000      -0.761610       -20.7245
 109   2.0000      -0.760151       -20.6848
 110   2.0000      -0.754428       -20.5290
 111   2.0000      -0.751092       -20.4383
 112   2.0000      -0.749574       -20.3970
 113   2.0000      -0.733054       -19.9474
 114   2.0000      -0.727558       -19.7979
 115   2.0000      -0.713326       -19.4106
 116   2.0000      -0.712118       -19.3777
 117   2.0000      -0.711292       -19.3552
 118   2.0000      -0.703406       -19.1406
 119   2.0000      -0.698184       -18.9986
 120   2.0000      -0.695404       -18.9229
 121   2.0000      -0.690849       -18.7989
 122   2.0000      -0.685004       -18.6399
 123   2.0000      -0.674165       -18.3450
 124   2.0000      -0.670248       -18.2384
 125   2.0000      -0.664010       -18.0686
 126   2.0000      -0.662249       -18.0207
 127   2.0000      -0.654518       -17.8103
 128   2.0000      -0.651522       -17.7288
 129   2.0000      -0.644466       -17.5368
 130   2.0000      -0.641138       -17.4462
 131   2.0000      -0.638984       -17.3876
 132   2.0000      -0.632217       -17.2035
 133   2.0000      -0.626494       -17.0478
 134   2.0000      -0.617754       -16.8099
 135   2.0000      -0.606874       -16.5139
 136   2.0000      -0.605253       -16.4698
 137   2.0000      -0.604026       -16.4364
 138   2.0000      -0.601599       -16.3703
 139   2.0000      -0.593143       -16.1402
 140   2.0000      -0.591558       -16.0971
 141   2.0000      -0.590503       -16.0684
 142   2.0000      -0.587438       -15.9850
 143   2.0000      -0.584591       -15.9075
 144   2.0000      -0.581176       -15.8146
 145   2.0000      -0.577549       -15.7159
 146   2.0000      -0.573705       -15.6113
 147   2.0000      -0.571302       -15.5459
 148   2.0000      -0.567833       -15.4515
 149   2.0000      -0.567306       -15.4372
 150   2.0000      -0.563705       -15.3392
 151   2.0000      -0.558409       -15.1951
 152   2.0000      -0.553041       -15.0490
 153   2.0000      -0.550678       -14.9847
 154   2.0000      -0.549405       -14.9501
 155   2.0000      -0.545085       -14.8325
 156   2.0000      -0.539005       -14.6671
 157   2.0000      -0.538818       -14.6620
 158   2.0000      -0.537199       -14.6179
 159   2.0000      -0.535018       -14.5586
 160   2.0000      -0.532598       -14.4927
 161   2.0000      -0.530931       -14.4474
 162   2.0000      -0.529173       -14.3995
 163   2.0000      -0.526506       -14.3270
 164   2.0000      -0.524755       -14.2793
 165   2.0000      -0.523880       -14.2555
 166   2.0000      -0.519540       -14.1374
 167   2.0000      -0.518856       -14.1188
 168   2.0000      -0.517217       -14.0742
 169   2.0000      -0.515244       -14.0205
 170   2.0000      -0.510258       -13.8848
 171   2.0000      -0.507207       -13.8018
 172   2.0000      -0.506270       -13.7763
 173   2.0000      -0.503278       -13.6949
 174   2.0000      -0.501218       -13.6388
 175   2.0000      -0.496956       -13.5229
 176   2.0000      -0.496130       -13.5004
 177   2.0000      -0.493403       -13.4262
 178   2.0000      -0.487968       -13.2783
 179   2.0000      -0.484859       -13.1937
 180   2.0000      -0.481362       -13.0985
 181   2.0000      -0.480441       -13.0735
 182   2.0000      -0.478865       -13.0306
 183   2.0000      -0.475762       -12.9461
 184   2.0000      -0.473274       -12.8784
 185   2.0000      -0.472353       -12.8534
 186   2.0000      -0.467958       -12.7338
 187   2.0000      -0.466746       -12.7008
 188   2.0000      -0.464942       -12.6517
 189   2.0000      -0.464178       -12.6309
 190   2.0000      -0.462855       -12.5949
 191   2.0000      -0.460281       -12.5249
 192   2.0000      -0.458485       -12.4760
 193   2.0000      -0.457320       -12.4443
 194   2.0000      -0.453753       -12.3472
 195   2.0000      -0.452791       -12.3211
 196   2.0000      -0.450936       -12.2706
 197   2.0000      -0.448696       -12.2096
 198   2.0000      -0.447347       -12.1729
 199   2.0000      -0.445932       -12.1344
 200   2.0000      -0.441715       -12.0197
 201   2.0000      -0.440563       -11.9883
 202   2.0000      -0.437229       -11.8976
 203   2.0000      -0.435159       -11.8413
 204   2.0000      -0.429090       -11.6761
 205   2.0000      -0.425737       -11.5849
 206   2.0000      -0.424832       -11.5603
 207   2.0000      -0.422962       -11.5094
 208   2.0000      -0.420484       -11.4419
 209   2.0000      -0.412899       -11.2356
 210   2.0000      -0.407630       -11.0922
 211   2.0000      -0.393039       -10.6951
 212   2.0000      -0.391546       -10.6545
 213   2.0000      -0.387279       -10.5384
 214   2.0000      -0.386579       -10.5193
 215   2.0000      -0.383051       -10.4233
 216   2.0000      -0.378947       -10.3117
 217   2.0000      -0.373454       -10.1622
 218   2.0000      -0.368218       -10.0197
 219   2.0000      -0.366585        -9.9753
 220   2.0000      -0.364065        -9.9067
 221   2.0000      -0.357969        -9.7408
 222   2.0000      -0.350010        -9.5243
 223   2.0000      -0.349158        -9.5011
 224   2.0000      -0.347937        -9.4678
 225   2.0000      -0.347260        -9.4494
 226   2.0000      -0.341835        -9.3018
 227   2.0000      -0.341626        -9.2961
 228   2.0000      -0.337896        -9.1946
 229   2.0000      -0.335823        -9.1382
 230   2.0000      -0.333725        -9.0811
 231   2.0000      -0.330779        -9.0010
 232   2.0000      -0.329555        -8.9677
 233   2.0000      -0.316433        -8.6106
 234   2.0000      -0.313467        -8.5299
 235   2.0000      -0.290553        -7.9063
 236   2.0000      -0.286464        -7.7951
 237   2.0000      -0.240884        -6.5548
 238   0.0000      -0.092006        -2.5036
 239   0.0000      -0.065236        -1.7752
 240   0.0000      -0.055204        -1.5022
 241   0.0000      -0.047104        -1.2818
 242   0.0000      -0.040236        -1.0949

MULLIKEN ATOMIC CHARGES
-----------------------
   0 C :   -0.012235
   1 C :   -0.021076
   2 C :   -0.005214
   3 C :    0.014422
   4 C :    0.190296
   5 O :   -0.157353
   6 N :   -0.302091
   7 C :    0.185029
   8 O :   -0.157211
   9 C :    0.131789
  10 C :   -0.009182
  11 C :   -0.094794
  12 C :    0.122115
  13 C :    0.013771
  14 C :    0.014974
  15 C :    0.108838
  16 C :   -0.041351
  17 C :    0.119062
  18 N :    0.228630
  19 O :   -0.224717
  20 O :   -0.222433
  21 C :    0.071832
  22 C :   -0.020229
  23 C :    0.006580
  24 C :   -0.011627
  25 C :    0.010232
  26 C :    0.083339
  27 N :   -0.269950
  28 C :    0.102897
  29 C :    0.002322
  30 C :    0.155911
  31 O :   -0.195417
  32 C :   -0.045862
  33 C :   -0.031260
  34 C :    0.147976
  35 O :   -0.192460
  36 N :   -0.276816
  37 C :    0.098266
  38 C :    0.001163
  39 C :    0.119180
  40 C :   -0.010688
  41 C :    0.005363
  42 C :    0.097475
  43 C :   -0.025080
  44 C :    0.106010
  45 N :    0.233165
  46 O :   -0.220898
  47 O :   -0.221342
  48 C :    0.081762
  49 C :   -0.021775
  50 C :    0.004771
  51 C :   -0.023379
  52 C :   -0.015475
  53 C :    0.069529
  54 C :   -0.082890
  55 C :    0.010220
  56 C :    0.011256
  57 C :    0.187725
  58 O :   -0.159596
  59 N :   -0.302600
  60 C :    0.187026
  61 O :   -0.158539
  62 C :    0.133298
  63 C :   -0.009399
  64 C :   -0.086191
  65 C :    0.065395
  66 C :   -0.055851
  67 C :   -0.020461
  68 H :   -0.013905
  69 H :   -0.002072
  70 H :    0.030904
  71 H :    0.032639
  72 H :    0.028133
  73 H :    0.022501
  74 H :    0.025971
  75 H :   -0.004760
  76 H :   -0.005576
  77 H :   -0.018671
  78 H :   -0.000407
  79 H :   -0.011640
  80 H :   -0.012471
  81 H :   -0.004093
  82 H :    0.022006
  83 H :    0.036871
  84 H :    0.037443
  85 H :    0.011740
  86 H :    0.021651
  87 H :    0.036918
  88 H :    0.045089
  89 H :    0.022099
  90 H :    0.030386
  91 H :    0.020224
  92 H :    0.020359
  93 H :    0.008595
  94 H :   -0.028251
  95 H :    0.007862
  96 H :   -0.012813
  97 H :   -0.011843
  98 H :    0.024283
  99 H :    0.014101
 100 H :   -0.010648
 101 H :    0.030054
 102 H :    0.031050
 103 H :    0.026471
 104 H :    0.021933
 105 H :    0.025588
 106 H :   -0.009197
 107 H :    0.045094
 108 H :    0.022053
 109 H :    0.028152
Sum of atomic charges:   -0.0000000

LOEWDIN ATOMIC CHARGES
----------------------
   0 C :    0.000067
   1 C :    0.012550
   2 C :   -0.051959
   3 C :   -0.047557
   4 C :    0.088464
   5 O :   -0.157429
   6 N :   -0.036755
   7 C :    0.087290
   8 O :   -0.158760
   9 C :    0.044351
  10 C :   -0.059929
  11 C :    0.014648
  12 C :   -0.010842
  13 C :   -0.007446
  14 C :   -0.012600
  15 C :   -0.020023
  16 C :    0.012986
  17 C :   -0.019705
  18 N :    0.281586
  19 O :   -0.194021
  20 O :   -0.194101
  21 C :   -0.009526
  22 C :   -0.005046
  23 C :    0.002575
  24 C :   -0.005148
  25 C :   -0.013856
  26 C :    0.078533
  27 N :   -0.002781
  28 C :    0.036865
  29 C :   -0.063599
  30 C :    0.081135
  31 O :   -0.195294
  32 C :   -0.115583
  33 C :   -0.120197
  34 C :    0.082206
  35 O :   -0.193429
  36 N :   -0.009366
  37 C :    0.033443
  38 C :   -0.063348
  39 C :    0.074604
  40 C :   -0.022742
  41 C :   -0.004557
  42 C :   -0.024710
  43 C :    0.015712
  44 C :   -0.020039
  45 N :    0.283044
  46 O :   -0.189666
  47 O :   -0.195202
  48 C :   -0.006305
  49 C :   -0.006974
  50 C :    0.003637
  51 C :   -0.014738
  52 C :   -0.005429
  53 C :   -0.009876
  54 C :    0.018618
  55 C :   -0.054456
  56 C :   -0.050773
  57 C :    0.088183
  58 O :   -0.160714
  59 N :   -0.037181
  60 C :    0.088218
  61 O :   -0.160602
  62 C :    0.044130
  63 C :   -0.060354
  64 C :    0.019866
  65 C :   -0.002016
  66 C :   -0.020299
  67 C :   -0.043394
  68 H :    0.029997
  69 H :    0.040394
  70 H :    0.032071
  71 H :    0.032302
  72 H :    0.028347
  73 H :    0.030231
  74 H :    0.027799
  75 H :    0.038893
  76 H :    0.031914
  77 H :    0.028163
  78 H :    0.038444
  79 H :    0.035390
  80 H :    0.033212
  81 H :    0.033204
  82 H :    0.045295
  83 H :    0.028613
  84 H :    0.036811
  85 H :    0.017174
  86 H :    0.029923
  87 H :    0.034991
  88 H :    0.038071
  89 H :    0.018666
  90 H :    0.033894
  91 H :    0.029822
  92 H :    0.021450
  93 H :    0.045263
  94 H :    0.028744
  95 H :    0.042981
  96 H :    0.036073
  97 H :    0.032697
  98 H :    0.038488
  99 H :    0.031301
 100 H :    0.038590
 101 H :    0.031716
 102 H :    0.031911
 103 H :    0.027870
 104 H :    0.029714
 105 H :    0.027627
 106 H :    0.038715
 107 H :    0.039873
 108 H :    0.021698
 109 H :    0.027292

  Mayer bond orders larger than 0.100000
B(  0-C ,  1-C ) :   1.3686 B(  0-C , 12-C ) :   1.3622 B(  0-C , 68-H ) :   0.9895
B(  1-C ,  2-C ) :   1.3887 B(  1-C , 69-H ) :   1.0055 B(  2-C ,  3-C ) :   1.3696
B(  2-C ,  7-C ) :   0.8880 B(  3-C ,  4-C ) :   0.8725 B(  3-C , 11-C ) :   1.3975
B(  4-C ,  5-O ) :   2.2276 B(  4-C ,  6-N ) :   1.0674 B(  6-N ,  7-C ) :   1.0606
B(  6-N ,  9-C ) :   0.9183 B(  7-C ,  8-O ) :   2.2285 B(  9-C , 10-C ) :   1.1238
B(  9-C , 70-H ) :   0.9428 B(  9-C , 71-H ) :   0.9427 B( 10-C , 72-H ) :   0.9696
B( 10-C , 73-H ) :   0.9702 B( 10-C , 74-H ) :   0.9695 B( 11-C , 12-C ) :   1.2792
B( 11-C , 75-H ) :   1.0168 B( 12-C , 13-C ) :   1.0623 B( 13-C , 14-C ) :   1.7216
B( 13-C , 76-H ) :   0.9772 B( 14-C , 15-C ) :   1.0659 B( 14-C , 77-H ) :   0.9771
B( 15-C , 16-C ) :   1.3047 B( 15-C , 23-C ) :   1.3256 B( 16-C , 17-C ) :   1.4136
B( 16-C , 78-H ) :   0.9862 B( 17-C , 18-N ) :   0.8603 B( 17-C , 21-C ) :   1.3513
B( 18-N , 19-O ) :   1.5437 B( 18-N , 20-O ) :   1.5500 B( 19-O , 20-O ) :   0.2718
B( 21-C , 22-C ) :   1.3504 B( 21-C , 24-C ) :   1.0414 B( 22-C , 23-C ) :   1.3873
B( 22-C , 79-H ) :   0.9929 B( 23-C , 80-H ) :   0.9991 B( 24-C , 25-C ) :   1.6784
B( 24-C , 81-H ) :   0.9630 B( 25-C , 26-C ) :   1.1904 B( 25-C , 82-H ) :   0.9397
B( 26-C , 27-N ) :   1.1834 B( 26-C , 33-C ) :   1.3598 B( 27-N , 28-C ) :   0.9402
B( 27-N , 30-C ) :   1.0331 B( 28-C , 29-C ) :   1.1168 B( 28-C , 83-H ) :   0.9505
B( 28-C , 84-H ) :   0.9308 B( 29-C , 85-H ) :   0.9636 B( 29-C , 86-H ) :   0.9686
B( 29-C , 87-H ) :   0.9600 B( 30-C , 31-O ) :   2.1157 B( 30-C , 32-C ) :   0.9807
B( 32-C , 33-C ) :   1.2200 B( 32-C , 39-C ) :   1.3636 B( 33-C , 34-C ) :   0.9798
B( 34-C , 35-O ) :   2.1316 B( 34-C , 36-N ) :   1.0268 B( 36-N , 37-C ) :   0.9469
B( 36-N , 39-C ) :   1.1667 B( 37-C , 38-C ) :   1.1149 B( 37-C , 88-H ) :   0.9219
B( 37-C , 89-H ) :   0.9507 B( 38-C , 90-H ) :   0.9619 B( 38-C , 91-H ) :   0.9684
B( 38-C , 92-H ) :   0.9681 B( 39-C , 40-C ) :   1.1657 B( 40-C , 41-C ) :   1.6029
B( 40-C , 93-H ) :   0.9434 B( 41-C , 42-C ) :   1.0710 B( 41-C , 94-H ) :   0.9908
B( 42-C , 43-C ) :   1.3047 B( 42-C , 50-C ) :   1.3200 B( 43-C , 44-C ) :   1.4097
B( 43-C , 95-H ) :   0.9889 B( 44-C , 45-N ) :   0.8554 B( 44-C , 48-C ) :   1.3752
B( 45-N , 46-O ) :   1.5441 B( 45-N , 47-O ) :   1.5294 B( 46-O , 47-O ) :   0.2727
B( 48-C , 49-C ) :   1.3507 B( 48-C , 51-C ) :   1.0293 B( 49-C , 50-C ) :   1.3834
B( 49-C , 96-H ) :   0.9956 B( 50-C , 97-H ) :   1.0008 B( 51-C , 52-C ) :   1.8017
B( 51-C , 98-H ) :   0.9523 B( 52-C , 53-C ) :   1.0586 B( 52-C , 99-H ) :   0.9633
B( 53-C , 54-C ) :   1.2942 B( 53-C , 65-C ) :   1.3662 B( 54-C , 55-C ) :   1.3980
B( 54-C ,100-H ) :   1.0157 B( 55-C , 56-C ) :   1.3512 B( 55-C , 60-C ) :   0.8779
B( 56-C , 57-C ) :   0.8793 B( 56-C , 64-C ) :   1.3931 B( 57-C , 58-O ) :   2.2262
B( 57-C , 59-N ) :   1.0631 B( 59-N , 60-C ) :   1.0621 B( 59-N , 62-C ) :   0.9197
B( 60-C , 61-O ) :   2.2298 B( 62-C , 63-C ) :   1.1249 B( 62-C ,101-H ) :   0.9428
B( 62-C ,102-H ) :   0.9425 B( 63-C ,103-H ) :   0.9696 B( 63-C ,104-H ) :   0.9701
B( 63-C ,105-H ) :   0.9692 B( 64-C , 65-C ) :   1.3228 B( 64-C ,106-H ) :   1.0106
B( 65-C , 66-C ) :   1.0328 B( 66-C , 67-C ) :   1.9629 B( 66-C ,107-H ) :   0.9462
B( 67-C ,108-H ) :   0.9583 B( 67-C ,109-H ) :   0.9520

-----------------------------------------------------------------------------
         ABSORPTION SPECTRUM VIA TRANSITION ELECTRIC DIPOLE MOMENTS
-----------------------------------------------------------------------------
State   Energy  Wavelength   fosc         T2         TX        TY        TZ
        (cm-1)    (nm)                  (au**2)     (au)      (au)      (au)
-----------------------------------------------------------------------------
   0   17137.1    583.5   1.035662172  19.89551  -3.72691   0.30225   2.43194
   1   24201.5    413.2   0.040629613   0.55268   0.42784   0.16912  -0.58398
   2   26651.2    375.2   0.017870156   0.22074  -0.37751   0.13048  -0.24740
   3   27011.5    370.2   0.070362410   0.85757  -0.79159   0.40001   0.26635
   4   27818.5    359.5   0.124117032   1.46884   0.90192  -0.79583  -0.14842
   5   28704.4    348.4   0.766882472   8.79540  -2.58478   1.38840   0.43200
   6   29034.1    344.4   0.085463135   0.96905  -0.94487   0.08208   0.26369
   7   29332.1    340.9   0.337441923   3.78731   1.66901  -0.99265  -0.12792
   8   31190.4    320.6   0.293875636   3.10183   1.35261  -1.04277   0.43000
   9   32356.1    309.1   0.037293837   0.37945   0.49792  -0.31086  -0.18678
  10   32919.1    303.8   0.000143471   0.00143  -0.00118  -0.02090   0.03157
  11   33420.0    299.2   0.031537862   0.31067  -0.24148   0.48700   0.12327
  12   33952.6    294.5   0.196244721   1.90283   1.08167  -0.79381  -0.32047
  13   34608.8    288.9   0.060036635   0.57109   0.38607  -0.38659  -0.52210
  14   34858.9    286.9   0.011025877   0.10413   0.11041   0.04707   0.29954
  15   35892.5    278.6   0.051953387   0.47652   0.12381  -0.67869  -0.02400
  16   36575.0    273.4   0.071893475   0.64711  -0.28530   0.66240  -0.35629
  17   36878.0    271.2   0.397404398   3.54765   1.69753  -0.76139  -0.29380
  18   37794.9    264.6   0.046876191   0.40831   0.44148  -0.34696  -0.30501
  19   38115.3    262.4   0.072276489   0.62427  -0.25053   0.29336  -0.68953
  20   38842.4    257.5   0.055566870   0.47096  -0.54517   0.12632  -0.39724
  21   38985.0    256.5   0.111178312   0.93885  -0.36595   0.85326   0.27727
  22   39962.9    250.2   0.052261877   0.43053   0.30713  -0.27573  -0.51007
  23   40218.8    248.6   0.045497566   0.37242  -0.02852   0.60127   0.10043

FINAL SINGLE POINT ENERGY     -3083.647739760356

DIPOLE MOMENT
-------------
                                X             Y             Z
Electronic contribution:      8.01565      10.75456      -8.31123
Nuclear contribution   :     -7.57957     -12.87105       7.22645
                        -----------------------------------------
Total Dipole Moment    :      0.43608      -2.11649      -1.08478
                        -----------------------------------------
Magnitude (a.u.)       :      2.41794
Magnitude (Debye)      :      6.14592

Rotational constants in cm-1:     0.003939     0.000173     0.000170
Rotational constants in MHz :   118.079115     5.189534     5.108659

                             ****ORCA TERMINATED NORMALLY****
TOTAL RUN TIME: 0 days 0 hours 8 minutes 53 seconds 865 msec
