                         Program Version 4.2.0 -  RELEASE  -
|  1> # ORCA input file
|  2> # SCF done       -189.701107445845          0.000662420660
|  3> ! CAM-B3LYP def2-SVP def2/J RIJCOSX Grid4 TightSCF
|  4> %maxcore 5000
|  5> %tddft
|  6>     Mode sTDDFT
|  7>     Ethresh 5.0
|  8>     maxcore 5000
|  9> end
| 10>
| 11> %pal
| 12>   nprocs 6
| 13>   end
| 14> * xyz 0 1
| 15>    C        7.91909        -3.76657         1.60510
| 16>    O        7.63145        -4.66842         2.55786
| 17>    C        6.37907        -5.11115         2.35905
| 18>    C        5.85394        -4.45926         1.23728
| 19>    C        6.86813        -3.58969         0.76051
| 20>    N        4.57303        -4.60996         0.66739
| 21>    O        3.80100        -5.39601         1.19117
| 22>    O        4.31824        -3.94326        -0.31361
| 23>    C        5.77712        -6.07064         3.21438
| 24>    C        6.41837        -6.65427         4.25917
| 25>    C        5.81701        -7.60516         5.12240
| 26>    C        6.45701        -8.63016         5.81346
| 27>    N        7.83802        -8.88059         5.91086
| 28>    O        8.61297        -8.12455         5.34748
| 29>    O        8.18275        -9.84931         6.56455
| 30>    C        5.47489        -9.48548         6.41619
| 31>    C        4.23807        -9.02953         6.08445
| 32>    C        4.37811        -7.81955         5.32133
| 33>    C        3.35836        -6.92640         5.04187
| 34>    C        3.45241        -5.50168         5.04668
| 35>    C        2.19320        -4.97421         5.04498
| 36>    C        1.24598        -6.03816         4.96178
| 37>    N       -0.14077        -5.82467         4.83043
| 38>    O       -0.54929        -4.69770         5.04496
| 39>    O       -0.84632        -6.76481         4.50922
| 40>    C        1.92194        -7.25970         4.94056
| 41>    C        1.36328        -8.53093         4.74617
| 42>    C        2.02954        -9.58985         4.17866
| 43>    C        1.46060       -10.86446         4.05616
| 44>    N        2.00962       -11.89673         3.33387
| 45>    C        3.26307       -11.86966         2.61649
| 46>    C        4.45462       -12.05486         3.55291
| 47>    C        1.21574       -13.05186         3.37363
| 48>    O        1.49343       -14.08285         2.79770
| 49>    C        0.08741       -12.68384         4.21269
| 50>    C        0.26561       -11.35492         4.61728
| 51>    C       -0.82747       -11.00087         5.50750
| 52>    O       -1.06244        -9.99794         6.14081
| 53>    N       -1.62333       -12.16102         5.55106
| 54>    C       -2.86120       -12.18467         6.29574
| 55>    C       -4.07097       -11.98793         5.38670
| 56>    C       -1.10196       -13.17575         4.79170
| 57>    C       -1.68306       -14.44883         4.67568
| 58>    C       -1.13795       -15.45028         3.91694
| 59>    C       -1.69604       -16.73957         3.79944
| 60>    C       -2.84425       -17.25025         4.38421
| 61>    C       -3.00980       -18.60381         3.99209
| 62>    C       -1.87234       -18.91495         3.10368
| 63>    C       -1.10271       -17.80192         2.99781
| 64>    C       -1.61811       -20.13869         2.47269
| 65>    N       -1.38667       -21.13255         1.94604
| 66>    C       -4.02138       -19.46324         4.36715
| 67>    C       -4.19256       -20.82509         3.99236
| 68>    C       -5.32821       -21.31334         4.59597
| 69>    C       -5.92240       -20.24879         5.38636
| 70>    C       -5.15186       -19.13660         5.25925
| 71>    C       -5.40604       -17.90745         5.87552
| 72>    N       -5.63125       -16.90701         6.39446
| 73>    C       -5.86595       -22.62673         4.49631
| 74>    O       -7.00459       -22.93349         5.17215
| 75>    C       -7.31904       -24.21226         4.93331
| 76>    C       -6.35610       -24.75413         4.07638
| 77>    C       -5.42586       -23.73280         3.79907
| 78>    N       -6.28804       -26.07313         3.56060
| 79>    O       -7.16444       -26.85483         3.87363
| 80>    O       -5.35161       -26.33284         2.83681
| 81>    C       -8.48310       -24.80650         5.52650
| 82>    C       -9.30915       -24.14273         6.33667
| 83>    H        8.89448        -3.32306         1.63178
| 84>    H        6.79516        -2.94180        -0.08749
| 85>    H        4.75929        -6.32959         2.96220
| 86>    H        7.47145        -6.45673         4.41412
| 87>    H        5.72136       -10.33418         7.02540
| 88>    H        3.30241        -9.41532         6.43954
| 89>    H        4.36763        -4.95374         5.15645
| 90>    H        1.91984        -3.93680         5.08897
| 91>    H        0.31455        -8.64136         5.00052
| 92>    H        3.01286        -9.42991         3.75985
| 93>    H        3.34273       -10.93167         2.06101
| 94>    H        3.22465       -12.69867         1.90468
| 95>    H        4.49444       -11.26742         4.30280
| 96>    H        5.37684       -12.03740         2.97935
| 97>    H        4.38257       -13.01311         4.06121
| 98>    H       -2.80025       -11.35785         7.00848
| 99>    H       -2.93695       -13.12364         6.85014
|100>    H       -4.00443       -11.02772         4.88126
|101>    H       -4.97965       -12.00537         5.98117
|102>    H       -4.13025       -12.77318         4.63633
|103>    H       -2.59816       -14.63451         5.21845
|104>    H       -0.22262       -15.26040         3.37116
|105>    H       -3.51517       -16.72603         5.03436
|106>    H       -0.19995       -17.69498         2.42554
|107>    H       -3.53495       -21.36971         3.34573
|108>    H       -6.82091       -20.34841         5.96560
|109>    H       -4.56163       -23.81584         3.17367
|110>    H       -8.64707       -25.84244         5.26920
|111>    H       -9.14207       -23.10955         6.59175
|112>    H      -10.17217       -24.61987         6.76473
|113> *
|114>
|115>                          ****END OF INPUT****

CARTESIAN COORDINATES (ANGSTROEM)
---------------------------------
  C      7.919090   -3.766570    1.605100
  O      7.631450   -4.668420    2.557860
  C      6.379070   -5.111150    2.359050
  C      5.853940   -4.459260    1.237280
  C      6.868130   -3.589690    0.760510
  N      4.573030   -4.609960    0.667390
  O      3.801000   -5.396010    1.191170
  O      4.318240   -3.943260   -0.313610
  C      5.777120   -6.070640    3.214380
  C      6.418370   -6.654270    4.259170
  C      5.817010   -7.605160    5.122400
  C      6.457010   -8.630160    5.813460
  N      7.838020   -8.880590    5.910860
  O      8.612970   -8.124550    5.347480
  O      8.182750   -9.849310    6.564550
  C      5.474890   -9.485480    6.416190
  C      4.238070   -9.029530    6.084450
  C      4.378110   -7.819550    5.321330
  C      3.358360   -6.926400    5.041870
  C      3.452410   -5.501680    5.046680
  C      2.193200   -4.974210    5.044980
  C      1.245980   -6.038160    4.961780
  N     -0.140770   -5.824670    4.830430
  O     -0.549290   -4.697700    5.044960
  O     -0.846320   -6.764810    4.509220
  C      1.921940   -7.259700    4.940560
  C      1.363280   -8.530930    4.746170
  C      2.029540   -9.589850    4.178660
  C      1.460600  -10.864460    4.056160
  N      2.009620  -11.896730    3.333870
  C      3.263070  -11.869660    2.616490
  C      4.454620  -12.054860    3.552910
  C      1.215740  -13.051860    3.373630
  O      1.493430  -14.082850    2.797700
  C      0.087410  -12.683840    4.212690
  C      0.265610  -11.354920    4.617280
  C     -0.827470  -11.000870    5.507500
  O     -1.062440   -9.997940    6.140810
  N     -1.623330  -12.161020    5.551060
  C     -2.861200  -12.184670    6.295740
  C     -4.070970  -11.987930    5.386700
  C     -1.101960  -13.175750    4.791700
  C     -1.683060  -14.448830    4.675680
  C     -1.137950  -15.450280    3.916940
  C     -1.696040  -16.739570    3.799440
  C     -2.844250  -17.250250    4.384210
  C     -3.009800  -18.603810    3.992090
  C     -1.872340  -18.914950    3.103680
  C     -1.102710  -17.801920    2.997810
  C     -1.618110  -20.138690    2.472690
  N     -1.386670  -21.132550    1.946040
  C     -4.021380  -19.463240    4.367150
  C     -4.192560  -20.825090    3.992360
  C     -5.328210  -21.313340    4.595970
  C     -5.922400  -20.248790    5.386360
  C     -5.151860  -19.136600    5.259250
  C     -5.406040  -17.907450    5.875520
  N     -5.631250  -16.907010    6.394460
  C     -5.865950  -22.626730    4.496310
  O     -7.004590  -22.933490    5.172150
  C     -7.319040  -24.212260    4.933310
  C     -6.356100  -24.754130    4.076380
  C     -5.425860  -23.732800    3.799070
  N     -6.288040  -26.073130    3.560600
  O     -7.164440  -26.854830    3.873630
  O     -5.351610  -26.332840    2.836810
  C     -8.483100  -24.806500    5.526500
  C     -9.309150  -24.142730    6.336670
  H      8.894480   -3.323060    1.631780
  H      6.795160   -2.941800   -0.087490
  H      4.759290   -6.329590    2.962200
  H      7.471450   -6.456730    4.414120
  H      5.721360  -10.334180    7.025400
  H      3.302410   -9.415320    6.439540
  H      4.367630   -4.953740    5.156450
  H      1.919840   -3.936800    5.088970
  H      0.314550   -8.641360    5.000520
  H      3.012860   -9.429910    3.759850
  H      3.342730  -10.931670    2.061010
  H      3.224650  -12.698670    1.904680
  H      4.494440  -11.267420    4.302800
  H      5.376840  -12.037400    2.979350
  H      4.382570  -13.013110    4.061210
  H     -2.800250  -11.357850    7.008480
  H     -2.936950  -13.123640    6.850140
  H     -4.004430  -11.027720    4.881260
  H     -4.979650  -12.005370    5.981170
  H     -4.130250  -12.773180    4.636330
  H     -2.598160  -14.634510    5.218450
  H     -0.222620  -15.260400    3.371160
  H     -3.515170  -16.726030    5.034360
  H     -0.199950  -17.694980    2.425540
  H     -3.534950  -21.369710    3.345730
  H     -6.820910  -20.348410    5.965600
  H     -4.561630  -23.815840    3.173670
  H     -8.647070  -25.842440    5.269200
  H     -9.142070  -23.109550    6.591750
  H    -10.172170  -24.619870    6.764730

 Total Charge           Charge          ....    0
 Multiplicity           Mult            ....    1
 Number of Electrons    NEL             ....  470
 Basis Dimension        Dim             .... 1102

ORBITAL ENERGIES
----------------

  NO   OCC          E(Eh)            E(eV)
   0   2.0000     -19.330633      -526.0133
   1   2.0000     -19.328106      -525.9445
   2   2.0000     -19.250255      -523.8261
   3   2.0000     -19.248478      -523.7777
   4   2.0000     -19.248350      -523.7742
   5   2.0000     -19.247390      -523.7481
   6   2.0000     -19.242836      -523.6242
   7   2.0000     -19.242097      -523.6041
   8   2.0000     -19.233386      -523.3670
   9   2.0000     -19.233154      -523.3607
  10   2.0000     -19.207401      -522.6599
  11   2.0000     -19.204766      -522.5883
  12   2.0000     -14.660596      -398.9351
  13   2.0000     -14.659389      -398.9022
  14   2.0000     -14.651595      -398.6902
  15   2.0000     -14.642674      -398.4474
  16   2.0000     -14.467381      -393.6775
  17   2.0000     -14.466066      -393.6417
  18   2.0000     -14.420204      -392.3937
  19   2.0000     -14.414096      -392.2275
  20   2.0000     -10.389006      -282.6992
  21   2.0000     -10.387884      -282.6687
  22   2.0000     -10.379707      -282.4462
  23   2.0000     -10.375937      -282.3436
  24   2.0000     -10.365090      -282.0484
  25   2.0000     -10.356923      -281.8262
  26   2.0000     -10.356753      -281.8216
  27   2.0000     -10.350660      -281.6558
  28   2.0000     -10.340588      -281.3817
  29   2.0000     -10.340002      -281.3658
  30   2.0000     -10.338338      -281.3205
  31   2.0000     -10.335938      -281.2552
  32   2.0000     -10.335054      -281.2311
  33   2.0000     -10.333197      -281.1806
  34   2.0000     -10.331431      -281.1325
  35   2.0000     -10.329377      -281.0766
  36   2.0000     -10.326768      -281.0056
  37   2.0000     -10.325109      -280.9605
  38   2.0000     -10.322748      -280.8963
  39   2.0000     -10.322089      -280.8783
  40   2.0000     -10.321442      -280.8607
  41   2.0000     -10.320608      -280.8380
  42   2.0000     -10.320431      -280.8332
  43   2.0000     -10.317826      -280.7623
  44   2.0000     -10.316158      -280.7169
  45   2.0000     -10.316043      -280.7138
  46   2.0000     -10.314261      -280.6653
  47   2.0000     -10.310707      -280.5686
  48   2.0000     -10.309576      -280.5378
  49   2.0000     -10.309070      -280.5241
  50   2.0000     -10.309058      -280.5237
  51   2.0000     -10.308463      -280.5075
  52   2.0000     -10.307749      -280.4881
  53   2.0000     -10.307341      -280.4770
  54   2.0000     -10.305828      -280.4358
  55   2.0000     -10.304401      -280.3970
  56   2.0000     -10.303847      -280.3819
  57   2.0000     -10.300982      -280.3040
  58   2.0000     -10.299889      -280.2742
  59   2.0000     -10.296307      -280.1768
  60   2.0000     -10.294938      -280.1395
  61   2.0000     -10.294527      -280.1283
  62   2.0000     -10.294064      -280.1157
  63   2.0000     -10.290954      -280.0311
  64   2.0000     -10.282199      -279.7929
  65   2.0000     -10.280112      -279.7361
  66   2.0000     -10.270671      -279.4792
  67   2.0000     -10.268069      -279.4084
  68   2.0000      -1.330594       -36.2073
  69   2.0000      -1.330477       -36.2041
  70   2.0000      -1.321834       -35.9689
  71   2.0000      -1.313339       -35.7378
  72   2.0000      -1.250941       -34.0398
  73   2.0000      -1.249345       -33.9964
  74   2.0000      -1.149363       -31.2758
  75   2.0000      -1.148805       -31.2606
  76   2.0000      -1.148285       -31.2464
  77   2.0000      -1.142484       -31.0886
  78   2.0000      -1.139045       -30.9950
  79   2.0000      -1.131066       -30.7779
  80   2.0000      -1.079414       -29.3724
  81   2.0000      -1.070353       -29.1258
  82   2.0000      -1.025637       -27.9090
  83   2.0000      -1.024044       -27.8657
  84   2.0000      -1.009082       -27.4585
  85   2.0000      -1.002150       -27.2699
  86   2.0000      -0.995828       -27.0979
  87   2.0000      -0.989778       -26.9332
  88   2.0000      -0.960510       -26.1368
  89   2.0000      -0.960063       -26.1246
  90   2.0000      -0.942383       -25.6435
  91   2.0000      -0.933621       -25.4051
  92   2.0000      -0.932756       -25.3816
  93   2.0000      -0.926157       -25.2020
  94   2.0000      -0.921189       -25.0668
  95   2.0000      -0.913514       -24.8580
  96   2.0000      -0.887784       -24.1578
  97   2.0000      -0.885210       -24.0878
  98   2.0000      -0.881764       -23.9940
  99   2.0000      -0.877187       -23.8695
 100   2.0000      -0.870609       -23.6905
 101   2.0000      -0.857102       -23.3229
 102   2.0000      -0.851331       -23.1659
 103   2.0000      -0.844983       -22.9931
 104   2.0000      -0.840324       -22.8664
 105   2.0000      -0.830879       -22.6094
 106   2.0000      -0.829138       -22.5620
 107   2.0000      -0.818808       -22.2809
 108   2.0000      -0.806178       -21.9372
 109   2.0000      -0.795413       -21.6443
 110   2.0000      -0.780686       -21.2436
 111   2.0000      -0.769654       -20.9434
 112   2.0000      -0.768833       -20.9210
 113   2.0000      -0.744939       -20.2708
 114   2.0000      -0.737746       -20.0751
 115   2.0000      -0.735353       -20.0100
 116   2.0000      -0.733854       -19.9692
 117   2.0000      -0.726554       -19.7705
 118   2.0000      -0.719647       -19.5826
 119   2.0000      -0.710033       -19.3210
 120   2.0000      -0.707183       -19.2434
 121   2.0000      -0.704978       -19.1834
 122   2.0000      -0.691274       -18.8105
 123   2.0000      -0.685036       -18.6408
 124   2.0000      -0.678921       -18.4744
 125   2.0000      -0.677060       -18.4237
 126   2.0000      -0.666176       -18.1276
 127   2.0000      -0.661364       -17.9966
 128   2.0000      -0.656535       -17.8652
 129   2.0000      -0.654878       -17.8201
 130   2.0000      -0.649936       -17.6856
 131   2.0000      -0.643406       -17.5080
 132   2.0000      -0.642075       -17.4718
 133   2.0000      -0.641301       -17.4507
 134   2.0000      -0.636213       -17.3122
 135   2.0000      -0.635074       -17.2812
 136   2.0000      -0.632988       -17.2245
 137   2.0000      -0.624585       -16.9958
 138   2.0000      -0.622587       -16.9415
 139   2.0000      -0.618229       -16.8229
 140   2.0000      -0.616365       -16.7721
 141   2.0000      -0.610912       -16.6237
 142   2.0000      -0.609822       -16.5941
 143   2.0000      -0.601021       -16.3546
 144   2.0000      -0.598097       -16.2750
 145   2.0000      -0.597518       -16.2593
 146   2.0000      -0.593374       -16.1465
 147   2.0000      -0.591886       -16.1060
 148   2.0000      -0.590594       -16.0709
 149   2.0000      -0.587397       -15.9839
 150   2.0000      -0.584724       -15.9111
 151   2.0000      -0.584603       -15.9079
 152   2.0000      -0.583163       -15.8687
 153   2.0000      -0.578623       -15.7451
 154   2.0000      -0.574468       -15.6321
 155   2.0000      -0.572513       -15.5789
 156   2.0000      -0.562911       -15.3176
 157   2.0000      -0.561676       -15.2840
 158   2.0000      -0.548028       -14.9126
 159   2.0000      -0.544901       -14.8275
 160   2.0000      -0.543443       -14.7878
 161   2.0000      -0.541799       -14.7431
 162   2.0000      -0.541083       -14.7236
 163   2.0000      -0.540715       -14.7136
 164   2.0000      -0.537477       -14.6255
 165   2.0000      -0.536031       -14.5861
 166   2.0000      -0.532511       -14.4904
 167   2.0000      -0.530742       -14.4422
 168   2.0000      -0.528786       -14.3890
 169   2.0000      -0.521790       -14.1986
 170   2.0000      -0.520482       -14.1630
 171   2.0000      -0.519140       -14.1265
 172   2.0000      -0.517210       -14.0740
 173   2.0000      -0.515811       -14.0359
 174   2.0000      -0.511823       -13.9274
 175   2.0000      -0.506620       -13.7858
 176   2.0000      -0.504449       -13.7267
 177   2.0000      -0.497038       -13.5251
 178   2.0000      -0.496622       -13.5138
 179   2.0000      -0.494142       -13.4463
 180   2.0000      -0.492083       -13.3903
 181   2.0000      -0.489160       -13.3107
 182   2.0000      -0.488343       -13.2885
 183   2.0000      -0.487078       -13.2541
 184   2.0000      -0.482501       -13.1295
 185   2.0000      -0.480318       -13.0701
 186   2.0000      -0.479473       -13.0471
 187   2.0000      -0.477571       -12.9954
 188   2.0000      -0.471669       -12.8348
 189   2.0000      -0.467869       -12.7314
 190   2.0000      -0.466448       -12.6927
 191   2.0000      -0.464717       -12.6456
 192   2.0000      -0.460525       -12.5315
 193   2.0000      -0.457060       -12.4372
 194   2.0000      -0.454574       -12.3696
 195   2.0000      -0.452313       -12.3081
 196   2.0000      -0.450637       -12.2625
 197   2.0000      -0.448055       -12.1922
 198   2.0000      -0.443679       -12.0731
 199   2.0000      -0.441872       -12.0239
 200   2.0000      -0.438082       -11.9208
 201   2.0000      -0.433672       -11.8008
 202   2.0000      -0.430629       -11.7180
 203   2.0000      -0.425217       -11.5708
 204   2.0000      -0.416650       -11.3376
 205   2.0000      -0.412995       -11.2382
 206   2.0000      -0.405583       -11.0365
 207   2.0000      -0.400959       -10.9107
 208   2.0000      -0.396305       -10.7840
 209   2.0000      -0.395942       -10.7741
 210   2.0000      -0.393770       -10.7150
 211   2.0000      -0.389507       -10.5990
 212   2.0000      -0.388462       -10.5706
 213   2.0000      -0.386943       -10.5292
 214   2.0000      -0.386056       -10.5051
 215   2.0000      -0.381719       -10.3871
 216   2.0000      -0.380835       -10.3630
 217   2.0000      -0.376722       -10.2511
 218   2.0000      -0.374920       -10.2021
 219   2.0000      -0.374417       -10.1884
 220   2.0000      -0.370282       -10.0759
 221   2.0000      -0.368434       -10.0256
 222   2.0000      -0.362447        -9.8627
 223   2.0000      -0.360155        -9.8003
 224   2.0000      -0.347345        -9.4517
 225   2.0000      -0.347016        -9.4428
 226   2.0000      -0.345394        -9.3986
 227   2.0000      -0.340956        -9.2779
 228   2.0000      -0.332671        -9.0524
 229   2.0000      -0.331361        -9.0168
 230   2.0000      -0.311602        -8.4791
 231   2.0000      -0.307291        -8.3618
 232   2.0000      -0.284565        -7.7434
 233   2.0000      -0.280728        -7.6390
 234   2.0000      -0.240112        -6.5338
 235   0.0000      -0.149292        -4.0624
 236   0.0000      -0.132449        -3.6041
 237   0.0000      -0.090284        -2.4567
 238   0.0000      -0.068828        -1.8729
 239   0.0000      -0.062373        -1.6973

MULLIKEN ATOMIC CHARGES
-----------------------
   0 C :    0.162336
   1 O :   -0.169641
   2 C :    0.101492
   3 C :    0.115502
   4 C :   -0.028940
   5 N :    0.266960
   6 O :   -0.249904
   7 O :   -0.234662
   8 C :   -0.071358
   9 C :   -0.013294
  10 C :    0.040397
  11 C :    0.087502
  12 N :    0.271330
  13 O :   -0.252673
  14 O :   -0.243823
  15 C :    0.012393
  16 C :    0.008414
  17 C :   -0.003032
  18 C :    0.023924
  19 C :    0.002527
  20 C :    0.025859
  21 C :    0.099019
  22 N :    0.273098
  23 O :   -0.250083
  24 O :   -0.242363
  25 C :    0.045735
  26 C :   -0.018115
  27 C :   -0.048596
  28 C :    0.133500
  29 N :   -0.249968
  30 C :    0.096588
  31 C :    0.004691
  32 C :    0.165997
  33 O :   -0.205865
  34 C :   -0.069616
  35 C :   -0.051572
  36 C :    0.158433
  37 O :   -0.177330
  38 N :   -0.252875
  39 C :    0.091178
  40 C :    0.002512
  41 C :    0.158285
  42 C :   -0.019537
  43 C :    0.010136
  44 C :    0.109514
  45 C :   -0.120879
  46 C :    0.113748
  47 C :   -0.089876
  48 C :    0.004196
  49 C :   -0.174020
  50 N :    0.136272
  51 C :    0.114108
  52 C :   -0.119168
  53 C :    0.111926
  54 C :   -0.003008
  55 C :   -0.098300
  56 C :   -0.160919
  57 N :    0.126703
  58 C :    0.158755
  59 O :   -0.186412
  60 C :    0.092167
  61 C :    0.140039
  62 C :   -0.074189
  63 N :    0.265660
  64 O :   -0.244310
  65 O :   -0.231870
  66 C :   -0.054379
  67 C :    0.032096
  68 H :    0.031227
  69 H :    0.011033
  70 H :    0.051610
  71 H :    0.034093
  72 H :    0.005513
  73 H :    0.009971
  74 H :   -0.001085
  75 H :    0.008075
  76 H :    0.049603
  77 H :    0.000105
  78 H :    0.028778
  79 H :    0.045749
  80 H :    0.012525
  81 H :    0.027611
  82 H :    0.028107
  83 H :    0.048979
  84 H :    0.033275
  85 H :    0.034085
  86 H :    0.033066
  87 H :    0.018258
  88 H :   -0.012330
  89 H :    0.007387
  90 H :    0.000771
  91 H :    0.012086
  92 H :    0.002893
  93 H :    0.003275
  94 H :    0.015821
  95 H :    0.034727
  96 H :    0.032708
  97 H :    0.039667
Sum of atomic charges:   -0.0000000

LOEWDIN ATOMIC CHARGES
----------------------
   0 C :    0.059163
   1 O :    0.042108
   2 C :    0.053591
   3 C :   -0.072083
   4 C :   -0.047726
   5 N :    0.288103
   6 O :   -0.217124
   7 O :   -0.198416
   8 C :   -0.023843
   9 C :    0.003375
  10 C :   -0.001442
  11 C :   -0.040118
  12 N :    0.284406
  13 O :   -0.214903
  14 O :   -0.208710
  15 C :    0.000636
  16 C :   -0.034551
  17 C :    0.031009
  18 C :    0.052676
  19 C :   -0.042881
  20 C :    0.027886
  21 C :   -0.040925
  22 N :    0.283811
  23 O :   -0.213700
  24 O :   -0.205570
  25 C :    0.000804
  26 C :    0.032238
  27 C :   -0.020916
  28 C :    0.063151
  29 N :    0.004017
  30 C :    0.038320
  31 C :   -0.063041
  32 C :    0.078962
  33 O :   -0.196547
  34 C :   -0.111485
  35 C :   -0.096974
  36 C :    0.081259
  37 O :   -0.169595
  38 N :    0.003981
  39 C :    0.037385
  40 C :   -0.059019
  41 C :    0.081539
  42 C :   -0.024065
  43 C :    0.033587
  44 C :   -0.021364
  45 C :   -0.016670
  46 C :    0.036520
  47 C :   -0.082181
  48 C :    0.061929
  49 C :   -0.030144
  50 N :   -0.061174
  51 C :    0.038743
  52 C :   -0.025080
  53 C :   -0.024040
  54 C :    0.054297
  55 C :   -0.078717
  56 C :   -0.026883
  57 N :   -0.067586
  58 C :    0.033180
  59 O :    0.033950
  60 C :    0.073147
  61 C :   -0.074203
  62 C :   -0.015875
  63 N :    0.286586
  64 O :   -0.207866
  65 O :   -0.196628
  66 C :   -0.046945
  67 C :    0.006122
  68 H :    0.032901
  69 H :    0.046183
  70 H :    0.039377
  71 H :    0.041103
  72 H :    0.038535
  73 H :    0.034215
  74 H :    0.031015
  75 H :    0.041040
  76 H :    0.045972
  77 H :    0.032765
  78 H :    0.025622
  79 H :    0.038561
  80 H :    0.020709
  81 H :    0.032979
  82 H :    0.032324
  83 H :    0.039929
  84 H :    0.026488
  85 H :    0.034009
  86 H :    0.035211
  87 H :    0.022969
  88 H :    0.035721
  89 H :    0.038999
  90 H :    0.031223
  91 H :    0.043161
  92 H :    0.035618
  93 H :    0.038831
  94 H :    0.049639
  95 H :    0.045043
  96 H :    0.027639
  97 H :    0.034733

  Mayer bond orders larger than 0.100000
B(  0-C ,  1-O ) :   1.1190 B(  0-C ,  4-C ) :   1.5261 B(  0-C , 68-H ) :   1.0040
B(  1-O ,  2-C ) :   1.2057 B(  2-C ,  3-C ) :   1.3789 B(  2-C ,  8-C ) :   1.1918
B(  3-C ,  4-C ) :   1.2421 B(  3-C ,  5-N ) :   0.9491 B(  4-C , 69-H ) :   1.0122
B(  5-N ,  6-O ) :   1.5072 B(  5-N ,  7-O ) :   1.5463 B(  6-O ,  7-O ) :   0.2650
B(  8-C ,  9-C ) :   1.5528 B(  8-C , 70-H ) :   0.9412 B(  9-C , 10-C ) :   1.1513
B(  9-C , 71-H ) :   0.9659 B( 10-C , 11-C ) :   1.5002 B( 10-C , 17-C ) :   1.0325
B( 11-C , 12-N ) :   0.9448 B( 11-C , 15-C ) :   1.1473 B( 12-N , 13-O ) :   1.4959
B( 12-N , 14-O ) :   1.5363 B( 13-O , 14-O ) :   0.2637 B( 15-C , 16-C ) :   1.5436
B( 15-C , 72-H ) :   1.0129 B( 16-C , 17-C ) :   1.1571 B( 16-C , 73-H ) :   0.9969
B( 17-C , 18-C ) :   1.4490 B( 18-C , 19-C ) :   1.1768 B( 18-C , 25-C ) :   1.0049
B( 19-C , 20-C ) :   1.5324 B( 19-C , 74-H ) :   0.9992 B( 20-C , 21-C ) :   1.1532
B( 20-C , 75-H ) :   1.0123 B( 21-C , 22-N ) :   0.9444 B( 21-C , 25-C ) :   1.4684
B( 22-N , 23-O ) :   1.5234 B( 22-N , 24-O ) :   1.5024 B( 23-O , 24-O ) :   0.2630
B( 25-C , 26-C ) :   1.2268 B( 26-C , 27-C ) :   1.4797 B( 26-C , 76-H ) :   0.9293
B( 27-C , 28-C ) :   1.2190 B( 27-C , 77-H ) :   0.9503 B( 28-C , 29-N ) :   1.1591
B( 28-C , 35-C ) :   1.2901 B( 29-N , 30-C ) :   0.9398 B( 29-N , 32-C ) :   1.0707
B( 30-C , 31-C ) :   1.1196 B( 30-C , 78-H ) :   0.9493 B( 30-C , 79-H ) :   0.9290
B( 31-C , 80-H ) :   0.9674 B( 31-C , 81-H ) :   0.9655 B( 31-C , 82-H ) :   0.9607
B( 32-C , 33-O ) :   2.0269 B( 32-C , 34-C ) :   0.9824 B( 33-O , 89-H ) :   0.1135
B( 34-C , 35-C ) :   1.3131 B( 34-C , 41-C ) :   1.2673 B( 35-C , 36-C ) :   0.9660
B( 36-C , 37-O ) :   2.0879 B( 36-C , 38-N ) :   1.0457 B( 38-N , 39-C ) :   0.9364
B( 38-N , 41-C ) :   1.1790 B( 39-C , 40-C ) :   1.1208 B( 39-C , 83-H ) :   0.9276
B( 39-C , 84-H ) :   0.9499 B( 40-C , 85-H ) :   0.9641 B( 40-C , 86-H ) :   0.9680
B( 40-C , 87-H ) :   0.9684 B( 41-C , 42-C ) :   1.1893 B( 42-C , 43-C ) :   1.5370
B( 42-C , 88-H ) :   0.9658 B( 43-C , 44-C ) :   1.1302 B( 43-C , 89-H ) :   0.9562
B( 44-C , 45-C ) :   1.5001 B( 44-C , 48-C ) :   1.0337 B( 45-C , 46-C ) :   1.1498
B( 45-C , 90-H ) :   0.9943 B( 46-C , 47-C ) :   1.1055 B( 46-C , 51-C ) :   1.3780
B( 47-C , 48-C ) :   1.6630 B( 47-C , 49-C ) :   1.0867 B( 48-C , 91-H ) :   1.0279
B( 49-C , 50-N ) :   2.9676 B( 51-C , 52-C ) :   1.1373 B( 51-C , 55-C ) :   1.1074
B( 52-C , 53-C ) :   1.5672 B( 52-C , 92-H ) :   0.9997 B( 53-C , 54-C ) :   1.0406
B( 53-C , 58-C ) :   1.0178 B( 54-C , 55-C ) :   1.6521 B( 54-C , 93-H ) :   1.0311
B( 55-C , 56-C ) :   1.0851 B( 56-C , 57-N ) :   2.9575 B( 58-C , 59-O ) :   1.1429
B( 58-C , 62-C ) :   1.4409 B( 59-O , 60-C ) :   1.1900 B( 60-C , 61-C ) :   1.3767
B( 60-C , 66-C ) :   1.1476 B( 61-C , 62-C ) :   1.2345 B( 61-C , 63-N ) :   0.9268
B( 62-C , 94-H ) :   1.0233 B( 63-N , 64-O ) :   1.5164 B( 63-N , 65-O ) :   1.5547
B( 64-O , 65-O ) :   0.2693 B( 66-C , 67-C ) :   1.8796 B( 66-C , 95-H ) :   0.9477
B( 67-C , 96-H ) :   0.9581 B( 67-C , 97-H ) :   0.9457

-----------------------------------------------------------------------------
         ABSORPTION SPECTRUM VIA TRANSITION ELECTRIC DIPOLE MOMENTS
-----------------------------------------------------------------------------
State   Energy  Wavelength   fosc         T2         TX        TY        TZ
        (cm-1)    (nm)                  (au**2)     (au)      (au)      (au)
-----------------------------------------------------------------------------
   0    5373.4   1861.0   0.417344193  25.56955   2.99334   4.06815  -0.24424
   1    9706.3   1030.3   0.243994466   8.27561  -1.51715  -2.43576   0.20237
   2   12270.7    815.0   0.025383328   0.68101   0.06681   0.08197  -0.81843
   3   14417.7    693.6   0.157997590   3.60771   1.19419   1.40986  -0.44037
   4   16725.3    597.9   0.061257599   1.20576  -0.42035  -0.97490   0.28042
   5   17440.0    573.4   0.022193171   0.41894  -0.20849  -0.52435  -0.31705
   6   18386.9    543.9   0.022766319   0.40762  -0.16281  -0.53668  -0.30511
   7   21613.5    462.7   0.056737063   0.86421  -0.36567  -0.49582  -0.69618
   8   22108.4    452.3   0.276746004   4.12096   0.95606   1.62693  -0.74834
   9   22778.5    439.0   0.026865462   0.38828  -0.05911   0.46001   0.41614
  10   22885.6    437.0   0.054669356   0.78643   0.04801   0.76352   0.44851
  11   24146.6    414.1   0.331235281   4.51602  -1.23867  -1.71256   0.22102
  12   24399.6    409.8   0.004956707   0.06688   0.23931  -0.09696   0.01437
  13   24794.1    403.3   0.062288151   0.82705  -0.10817   0.44542  -0.78546
  14   25152.8    397.6   0.164799248   2.15697   0.67640   1.08354  -0.72485
  15   25594.4    390.7   0.028916425   0.37194   0.16002   0.58630   0.05087
  16   26144.1    382.5   0.085482063   1.07641   0.33068   0.76547   0.61735
  17   26254.9    380.9   0.079800883   1.00063  -0.09317   0.51243  -0.85403
  18   26852.1    372.4   0.061901704   0.75893   0.13301  -0.71349   0.48183
  19   27215.6    367.4   0.004025474   0.04869  -0.09621   0.13837  -0.14244
  20   27740.7    360.5   0.003813268   0.04525  -0.05399  -0.19432   0.06768
  21   27811.3    359.6   0.011528114   0.13646   0.33916   0.03409   0.14238
  22   28323.2    353.1   0.154458245   1.79533   0.33890   1.18791  -0.51899
  23   28640.0    349.2   0.289307795   3.32555   1.74189  -0.51857  -0.14987
  24   29130.5    343.3   0.029613309   0.33467  -0.03026   0.42824   0.38777
  25   29428.0    339.8   0.018585447   0.20792   0.33971   0.30360   0.01837
  26   30622.7    326.6   0.317913037   3.41775  -1.06533   1.22550  -0.88373
  27   30831.5    324.3   0.020661390   0.22062  -0.26491  -0.06228  -0.38283
  28   30997.6    322.6   0.008601303   0.09135  -0.02626   0.29693  -0.04994
  29   31205.9    320.5   0.064611991   0.68164  -0.04014  -0.73934  -0.36523
  30   31264.3    319.9   0.031581778   0.33256  -0.37775   0.02694  -0.43489
  31   31688.4    315.6   0.155496588   1.61546   0.59273  -1.12376   0.03591
  32   31939.6    313.1   0.261526363   2.69564  -0.91323   1.35778  -0.13449
  33   32112.8    311.4   0.071102191   0.72892  -0.74489   0.26440  -0.32273
  34   32638.6    306.4   0.044979231   0.45369   0.21900   0.02994  -0.63626
  35   32694.8    305.9   0.039037805   0.39308  -0.50183   0.35184  -0.13212
  36   33305.0    300.3   0.019336945   0.19114  -0.35676  -0.24467  -0.06320
  37   33432.2    299.1   0.120768168   1.18922  -0.84969   0.61933  -0.28928
  38   33521.2    298.3   0.030974438   0.30420   0.38901  -0.03978  -0.38896
  39   33896.3    295.0   0.000021151   0.00021  -0.01381  -0.00337  -0.00187
  40   34120.3    293.1   0.011984810   0.11564   0.19917   0.22031   0.16563
  41   34158.1    292.8   0.007074222   0.06818  -0.07430  -0.10911   0.22529
  42   34221.9    292.2   0.037118632   0.35708  -0.49770  -0.33053   0.01105
  43   34299.5    291.5   0.056064334   0.53811   0.15306  -0.71318  -0.07789
  44   35129.8    284.7   0.115138046   1.07899  -0.56524   0.82798   0.27195
  45   35627.4    280.7   0.004245480   0.03923   0.10039  -0.16987  -0.01720
  46   35987.1    277.9   0.072835455   0.66630  -0.63705   0.51036   0.00242
  47   36145.0    276.7   0.024869378   0.22651   0.08101  -0.41745  -0.21373
  48   36262.6    275.8   0.009017488   0.08187  -0.04225   0.03643  -0.28063
  49   36430.9    274.5   0.001394513   0.01260  -0.00925  -0.09956   0.05103
  50   36497.9    274.0   0.012413589   0.11197   0.17293  -0.28647   0.00030
  51   36601.4    273.2   0.001791285   0.01611  -0.00803   0.12564   0.01621
  52   36717.9    272.3   0.002743894   0.02460   0.07149  -0.13549  -0.03368
  53   36912.0    270.9   0.039200410   0.34962   0.51627   0.05714  -0.28253
  54   37695.6    265.3   0.476945061   4.16536   0.70052   1.90657   0.19902
  55   37947.3    263.5   0.001530256   0.01328  -0.00411   0.10932   0.03616
  56   38060.2    262.7   0.046318109   0.40064   0.47613   0.40807  -0.08611
  57   38235.6    261.5   0.012846623   0.11061   0.13492   0.29948  -0.05214
  58   38450.1    260.1   0.068249029   0.58435   0.72069  -0.19128  -0.16843
  59   38626.9    258.9   0.023334194   0.19887  -0.11930   0.07904   0.42237
  60   38765.4    258.0   0.004759655   0.04042   0.01006   0.12707   0.15548
  61   38990.1    256.5   0.034574490   0.29193   0.52232  -0.06053   0.12430
  62   39185.6    255.2   0.012043404   0.10118   0.02039   0.26978   0.16729
  63   39476.5    253.3   0.054545428   0.45488   0.42131  -0.39298  -0.35063
  64   39650.5    252.2   0.055983549   0.46482   0.56008   0.21782   0.32200
  65   39938.6    250.4   0.010197952   0.08406  -0.26278   0.05434  -0.10979
  66   40100.2    249.4   0.005960315   0.04893  -0.07922   0.10815  -0.17596
  67   40192.0    248.8   0.000407339   0.00334  -0.02529  -0.04981   0.01469

FINAL SINGLE POINT ENERGY     -3183.379260681251

DIPOLE MOMENT
-------------
                                X             Y             Z
Electronic contribution:      4.84597      -2.54031      -5.94654
Nuclear contribution   :     -4.59139       3.45671       6.81119
                        -----------------------------------------
Total Dipole Moment    :      0.25458       0.91640       0.86465
                        -----------------------------------------
Magnitude (a.u.)       :      1.28539
Magnitude (Debye)      :      3.26720

Rotational constants in cm-1:     0.002617     0.000269     0.000259
Rotational constants in MHz :    78.450952     8.078599     7.767323

                             ****ORCA TERMINATED NORMALLY****
TOTAL RUN TIME: 0 days 0 hours 10 minutes 42 seconds 777 msec
