                         Program Version 4.2.0 -  RELEASE  -
|  1> # ORCA input file
|  2> # SCF done        -91.606803209254          0.000465287256
|  3> ! CAM-B3LYP def2-SVP def2/J RIJCOSX Grid4 TightSCF
|  4> %maxcore 5000
|  5> %tddft
|  6>     Mode sTDDFT
|  7>     Ethresh 5.0
|  8>     maxcore 5000
|  9> end
| 10>
| 11> %pal
| 12>   nprocs 6
| 13>   end
| 14> * xyz 0 1
| 15>    C       -0.78398        -0.26423        -2.23298
| 16>    C       -1.27628         0.99797        -1.92418
| 17>    O       -1.82701         1.85077        -2.83917
| 18>    C       -1.91040         1.43661        -4.17982
| 19>    C       -1.23101         1.45023        -0.59020
| 20>    C       -0.67821         0.62168         0.38718
| 21>    C       -0.18411        -0.63379         0.07168
| 22>    C       -0.24586        -1.07057        -1.25025
| 23>    O        0.37815        -1.50224         0.96255
| 24>    C        0.47633        -1.10981         2.30914
| 25>    C       -1.73821         2.77284        -0.27901
| 26>    C       -2.08944         3.21336         0.93693
| 27>    C       -2.59165         4.53828         1.24342
| 28>    C       -2.47981         5.62872         0.38176
| 29>    C       -2.98240         6.87247         0.76352
| 30>    C       -3.58479         6.95805         2.02578
| 31>    N       -3.68929         5.94057         2.85480
| 32>    C       -3.20709         4.77196         2.48058
| 33>    C       -2.87741         8.03439        -0.08895
| 34>    C       -2.55255         8.09917        -1.42134
| 35>    C       -2.53851         9.40117        -1.93377
| 36>    C       -2.84958        10.35726        -0.99684
| 37>    S       -3.17670         9.62667         0.54704
| 38>    C       -2.91441        11.76990        -1.16185
| 39>    C       -3.22663        12.72295        -0.22202
| 40>    C       -3.18307        14.02909        -0.72040
| 41>    C       -2.83993        14.10345        -2.04818
| 42>    S       -2.56539        12.50708        -2.69599
| 43>    C       -2.69617        15.27134        -2.88240
| 44>    C       -2.45986        15.16401        -4.25652
| 45>    C       -2.32956        16.30901        -5.01752
| 46>    C       -2.44026        17.53894        -4.38428
| 47>    N       -2.65874        17.66068        -3.08524
| 48>    C       -2.78058        16.56988        -2.35985
| 49>    H       -0.81117        -0.63476        -3.24515
| 50>    H       -2.38363         2.26048        -4.71238
| 51>    H       -2.52699         0.53838        -4.28666
| 52>    H       -0.91991         1.25184        -4.60846
| 53>    H       -0.62420         0.99270         1.39705
| 54>    H        0.13993        -2.04800        -1.49092
| 55>    H        0.95664        -1.94076         2.82347
| 56>    H       -0.51036        -0.93425         2.75055
| 57>    H        1.09135        -0.21103         2.42351
| 58>    H       -1.86151         3.41348        -1.14003
| 59>    H       -2.04582         2.54593         1.78738
| 60>    H       -1.97829         5.51764        -0.56695
| 61>    H       -3.99554         7.89710         2.37496
| 62>    H       -3.31485         3.97052         3.20065
| 63>    H       -2.34148         7.23261        -2.02161
| 64>    H       -2.30752         9.64505        -2.95587
| 65>    H       -3.47687        12.47297         0.79394
| 66>    H       -3.40508        14.89118        -0.11815
| 67>    H       -2.38341        14.18553        -4.71058
| 68>    H       -2.14769        16.25020        -6.07945
| 69>    H       -2.34998        18.46663        -4.93303
| 70>    H       -2.94913        16.73541        -1.30476
| 71> *
| 72>
| 73>                          ****END OF INPUT****

CARTESIAN COORDINATES (ANGSTROEM)
---------------------------------
  C     -0.783980   -0.264230   -2.232980
  C     -1.276280    0.997970   -1.924180
  O     -1.827010    1.850770   -2.839170
  C     -1.910400    1.436610   -4.179820
  C     -1.231010    1.450230   -0.590200
  C     -0.678210    0.621680    0.387180
  C     -0.184110   -0.633790    0.071680
  C     -0.245860   -1.070570   -1.250250
  O      0.378150   -1.502240    0.962550
  C      0.476330   -1.109810    2.309140
  C     -1.738210    2.772840   -0.279010
  C     -2.089440    3.213360    0.936930
  C     -2.591650    4.538280    1.243420
  C     -2.479810    5.628720    0.381760
  C     -2.982400    6.872470    0.763520
  C     -3.584790    6.958050    2.025780
  N     -3.689290    5.940570    2.854800
  C     -3.207090    4.771960    2.480580
  C     -2.877410    8.034390   -0.088950
  C     -2.552550    8.099170   -1.421340
  C     -2.538510    9.401170   -1.933770
  C     -2.849580   10.357260   -0.996840
  S     -3.176700    9.626670    0.547040
  C     -2.914410   11.769900   -1.161850
  C     -3.226630   12.722950   -0.222020
  C     -3.183070   14.029090   -0.720400
  C     -2.839930   14.103450   -2.048180
  S     -2.565390   12.507080   -2.695990
  C     -2.696170   15.271340   -2.882400
  C     -2.459860   15.164010   -4.256520
  C     -2.329560   16.309010   -5.017520
  C     -2.440260   17.538940   -4.384280
  N     -2.658740   17.660680   -3.085240
  C     -2.780580   16.569880   -2.359850
  H     -0.811170   -0.634760   -3.245150
  H     -2.383630    2.260480   -4.712380
  H     -2.526990    0.538380   -4.286660
  H     -0.919910    1.251840   -4.608460
  H     -0.624200    0.992700    1.397050
  H      0.139930   -2.048000   -1.490920
  H      0.956640   -1.940760    2.823470
  H     -0.510360   -0.934250    2.750550
  H      1.091350   -0.211030    2.423510
  H     -1.861510    3.413480   -1.140030
  H     -2.045820    2.545930    1.787380
  H     -1.978290    5.517640   -0.566950
  H     -3.995540    7.897100    2.374960
  H     -3.314850    3.970520    3.200650
  H     -2.341480    7.232610   -2.021610
  H     -2.307520    9.645050   -2.955870
  H     -3.476870   12.472970    0.793940
  H     -3.405080   14.891180   -0.118150
  H     -2.383410   14.185530   -4.710580
  H     -2.147690   16.250200   -6.079450
  H     -2.349980   18.466630   -4.933030
  H     -2.949130   16.735410   -1.304760

 Total Charge           Charge          ....    0
 Multiplicity           Mult            ....    1
 Number of Electrons    NEL             ....  252
 Basis Dimension        Dim             ....  594

ORBITAL ENERGIES
----------------

  NO   OCC          E(Eh)            E(eV)
   0   2.0000     -88.954591     -2420.5775
   1   2.0000     -88.953513     -2420.5481
   2   2.0000     -19.240927      -523.5722
   3   2.0000     -19.233306      -523.3649
   4   2.0000     -14.395472      -391.7207
   5   2.0000     -14.393951      -391.6793
   6   2.0000     -10.322321      -280.8846
   7   2.0000     -10.321585      -280.8646
   8   2.0000     -10.318928      -280.7923
   9   2.0000     -10.316137      -280.7164
  10   2.0000     -10.304852      -280.4093
  11   2.0000     -10.303842      -280.3818
  12   2.0000     -10.300411      -280.2884
  13   2.0000     -10.299536      -280.2646
  14   2.0000     -10.298830      -280.2454
  15   2.0000     -10.295415      -280.1525
  16   2.0000     -10.294929      -280.1392
  17   2.0000     -10.292352      -280.0691
  18   2.0000     -10.289205      -279.9835
  19   2.0000     -10.286795      -279.9179
  20   2.0000     -10.285296      -279.8771
  21   2.0000     -10.280505      -279.7468
  22   2.0000     -10.278709      -279.6979
  23   2.0000     -10.275315      -279.6055
  24   2.0000     -10.272905      -279.5400
  25   2.0000     -10.272626      -279.5324
  26   2.0000     -10.272290      -279.5232
  27   2.0000     -10.272147      -279.5193
  28   2.0000     -10.272059      -279.5169
  29   2.0000     -10.267998      -279.4064
  30   2.0000     -10.267277      -279.3868
  31   2.0000     -10.266886      -279.3762
  32   2.0000     -10.264037      -279.2987
  33   2.0000     -10.262776      -279.2643
  34   2.0000      -8.050051      -219.0530
  35   2.0000      -8.048919      -219.0222
  36   2.0000      -6.019344      -163.7947
  37   2.0000      -6.018235      -163.7645
  38   2.0000      -6.015322      -163.6852
  39   2.0000      -6.014138      -163.6530
  40   2.0000      -6.012109      -163.5978
  41   2.0000      -6.010999      -163.5676
  42   2.0000      -1.144213       -31.1356
  43   2.0000      -1.137230       -30.9456
  44   2.0000      -1.030765       -28.0485
  45   2.0000      -1.029319       -28.0092
  46   2.0000      -0.992357       -27.0034
  47   2.0000      -0.971748       -26.4426
  48   2.0000      -0.944608       -25.7041
  49   2.0000      -0.910602       -24.7787
  50   2.0000      -0.902624       -24.5616
  51   2.0000      -0.887745       -24.1568
  52   2.0000      -0.864815       -23.5328
  53   2.0000      -0.859409       -23.3857
  54   2.0000      -0.837161       -22.7803
  55   2.0000      -0.834193       -22.6995
  56   2.0000      -0.833260       -22.6741
  57   2.0000      -0.816311       -22.2129
  58   2.0000      -0.803637       -21.8681
  59   2.0000      -0.798566       -21.7301
  60   2.0000      -0.779136       -21.2014
  61   2.0000      -0.752194       -20.4682
  62   2.0000      -0.731271       -19.8989
  63   2.0000      -0.724888       -19.7252
  64   2.0000      -0.718265       -19.5450
  65   2.0000      -0.709581       -19.3087
  66   2.0000      -0.695067       -18.9137
  67   2.0000      -0.668629       -18.1943
  68   2.0000      -0.659191       -17.9375
  69   2.0000      -0.646111       -17.5816
  70   2.0000      -0.635621       -17.2961
  71   2.0000      -0.621291       -16.9062
  72   2.0000      -0.618527       -16.8310
  73   2.0000      -0.613390       -16.6912
  74   2.0000      -0.611135       -16.6298
  75   2.0000      -0.598005       -16.2725
  76   2.0000      -0.593212       -16.1421
  77   2.0000      -0.583741       -15.8844
  78   2.0000      -0.579241       -15.7620
  79   2.0000      -0.565580       -15.3902
  80   2.0000      -0.563755       -15.3406
  81   2.0000      -0.551864       -15.0170
  82   2.0000      -0.545821       -14.8525
  83   2.0000      -0.544266       -14.8102
  84   2.0000      -0.526465       -14.3258
  85   2.0000      -0.525103       -14.2888
  86   2.0000      -0.521261       -14.1842
  87   2.0000      -0.516862       -14.0645
  88   2.0000      -0.503441       -13.6993
  89   2.0000      -0.499722       -13.5981
  90   2.0000      -0.496063       -13.4986
  91   2.0000      -0.493978       -13.4418
  92   2.0000      -0.491877       -13.3846
  93   2.0000      -0.486173       -13.2294
  94   2.0000      -0.482516       -13.1299
  95   2.0000      -0.479262       -13.0414
  96   2.0000      -0.478558       -13.0222
  97   2.0000      -0.477066       -12.9816
  98   2.0000      -0.472157       -12.8480
  99   2.0000      -0.468897       -12.7593
 100   2.0000      -0.466329       -12.6895
 101   2.0000      -0.459154       -12.4942
 102   2.0000      -0.451909       -12.2971
 103   2.0000      -0.447566       -12.1789
 104   2.0000      -0.439458       -11.9583
 105   2.0000      -0.437048       -11.8927
 106   2.0000      -0.426855       -11.6153
 107   2.0000      -0.420284       -11.4365
 108   2.0000      -0.417040       -11.3482
 109   2.0000      -0.407424       -11.0866
 110   2.0000      -0.404113       -10.9965
 111   2.0000      -0.396455       -10.7881
 112   2.0000      -0.389192       -10.5905
 113   2.0000      -0.388008       -10.5582
 114   2.0000      -0.363582        -9.8936
 115   2.0000      -0.359331        -9.7779
 116   2.0000      -0.344738        -9.3808
 117   2.0000      -0.336348        -9.1525
 118   2.0000      -0.325960        -8.8698
 119   2.0000      -0.319658        -8.6983
 120   2.0000      -0.319304        -8.6887
 121   2.0000      -0.317782        -8.6473
 122   2.0000      -0.302127        -8.2213
 123   2.0000      -0.284205        -7.7336
 124   2.0000      -0.252180        -6.8622
 125   2.0000      -0.243402        -6.6233
 126   0.0000      -0.040802        -1.1103
 127   0.0000      -0.022094        -0.6012
 128   0.0000       0.000819         0.0223
 129   0.0000       0.019695         0.5359
 130   0.0000       0.032901         0.8953

MULLIKEN ATOMIC CHARGES
-----------------------
   0 C :   -0.087215
   1 C :    0.212110
   2 O :   -0.321937
   3 C :    0.180947
   4 C :    0.044357
   5 C :   -0.159469
   6 C :    0.259908
   7 C :   -0.020863
   8 O :   -0.318334
   9 C :    0.180432
  10 C :    0.018567
  11 C :    0.004455
  12 C :    0.084844
  13 C :   -0.039233
  14 C :    0.112430
  15 C :   -0.045189
  16 N :   -0.045730
  17 C :   -0.034640
  18 C :   -0.066218
  19 C :    0.004598
  20 C :   -0.011332
  21 C :   -0.032389
  22 S :    0.112596
  23 C :   -0.027926
  24 C :   -0.009918
  25 C :    0.005482
  26 C :   -0.061223
  27 S :    0.099274
  28 C :    0.089169
  29 C :   -0.006640
  30 C :    0.015136
  31 C :    0.016615
  32 N :   -0.062490
  33 C :   -0.023436
  34 H :   -0.030498
  35 H :    0.034533
  36 H :    0.022483
  37 H :    0.021145
  38 H :   -0.040961
  39 H :   -0.020918
  40 H :    0.034710
  41 H :    0.017542
  42 H :    0.020582
  43 H :   -0.008333
  44 H :   -0.020979
  45 H :   -0.018093
  46 H :    0.001985
  47 H :   -0.008990
  48 H :   -0.019730
  49 H :   -0.014484
  50 H :   -0.011046
  51 H :   -0.014621
  52 H :   -0.000307
  53 H :   -0.005952
  54 H :    0.002368
  55 H :   -0.007170
Sum of atomic charges:   -0.0000000

LOEWDIN ATOMIC CHARGES
----------------------
   0 C :   -0.063703
   1 C :    0.046470
   2 O :   -0.110026
   3 C :    0.075870
   4 C :   -0.042819
   5 C :   -0.057082
   6 C :    0.041246
   7 C :   -0.032138
   8 O :   -0.112866
   9 C :    0.074314
  10 C :   -0.002523
  11 C :   -0.027963
  12 C :   -0.038799
  13 C :    0.015464
  14 C :   -0.054768
  15 C :    0.004375
  16 N :   -0.061720
  17 C :    0.012081
  18 C :   -0.163081
  19 C :   -0.055287
  20 C :   -0.062888
  21 C :   -0.181753
  22 S :    0.441329
  23 C :   -0.179625
  24 C :   -0.062188
  25 C :   -0.050721
  26 C :   -0.165068
  27 S :    0.431869
  28 C :   -0.056091
  29 C :   -0.003365
  30 C :   -0.040656
  31 C :    0.013204
  32 N :   -0.066701
  33 C :    0.022709
  34 H :    0.028840
  35 H :    0.027700
  36 H :    0.014862
  37 H :    0.013813
  38 H :    0.025383
  39 H :    0.032426
  40 H :    0.028023
  41 H :    0.012665
  42 H :    0.013419
  43 H :    0.026443
  44 H :    0.023987
  45 H :    0.027645
  46 H :    0.012273
  47 H :    0.017935
  48 H :    0.028785
  49 H :    0.025719
  50 H :    0.026997
  51 H :    0.030558
  52 H :    0.023253
  53 H :    0.032664
  54 H :    0.020519
  55 H :    0.018993

  Mayer bond orders larger than 0.100000
B(  0-C ,  1-C ) :   1.3032 B(  0-C ,  7-C ) :   1.3561 B(  0-C , 34-H ) :   0.9976
B(  1-C ,  2-O ) :   1.1408 B(  1-C ,  4-C ) :   1.3520 B(  2-O ,  3-C ) :   0.9694
B(  3-C , 35-H ) :   0.9791 B(  3-C , 36-H ) :   0.9684 B(  3-C , 37-H ) :   0.9684
B(  4-C ,  5-C ) :   1.3284 B(  4-C , 10-C ) :   1.0756 B(  5-C ,  6-C ) :   1.3023
B(  5-C , 38-H ) :   0.9947 B(  6-C ,  7-C ) :   1.3707 B(  6-C ,  8-O ) :   1.1213
B(  7-C , 39-H ) :   0.9964 B(  8-O ,  9-C ) :   0.9762 B(  9-C , 40-H ) :   0.9784
B(  9-C , 41-H ) :   0.9680 B(  9-C , 42-H ) :   0.9679 B( 10-C , 11-C ) :   1.7308
B( 10-C , 43-H ) :   0.9645 B( 11-C , 12-C ) :   1.0459 B( 11-C , 44-H ) :   0.9729
B( 12-C , 13-C ) :   1.3788 B( 12-C , 17-C ) :   1.3156 B( 13-C , 14-C ) :   1.3915
B( 13-C , 45-H ) :   0.9831 B( 14-C , 15-C ) :   1.3127 B( 14-C , 18-C ) :   1.0411
B( 15-C , 16-N ) :   1.5781 B( 15-C , 46-H ) :   0.9803 B( 16-N , 17-C ) :   1.5605
B( 17-C , 47-H ) :   0.9875 B( 18-C , 19-C ) :   1.5465 B( 18-C , 21-C ) :   0.1047
B( 18-C , 22-S ) :   1.1223 B( 19-C , 20-C ) :   1.2476 B( 19-C , 48-H ) :   0.9923
B( 20-C , 21-C ) :   1.5207 B( 20-C , 49-H ) :   0.9918 B( 21-C , 22-S ) :   1.1239
B( 21-C , 23-C ) :   1.1392 B( 23-C , 24-C ) :   1.5207 B( 23-C , 26-C ) :   0.1034
B( 23-C , 27-S ) :   1.1235 B( 24-C , 25-C ) :   1.2503 B( 24-C , 50-H ) :   0.9918
B( 25-C , 26-C ) :   1.5458 B( 25-C , 51-H ) :   0.9911 B( 26-C , 27-S ) :   1.1138
B( 26-C , 28-C ) :   1.0613 B( 28-C , 29-C ) :   1.3698 B( 28-C , 33-C ) :   1.3357
B( 29-C , 30-C ) :   1.4335 B( 29-C , 52-H ) :   0.9797 B( 30-C , 31-C ) :   1.3772
B( 30-C , 53-H ) :   0.9743 B( 31-C , 32-N ) :   1.5351 B( 31-C , 54-H ) :   0.9821
B( 32-N , 33-C ) :   1.5843 B( 33-C , 55-H ) :   0.9855

-----------------------------------------------------------------------------
         ABSORPTION SPECTRUM VIA TRANSITION ELECTRIC DIPOLE MOMENTS
-----------------------------------------------------------------------------
State   Energy  Wavelength   fosc         T2         TX        TY        TZ
        (cm-1)    (nm)                  (au**2)     (au)      (au)      (au)
-----------------------------------------------------------------------------
   0   27823.8    359.4   1.709955615  20.23224   0.07688  -4.29580   1.33133
   1   31492.0    317.5   0.413294390   4.32050   0.71068  -1.29266  -1.46440
   2   32251.2    310.1   0.025377226   0.25904  -0.10980   0.41800   0.26882
   3   34672.2    288.4   0.038559979   0.36613  -0.20700   0.56127   0.09085
   4   36582.5    273.4   0.003480816   0.03132   0.05842  -0.13909   0.09255
   5   39800.5    251.3   0.454155445   3.75658   0.81456  -1.69287  -0.47672

FINAL SINGLE POINT ENERGY     -2134.590224497861

DIPOLE MOMENT
-------------
                                X             Y             Z
Electronic contribution:     -7.20913      30.87751       2.37002
Nuclear contribution   :      7.72652     -32.09055      -3.60437
                        -----------------------------------------
Total Dipole Moment    :      0.51739      -1.21304      -1.23435
                        -----------------------------------------
Magnitude (a.u.)       :      1.80631
Magnitude (Debye)      :      4.59129

Rotational constants in cm-1:     0.009054     0.000910     0.000845
Rotational constants in MHz :   271.429543    27.290503    25.336296

                             ****ORCA TERMINATED NORMALLY****
TOTAL RUN TIME: 0 days 0 hours 2 minutes 24 seconds 853 msec
