                         Program Version 4.2.0 -  RELEASE  -
|  1> # ORCA input file
|  2> # SCF done       -219.776560577720          0.000875859796
|  3> ! CAM-B3LYP def2-SVP def2/J RIJCOSX Grid4 TightSCF
|  4> %maxcore 5000
|  5> %tddft
|  6>     Mode sTDDFT
|  7>     Ethresh 5.0
|  8>     maxcore 5000
|  9> end
| 10>
| 11> %pal
| 12>   nprocs 6
| 13>   end
| 14> * xyz 0 1
| 15>    C        2.88578       -13.44205        -2.36161
| 16>    C        2.35307       -12.79059        -3.42081
| 17>    C        2.61396       -11.39325        -3.41356
| 18>    C        3.34901       -11.01580        -2.30417
| 19>    S        3.71243       -12.37885        -1.29059
| 20>    C        3.74410        -9.70996        -1.94689
| 21>    C        3.73132        -8.57886        -2.74847
| 22>    C        3.37743        -8.42533        -4.16652
| 23>    O        3.75967        -7.43130        -4.75478
| 24>    N        2.56745        -9.33737        -4.83437
| 25>    C        2.03738       -10.57739        -4.48545
| 26>    O        1.12701       -11.03594        -5.14969
| 27>    C        2.10598        -8.85606        -6.14441
| 28>    C        0.85677        -7.99599        -6.00842
| 29>    C        4.21262        -7.44376        -2.06350
| 30>    C        4.58357        -7.67897        -0.76297
| 31>    S        4.35569        -9.36109        -0.35973
| 32>    C        5.08229        -6.73323         0.17200
| 33>    C        5.44221        -7.02808         1.44117
| 34>    C        5.91567        -6.08100         2.38400
| 35>    S        6.10963        -4.39978         1.94819
| 36>    C        6.75126        -4.00880         3.51867
| 37>    N        7.10404        -2.71571         3.81427
| 38>    C        6.55542        -2.06910         4.99459
| 39>    C        6.81347        -5.11999         4.33844
| 40>    C        6.32734        -6.28707         3.68778
| 41>    C        6.41925        -7.63014         4.30395
| 42>    O        7.38727        -8.05680         4.87799
| 43>    O        5.29061        -8.33908         4.13411
| 44>    C        5.30066        -9.65309         4.67396
| 45>    C        7.32935        -5.08996         5.69441
| 46>    C        6.76254        -5.76245         6.70725
| 47>    C        7.21430        -5.81206         8.06167
| 48>    S        6.43641        -6.97208         9.12248
| 49>    C        7.47395        -6.55796        10.44770
| 50>    N        7.31909        -7.16841        11.64443
| 51>    C        6.20721        -8.04923        11.88947
| 52>    C        8.38585        -5.56525        10.09282
| 53>    C        8.20540        -5.14906         8.73832
| 54>    C        9.07993        -4.09589         8.16538
| 55>    O       10.26724        -4.19279         8.00451
| 56>    O        8.38789        -2.97344         7.89747
| 57>    C        9.15252        -1.88371         7.39954
| 58>    C        9.34876        -4.94458        10.95380
| 59>    C        9.83351        -5.42583        12.11668
| 60>    C       10.71974        -4.70605        12.96569
| 61>    S       11.44782        -3.20133        12.46752
| 62>    C       12.34623        -3.08424        13.95790
| 63>    N       13.17768        -2.01493        14.17910
| 64>    C       13.02973        -1.17821        15.35735
| 65>    C       12.08166        -4.14254        14.80548
| 66>    C       11.15372        -5.06505        14.22688
| 67>    C       10.75183        -6.35225        14.81895
| 68>    O        9.64811        -6.84140        14.71554
| 69>    O       11.77306        -6.94455        15.44989
| 70>    C       11.52762        -8.18183        16.10084
| 71>    C       12.68716        -4.24120        16.11022
| 72>    C       12.09889        -4.74730        17.20831
| 73>    C       12.72977        -4.82806        18.48472
| 74>    C       12.21937        -5.37812        19.63179
| 75>    C       13.07440        -5.29145        20.75164
| 76>    C       14.27001        -4.66316        20.44287
| 77>    S       14.33085        -4.19649        18.77064
| 78>    C       15.35897        -4.43239        21.30578
| 79>    C       15.37229        -4.52672        22.68939
| 80>    C       14.28758        -4.83611        23.62839
| 81>    O       14.42879        -4.53640        24.79940
| 82>    N       13.14070        -5.52297        23.23991
| 83>    C       12.64147        -5.92120        22.00441
| 84>    O       11.75463        -6.75335        21.96561
| 85>    C       12.33282        -5.99401        24.37444
| 86>    C       12.84703        -7.32613        24.90273
| 87>    C       16.63439        -4.18873        23.22910
| 88>    C       17.57490        -3.84943        22.29661
| 89>    S       16.89942        -3.92473        20.69244
| 90>    C       18.94991        -3.45993        22.46620
| 91>    C       19.58034        -3.38094        23.63527
| 92>    H        2.84484       -14.48841        -2.13426
| 93>    H        1.78683       -13.25872        -4.20487
| 94>    H        1.89403        -9.73044        -6.76029
| 95>    H        2.91959        -8.27778        -6.58386
| 96>    H        0.05155        -8.57441        -5.56211
| 97>    H        0.54143        -7.65550        -6.99066
| 98>    H        1.06373        -7.12783        -5.38689
| 99>    H        4.28024        -6.48057        -2.53565
|100>    H        5.16309        -5.71579        -0.18914
|101>    H        5.35290        -8.04658         1.79363
|102>    H        7.06193        -2.11372         3.00064
|103>    H        6.68506        -2.71358         5.86038
|104>    H        5.48829        -1.84449         4.88166
|105>    H        7.09503        -1.13776         5.15502
|106>    H        5.46862        -9.61768         5.75240
|107>    H        6.09541       -10.24520         4.21560
|108>    H        4.32646       -10.07993         4.45056
|109>    H        8.21735        -4.49568         5.84810
|110>    H        5.86942        -6.34361         6.51263
|111>    H        7.69684        -6.68524        12.44761
|112>    H        6.19836        -8.83678        11.13415
|113>    H        5.24549        -7.52467        11.84753
|114>    H        6.32777        -8.49948        12.87140
|115>    H       10.06535        -1.76531         7.98723
|116>    H        8.52228        -1.00243         7.48689
|117>    H        9.42647        -2.05831         6.35672
|118>    H        9.71996        -3.98546        10.61217
|119>    H        9.57269        -6.40870        12.47472
|120>    H       13.33008        -1.46593        13.34228
|121>    H       14.00092        -0.75376        15.61101
|122>    H       12.67677        -1.77884        16.19118
|123>    H       12.31979        -0.36051        15.19055
|124>    H       12.17172        -8.93941        15.65425
|125>    H       10.47961        -8.46475        15.98364
|126>    H       11.77214        -8.06400        17.15726
|127>    H       13.69182        -3.84229        16.18903
|128>    H       11.08229        -5.11422        17.17173
|129>    H       11.25120        -5.84186        19.69015
|130>    H       11.30552        -6.09998        24.02509
|131>    H       12.38667        -5.23062        25.15144
|132>    H       12.80023        -8.08135        24.12197
|133>    H       12.23197        -7.64722        25.73872
|134>    H       13.87477        -7.22441        25.24366
|135>    H       16.81114        -4.20113        24.28855
|136>    H       19.47494        -3.22260        21.55010
|137>    H       19.09139        -3.60953        24.56583
|138>    H       20.61190        -3.08210        23.69301
|139> *
|140>
|141>                          ****END OF INPUT****

CARTESIAN COORDINATES (ANGSTROEM)
---------------------------------
  C      2.885780  -13.442050   -2.361610
  C      2.353070  -12.790590   -3.420810
  C      2.613960  -11.393250   -3.413560
  C      3.349010  -11.015800   -2.304170
  S      3.712430  -12.378850   -1.290590
  C      3.744100   -9.709960   -1.946890
  C      3.731320   -8.578860   -2.748470
  C      3.377430   -8.425330   -4.166520
  O      3.759670   -7.431300   -4.754780
  N      2.567450   -9.337370   -4.834370
  C      2.037380  -10.577390   -4.485450
  O      1.127010  -11.035940   -5.149690
  C      2.105980   -8.856060   -6.144410
  C      0.856770   -7.995990   -6.008420
  C      4.212620   -7.443760   -2.063500
  C      4.583570   -7.678970   -0.762970
  S      4.355690   -9.361090   -0.359730
  C      5.082290   -6.733230    0.172000
  C      5.442210   -7.028080    1.441170
  C      5.915670   -6.081000    2.384000
  S      6.109630   -4.399780    1.948190
  C      6.751260   -4.008800    3.518670
  N      7.104040   -2.715710    3.814270
  C      6.555420   -2.069100    4.994590
  C      6.813470   -5.119990    4.338440
  C      6.327340   -6.287070    3.687780
  C      6.419250   -7.630140    4.303950
  O      7.387270   -8.056800    4.877990
  O      5.290610   -8.339080    4.134110
  C      5.300660   -9.653090    4.673960
  C      7.329350   -5.089960    5.694410
  C      6.762540   -5.762450    6.707250
  C      7.214300   -5.812060    8.061670
  S      6.436410   -6.972080    9.122480
  C      7.473950   -6.557960   10.447700
  N      7.319090   -7.168410   11.644430
  C      6.207210   -8.049230   11.889470
  C      8.385850   -5.565250   10.092820
  C      8.205400   -5.149060    8.738320
  C      9.079930   -4.095890    8.165380
  O     10.267240   -4.192790    8.004510
  O      8.387890   -2.973440    7.897470
  C      9.152520   -1.883710    7.399540
  C      9.348760   -4.944580   10.953800
  C      9.833510   -5.425830   12.116680
  C     10.719740   -4.706050   12.965690
  S     11.447820   -3.201330   12.467520
  C     12.346230   -3.084240   13.957900
  N     13.177680   -2.014930   14.179100
  C     13.029730   -1.178210   15.357350
  C     12.081660   -4.142540   14.805480
  C     11.153720   -5.065050   14.226880
  C     10.751830   -6.352250   14.818950
  O      9.648110   -6.841400   14.715540
  O     11.773060   -6.944550   15.449890
  C     11.527620   -8.181830   16.100840
  C     12.687160   -4.241200   16.110220
  C     12.098890   -4.747300   17.208310
  C     12.729770   -4.828060   18.484720
  C     12.219370   -5.378120   19.631790
  C     13.074400   -5.291450   20.751640
  C     14.270010   -4.663160   20.442870
  S     14.330850   -4.196490   18.770640
  C     15.358970   -4.432390   21.305780
  C     15.372290   -4.526720   22.689390
  C     14.287580   -4.836110   23.628390
  O     14.428790   -4.536400   24.799400
  N     13.140700   -5.522970   23.239910
  C     12.641470   -5.921200   22.004410
  O     11.754630   -6.753350   21.965610
  C     12.332820   -5.994010   24.374440
  C     12.847030   -7.326130   24.902730
  C     16.634390   -4.188730   23.229100
  C     17.574900   -3.849430   22.296610
  S     16.899420   -3.924730   20.692440
  C     18.949910   -3.459930   22.466200
  C     19.580340   -3.380940   23.635270
  H      2.844840  -14.488410   -2.134260
  H      1.786830  -13.258720   -4.204870
  H      1.894030   -9.730440   -6.760290
  H      2.919590   -8.277780   -6.583860
  H      0.051550   -8.574410   -5.562110
  H      0.541430   -7.655500   -6.990660
  H      1.063730   -7.127830   -5.386890
  H      4.280240   -6.480570   -2.535650
  H      5.163090   -5.715790   -0.189140
  H      5.352900   -8.046580    1.793630
  H      7.061930   -2.113720    3.000640
  H      6.685060   -2.713580    5.860380
  H      5.488290   -1.844490    4.881660
  H      7.095030   -1.137760    5.155020
  H      5.468620   -9.617680    5.752400
  H      6.095410  -10.245200    4.215600
  H      4.326460  -10.079930    4.450560
  H      8.217350   -4.495680    5.848100
  H      5.869420   -6.343610    6.512630
  H      7.696840   -6.685240   12.447610
  H      6.198360   -8.836780   11.134150
  H      5.245490   -7.524670   11.847530
  H      6.327770   -8.499480   12.871400
  H     10.065350   -1.765310    7.987230
  H      8.522280   -1.002430    7.486890
  H      9.426470   -2.058310    6.356720
  H      9.719960   -3.985460   10.612170
  H      9.572690   -6.408700   12.474720
  H     13.330080   -1.465930   13.342280
  H     14.000920   -0.753760   15.611010
  H     12.676770   -1.778840   16.191180
  H     12.319790   -0.360510   15.190550
  H     12.171720   -8.939410   15.654250
  H     10.479610   -8.464750   15.983640
  H     11.772140   -8.064000   17.157260
  H     13.691820   -3.842290   16.189030
  H     11.082290   -5.114220   17.171730
  H     11.251200   -5.841860   19.690150
  H     11.305520   -6.099980   24.025090
  H     12.386670   -5.230620   25.151440
  H     12.800230   -8.081350   24.121970
  H     12.231970   -7.647220   25.738720
  H     13.874770   -7.224410   25.243660
  H     16.811140   -4.201130   24.288550
  H     19.474940   -3.222600   21.550100
  H     19.091390   -3.609530   24.565830
  H     20.611900   -3.082100   23.693010

 Total Charge           Charge          ....    0
 Multiplicity           Mult            ....    1
 Number of Electrons    NEL             ....  604
 Basis Dimension        Dim             .... 1341

ORBITAL ENERGIES
----------------

  NO   OCC          E(Eh)            E(eV)
   0   2.0000     -88.966259     -2420.8950
   1   2.0000     -88.965891     -2420.8850
   2   2.0000     -88.963884     -2420.8303
   3   2.0000     -88.963019     -2420.8068
   4   2.0000     -88.952720     -2420.5266
   5   2.0000     -88.951276     -2420.4873
   6   2.0000     -88.949440     -2420.4373
   7   2.0000     -19.257891      -524.0339
   8   2.0000     -19.257839      -524.0324
   9   2.0000     -19.252564      -523.8889
  10   2.0000     -19.201874      -522.5096
  11   2.0000     -19.199468      -522.4441
  12   2.0000     -19.197073      -522.3789
  13   2.0000     -19.192734      -522.2608
  14   2.0000     -19.191001      -522.2137
  15   2.0000     -19.190621      -522.2033
  16   2.0000     -19.188928      -522.1573
  17   2.0000     -14.453901      -393.3106
  18   2.0000     -14.451979      -393.2584
  19   2.0000     -14.433722      -392.7616
  20   2.0000     -14.430402      -392.6712
  21   2.0000     -14.429825      -392.6555
  22   2.0000     -10.397839      -282.9396
  23   2.0000     -10.396272      -282.8969
  24   2.0000     -10.394710      -282.8544
  25   2.0000     -10.386815      -282.6396
  26   2.0000     -10.386589      -282.6334
  27   2.0000     -10.385082      -282.5924
  28   2.0000     -10.384693      -282.5819
  29   2.0000     -10.334308      -281.2108
  30   2.0000     -10.330882      -281.1176
  31   2.0000     -10.330387      -281.1041
  32   2.0000     -10.323572      -280.9187
  33   2.0000     -10.322053      -280.8773
  34   2.0000     -10.321958      -280.8748
  35   2.0000     -10.321134      -280.8523
  36   2.0000     -10.320976      -280.8480
  37   2.0000     -10.320024      -280.8221
  38   2.0000     -10.314123      -280.6616
  39   2.0000     -10.306430      -280.4522
  40   2.0000     -10.306137      -280.4442
  41   2.0000     -10.305434      -280.4251
  42   2.0000     -10.304345      -280.3955
  43   2.0000     -10.301560      -280.3197
  44   2.0000     -10.300178      -280.2821
  45   2.0000     -10.299511      -280.2639
  46   2.0000     -10.299149      -280.2541
  47   2.0000     -10.297844      -280.2186
  48   2.0000     -10.290662      -280.0231
  49   2.0000     -10.290206      -280.0107
  50   2.0000     -10.288898      -279.9751
  51   2.0000     -10.288810      -279.9727
  52   2.0000     -10.288462      -279.9633
  53   2.0000     -10.285600      -279.8854
  54   2.0000     -10.284675      -279.8602
  55   2.0000     -10.282620      -279.8043
  56   2.0000     -10.282543      -279.8022
  57   2.0000     -10.281937      -279.7857
  58   2.0000     -10.279283      -279.7135
  59   2.0000     -10.277971      -279.6778
  60   2.0000     -10.277020      -279.6519
  61   2.0000     -10.276570      -279.6397
  62   2.0000     -10.276179      -279.6290
  63   2.0000     -10.275810      -279.6190
  64   2.0000     -10.275070      -279.5989
  65   2.0000     -10.274918      -279.5947
  66   2.0000     -10.273191      -279.5477
  67   2.0000     -10.271916      -279.5130
  68   2.0000     -10.271296      -279.4962
  69   2.0000     -10.270987      -279.4878
  70   2.0000     -10.270499      -279.4745
  71   2.0000     -10.269451      -279.4460
  72   2.0000     -10.264955      -279.3236
  73   2.0000     -10.263485      -279.2836
  74   2.0000     -10.263121      -279.2737
  75   2.0000     -10.244603      -278.7698
  76   2.0000     -10.242529      -278.7134
  77   2.0000      -8.062100      -219.3809
  78   2.0000      -8.061918      -219.3760
  79   2.0000      -8.059483      -219.3097
  80   2.0000      -8.058599      -219.2856
  81   2.0000      -8.048922      -219.0223
  82   2.0000      -8.047503      -218.9837
  83   2.0000      -8.045549      -218.9305
  84   2.0000      -6.031366      -164.1218
  85   2.0000      -6.031325      -164.1207
  86   2.0000      -6.028819      -164.0525
  87   2.0000      -6.027908      -164.0277
  88   2.0000      -6.027204      -164.0086
  89   2.0000      -6.026817      -163.9980
  90   2.0000      -6.024703      -163.9405
  91   2.0000      -6.024233      -163.9277
  92   2.0000      -6.024092      -163.9239
  93   2.0000      -6.023827      -163.9167
  94   2.0000      -6.021450      -163.8520
  95   2.0000      -6.020594      -163.8287
  96   2.0000      -6.018216      -163.7640
  97   2.0000      -6.016794      -163.7253
  98   2.0000      -6.014996      -163.6764
  99   2.0000      -6.014318      -163.6579
 100   2.0000      -6.012907      -163.6195
 101   2.0000      -6.010867      -163.5640
 102   2.0000      -6.010678      -163.5589
 103   2.0000      -6.009224      -163.5193
 104   2.0000      -6.007217      -163.4647
 105   2.0000      -1.188240       -32.3337
 106   2.0000      -1.187628       -32.3170
 107   2.0000      -1.184973       -32.2447
 108   2.0000      -1.145409       -31.1682
 109   2.0000      -1.143481       -31.1157
 110   2.0000      -1.123229       -30.5646
 111   2.0000      -1.121313       -30.5125
 112   2.0000      -1.094059       -29.7708
 113   2.0000      -1.091404       -29.6986
 114   2.0000      -1.091243       -29.6942
 115   2.0000      -1.042351       -28.3638
 116   2.0000      -1.036444       -28.2031
 117   2.0000      -1.036069       -28.1929
 118   2.0000      -1.015334       -27.6287
 119   2.0000      -1.013346       -27.5745
 120   2.0000      -1.005624       -27.3644
 121   2.0000      -1.003788       -27.3145
 122   2.0000      -0.981452       -26.7067
 123   2.0000      -0.979033       -26.6408
 124   2.0000      -0.968367       -26.3506
 125   2.0000      -0.966477       -26.2992
 126   2.0000      -0.962708       -26.1966
 127   2.0000      -0.909497       -24.7487
 128   2.0000      -0.905117       -24.6295
 129   2.0000      -0.895451       -24.3665
 130   2.0000      -0.887879       -24.1604
 131   2.0000      -0.878916       -23.9165
 132   2.0000      -0.866140       -23.5689
 133   2.0000      -0.865537       -23.5525
 134   2.0000      -0.860642       -23.4193
 135   2.0000      -0.858488       -23.3606
 136   2.0000      -0.852558       -23.1993
 137   2.0000      -0.850964       -23.1559
 138   2.0000      -0.843990       -22.9661
 139   2.0000      -0.840323       -22.8663
 140   2.0000      -0.837971       -22.8024
 141   2.0000      -0.830117       -22.5886
 142   2.0000      -0.823517       -22.4090
 143   2.0000      -0.821073       -22.3425
 144   2.0000      -0.812099       -22.0983
 145   2.0000      -0.806027       -21.9331
 146   2.0000      -0.804379       -21.8883
 147   2.0000      -0.797738       -21.7076
 148   2.0000      -0.793564       -21.5940
 149   2.0000      -0.788773       -21.4636
 150   2.0000      -0.783454       -21.3189
 151   2.0000      -0.768173       -20.9030
 152   2.0000      -0.765444       -20.8288
 153   2.0000      -0.752782       -20.4842
 154   2.0000      -0.742415       -20.2021
 155   2.0000      -0.739033       -20.1101
 156   2.0000      -0.731884       -19.9156
 157   2.0000      -0.731024       -19.8922
 158   2.0000      -0.722245       -19.6533
 159   2.0000      -0.716132       -19.4869
 160   2.0000      -0.707684       -19.2570
 161   2.0000      -0.692342       -18.8396
 162   2.0000      -0.688869       -18.7451
 163   2.0000      -0.685597       -18.6561
 164   2.0000      -0.674455       -18.3529
 165   2.0000      -0.671543       -18.2736
 166   2.0000      -0.667360       -18.1598
 167   2.0000      -0.664447       -18.0805
 168   2.0000      -0.664212       -18.0741
 169   2.0000      -0.663854       -18.0644
 170   2.0000      -0.657453       -17.8902
 171   2.0000      -0.651406       -17.7257
 172   2.0000      -0.649024       -17.6609
 173   2.0000      -0.642785       -17.4911
 174   2.0000      -0.639798       -17.4098
 175   2.0000      -0.635667       -17.2974
 176   2.0000      -0.627900       -17.0860
 177   2.0000      -0.627477       -17.0745
 178   2.0000      -0.619654       -16.8616
 179   2.0000      -0.618893       -16.8409
 180   2.0000      -0.616480       -16.7753
 181   2.0000      -0.607877       -16.5412
 182   2.0000      -0.601130       -16.3576
 183   2.0000      -0.596243       -16.2246
 184   2.0000      -0.588555       -16.0154
 185   2.0000      -0.575632       -15.6637
 186   2.0000      -0.571068       -15.5396
 187   2.0000      -0.569637       -15.5006
 188   2.0000      -0.566641       -15.4191
 189   2.0000      -0.563101       -15.3228
 190   2.0000      -0.560635       -15.2557
 191   2.0000      -0.560332       -15.2474
 192   2.0000      -0.558108       -15.1869
 193   2.0000      -0.556390       -15.1401
 194   2.0000      -0.554679       -15.0936
 195   2.0000      -0.553627       -15.0650
 196   2.0000      -0.551060       -14.9951
 197   2.0000      -0.548561       -14.9271
 198   2.0000      -0.547293       -14.8926
 199   2.0000      -0.543836       -14.7985
 200   2.0000      -0.542857       -14.7719
 201   2.0000      -0.541441       -14.7334
 202   2.0000      -0.539677       -14.6853
 203   2.0000      -0.538548       -14.6546
 204   2.0000      -0.536148       -14.5893
 205   2.0000      -0.535489       -14.5714
 206   2.0000      -0.530030       -14.4228
 207   2.0000      -0.529409       -14.4059
 208   2.0000      -0.526809       -14.3352
 209   2.0000      -0.523396       -14.2423
 210   2.0000      -0.522842       -14.2273
 211   2.0000      -0.517927       -14.0935
 212   2.0000      -0.513995       -13.9865
 213   2.0000      -0.511425       -13.9166
 214   2.0000      -0.508873       -13.8471
 215   2.0000      -0.507960       -13.8223
 216   2.0000      -0.502283       -13.6678
 217   2.0000      -0.500348       -13.6152
 218   2.0000      -0.498331       -13.5603
 219   2.0000      -0.497570       -13.5396
 220   2.0000      -0.496439       -13.5088
 221   2.0000      -0.495851       -13.4928
 222   2.0000      -0.494250       -13.4492
 223   2.0000      -0.492830       -13.4106
 224   2.0000      -0.491726       -13.3805
 225   2.0000      -0.489555       -13.3215
 226   2.0000      -0.489153       -13.3105
 227   2.0000      -0.487083       -13.2542
 228   2.0000      -0.485741       -13.2177
 229   2.0000      -0.484916       -13.1952
 230   2.0000      -0.483371       -13.1532
 231   2.0000      -0.480779       -13.0827
 232   2.0000      -0.479548       -13.0492
 233   2.0000      -0.476994       -12.9797
 234   2.0000      -0.474468       -12.9109
 235   2.0000      -0.471249       -12.8233
 236   2.0000      -0.469811       -12.7842
 237   2.0000      -0.468701       -12.7540
 238   2.0000      -0.467438       -12.7196
 239   2.0000      -0.466006       -12.6807
 240   2.0000      -0.464661       -12.6441
 241   2.0000      -0.463096       -12.6015
 242   2.0000      -0.458214       -12.4686
 243   2.0000      -0.455008       -12.3814
 244   2.0000      -0.454337       -12.3631
 245   2.0000      -0.449941       -12.2435
 246   2.0000      -0.449651       -12.2356
 247   2.0000      -0.446998       -12.1634
 248   2.0000      -0.446381       -12.1467
 249   2.0000      -0.444641       -12.0993
 250   2.0000      -0.444430       -12.0936
 251   2.0000      -0.442308       -12.0358
 252   2.0000      -0.439553       -11.9609
 253   2.0000      -0.439205       -11.9514
 254   2.0000      -0.435194       -11.8422
 255   2.0000      -0.434046       -11.8110
 256   2.0000      -0.433345       -11.7919
 257   2.0000      -0.432217       -11.7612
 258   2.0000      -0.429498       -11.6872
 259   2.0000      -0.424915       -11.5625
 260   2.0000      -0.423689       -11.5292
 261   2.0000      -0.420751       -11.4492
 262   2.0000      -0.416697       -11.3389
 263   2.0000      -0.414819       -11.2878
 264   2.0000      -0.411206       -11.1895
 265   2.0000      -0.407854       -11.0983
 266   2.0000      -0.407594       -11.0912
 267   2.0000      -0.406256       -11.0548
 268   2.0000      -0.405676       -11.0390
 269   2.0000      -0.403018       -10.9667
 270   2.0000      -0.398731       -10.8500
 271   2.0000      -0.391301       -10.6478
 272   2.0000      -0.376217       -10.2374
 273   2.0000      -0.374521       -10.1912
 274   2.0000      -0.374323       -10.1858
 275   2.0000      -0.369993       -10.0680
 276   2.0000      -0.362836        -9.8733
 277   2.0000      -0.361159        -9.8276
 278   2.0000      -0.357894        -9.7388
 279   2.0000      -0.356289        -9.6951
 280   2.0000      -0.355876        -9.6839
 281   2.0000      -0.351173        -9.5559
 282   2.0000      -0.343256        -9.3405
 283   2.0000      -0.338831        -9.2201
 284   2.0000      -0.336826        -9.1655
 285   2.0000      -0.335678        -9.1343
 286   2.0000      -0.334993        -9.1156
 287   2.0000      -0.333559        -9.0766
 288   2.0000      -0.329851        -8.9757
 289   2.0000      -0.326562        -8.8862
 290   2.0000      -0.325187        -8.8488
 291   2.0000      -0.322912        -8.7869
 292   2.0000      -0.322841        -8.7850
 293   2.0000      -0.321483        -8.7480
 294   2.0000      -0.310448        -8.4477
 295   2.0000      -0.304436        -8.2841
 296   2.0000      -0.296137        -8.0583
 297   2.0000      -0.282944        -7.6993
 298   2.0000      -0.264097        -7.1864
 299   2.0000      -0.246119        -6.6972
 300   2.0000      -0.232445        -6.3251
 301   2.0000      -0.214094        -5.8258
 302   0.0000      -0.056160        -1.5282
 303   0.0000      -0.056080        -1.5260
 304   0.0000      -0.019260        -0.5241
 305   0.0000      -0.012751        -0.3470
 306   0.0000      -0.005707        -0.1553

MULLIKEN ATOMIC CHARGES
-----------------------
   0 C :   -0.054541
   1 C :    0.037607
   2 C :    0.009856
   3 C :   -0.105132
   4 S :    0.136582
   5 C :   -0.091642
   6 C :    0.033062
   7 C :    0.155496
   8 O :   -0.216782
   9 N :   -0.264119
  10 C :    0.152891
  11 O :   -0.216649
  12 C :    0.123232
  13 C :    0.003452
  14 C :   -0.040429
  15 C :   -0.006932
  16 S :    0.123588
  17 C :    0.004519
  18 C :    0.014207
  19 C :   -0.098972
  20 S :    0.083295
  21 C :   -0.130744
  22 N :   -0.157977
  23 C :    0.092951
  24 C :    0.111895
  25 C :    0.071159
  26 C :    0.094361
  27 O :   -0.188681
  28 O :   -0.305441
  29 C :    0.190496
  30 C :   -0.079627
  31 C :    0.079242
  32 C :   -0.112462
  33 S :    0.076488
  34 C :   -0.130057
  35 N :   -0.152152
  36 C :    0.101381
  37 C :    0.142955
  38 C :    0.051824
  39 C :    0.103325
  40 O :   -0.198404
  41 O :   -0.300615
  42 C :    0.177589
  43 C :   -0.048544
  44 C :   -0.026695
  45 C :   -0.098298
  46 S :    0.088192
  47 C :   -0.126379
  48 N :   -0.164134
  49 C :    0.102911
  50 C :    0.126725
  51 C :    0.054799
  52 C :    0.106694
  53 O :   -0.232860
  54 O :   -0.287255
  55 C :    0.160942
  56 C :   -0.076087
  57 C :    0.045513
  58 C :   -0.026625
  59 C :   -0.035026
  60 C :    0.035791
  61 C :   -0.085144
  62 S :    0.119814
  63 C :   -0.098126
  64 C :    0.018886
  65 C :    0.152956
  66 O :   -0.217402
  67 N :   -0.262491
  68 C :    0.150337
  69 O :   -0.216591
  70 C :    0.120699
  71 C :    0.000912
  72 C :   -0.027865
  73 C :   -0.055093
  74 S :    0.144362
  75 C :    0.046364
  76 C :   -0.012994
  77 H :    0.034577
  78 H :    0.007920
  79 H :    0.027095
  80 H :    0.035623
  81 H :    0.024412
  82 H :    0.015961
  83 H :    0.019665
  84 H :   -0.002171
  85 H :   -0.006696
  86 H :   -0.003641
  87 H :    0.116612
  88 H :    0.060858
  89 H :    0.013065
  90 H :    0.017724
  91 H :    0.031940
  92 H :    0.033058
  93 H :    0.033887
  94 H :    0.014501
  95 H :   -0.020082
  96 H :    0.143631
  97 H :    0.037917
  98 H :    0.025426
  99 H :    0.040200
 100 H :    0.037724
 101 H :    0.032257
 102 H :    0.035881
 103 H :   -0.003710
 104 H :    0.001808
 105 H :    0.118170
 106 H :    0.029063
 107 H :    0.044238
 108 H :    0.015349
 109 H :    0.038145
 110 H :    0.044901
 111 H :    0.037348
 112 H :    0.009548
 113 H :   -0.006351
 114 H :   -0.005163
 115 H :    0.028406
 116 H :    0.036455
 117 H :    0.025377
 118 H :    0.017840
 119 H :    0.020010
 120 H :   -0.001686
 121 H :   -0.010335
 122 H :    0.025137
 123 H :    0.029725
Sum of atomic charges:   -0.0000000

LOEWDIN ATOMIC CHARGES
----------------------
   0 C :   -0.176170
   1 C :   -0.028436
   2 C :   -0.096230
   3 C :   -0.174110
   4 S :    0.440755
   5 C :   -0.173331
   6 C :   -0.091815
   7 C :    0.096428
   8 O :   -0.184922
   9 N :   -0.028997
  10 C :    0.095388
  11 O :   -0.182900
  12 C :    0.045512
  13 C :   -0.058609
  14 C :   -0.030007
  15 C :   -0.153716
  16 S :    0.434396
  17 C :   -0.057367
  18 C :   -0.033678
  19 C :   -0.165524
  20 S :    0.402305
  21 C :   -0.116170
  22 N :   -0.055811
  23 C :    0.022697
  24 C :   -0.089674
  25 C :   -0.072813
  26 C :    0.081950
  27 O :   -0.157538
  28 O :   -0.090901
  29 C :    0.078651
  30 C :   -0.026830
  31 C :   -0.036372
  32 C :   -0.177917
  33 S :    0.414512
  34 C :   -0.095811
  35 N :   -0.023039
  36 C :    0.014877
  37 C :   -0.109833
  38 C :   -0.069102
  39 C :    0.084830
  40 O :   -0.155731
  41 O :   -0.091554
  42 C :    0.075769
  43 C :   -0.013707
  44 C :   -0.072623
  45 C :   -0.140433
  46 S :    0.405379
  47 C :   -0.117380
  48 N :   -0.057987
  49 C :    0.024220
  50 C :   -0.098147
  51 C :   -0.095438
  52 C :    0.090617
  53 O :   -0.195922
  54 O :   -0.078184
  55 C :    0.077288
  56 C :   -0.016479
  57 C :   -0.048292
  58 C :   -0.153179
  59 C :   -0.035625
  60 C :   -0.091263
  61 C :   -0.175019
  62 S :    0.431848
  63 C :   -0.174290
  64 C :   -0.093639
  65 C :    0.096538
  66 O :   -0.185329
  67 N :   -0.028760
  68 C :    0.095119
  69 O :   -0.183312
  70 C :    0.045455
  71 C :   -0.059018
  72 C :   -0.021405
  73 C :   -0.166773
  74 S :    0.442137
  75 C :   -0.043465
  76 C :   -0.027721
  77 H :    0.027628
  78 H :    0.039983
  79 H :    0.025544
  80 H :    0.027320
  81 H :    0.025889
  82 H :    0.028857
  83 H :    0.023930
  84 H :    0.037926
  85 H :    0.027758
  86 H :    0.025080
  87 H :    0.070577
  88 H :    0.031372
  89 H :    0.012787
  90 H :    0.021160
  91 H :    0.022751
  92 H :    0.023333
  93 H :    0.025383
  94 H :    0.028735
  95 H :    0.023496
  96 H :    0.084773
  97 H :    0.023582
  98 H :    0.015364
  99 H :    0.035649
 100 H :    0.022810
 101 H :    0.022797
 102 H :    0.021683
 103 H :    0.019164
 104 H :    0.026568
 105 H :    0.071551
 106 H :    0.024297
 107 H :    0.031918
 108 H :    0.014207
 109 H :    0.025821
 110 H :    0.021859
 111 H :    0.023964
 112 H :    0.022739
 113 H :    0.033256
 114 H :    0.036722
 115 H :    0.025759
 116 H :    0.027450
 117 H :    0.026064
 118 H :    0.029385
 119 H :    0.024082
 120 H :    0.037225
 121 H :    0.028691
 122 H :    0.025796
 123 H :    0.028944

  Mayer bond orders larger than 0.100000
B(  0-C ,  1-C ) :   1.5812 B(  0-C ,  4-S ) :   1.1274 B(  0-C , 77-H ) :   0.9719
B(  1-C ,  2-C ) :   1.2618 B(  1-C , 78-H ) :   0.9982 B(  2-C ,  3-C ) :   1.4883
B(  2-C , 10-C ) :   0.9661 B(  3-C ,  4-S ) :   1.1489 B(  3-C ,  5-C ) :   1.1830
B(  5-C ,  6-C ) :   1.4822 B(  5-C , 16-S ) :   1.1304 B(  6-C ,  7-C ) :   0.9481
B(  6-C , 14-C ) :   1.2465 B(  7-C ,  8-O ) :   2.1090 B(  7-C ,  9-N ) :   1.0674
B(  9-N , 10-C ) :   1.0544 B(  9-N , 12-C ) :   0.9203 B( 10-C , 11-O ) :   2.1063
B( 12-C , 13-C ) :   1.1306 B( 12-C , 79-H ) :   0.9367 B( 12-C , 80-H ) :   0.9322
B( 13-C , 81-H ) :   0.9677 B( 13-C , 82-H ) :   0.9690 B( 13-C , 83-H ) :   0.9650
B( 14-C , 15-C ) :   1.4702 B( 14-C , 84-H ) :   1.0132 B( 15-C , 16-S ) :   1.0813
B( 15-C , 17-C ) :   1.1581 B( 17-C , 18-C ) :   1.6331 B( 17-C , 85-H ) :   0.9745
B( 18-C , 19-C ) :   1.1917 B( 18-C , 86-H ) :   0.9557 B( 19-C , 20-S ) :   1.0752
B( 19-C , 25-C ) :   1.5028 B( 20-S , 21-C ) :   1.1146 B( 21-C , 22-N ) :   1.2156
B( 21-C , 24-C ) :   1.4434 B( 22-N , 23-C ) :   0.9979 B( 22-N , 87-H ) :   0.9287
B( 23-C , 88-H ) :   0.9634 B( 23-C , 89-H ) :   0.9635 B( 23-C , 90-H ) :   0.9743
B( 24-C , 25-C ) :   1.2802 B( 24-C , 30-C ) :   1.0435 B( 25-C , 26-C ) :   0.8818
B( 26-C , 27-O ) :   2.1235 B( 26-C , 28-O ) :   1.1730 B( 28-O , 29-C ) :   0.9225
B( 29-C , 91-H ) :   0.9750 B( 29-C , 92-H ) :   0.9754 B( 29-C , 93-H ) :   0.9799
B( 30-C , 31-C ) :   1.7585 B( 30-C , 94-H ) :   0.9463 B( 31-C , 32-C ) :   1.1292
B( 31-C , 95-H ) :   0.9334 B( 32-C , 33-S ) :   1.0488 B( 32-C , 38-C ) :   1.5898
B( 33-S , 34-C ) :   1.1284 B( 34-C , 35-N ) :   1.2632 B( 34-C , 37-C ) :   1.3677
B( 35-N , 36-C ) :   1.0127 B( 35-N , 96-H ) :   0.9056 B( 36-C , 97-H ) :   0.9656
B( 36-C , 98-H ) :   0.9653 B( 36-C , 99-H ) :   0.9759 B( 37-C , 38-C ) :   1.2596
B( 37-C , 43-C ) :   1.1137 B( 38-C , 39-C ) :   0.8636 B( 39-C , 40-O ) :   2.1118
B( 39-C , 41-O ) :   1.2012 B( 41-O , 42-C ) :   0.9181 B( 42-C ,100-H ) :   0.9679
B( 42-C ,101-H ) :   0.9800 B( 42-C ,102-H ) :   0.9741 B( 43-C , 44-C ) :   1.6639
B( 43-C ,103-H ) :   0.9413 B( 44-C , 45-C ) :   1.1661 B( 44-C ,104-H ) :   0.9550
B( 45-C , 46-S ) :   1.0886 B( 45-C , 51-C ) :   1.5380 B( 46-S , 47-C ) :   1.1046
B( 47-C , 48-N ) :   1.2053 B( 47-C , 50-C ) :   1.4635 B( 48-N , 49-C ) :   0.9944
B( 48-N ,105-H ) :   0.9321 B( 49-C ,106-H ) :   0.9775 B( 49-C ,107-H ) :   0.9709
B( 49-C ,108-H ) :   0.9688 B( 50-C , 51-C ) :   1.1893 B( 50-C , 56-C ) :   1.0818
B( 51-C , 52-C ) :   0.9211 B( 52-C , 53-O ) :   2.0427 B( 52-C , 54-O ) :   1.2296
B( 54-O , 55-C ) :   0.9170 B( 55-C ,109-H ) :   0.9825 B( 55-C ,110-H ) :   0.9585
B( 55-C ,111-H ) :   0.9795 B( 56-C , 57-C ) :   1.6931 B( 56-C ,112-H ) :   0.9491
B( 57-C , 58-C ) :   1.1481 B( 57-C ,113-H ) :   0.9683 B( 58-C , 59-C ) :   1.4824
B( 58-C , 62-S ) :   1.0813 B( 59-C , 60-C ) :   1.2394 B( 59-C ,114-H ) :   1.0123
B( 60-C , 61-C ) :   1.4886 B( 60-C , 68-C ) :   0.9502 B( 61-C , 62-S ) :   1.1258
B( 61-C , 63-C ) :   1.1807 B( 63-C , 64-C ) :   1.4712 B( 63-C , 74-S ) :   1.1438
B( 64-C , 65-C ) :   0.9520 B( 64-C , 72-C ) :   1.2641 B( 65-C , 66-O ) :   2.1044
B( 65-C , 67-N ) :   1.0637 B( 67-N , 68-C ) :   1.0591 B( 67-N , 70-C ) :   0.9198
B( 68-C , 69-O ) :   2.1084 B( 70-C , 71-C ) :   1.1307 B( 70-C ,115-H ) :   0.9367
B( 70-C ,116-H ) :   0.9324 B( 71-C ,117-H ) :   0.9676 B( 71-C ,118-H ) :   0.9690
B( 71-C ,119-H ) :   0.9652 B( 72-C , 73-C ) :   1.5238 B( 72-C ,120-H ) :   1.0030
B( 73-C , 74-S ) :   1.0901 B( 73-C , 75-C ) :   1.0810 B( 75-C , 76-C ) :   1.9591
B( 75-C ,121-H ) :   0.9547 B( 76-C ,122-H ) :   0.9543 B( 76-C ,123-H ) :   0.9488

-----------------------------------------------------------------------------
         ABSORPTION SPECTRUM VIA TRANSITION ELECTRIC DIPOLE MOMENTS
-----------------------------------------------------------------------------
State   Energy  Wavelength   fosc         T2         TX        TY        TZ
        (cm-1)    (nm)                  (au**2)     (au)      (au)      (au)
-----------------------------------------------------------------------------
   0   21677.7    461.3   1.856797419  28.19854   2.41311   1.79757   4.37540
   1   22146.6    451.5   0.172620942   2.56603   0.49484  -1.43484   0.51226
   2   25327.3    394.8   0.624967879   8.12351   1.64447   0.48828   2.27614
   3   26114.6    382.9   0.225999327   2.84904  -0.49295  -1.22208  -1.05478
   4   27207.8    367.5   0.364824528   4.41434   1.48000   0.19740   1.47817
   5   29026.4    344.5   0.390631347   4.43047  -0.26002  -1.24350   1.67827
   6   30874.1    323.9   0.078954246   0.84189   0.34735   0.27979   0.80185
   7   31109.9    321.4   0.098706736   1.04454  -0.92675  -0.35313  -0.24691
   8   32042.0    312.1   0.117837606   1.21071   0.51381   0.37261   0.89882
   9   32337.6    309.2   0.082243247   0.83727   0.32814   0.64420   0.56089
  10   33199.5    301.2   0.005656770   0.05609   0.08646   0.08086   0.20513
  11   33835.4    295.5   0.127914710   1.24458  -0.26793  -0.57221   0.91944
  12   34414.3    290.6   0.076170660   0.72866   0.74169   0.38114  -0.18245
  13   34550.7    289.4   0.101073711   0.96307   0.07947   0.68544  -0.69780
  14   35115.3    284.8   0.138553152   1.29896   0.37718   0.06995   1.07322
  15   35518.9    281.5   0.054147380   0.50187   0.25110   0.03066  -0.66173
  16   35902.9    278.5   0.010340767   0.09482   0.04357  -0.00108  -0.30483
  17   36434.3    274.5   0.047610364   0.43020   0.49724   0.42277  -0.06491
  18   36821.5    271.6   0.130179860   1.16391   0.16181  -0.65836   0.83922
  19   36862.9    271.3   0.094751438   0.84620   0.53220   0.52857   0.53252
  20   37652.2    265.6   0.023011058   0.20120  -0.06408   0.12494  -0.42601
  21   38280.0    261.2   0.051714512   0.44475  -0.14655   0.26246  -0.59530
  22   39294.1    254.5   0.350123896   2.93339   0.58630   0.63970  -1.47663
  23   39343.9    254.2   0.076928363   0.64370  -0.70262  -0.38493  -0.04304
  24   39662.7    252.1   0.265062674   2.20010  -0.63115   0.08800  -1.33940
  25   40073.5    249.5   0.001478242   0.01214  -0.06185   0.00253  -0.09117
  26   40269.7    248.3   0.024319807   0.19882   0.08956   0.12127  -0.41963

FINAL SINGLE POINT ENERGY     -5932.778330141025

DIPOLE MOMENT
-------------
                                X             Y             Z
Electronic contribution:      1.50917     -12.67073     -31.94896
Nuclear contribution   :     -1.22711      14.20556      33.04077
                        -----------------------------------------
Total Dipole Moment    :      0.28206       1.53483       1.09181
                        -----------------------------------------
Magnitude (a.u.)       :      1.90455
Magnitude (Debye)      :      4.84098

Rotational constants in cm-1:     0.002299     0.000131     0.000127
Rotational constants in MHz :    68.935814     3.939732     3.812915

                             ****ORCA TERMINATED NORMALLY****
TOTAL RUN TIME: 0 days 0 hours 11 minutes 28 seconds 635 msec
