                         Program Version 4.2.0 -  RELEASE  -
|  1> # ORCA input file
|  2> # SCF done       -206.354406059118          0.000570379400
|  3> ! CAM-B3LYP def2-SVP def2/J RIJCOSX Grid4 TightSCF
|  4> %maxcore 5000
|  5> %tddft
|  6>     Mode sTDDFT
|  7>     Ethresh 5.0
|  8>     maxcore 5000
|  9> end
| 10>
| 11> %pal
| 12>   nprocs 6
| 13>   end
| 14> * xyz 0 1
| 15>    C       -0.51821         1.92454         4.61623
| 16>    C       -1.17789         0.85164         5.11317
| 17>    C       -0.34559        -0.28404         5.29929
| 18>    C        0.95766        -0.03167         4.91034
| 19>    S        1.14291         1.59330         4.32601
| 20>    C        2.03723        -0.93998         4.91571
| 21>    C        2.10578        -2.15765         5.57604
| 22>    C        1.13333        -2.80915         6.46790
| 23>    O        1.53042        -3.68309         7.21437
| 24>    N       -0.22271        -2.50980         6.42954
| 25>    C       -0.96287        -1.52596         5.77804
| 26>    O       -2.16781        -1.65647         5.68832
| 27>    C       -1.05563        -3.47549         7.16175
| 28>    C       -1.40371        -4.67469         6.29051
| 29>    C        3.35237        -2.78747         5.38968
| 30>    C        4.22988        -2.08748         4.59668
| 31>    S        3.50839        -0.58683         4.06940
| 32>    C        5.54821        -2.46341         4.23699
| 33>    C        6.36098        -1.73272         3.43480
| 34>    C        7.68305        -2.08822         3.08832
| 35>    S        8.45473        -3.50188         3.72246
| 36>    C        9.93470        -3.19979         2.88149
| 37>    C        9.83315        -2.03472         2.10732
| 38>    C        8.55256        -1.40077         2.22718
| 39>    C        8.28681        -0.21878         1.51719
| 40>    C        9.25289         0.31918         0.70022
| 41>    C        8.99699         1.51394        -0.00963
| 42>    N        8.77090         2.48515        -0.57448
| 43>    C       10.51703        -0.33101         0.55200
| 44>    C       11.48708         0.22071        -0.31533
| 45>    N       12.28894         0.65280        -1.01076
| 46>    C       10.79538        -1.48735         1.24031
| 47>    C       11.07527        -4.02232         3.09500
| 48>    S       12.67787        -3.33183         2.99991
| 49>    C       13.41477        -4.80214         3.57301
| 50>    N       14.77903        -4.86615         3.66651
| 51>    C       15.51965        -5.91932         2.99166
| 52>    C       12.46632        -5.77930         3.84504
| 53>    C       11.14287        -5.33340         3.53026
| 54>    C        9.93221        -6.18190         3.55059
| 55>    O        9.04376        -6.09638         2.73690
| 56>    O        9.91670        -7.06425         4.55651
| 57>    C        8.78053        -7.91694         4.61487
| 58>    C       12.74250        -7.05549         4.44592
| 59>    C       13.79741        -7.29542         5.25631
| 60>    C       14.09303        -8.50751         5.93690
| 61>    S       15.16591        -8.40948         7.29295
| 62>    C       15.02473       -10.09234         7.66842
| 63>    C       14.16585       -10.72519         6.76287
| 64>    C       13.65700        -9.82811         5.75922
| 65>    C       12.84724       -10.34061         4.72985
| 66>    C       12.46996       -11.66175         4.74280
| 67>    C       11.64175       -12.16268         3.71355
| 68>    N       10.95720       -12.53700         2.87383
| 69>    C       12.89464       -12.52746         5.79860
| 70>    C       12.44382       -13.86728         5.81829
| 71>    N       12.07994       -14.95338         5.84678
| 72>    C       13.73938       -12.06667         6.77799
| 73>    C       15.73852       -10.61910         8.77963
| 74>    C       16.15394       -11.90025         9.04194
| 75>    C       16.86127       -12.04416        10.25438
| 76>    C       16.99798       -10.83978        10.92677
| 77>    S       16.25663        -9.53786        10.05330
| 78>    C       17.65412       -10.60857        12.15092
| 79>    C       18.07164       -11.55780        13.07115
| 80>    C       17.94755       -13.02074        13.03902
| 81>    O       18.04986       -13.63906        14.08039
| 82>    N       17.82309       -13.72670        11.84491
| 83>    C       17.41042       -13.37295        10.56672
| 84>    O       17.45163       -14.20129         9.67708
| 85>    C       18.09319       -15.16540        11.99195
| 86>    C       16.81960       -15.93954        12.30267
| 87>    C       18.64014       -10.96522        14.21979
| 88>    C       18.67634        -9.59732        14.18904
| 89>    S       17.97177        -8.99935        12.71428
| 90>    C       19.18185        -8.66229        15.15917
| 91>    C       19.73284        -8.99794        16.32309
| 92>    H       -0.90570         2.89870         4.39429
| 93>    H       -2.22523         0.83551         5.35256
| 94>    H       -1.96507        -2.95900         7.46970
| 95>    H       -0.49110        -3.79294         8.03916
| 96>    H       -1.95834        -4.35144         5.41304
| 97>    H       -2.01813        -5.36846         6.85718
| 98>    H       -0.49785        -5.18727         5.97498
| 99>    H        3.58400        -3.73566         5.83989
|100>    H        5.89963        -3.40166         4.64582
|101>    H        5.98529        -0.80516         3.02269
|102>    H        7.32906         0.27060         1.60559
|103>    H       11.74796        -1.97267         1.09655
|104>    H       15.21742        -3.96138         3.54227
|105>    H       16.53005        -5.94119         3.39575
|106>    H       15.57181        -5.75114         1.91120
|107>    H       15.04356        -6.87924         3.17261
|108>    H        7.86398        -7.32444         4.62248
|109>    H        8.87772        -8.48791         5.53450
|110>    H        8.75977        -8.58292         3.74962
|111>    H       11.98576        -7.80880         4.30806
|112>    H       14.45782        -6.47280         5.49876
|113>    H       12.53161        -9.71185         3.91345
|114>    H       14.05538       -12.73116         7.56542
|115>    H       16.01871       -12.73492         8.37978
|116>    H       18.81144       -15.28317        12.80367
|117>    H       18.52937       -15.51168        11.05438
|118>    H       16.38346       -15.58539        13.23349
|119>    H       17.05384       -16.99521        12.40501
|120>    H       16.09857       -15.81872        11.49758
|121>    H       19.00544       -11.56106        15.03545
|122>    H       19.08620        -7.61992        14.88449
|123>    H       19.84241       -10.02312        16.63032
|124>    H       20.09028        -8.24843        17.00643
|125> *
|126>
|127>                          ****END OF INPUT****

CARTESIAN COORDINATES (ANGSTROEM)
---------------------------------
  C     -0.518210    1.924540    4.616230
  C     -1.177890    0.851640    5.113170
  C     -0.345590   -0.284040    5.299290
  C      0.957660   -0.031670    4.910340
  S      1.142910    1.593300    4.326010
  C      2.037230   -0.939980    4.915710
  C      2.105780   -2.157650    5.576040
  C      1.133330   -2.809150    6.467900
  O      1.530420   -3.683090    7.214370
  N     -0.222710   -2.509800    6.429540
  C     -0.962870   -1.525960    5.778040
  O     -2.167810   -1.656470    5.688320
  C     -1.055630   -3.475490    7.161750
  C     -1.403710   -4.674690    6.290510
  C      3.352370   -2.787470    5.389680
  C      4.229880   -2.087480    4.596680
  S      3.508390   -0.586830    4.069400
  C      5.548210   -2.463410    4.236990
  C      6.360980   -1.732720    3.434800
  C      7.683050   -2.088220    3.088320
  S      8.454730   -3.501880    3.722460
  C      9.934700   -3.199790    2.881490
  C      9.833150   -2.034720    2.107320
  C      8.552560   -1.400770    2.227180
  C      8.286810   -0.218780    1.517190
  C      9.252890    0.319180    0.700220
  C      8.996990    1.513940   -0.009630
  N      8.770900    2.485150   -0.574480
  C     10.517030   -0.331010    0.552000
  C     11.487080    0.220710   -0.315330
  N     12.288940    0.652800   -1.010760
  C     10.795380   -1.487350    1.240310
  C     11.075270   -4.022320    3.095000
  S     12.677870   -3.331830    2.999910
  C     13.414770   -4.802140    3.573010
  N     14.779030   -4.866150    3.666510
  C     15.519650   -5.919320    2.991660
  C     12.466320   -5.779300    3.845040
  C     11.142870   -5.333400    3.530260
  C      9.932210   -6.181900    3.550590
  O      9.043760   -6.096380    2.736900
  O      9.916700   -7.064250    4.556510
  C      8.780530   -7.916940    4.614870
  C     12.742500   -7.055490    4.445920
  C     13.797410   -7.295420    5.256310
  C     14.093030   -8.507510    5.936900
  S     15.165910   -8.409480    7.292950
  C     15.024730  -10.092340    7.668420
  C     14.165850  -10.725190    6.762870
  C     13.657000   -9.828110    5.759220
  C     12.847240  -10.340610    4.729850
  C     12.469960  -11.661750    4.742800
  C     11.641750  -12.162680    3.713550
  N     10.957200  -12.537000    2.873830
  C     12.894640  -12.527460    5.798600
  C     12.443820  -13.867280    5.818290
  N     12.079940  -14.953380    5.846780
  C     13.739380  -12.066670    6.777990
  C     15.738520  -10.619100    8.779630
  C     16.153940  -11.900250    9.041940
  C     16.861270  -12.044160   10.254380
  C     16.997980  -10.839780   10.926770
  S     16.256630   -9.537860   10.053300
  C     17.654120  -10.608570   12.150920
  C     18.071640  -11.557800   13.071150
  C     17.947550  -13.020740   13.039020
  O     18.049860  -13.639060   14.080390
  N     17.823090  -13.726700   11.844910
  C     17.410420  -13.372950   10.566720
  O     17.451630  -14.201290    9.677080
  C     18.093190  -15.165400   11.991950
  C     16.819600  -15.939540   12.302670
  C     18.640140  -10.965220   14.219790
  C     18.676340   -9.597320   14.189040
  S     17.971770   -8.999350   12.714280
  C     19.181850   -8.662290   15.159170
  C     19.732840   -8.997940   16.323090
  H     -0.905700    2.898700    4.394290
  H     -2.225230    0.835510    5.352560
  H     -1.965070   -2.959000    7.469700
  H     -0.491100   -3.792940    8.039160
  H     -1.958340   -4.351440    5.413040
  H     -2.018130   -5.368460    6.857180
  H     -0.497850   -5.187270    5.974980
  H      3.584000   -3.735660    5.839890
  H      5.899630   -3.401660    4.645820
  H      5.985290   -0.805160    3.022690
  H      7.329060    0.270600    1.605590
  H     11.747960   -1.972670    1.096550
  H     15.217420   -3.961380    3.542270
  H     16.530050   -5.941190    3.395750
  H     15.571810   -5.751140    1.911200
  H     15.043560   -6.879240    3.172610
  H      7.863980   -7.324440    4.622480
  H      8.877720   -8.487910    5.534500
  H      8.759770   -8.582920    3.749620
  H     11.985760   -7.808800    4.308060
  H     14.457820   -6.472800    5.498760
  H     12.531610   -9.711850    3.913450
  H     14.055380  -12.731160    7.565420
  H     16.018710  -12.734920    8.379780
  H     18.811440  -15.283170   12.803670
  H     18.529370  -15.511680   11.054380
  H     16.383460  -15.585390   13.233490
  H     17.053840  -16.995210   12.405010
  H     16.098570  -15.818720   11.497580
  H     19.005440  -11.561060   15.035450
  H     19.086200   -7.619920   14.884490
  H     19.842410  -10.023120   16.630320
  H     20.090280   -8.248430   17.006430

 Total Charge           Charge          ....    0
 Multiplicity           Mult            ....    1
 Number of Electrons    NEL             ....  584
 Basis Dimension        Dim             .... 1271

ORBITAL ENERGIES
----------------

  NO   OCC          E(Eh)            E(eV)
   0   2.0000     -88.994963     -2421.6761
   1   2.0000     -88.989633     -2421.5310
   2   2.0000     -88.985142     -2421.4088
   3   2.0000     -88.984423     -2421.3893
   4   2.0000     -88.979980     -2421.2683
   5   2.0000     -88.979214     -2421.2475
   6   2.0000     -88.977424     -2421.1988
   7   2.0000     -19.280588      -524.6515
   8   2.0000     -19.219551      -522.9906
   9   2.0000     -19.205044      -522.5958
  10   2.0000     -19.203488      -522.5535
  11   2.0000     -19.201989      -522.5127
  12   2.0000     -19.200934      -522.4840
  13   2.0000     -14.465881      -393.6366
  14   2.0000     -14.462728      -393.5508
  15   2.0000     -14.456921      -393.3928
  16   2.0000     -14.413266      -392.2049
  17   2.0000     -14.411775      -392.1643
  18   2.0000     -14.410998      -392.1432
  19   2.0000     -14.409966      -392.1151
  20   2.0000     -10.419591      -283.5315
  21   2.0000     -10.399667      -282.9893
  22   2.0000     -10.399329      -282.9801
  23   2.0000     -10.396874      -282.9133
  24   2.0000     -10.396156      -282.8938
  25   2.0000     -10.361825      -281.9596
  26   2.0000     -10.341861      -281.4164
  27   2.0000     -10.338281      -281.3189
  28   2.0000     -10.337429      -281.2958
  29   2.0000     -10.336427      -281.2685
  30   2.0000     -10.335992      -281.2566
  31   2.0000     -10.335857      -281.2530
  32   2.0000     -10.335596      -281.2459
  33   2.0000     -10.335278      -281.2372
  34   2.0000     -10.335193      -281.2349
  35   2.0000     -10.335056      -281.2312
  36   2.0000     -10.334898      -281.2269
  37   2.0000     -10.333534      -281.1898
  38   2.0000     -10.333080      -281.1774
  39   2.0000     -10.332669      -281.1662
  40   2.0000     -10.330873      -281.1173
  41   2.0000     -10.322020      -280.8764
  42   2.0000     -10.320276      -280.8290
  43   2.0000     -10.320049      -280.8228
  44   2.0000     -10.319819      -280.8166
  45   2.0000     -10.318477      -280.7800
  46   2.0000     -10.318204      -280.7726
  47   2.0000     -10.316585      -280.7285
  48   2.0000     -10.316485      -280.7258
  49   2.0000     -10.314396      -280.6690
  50   2.0000     -10.313220      -280.6370
  51   2.0000     -10.311949      -280.6024
  52   2.0000     -10.310901      -280.5739
  53   2.0000     -10.310535      -280.5639
  54   2.0000     -10.310000      -280.5494
  55   2.0000     -10.309650      -280.5398
  56   2.0000     -10.309588      -280.5381
  57   2.0000     -10.308628      -280.5120
  58   2.0000     -10.307555      -280.4828
  59   2.0000     -10.307347      -280.4772
  60   2.0000     -10.306636      -280.4578
  61   2.0000     -10.305356      -280.4230
  62   2.0000     -10.303169      -280.3635
  63   2.0000     -10.303010      -280.3591
  64   2.0000     -10.301890      -280.3287
  65   2.0000     -10.301046      -280.3057
  66   2.0000     -10.301033      -280.3054
  67   2.0000     -10.298393      -280.2335
  68   2.0000     -10.296154      -280.1726
  69   2.0000     -10.293525      -280.1011
  70   2.0000     -10.292932      -280.0849
  71   2.0000     -10.291999      -280.0595
  72   2.0000     -10.288888      -279.9749
  73   2.0000     -10.287592      -279.9396
  74   2.0000     -10.282338      -279.7966
  75   2.0000     -10.250916      -278.9416
  76   2.0000     -10.250679      -278.9352
  77   2.0000      -8.090383      -220.1505
  78   2.0000      -8.084328      -219.9857
  79   2.0000      -8.081054      -219.8966
  80   2.0000      -8.080460      -219.8805
  81   2.0000      -8.075801      -219.7537
  82   2.0000      -8.074869      -219.7284
  83   2.0000      -8.073424      -219.6890
  84   2.0000      -6.059288      -164.8816
  85   2.0000      -6.055147      -164.7689
  86   2.0000      -6.053283      -164.7182
  87   2.0000      -6.053265      -164.7177
  88   2.0000      -6.050480      -164.6419
  89   2.0000      -6.049809      -164.6237
  90   2.0000      -6.049107      -164.6046
  91   2.0000      -6.047203      -164.5528
  92   2.0000      -6.046229      -164.5263
  93   2.0000      -6.045730      -164.5127
  94   2.0000      -6.045078      -164.4949
  95   2.0000      -6.044150      -164.4697
  96   2.0000      -6.042864      -164.4347
  97   2.0000      -6.042805      -164.4331
  98   2.0000      -6.042213      -164.4170
  99   2.0000      -6.040891      -164.3810
 100   2.0000      -6.040110      -164.3598
 101   2.0000      -6.038297      -164.3104
 102   2.0000      -6.037939      -164.3007
 103   2.0000      -6.036840      -164.2708
 104   2.0000      -6.035637      -164.2380
 105   2.0000      -1.211764       -32.9738
 106   2.0000      -1.158063       -31.5125
 107   2.0000      -1.155069       -31.4310
 108   2.0000      -1.136216       -30.9180
 109   2.0000      -1.133202       -30.8360
 110   2.0000      -1.114664       -30.3316
 111   2.0000      -1.064839       -28.9757
 112   2.0000      -1.034832       -28.1592
 113   2.0000      -1.029452       -28.0128
 114   2.0000      -1.027465       -27.9587
 115   2.0000      -1.025393       -27.9024
 116   2.0000      -1.020296       -27.7637
 117   2.0000      -1.017578       -27.6897
 118   2.0000      -1.007068       -27.4037
 119   2.0000      -1.005566       -27.3628
 120   2.0000      -0.995811       -27.0974
 121   2.0000      -0.993432       -27.0326
 122   2.0000      -0.992990       -27.0206
 123   2.0000      -0.991377       -26.9767
 124   2.0000      -0.990483       -26.9524
 125   2.0000      -0.966751       -26.3066
 126   2.0000      -0.964041       -26.2329
 127   2.0000      -0.935148       -25.4467
 128   2.0000      -0.927800       -25.2467
 129   2.0000      -0.912098       -24.8195
 130   2.0000      -0.903870       -24.5956
 131   2.0000      -0.896638       -24.3988
 132   2.0000      -0.886227       -24.1155
 133   2.0000      -0.882711       -24.0198
 134   2.0000      -0.879986       -23.9456
 135   2.0000      -0.878383       -23.9020
 136   2.0000      -0.877210       -23.8701
 137   2.0000      -0.875447       -23.8221
 138   2.0000      -0.869086       -23.6490
 139   2.0000      -0.861357       -23.4387
 140   2.0000      -0.855515       -23.2798
 141   2.0000      -0.851741       -23.1771
 142   2.0000      -0.840071       -22.8595
 143   2.0000      -0.833647       -22.6847
 144   2.0000      -0.831544       -22.6275
 145   2.0000      -0.824731       -22.4421
 146   2.0000      -0.820769       -22.3343
 147   2.0000      -0.804604       -21.8944
 148   2.0000      -0.799542       -21.7566
 149   2.0000      -0.785986       -21.3878
 150   2.0000      -0.765358       -20.8265
 151   2.0000      -0.765155       -20.8209
 152   2.0000      -0.762109       -20.7380
 153   2.0000      -0.759408       -20.6646
 154   2.0000      -0.753587       -20.5062
 155   2.0000      -0.744426       -20.2569
 156   2.0000      -0.742670       -20.2091
 157   2.0000      -0.742072       -20.1928
 158   2.0000      -0.738820       -20.1043
 159   2.0000      -0.733829       -19.9685
 160   2.0000      -0.708688       -19.2844
 161   2.0000      -0.703402       -19.1405
 162   2.0000      -0.698239       -19.0000
 163   2.0000      -0.691960       -18.8292
 164   2.0000      -0.690826       -18.7983
 165   2.0000      -0.683541       -18.6001
 166   2.0000      -0.679776       -18.4977
 167   2.0000      -0.679532       -18.4910
 168   2.0000      -0.674757       -18.3611
 169   2.0000      -0.669350       -18.2139
 170   2.0000      -0.666318       -18.1314
 171   2.0000      -0.658704       -17.9242
 172   2.0000      -0.654599       -17.8126
 173   2.0000      -0.652114       -17.7449
 174   2.0000      -0.640632       -17.4325
 175   2.0000      -0.635589       -17.2953
 176   2.0000      -0.624491       -16.9933
 177   2.0000      -0.619989       -16.8708
 178   2.0000      -0.617097       -16.7921
 179   2.0000      -0.615613       -16.7517
 180   2.0000      -0.613705       -16.6998
 181   2.0000      -0.611849       -16.6493
 182   2.0000      -0.601131       -16.3576
 183   2.0000      -0.590976       -16.0813
 184   2.0000      -0.584039       -15.8925
 185   2.0000      -0.580086       -15.7850
 186   2.0000      -0.578698       -15.7472
 187   2.0000      -0.576586       -15.6897
 188   2.0000      -0.571641       -15.5551
 189   2.0000      -0.570718       -15.5300
 190   2.0000      -0.566072       -15.4036
 191   2.0000      -0.561158       -15.2699
 192   2.0000      -0.557943       -15.1824
 193   2.0000      -0.557617       -15.1735
 194   2.0000      -0.556137       -15.1333
 195   2.0000      -0.554855       -15.0984
 196   2.0000      -0.553273       -15.0553
 197   2.0000      -0.551868       -15.0171
 198   2.0000      -0.547346       -14.8940
 199   2.0000      -0.546126       -14.8608
 200   2.0000      -0.543498       -14.7893
 201   2.0000      -0.541906       -14.7460
 202   2.0000      -0.537234       -14.6189
 203   2.0000      -0.536262       -14.5924
 204   2.0000      -0.534400       -14.5418
 205   2.0000      -0.528622       -14.3845
 206   2.0000      -0.525483       -14.2991
 207   2.0000      -0.524703       -14.2779
 208   2.0000      -0.522873       -14.2281
 209   2.0000      -0.519104       -14.1255
 210   2.0000      -0.515395       -14.0246
 211   2.0000      -0.513285       -13.9672
 212   2.0000      -0.511296       -13.9131
 213   2.0000      -0.510717       -13.8973
 214   2.0000      -0.508668       -13.8416
 215   2.0000      -0.507267       -13.8034
 216   2.0000      -0.505968       -13.7681
 217   2.0000      -0.504617       -13.7313
 218   2.0000      -0.502960       -13.6862
 219   2.0000      -0.501264       -13.6401
 220   2.0000      -0.499894       -13.6028
 221   2.0000      -0.496668       -13.5150
 222   2.0000      -0.495932       -13.4950
 223   2.0000      -0.494913       -13.4673
 224   2.0000      -0.492215       -13.3938
 225   2.0000      -0.490906       -13.3582
 226   2.0000      -0.488644       -13.2967
 227   2.0000      -0.484586       -13.1863
 228   2.0000      -0.482063       -13.1176
 229   2.0000      -0.477501       -12.9935
 230   2.0000      -0.473516       -12.8850
 231   2.0000      -0.470274       -12.7968
 232   2.0000      -0.467167       -12.7123
 233   2.0000      -0.466196       -12.6858
 234   2.0000      -0.465657       -12.6712
 235   2.0000      -0.463736       -12.6189
 236   2.0000      -0.459907       -12.5147
 237   2.0000      -0.457065       -12.4374
 238   2.0000      -0.454846       -12.3770
 239   2.0000      -0.453689       -12.3455
 240   2.0000      -0.452120       -12.3028
 241   2.0000      -0.451388       -12.2829
 242   2.0000      -0.450885       -12.2692
 243   2.0000      -0.448755       -12.2112
 244   2.0000      -0.447396       -12.1743
 245   2.0000      -0.446207       -12.1419
 246   2.0000      -0.444447       -12.0940
 247   2.0000      -0.442723       -12.0471
 248   2.0000      -0.441884       -12.0243
 249   2.0000      -0.441257       -12.0072
 250   2.0000      -0.440013       -11.9734
 251   2.0000      -0.438288       -11.9264
 252   2.0000      -0.437708       -11.9106
 253   2.0000      -0.436661       -11.8821
 254   2.0000      -0.434728       -11.8296
 255   2.0000      -0.431089       -11.7305
 256   2.0000      -0.427885       -11.6433
 257   2.0000      -0.423515       -11.5244
 258   2.0000      -0.418881       -11.3983
 259   2.0000      -0.417485       -11.3603
 260   2.0000      -0.416633       -11.3372
 261   2.0000      -0.415784       -11.3141
 262   2.0000      -0.414459       -11.2780
 263   2.0000      -0.414033       -11.2664
 264   2.0000      -0.412579       -11.2269
 265   2.0000      -0.411393       -11.1946
 266   2.0000      -0.399093       -10.8599
 267   2.0000      -0.396453       -10.7880
 268   2.0000      -0.390969       -10.6388
 269   2.0000      -0.378422       -10.2974
 270   2.0000      -0.372658       -10.1406
 271   2.0000      -0.372014       -10.1230
 272   2.0000      -0.370315       -10.0768
 273   2.0000      -0.367490        -9.9999
 274   2.0000      -0.353691        -9.6244
 275   2.0000      -0.351700        -9.5702
 276   2.0000      -0.350621        -9.5409
 277   2.0000      -0.349773        -9.5178
 278   2.0000      -0.345582        -9.4038
 279   2.0000      -0.341225        -9.2852
 280   2.0000      -0.341201        -9.2846
 281   2.0000      -0.338328        -9.2064
 282   2.0000      -0.336831        -9.1656
 283   2.0000      -0.336676        -9.1614
 284   2.0000      -0.336222        -9.1491
 285   2.0000      -0.332515        -9.0482
 286   2.0000      -0.331683        -9.0255
 287   2.0000      -0.314653        -8.5622
 288   2.0000      -0.296013        -8.0549
 289   2.0000      -0.284330        -7.7370
 290   2.0000      -0.255087        -6.9413
 291   2.0000      -0.239758        -6.5241
 292   0.0000      -0.096306        -2.6206
 293   0.0000      -0.091252        -2.4831
 294   0.0000      -0.059669        -1.6237
 295   0.0000      -0.057776        -1.5722
 296   0.0000      -0.035767        -0.9733

MULLIKEN ATOMIC CHARGES
-----------------------
   0 C :   -0.049939
   1 C :    0.036603
   2 C :    0.012734
   3 C :   -0.108649
   4 S :    0.146939
   5 C :   -0.084321
   6 C :    0.026609
   7 C :    0.158504
   8 O :   -0.214591
   9 N :   -0.263365
  10 C :    0.157778
  11 O :   -0.210114
  12 C :    0.121931
  13 C :   -0.000303
  14 C :   -0.026798
  15 C :   -0.018300
  16 S :    0.128966
  17 C :    0.027408
  18 C :   -0.019286
  19 C :   -0.080164
  20 S :    0.195773
  21 C :   -0.098839
  22 C :    0.118941
  23 C :    0.113378
  24 C :   -0.050237
  25 C :   -0.073150
  26 C :   -0.178343
  27 N :    0.172552
  28 C :   -0.073256
  29 C :   -0.177952
  30 N :    0.170431
  31 C :   -0.058621
  32 C :   -0.120085
  33 S :    0.120153
  34 C :   -0.152145
  35 N :   -0.155967
  36 C :    0.094321
  37 C :    0.114122
  38 C :    0.064452
  39 C :    0.101860
  40 O :   -0.200992
  41 O :   -0.294834
  42 C :    0.185220
  43 C :   -0.040052
  44 C :    0.033095
  45 C :   -0.131035
  46 S :    0.185559
  47 C :   -0.100486
  48 C :    0.129052
  49 C :    0.118941
  50 C :   -0.064718
  51 C :   -0.071468
  52 C :   -0.179349
  53 N :    0.172427
  54 C :   -0.070142
  55 C :   -0.177950
  56 N :    0.177718
  57 C :   -0.058889
  58 C :   -0.040848
  59 C :   -0.047554
  60 C :    0.023006
  61 C :   -0.082415
  62 S :    0.142331
  63 C :   -0.095526
  64 C :    0.029228
  65 C :    0.152329
  66 O :   -0.209024
  67 N :   -0.262706
  68 C :    0.153500
  69 O :   -0.213453
  70 C :    0.120932
  71 C :   -0.000124
  72 C :   -0.021164
  73 C :   -0.053943
  74 S :    0.148184
  75 C :    0.044034
  76 C :   -0.009748
  77 H :    0.039140
  78 H :    0.011852
  79 H :    0.028977
  80 H :    0.037052
  81 H :    0.027646
  82 H :    0.020192
  83 H :    0.020085
  84 H :    0.002179
  85 H :    0.001070
  86 H :    0.000732
  87 H :   -0.006077
  88 H :   -0.001190
  89 H :    0.124898
  90 H :    0.033787
  91 H :    0.027352
  92 H :    0.055926
  93 H :    0.035417
  94 H :    0.041984
  95 H :    0.045788
  96 H :   -0.001501
  97 H :    0.001969
  98 H :   -0.008402
  99 H :   -0.005346
 100 H :    0.013334
 101 H :    0.029897
 102 H :    0.037751
 103 H :    0.026178
 104 H :    0.021953
 105 H :    0.022952
 106 H :    0.000241
 107 H :   -0.006487
 108 H :    0.028590
 109 H :    0.033898
Sum of atomic charges:   -0.0000000

LOEWDIN ATOMIC CHARGES
----------------------
   0 C :   -0.169733
   1 C :   -0.027423
   2 C :   -0.090144
   3 C :   -0.179870
   4 S :    0.449435
   5 C :   -0.163400
   6 C :   -0.093784
   7 C :    0.096194
   8 O :   -0.182422
   9 N :   -0.028311
  10 C :    0.095562
  11 O :   -0.175941
  12 C :    0.046162
  13 C :   -0.058358
  14 C :   -0.015380
  15 C :   -0.163833
  16 S :    0.439244
  17 C :   -0.028704
  18 C :   -0.049875
  19 C :   -0.162229
  20 S :    0.532565
  21 C :   -0.184721
  22 C :   -0.044712
  23 C :   -0.045939
  24 C :    0.034761
  25 C :   -0.058103
  26 C :   -0.033266
  27 N :   -0.038289
  28 C :   -0.054279
  29 C :   -0.031919
  30 N :   -0.038768
  31 C :    0.020069
  32 C :   -0.173168
  33 S :    0.437590
  34 C :   -0.112329
  35 N :   -0.050983
  36 C :    0.024462
  37 C :   -0.090810
  38 C :   -0.085307
  39 C :    0.070664
  40 O :   -0.172497
  41 O :   -0.079677
  42 C :    0.082418
  43 C :   -0.009011
  44 C :   -0.059268
  45 C :   -0.160159
  46 S :    0.495415
  47 C :   -0.194812
  48 C :   -0.039382
  49 C :   -0.048983
  50 C :    0.030982
  51 C :   -0.058349
  52 C :   -0.033890
  53 N :   -0.038825
  54 C :   -0.053220
  55 C :   -0.033042
  56 N :   -0.033187
  57 C :    0.033105
  58 C :   -0.181478
  59 C :   -0.024127
  60 C :   -0.092098
  61 C :   -0.166054
  62 S :    0.432935
  63 C :   -0.181173
  64 C :   -0.085225
  65 C :    0.096416
  66 O :   -0.175136
  67 N :   -0.027723
  68 C :    0.095926
  69 O :   -0.181085
  70 C :    0.046459
  71 C :   -0.058221
  72 C :   -0.021069
  73 C :   -0.160359
  74 S :    0.445883
  75 C :   -0.044984
  76 C :   -0.020472
  77 H :    0.029955
  78 H :    0.041663
  79 H :    0.026522
  80 H :    0.027928
  81 H :    0.026838
  82 H :    0.030545
  83 H :    0.024043
  84 H :    0.039968
  85 H :    0.032379
  86 H :    0.027863
  87 H :    0.042216
  88 H :    0.027746
  89 H :    0.075226
  90 H :    0.029260
  91 H :    0.020112
  92 H :    0.031694
  93 H :    0.024716
  94 H :    0.028939
  95 H :    0.028920
  96 H :    0.024166
  97 H :    0.029859
  98 H :    0.040703
  99 H :    0.044360
 100 H :    0.039104
 101 H :    0.026645
 102 H :    0.028489
 103 H :    0.026283
 104 H :    0.031390
 105 H :    0.025020
 106 H :    0.038730
 107 H :    0.029889
 108 H :    0.027139
 109 H :    0.030947

  Mayer bond orders larger than 0.100000
B(  0-C ,  1-C ) :   1.5751 B(  0-C ,  4-S ) :   1.1359 B(  0-C , 77-H ) :   0.9714
B(  1-C ,  2-C ) :   1.2686 B(  1-C , 78-H ) :   0.9990 B(  2-C ,  3-C ) :   1.4860
B(  2-C , 10-C ) :   0.9592 B(  3-C ,  4-S ) :   1.1498 B(  3-C ,  5-C ) :   1.1802
B(  5-C ,  6-C ) :   1.4804 B(  5-C , 16-S ) :   1.1399 B(  6-C ,  7-C ) :   0.9447
B(  6-C , 14-C ) :   1.2543 B(  7-C ,  8-O ) :   2.1117 B(  7-C ,  9-N ) :   1.0705
B(  9-N , 10-C ) :   1.0525 B(  9-N , 12-C ) :   0.9181 B( 10-C , 11-O ) :   2.1138
B( 12-C , 13-C ) :   1.1281 B( 12-C , 79-H ) :   0.9374 B( 12-C , 80-H ) :   0.9326
B( 13-C , 81-H ) :   0.9680 B( 13-C , 82-H ) :   0.9696 B( 13-C , 83-H ) :   0.9654
B( 14-C , 15-C ) :   1.4590 B( 14-C , 84-H ) :   1.0120 B( 15-C , 16-S ) :   1.0772
B( 15-C , 17-C ) :   1.1688 B( 17-C , 18-C ) :   1.6207 B( 17-C , 85-H ) :   0.9774
B( 18-C , 19-C ) :   1.1961 B( 18-C , 86-H ) :   0.9616 B( 19-C , 20-S ) :   1.1739
B( 19-C , 21-C ) :   0.1032 B( 19-C , 23-C ) :   1.3097 B( 20-S , 21-C ) :   1.1755
B( 21-C , 22-C ) :   1.3569 B( 21-C , 32-C ) :   1.1395 B( 22-C , 23-C ) :   1.1847
B( 22-C , 31-C ) :   1.1814 B( 23-C , 24-C ) :   1.2018 B( 24-C , 25-C ) :   1.5650
B( 24-C , 87-H ) :   0.9948 B( 25-C , 26-C ) :   1.0779 B( 25-C , 28-C ) :   1.2375
B( 26-C , 27-N ) :   3.0435 B( 28-C , 29-C ) :   1.0793 B( 28-C , 31-C ) :   1.5799
B( 29-C , 30-N ) :   3.0438 B( 31-C , 88-H ) :   0.9761 B( 32-C , 33-S ) :   1.1009
B( 32-C , 38-C ) :   1.5259 B( 33-S , 34-C ) :   1.1209 B( 34-C , 35-N ) :   1.2144
B( 34-C , 37-C ) :   1.4184 B( 35-N , 36-C ) :   0.9862 B( 35-N , 89-H ) :   0.9242
B( 36-C , 90-H ) :   0.9778 B( 36-C , 91-H ) :   0.9685 B( 36-C , 92-H ) :   0.9677
B( 37-C , 38-C ) :   1.2153 B( 37-C , 43-C ) :   1.1121 B( 38-C , 39-C ) :   0.9074
B( 39-C , 40-O ) :   2.1055 B( 39-C , 41-O ) :   1.1998 B( 41-O , 42-C ) :   0.9088
B( 42-C , 93-H ) :   0.9737 B( 42-C , 94-H ) :   0.9799 B( 42-C , 95-H ) :   0.9774
B( 43-C , 44-C ) :   1.6752 B( 43-C , 96-H ) :   0.9376 B( 44-C , 45-C ) :   1.1390
B( 44-C , 97-H ) :   0.9446 B( 45-C , 46-S ) :   1.1682 B( 45-C , 47-C ) :   0.1150
B( 45-C , 49-C ) :   1.3348 B( 46-S , 47-C ) :   1.1579 B( 47-C , 48-C ) :   1.3839
B( 47-C , 58-C ) :   1.1052 B( 48-C , 49-C ) :   1.1889 B( 48-C , 57-C ) :   1.1831
B( 49-C , 50-C ) :   1.1909 B( 50-C , 51-C ) :   1.5660 B( 50-C , 98-H ) :   0.9932
B( 51-C , 52-C ) :   1.0769 B( 51-C , 54-C ) :   1.2330 B( 52-C , 53-N ) :   3.0449
B( 54-C , 55-C ) :   1.0779 B( 54-C , 57-C ) :   1.5694 B( 55-C , 56-N ) :   3.0437
B( 57-C , 99-H ) :   0.9972 B( 58-C , 59-C ) :   1.4925 B( 58-C , 61-C ) :   0.1005
B( 58-C , 62-S ) :   1.0857 B( 59-C , 60-C ) :   1.2586 B( 59-C ,100-H ) :   1.0006
B( 60-C , 61-C ) :   1.4793 B( 60-C , 68-C ) :   0.9428 B( 61-C , 62-S ) :   1.1331
B( 61-C , 63-C ) :   1.1758 B( 63-C , 64-C ) :   1.4749 B( 63-C , 74-S ) :   1.1390
B( 64-C , 65-C ) :   0.9474 B( 64-C , 72-C ) :   1.2735 B( 65-C , 66-O ) :   2.1107
B( 65-C , 67-N ) :   1.0553 B( 67-N , 68-C ) :   1.0751 B( 67-N , 70-C ) :   0.9155
B( 68-C , 69-O ) :   2.1028 B( 70-C , 71-C ) :   1.1290 B( 70-C ,101-H ) :   0.9380
B( 70-C ,102-H ) :   0.9322 B( 71-C ,103-H ) :   0.9678 B( 71-C ,104-H ) :   0.9691
B( 71-C ,105-H ) :   0.9654 B( 72-C , 73-C ) :   1.5169 B( 72-C ,106-H ) :   1.0017
B( 73-C , 74-S ) :   1.0988 B( 73-C , 75-C ) :   1.0804 B( 75-C , 76-C ) :   1.9574
B( 75-C ,107-H ) :   0.9554 B( 76-C ,108-H ) :   0.9549 B( 76-C ,109-H ) :   0.9490

-----------------------------------------------------------------------------
         ABSORPTION SPECTRUM VIA TRANSITION ELECTRIC DIPOLE MOMENTS
-----------------------------------------------------------------------------
State   Energy  Wavelength   fosc         T2         TX        TY        TZ
        (cm-1)    (nm)                  (au**2)     (au)      (au)      (au)
-----------------------------------------------------------------------------
   0   16049.1    623.1   1.283415569  26.32637  -4.22227   2.65459  -1.20497
   1   18500.6    540.5   0.521497878   9.27989   0.57454   0.86658  -2.86336
   2   22324.0    447.9   0.131454476   1.93856   0.87293  -0.07198  -1.08230
   3   22597.5    442.5   0.279864827   4.07722  -1.53795  -0.15510  -1.29918
   4   25098.5    398.4   0.265534528   3.48296   1.64093   0.12969  -0.87948
   5   25333.2    394.7   0.357049083   4.63995   1.03239   1.06713   1.56056
   6   27249.3    367.0   0.142827904   1.72557  -1.16196  -0.54814   0.27382
   7   28048.1    356.5   0.164731123   1.93352  -0.08584   1.27990   0.53665
   8   28343.8    352.8   0.194658505   2.26095  -0.56294   0.70195  -1.20470
   9   29187.1    342.6   0.196147691   2.21242  -0.20011  -1.43170   0.35015
  10   31074.4    321.8   0.072274805   0.76570  -0.51788  -0.26222  -0.65478
  11   31533.8    317.1   0.102595842   1.07110   0.77127  -0.68300  -0.09879
  12   31810.4    314.4   0.023857313   0.24690  -0.18188  -0.44631   0.12097
  13   31981.5    312.7   0.005538558   0.05701   0.22308  -0.07743   0.03537
  14   32602.1    306.7   0.004295974   0.04338   0.08041   0.16826  -0.09275
  15   33320.7    300.1   0.161558759   1.59622  -0.04487   1.24435  -0.21402
  16   34086.8    293.4   0.028520496   0.27545  -0.21782   0.43287   0.20157
  17   34461.9    290.2   0.017069372   0.16306  -0.08384   0.37653  -0.11941
  18   34648.9    288.6   0.236213289   2.24435  -0.29824   1.12289  -0.94580
  19   35159.1    284.4   0.249460615   2.33583   0.64820   1.08929  -0.85388
  20   35444.1    282.1   0.010054571   0.09339  -0.19823  -0.02172   0.23157
  21   35693.5    280.2   0.164736155   1.51941  -0.07247  -1.18572   0.32896
  22   35781.0    279.5   0.269653596   2.48101   0.52898   1.14516  -0.94329
  23   35950.5    278.2   0.058947497   0.53980  -0.34788  -0.56922   0.30784
  24   36706.7    272.4   0.079360480   0.71176  -0.44462   0.12681  -0.70568
  25   36937.5    270.7   0.010247054   0.09133   0.18968   0.20289   0.11910
  26   37082.0    269.7   0.037394183   0.33198   0.37452   0.39908   0.18015
  27   37212.6    268.7   0.106392047   0.94123   0.67227  -0.59471  -0.36824
  28   37371.7    267.6   0.005984552   0.05272   0.07898   0.17923  -0.11982
  29   37560.5    266.2   0.072574749   0.63611  -0.21296   0.62226  -0.45116
  30   37802.8    264.5   0.091438950   0.79631  -0.01529  -0.85854  -0.24287
  31   37901.5    263.8   0.015822474   0.13743  -0.06544  -0.35017   0.10261
  32   38090.2    262.5   0.086073095   0.74393   0.43528   0.70799   0.23066
  33   38451.4    260.1   0.068993973   0.59071   0.30206   0.65105   0.27496
  34   38713.2    258.3   0.200010100   1.70086  -0.84426  -0.06357  -0.99199
  35   38955.4    256.7   0.078380365   0.66239  -0.44267  -0.17314  -0.66065
  36   39080.3    255.9   0.057588303   0.48512   0.68170   0.03763  -0.13782
  37   39513.5    253.1   0.036663762   0.30547   0.24483   0.47795   0.13072
  38   39824.1    251.1   0.089476739   0.73967   0.00237   0.66661  -0.54342
  39   40078.5    249.5   0.150118956   1.23310   0.77727  -0.35859   0.70736

FINAL SINGLE POINT ENERGY     -5809.230498754508

DIPOLE MOMENT
-------------
                                X             Y             Z
Electronic contribution:      3.08552      37.50977     -30.11998
Nuclear contribution   :     -1.21856     -35.50279      33.37213
                        -----------------------------------------
Total Dipole Moment    :      1.86697       2.00698       3.25215
                        -----------------------------------------
Magnitude (a.u.)       :      4.25324
Magnitude (Debye)      :     10.81087

Rotational constants in cm-1:     0.000901     0.000216     0.000199
Rotational constants in MHz :    26.996664     6.473434     5.969557

                             ****ORCA TERMINATED NORMALLY****
TOTAL RUN TIME: 0 days 0 hours 11 minutes 15 seconds 436 msec
