                         Program Version 4.2.0 -  RELEASE  -
|  1> # ORCA input file
|  2> # SCF done       -193.054606291735          0.000798729164
|  3> ! CAM-B3LYP def2-SVP def2/J RIJCOSX Grid4 TightSCF
|  4> %maxcore 5000
|  5> %tddft
|  6>     Mode sTDDFT
|  7>     Ethresh 5.0
|  8>     maxcore 5000
|  9> end
| 10>
| 11> %pal
| 12>   nprocs 6
| 13>   end
| 14> * xyz 0 1
| 15>    C       10.58119       -11.89051        -3.98142
| 16>    C       10.94930       -13.12462        -3.56535
| 17>    C       11.05749       -13.23338        -2.15275
| 18>    C       10.77384       -12.03496        -1.52402
| 19>    S       10.37461       -10.79481        -2.67189
| 20>    C       10.83148       -11.76801        -0.13901
| 21>    C       10.87070       -12.69479         0.89069
| 22>    C       10.80692       -14.16316         0.84305
| 23>    O       10.46932       -14.76303         1.84513
| 24>    N       11.19651       -14.88175        -0.28242
| 25>    C       11.50870       -14.50912        -1.58681
| 26>    O       12.08650       -15.30148        -2.30573
| 27>    C       11.38638       -16.31639        -0.02406
| 28>    C       12.78523       -16.59967         0.50667
| 29>    C       10.89832       -12.07312         2.15679
| 30>    C       10.89533       -10.70153         2.11622
| 31>    S       10.82799       -10.14188         0.46329
| 32>    C       10.94440        -9.81445         3.22733
| 33>    C       10.98624        -8.47057         3.10801
| 34>    C       11.06563        -7.50863         4.15834
| 35>    S       11.57927        -5.90461         3.68346
| 36>    C       11.42615        -5.29656         5.30549
| 37>    N       11.78246        -4.00101         5.58438
| 38>    C       12.81911        -3.73052         6.56862
| 39>    C       10.95939        -6.27680         6.17048
| 40>    C       10.77845        -7.53397         5.50604
| 41>    C       10.21090        -8.70396         6.21645
| 42>    O       10.64574        -9.82846         6.19081
| 43>    O        9.12873        -8.35520         6.92338
| 44>    C        8.52056        -9.38174         7.69259
| 45>    C       10.64903        -6.09285         7.55904
| 46>    C       10.32273        -4.92127         8.15101
| 47>    C        9.97601        -4.81492         9.52037
| 48>    S        9.79797        -6.19965        10.54272
| 49>    C        9.42955        -5.24546        11.93978
| 50>    C        9.35128        -3.88524        11.60255
| 51>    C        9.67513        -3.63927        10.22738
| 52>    C        9.67313        -2.32810         9.72710
| 53>    C        9.31645        -1.28352        10.54786
| 54>    C        9.33173         0.03910        10.05411
| 55>    N        9.35770         1.10317         9.62795
| 56>    C        8.90510        -1.53734        11.89231
| 57>    C        8.47878        -0.46336        12.70485
| 58>    N        8.14278         0.39876        13.38167
| 59>    C        8.91428        -2.81478        12.40126
| 60>    C        9.26236        -5.90540        13.19313
| 61>    C        9.59791        -5.32363        14.44053
| 62>    C        9.37712        -6.03257        15.66453
| 63>    N        9.77114        -5.49060        16.83988
| 64>    C       10.32025        -4.31255        16.82533
| 65>    C       10.54807        -3.61628        15.61803
| 66>    N       10.20859        -4.11958        14.46576
| 67>    C        8.80500        -7.31792        15.67122
| 68>    C        8.53357        -7.93085        14.43571
| 69>    C        8.80838        -7.24794        13.21115
| 70>    N        8.61639        -7.87661        12.03569
| 71>    C        8.16188        -9.09784        12.04245
| 72>    C        7.80520        -9.73524        13.25033
| 73>    N        7.97902        -9.16286        14.40528
| 74>    C        8.53016        -8.00249        16.92149
| 75>    C        7.86241        -7.33954        17.96672
| 76>    C        7.62126        -8.00853        19.21173
| 77>    N        7.03113        -7.34464        20.23921
| 78>    C        6.67655        -6.11251        20.03853
| 79>    C        6.83383        -5.48188        18.77719
| 80>    N        7.40480        -6.07953        17.77570
| 81>    C        7.98610        -9.34010        19.38071
| 82>    C        8.61818       -10.01417        18.34139
| 83>    C        8.92369        -9.33872        17.11352
| 84>    N        9.63292        -9.97411        16.15130
| 85>    C        9.93961       -11.22116        16.34334
| 86>    C        9.55788       -11.91560        17.52009
| 87>    N        8.94381       -11.32334        18.49777
| 88>    H       10.41948       -11.54686        -4.98345
| 89>    H       11.14433       -13.95660        -4.21674
| 90>    H       11.22805       -16.84456        -0.96474
| 91>    H       10.63372       -16.61834         0.70515
| 92>    H       13.53135       -16.28887        -0.22058
| 93>    H       12.89568       -17.66497         0.68861
| 94>    H       12.94918       -16.06645         1.44033
| 95>    H       10.92158       -12.63760         3.07121
| 96>    H       10.96873       -10.28537         4.19816
| 97>    H       11.01841        -8.04523         2.11006
| 98>    H       11.91830        -3.45240         4.74327
| 99>    H       12.76103        -2.68095         6.85269
|100>    H       13.81925        -3.93513         6.17259
|101>    H       12.66008        -4.34801         7.44863
|102>    H        8.06109       -10.12524         7.03776
|103>    H        7.76690        -8.89122         8.30356
|104>    H        9.26620        -9.87740         8.31845
|105>    H       10.62753        -6.98711         8.16603
|106>    H       10.28711        -4.01546         7.56419
|107>    H        9.94344        -2.13314         8.70035
|108>    H        8.57657        -2.98627        13.40915
|109>    H       10.62651        -3.90313        17.77861
|110>    H       11.03778        -2.65201        15.60047
|111>    H        8.04144        -9.58269        11.08326
|112>    H        7.35424       -10.71842        13.25427
|113>    H        6.22544        -5.59049        20.87203
|114>    H        6.46261        -4.48049        18.60257
|115>    H        7.77955        -9.84601        20.30979
|116>    H       10.51924       -11.70784        15.56984
|117>    H        9.79387       -12.96327        17.65239
|118> *
|119>
|120>                          ****END OF INPUT****

CARTESIAN COORDINATES (ANGSTROEM)
---------------------------------
  C     10.581190  -11.890510   -3.981420
  C     10.949300  -13.124620   -3.565350
  C     11.057490  -13.233380   -2.152750
  C     10.773840  -12.034960   -1.524020
  S     10.374610  -10.794810   -2.671890
  C     10.831480  -11.768010   -0.139010
  C     10.870700  -12.694790    0.890690
  C     10.806920  -14.163160    0.843050
  O     10.469320  -14.763030    1.845130
  N     11.196510  -14.881750   -0.282420
  C     11.508700  -14.509120   -1.586810
  O     12.086500  -15.301480   -2.305730
  C     11.386380  -16.316390   -0.024060
  C     12.785230  -16.599670    0.506670
  C     10.898320  -12.073120    2.156790
  C     10.895330  -10.701530    2.116220
  S     10.827990  -10.141880    0.463290
  C     10.944400   -9.814450    3.227330
  C     10.986240   -8.470570    3.108010
  C     11.065630   -7.508630    4.158340
  S     11.579270   -5.904610    3.683460
  C     11.426150   -5.296560    5.305490
  N     11.782460   -4.001010    5.584380
  C     12.819110   -3.730520    6.568620
  C     10.959390   -6.276800    6.170480
  C     10.778450   -7.533970    5.506040
  C     10.210900   -8.703960    6.216450
  O     10.645740   -9.828460    6.190810
  O      9.128730   -8.355200    6.923380
  C      8.520560   -9.381740    7.692590
  C     10.649030   -6.092850    7.559040
  C     10.322730   -4.921270    8.151010
  C      9.976010   -4.814920    9.520370
  S      9.797970   -6.199650   10.542720
  C      9.429550   -5.245460   11.939780
  C      9.351280   -3.885240   11.602550
  C      9.675130   -3.639270   10.227380
  C      9.673130   -2.328100    9.727100
  C      9.316450   -1.283520   10.547860
  C      9.331730    0.039100   10.054110
  N      9.357700    1.103170    9.627950
  C      8.905100   -1.537340   11.892310
  C      8.478780   -0.463360   12.704850
  N      8.142780    0.398760   13.381670
  C      8.914280   -2.814780   12.401260
  C      9.262360   -5.905400   13.193130
  C      9.597910   -5.323630   14.440530
  C      9.377120   -6.032570   15.664530
  N      9.771140   -5.490600   16.839880
  C     10.320250   -4.312550   16.825330
  C     10.548070   -3.616280   15.618030
  N     10.208590   -4.119580   14.465760
  C      8.805000   -7.317920   15.671220
  C      8.533570   -7.930850   14.435710
  C      8.808380   -7.247940   13.211150
  N      8.616390   -7.876610   12.035690
  C      8.161880   -9.097840   12.042450
  C      7.805200   -9.735240   13.250330
  N      7.979020   -9.162860   14.405280
  C      8.530160   -8.002490   16.921490
  C      7.862410   -7.339540   17.966720
  C      7.621260   -8.008530   19.211730
  N      7.031130   -7.344640   20.239210
  C      6.676550   -6.112510   20.038530
  C      6.833830   -5.481880   18.777190
  N      7.404800   -6.079530   17.775700
  C      7.986100   -9.340100   19.380710
  C      8.618180  -10.014170   18.341390
  C      8.923690   -9.338720   17.113520
  N      9.632920   -9.974110   16.151300
  C      9.939610  -11.221160   16.343340
  C      9.557880  -11.915600   17.520090
  N      8.943810  -11.323340   18.497770
  H     10.419480  -11.546860   -4.983450
  H     11.144330  -13.956600   -4.216740
  H     11.228050  -16.844560   -0.964740
  H     10.633720  -16.618340    0.705150
  H     13.531350  -16.288870   -0.220580
  H     12.895680  -17.664970    0.688610
  H     12.949180  -16.066450    1.440330
  H     10.921580  -12.637600    3.071210
  H     10.968730  -10.285370    4.198160
  H     11.018410   -8.045230    2.110060
  H     11.918300   -3.452400    4.743270
  H     12.761030   -2.680950    6.852690
  H     13.819250   -3.935130    6.172590
  H     12.660080   -4.348010    7.448630
  H      8.061090  -10.125240    7.037760
  H      7.766900   -8.891220    8.303560
  H      9.266200   -9.877400    8.318450
  H     10.627530   -6.987110    8.166030
  H     10.287110   -4.015460    7.564190
  H      9.943440   -2.133140    8.700350
  H      8.576570   -2.986270   13.409150
  H     10.626510   -3.903130   17.778610
  H     11.037780   -2.652010   15.600470
  H      8.041440   -9.582690   11.083260
  H      7.354240  -10.718420   13.254270
  H      6.225440   -5.590490   20.872030
  H      6.462610   -4.480490   18.602570
  H      7.779550   -9.846010   20.309790
  H     10.519240  -11.707840   15.569840
  H      9.793870  -12.963270   17.652390

 Total Charge           Charge          ....    0
 Multiplicity           Mult            ....    1
 Number of Electrons    NEL             ....  528
 Basis Dimension        Dim             .... 1188

ORBITAL ENERGIES
----------------

  NO   OCC          E(Eh)            E(eV)
   0   2.0000     -88.971614     -2421.0407
   1   2.0000     -88.969792     -2420.9911
   2   2.0000     -88.966881     -2420.9119
   3   2.0000     -88.965490     -2420.8741
   4   2.0000     -19.270439      -524.3753
   5   2.0000     -19.216334      -522.9030
   6   2.0000     -19.194737      -522.3154
   7   2.0000     -19.193409      -522.2792
   8   2.0000     -14.455294      -393.3485
   9   2.0000     -14.441954      -392.9856
  10   2.0000     -14.439251      -392.9120
  11   2.0000     -14.432569      -392.7302
  12   2.0000     -14.430682      -392.6788
  13   2.0000     -14.428063      -392.6076
  14   2.0000     -14.423994      -392.4968
  15   2.0000     -14.423015      -392.4702
  16   2.0000     -14.422474      -392.4555
  17   2.0000     -14.422103      -392.4454
  18   2.0000     -14.398413      -391.8007
  19   2.0000     -14.398225      -391.7956
  20   2.0000     -10.412177      -283.3297
  21   2.0000     -10.388849      -282.6950
  22   2.0000     -10.388668      -282.6900
  23   2.0000     -10.345625      -281.5188
  24   2.0000     -10.335007      -281.2298
  25   2.0000     -10.332435      -281.1598
  26   2.0000     -10.329371      -281.0765
  27   2.0000     -10.328769      -281.0601
  28   2.0000     -10.328738      -281.0592
  29   2.0000     -10.327522      -281.0262
  30   2.0000     -10.326427      -280.9964
  31   2.0000     -10.326286      -280.9925
  32   2.0000     -10.326036      -280.9857
  33   2.0000     -10.325466      -280.9702
  34   2.0000     -10.325140      -280.9614
  35   2.0000     -10.320253      -280.8284
  36   2.0000     -10.319519      -280.8084
  37   2.0000     -10.319514      -280.8083
  38   2.0000     -10.318829      -280.7896
  39   2.0000     -10.318482      -280.7802
  40   2.0000     -10.318124      -280.7704
  41   2.0000     -10.316729      -280.7325
  42   2.0000     -10.315957      -280.7114
  43   2.0000     -10.315935      -280.7109
  44   2.0000     -10.315864      -280.7089
  45   2.0000     -10.315705      -280.7046
  46   2.0000     -10.312118      -280.6070
  47   2.0000     -10.310424      -280.5609
  48   2.0000     -10.310203      -280.5549
  49   2.0000     -10.308416      -280.5063
  50   2.0000     -10.307877      -280.4916
  51   2.0000     -10.303075      -280.3609
  52   2.0000     -10.302248      -280.3384
  53   2.0000     -10.297886      -280.2197
  54   2.0000     -10.297867      -280.2192
  55   2.0000     -10.297623      -280.2126
  56   2.0000     -10.296421      -280.1799
  57   2.0000     -10.295856      -280.1645
  58   2.0000     -10.293870      -280.1104
  59   2.0000     -10.293702      -280.1059
  60   2.0000     -10.292719      -280.0791
  61   2.0000     -10.292616      -280.0763
  62   2.0000     -10.292042      -280.0607
  63   2.0000     -10.289644      -279.9954
  64   2.0000     -10.288870      -279.9744
  65   2.0000     -10.287194      -279.9288
  66   2.0000     -10.286281      -279.9039
  67   2.0000     -10.283493      -279.8281
  68   2.0000     -10.281440      -279.7722
  69   2.0000     -10.280793      -279.7546
  70   2.0000     -10.280718      -279.7526
  71   2.0000     -10.278989      -279.7055
  72   2.0000     -10.245939      -278.8062
  73   2.0000      -8.065847      -219.4829
  74   2.0000      -8.064831      -219.4552
  75   2.0000      -8.062686      -219.3969
  76   2.0000      -8.062094      -219.3807
  77   2.0000      -6.035246      -164.2274
  78   2.0000      -6.033921      -164.1913
  79   2.0000      -6.031971      -164.1383
  80   2.0000      -6.031368      -164.1219
  81   2.0000      -6.030725      -164.1044
  82   2.0000      -6.029408      -164.0685
  83   2.0000      -6.028034      -164.0312
  84   2.0000      -6.027937      -164.0285
  85   2.0000      -6.027878      -164.0269
  86   2.0000      -6.027342      -164.0123
  87   2.0000      -6.024669      -163.9396
  88   2.0000      -6.023926      -163.9194
  89   2.0000      -1.203728       -32.7551
  90   2.0000      -1.147470       -31.2243
  91   2.0000      -1.125530       -30.6272
  92   2.0000      -1.108560       -30.1655
  93   2.0000      -1.096303       -29.8319
  94   2.0000      -1.086233       -29.5579
  95   2.0000      -1.081726       -29.4352
  96   2.0000      -1.074924       -29.2502
  97   2.0000      -1.049057       -28.5463
  98   2.0000      -1.023148       -27.8413
  99   2.0000      -1.017630       -27.6911
 100   2.0000      -1.011089       -27.5131
 101   2.0000      -1.008447       -27.4412
 102   2.0000      -1.007877       -27.4257
 103   2.0000      -1.002429       -27.2775
 104   2.0000      -0.998999       -27.1841
 105   2.0000      -0.989323       -26.9209
 106   2.0000      -0.983698       -26.7678
 107   2.0000      -0.979281       -26.6476
 108   2.0000      -0.979175       -26.6447
 109   2.0000      -0.962133       -26.1810
 110   2.0000      -0.948791       -25.8179
 111   2.0000      -0.940911       -25.6035
 112   2.0000      -0.915797       -24.9201
 113   2.0000      -0.904730       -24.6190
 114   2.0000      -0.889673       -24.2092
 115   2.0000      -0.877540       -23.8791
 116   2.0000      -0.873642       -23.7730
 117   2.0000      -0.870463       -23.6865
 118   2.0000      -0.865658       -23.5557
 119   2.0000      -0.864021       -23.5112
 120   2.0000      -0.860764       -23.4226
 121   2.0000      -0.856681       -23.3115
 122   2.0000      -0.847844       -23.0710
 123   2.0000      -0.840261       -22.8647
 124   2.0000      -0.828925       -22.5562
 125   2.0000      -0.823533       -22.4095
 126   2.0000      -0.816801       -22.2263
 127   2.0000      -0.802097       -21.8262
 128   2.0000      -0.798399       -21.7255
 129   2.0000      -0.792127       -21.5549
 130   2.0000      -0.787135       -21.4190
 131   2.0000      -0.774143       -21.0655
 132   2.0000      -0.769486       -20.9388
 133   2.0000      -0.756307       -20.5802
 134   2.0000      -0.748603       -20.3705
 135   2.0000      -0.744709       -20.2646
 136   2.0000      -0.743930       -20.2434
 137   2.0000      -0.734781       -19.9944
 138   2.0000      -0.733346       -19.9554
 139   2.0000      -0.729806       -19.8590
 140   2.0000      -0.723597       -19.6901
 141   2.0000      -0.718893       -19.5621
 142   2.0000      -0.713321       -19.4105
 143   2.0000      -0.692617       -18.8471
 144   2.0000      -0.684673       -18.6309
 145   2.0000      -0.679667       -18.4947
 146   2.0000      -0.675475       -18.3806
 147   2.0000      -0.674137       -18.3442
 148   2.0000      -0.670841       -18.2545
 149   2.0000      -0.664602       -18.0847
 150   2.0000      -0.661051       -17.9881
 151   2.0000      -0.649972       -17.6866
 152   2.0000      -0.646068       -17.5804
 153   2.0000      -0.644301       -17.5323
 154   2.0000      -0.640751       -17.4357
 155   2.0000      -0.635129       -17.2827
 156   2.0000      -0.628245       -17.0954
 157   2.0000      -0.624870       -17.0036
 158   2.0000      -0.621675       -16.9166
 159   2.0000      -0.613837       -16.7034
 160   2.0000      -0.606678       -16.5085
 161   2.0000      -0.600189       -16.3320
 162   2.0000      -0.594701       -16.1826
 163   2.0000      -0.594223       -16.1696
 164   2.0000      -0.589523       -16.0417
 165   2.0000      -0.587068       -15.9749
 166   2.0000      -0.583183       -15.8692
 167   2.0000      -0.580158       -15.7869
 168   2.0000      -0.575681       -15.6651
 169   2.0000      -0.573573       -15.6077
 170   2.0000      -0.567346       -15.4383
 171   2.0000      -0.566056       -15.4032
 172   2.0000      -0.563616       -15.3368
 173   2.0000      -0.559577       -15.2269
 174   2.0000      -0.557844       -15.1797
 175   2.0000      -0.553541       -15.0626
 176   2.0000      -0.547188       -14.8898
 177   2.0000      -0.545744       -14.8504
 178   2.0000      -0.539383       -14.6774
 179   2.0000      -0.537554       -14.6276
 180   2.0000      -0.537278       -14.6201
 181   2.0000      -0.536127       -14.5888
 182   2.0000      -0.530978       -14.4487
 183   2.0000      -0.527755       -14.3609
 184   2.0000      -0.525931       -14.3113
 185   2.0000      -0.521691       -14.1959
 186   2.0000      -0.521029       -14.1779
 187   2.0000      -0.518283       -14.1032
 188   2.0000      -0.516531       -14.0555
 189   2.0000      -0.514922       -14.0117
 190   2.0000      -0.513743       -13.9797
 191   2.0000      -0.512365       -13.9422
 192   2.0000      -0.510967       -13.9041
 193   2.0000      -0.504268       -13.7218
 194   2.0000      -0.503014       -13.6877
 195   2.0000      -0.500463       -13.6183
 196   2.0000      -0.498863       -13.5748
 197   2.0000      -0.497960       -13.5502
 198   2.0000      -0.495469       -13.4824
 199   2.0000      -0.494612       -13.4591
 200   2.0000      -0.490693       -13.3524
 201   2.0000      -0.487693       -13.2708
 202   2.0000      -0.485701       -13.2166
 203   2.0000      -0.484312       -13.1788
 204   2.0000      -0.481300       -13.0968
 205   2.0000      -0.476533       -12.9671
 206   2.0000      -0.475989       -12.9523
 207   2.0000      -0.474843       -12.9211
 208   2.0000      -0.471010       -12.8168
 209   2.0000      -0.463416       -12.6102
 210   2.0000      -0.462047       -12.5729
 211   2.0000      -0.458316       -12.4714
 212   2.0000      -0.454129       -12.3575
 213   2.0000      -0.450218       -12.2510
 214   2.0000      -0.450022       -12.2457
 215   2.0000      -0.448825       -12.2132
 216   2.0000      -0.445774       -12.1301
 217   2.0000      -0.445268       -12.1164
 218   2.0000      -0.442070       -12.0293
 219   2.0000      -0.440188       -11.9781
 220   2.0000      -0.437202       -11.8969
 221   2.0000      -0.435683       -11.8555
 222   2.0000      -0.435083       -11.8392
 223   2.0000      -0.430749       -11.7213
 224   2.0000      -0.428437       -11.6584
 225   2.0000      -0.426684       -11.6107
 226   2.0000      -0.424061       -11.5393
 227   2.0000      -0.421833       -11.4787
 228   2.0000      -0.418350       -11.3839
 229   2.0000      -0.413525       -11.2526
 230   2.0000      -0.411931       -11.2092
 231   2.0000      -0.409838       -11.1523
 232   2.0000      -0.408607       -11.1188
 233   2.0000      -0.404788       -11.0148
 234   2.0000      -0.401872       -10.9355
 235   2.0000      -0.400895       -10.9089
 236   2.0000      -0.391845       -10.6626
 237   2.0000      -0.391306       -10.6480
 238   2.0000      -0.387338       -10.5400
 239   2.0000      -0.382743       -10.4150
 240   2.0000      -0.377693       -10.2776
 241   2.0000      -0.375668       -10.2224
 242   2.0000      -0.369313       -10.0495
 243   2.0000      -0.365925        -9.9573
 244   2.0000      -0.359957        -9.7949
 245   2.0000      -0.356177        -9.6921
 246   2.0000      -0.341464        -9.2917
 247   2.0000      -0.339159        -9.2290
 248   2.0000      -0.338625        -9.2145
 249   2.0000      -0.334506        -9.1024
 250   2.0000      -0.332555        -9.0493
 251   2.0000      -0.331950        -9.0328
 252   2.0000      -0.326937        -8.8964
 253   2.0000      -0.325207        -8.8493
 254   2.0000      -0.323571        -8.8048
 255   2.0000      -0.320665        -8.7257
 256   2.0000      -0.317256        -8.6330
 257   2.0000      -0.315597        -8.5878
 258   2.0000      -0.314404        -8.5554
 259   2.0000      -0.309149        -8.4124
 260   2.0000      -0.293476        -7.9859
 261   2.0000      -0.283883        -7.7249
 262   2.0000      -0.252869        -6.8809
 263   2.0000      -0.230248        -6.2654
 264   0.0000      -0.096009        -2.6125
 265   0.0000      -0.072065        -1.9610
 266   0.0000      -0.061251        -1.6667
 267   0.0000      -0.055949        -1.5224
 268   0.0000      -0.018708        -0.5091

MULLIKEN ATOMIC CHARGES
-----------------------
   0 C :   -0.054163
   1 C :    0.036835
   2 C :    0.012999
   3 C :   -0.108450
   4 S :    0.141223
   5 C :   -0.089070
   6 C :    0.030047
   7 C :    0.156959
   8 O :   -0.212805
   9 N :   -0.264203
  10 C :    0.153975
  11 O :   -0.213886
  12 C :    0.119472
  13 C :    0.002838
  14 C :   -0.033541
  15 C :   -0.020611
  16 S :    0.124436
  17 C :    0.008367
  18 C :    0.020116
  19 C :   -0.115059
  20 S :    0.107096
  21 C :   -0.158158
  22 N :   -0.162329
  23 C :    0.091954
  24 C :    0.141733
  25 C :    0.070559
  26 C :    0.123880
  27 O :   -0.206496
  28 O :   -0.294289
  29 C :    0.181116
  30 C :   -0.037177
  31 C :   -0.033595
  32 C :   -0.073400
  33 S :    0.192743
  34 C :   -0.229342
  35 C :    0.176978
  36 C :    0.103319
  37 C :   -0.062311
  38 C :   -0.071083
  39 C :   -0.179824
  40 N :    0.161452
  41 C :   -0.097054
  42 C :   -0.178336
  43 N :    0.159552
  44 C :   -0.012930
  45 C :    0.143732
  46 C :   -0.093049
  47 C :   -0.028439
  48 N :    0.008536
  49 C :    0.026024
  50 C :    0.036242
  51 N :   -0.034011
  52 C :    0.043643
  53 C :   -0.038625
  54 C :   -0.051484
  55 N :   -0.061275
  56 C :    0.040037
  57 C :    0.024620
  58 N :    0.016224
  59 C :    0.035987
  60 C :   -0.029152
  61 C :    0.022667
  62 N :   -0.016150
  63 C :    0.019399
  64 C :    0.023740
  65 N :   -0.000503
  66 C :   -0.077642
  67 C :    0.025932
  68 C :   -0.035350
  69 N :    0.001682
  70 C :    0.019388
  71 C :    0.019476
  72 N :   -0.016107
  73 H :    0.035334
  74 H :    0.008362
  75 H :    0.027872
  76 H :    0.036772
  77 H :    0.025823
  78 H :    0.017940
  79 H :    0.019601
  80 H :    0.005337
  81 H :    0.018405
  82 H :   -0.008456
  83 H :    0.122315
  84 H :    0.034345
  85 H :    0.020309
  86 H :    0.057146
  87 H :    0.036866
  88 H :    0.042839
  89 H :    0.034042
  90 H :   -0.005234
  91 H :    0.009526
  92 H :   -0.014909
  93 H :   -0.014871
  94 H :    0.013874
  95 H :    0.020946
  96 H :    0.000120
  97 H :    0.011980
  98 H :    0.013631
  99 H :    0.010918
 100 H :   -0.036364
 101 H :    0.007504
 102 H :    0.012949
Sum of atomic charges:   -0.0000000

LOEWDIN ATOMIC CHARGES
----------------------
   0 C :   -0.174512
   1 C :   -0.028480
   2 C :   -0.093779
   3 C :   -0.176705
   4 S :    0.444259
   5 C :   -0.170001
   6 C :   -0.093568
   7 C :    0.096285
   8 O :   -0.181765
   9 N :   -0.029312
  10 C :    0.094775
  11 O :   -0.180425
  12 C :    0.045558
  13 C :   -0.058657
  14 C :   -0.019924
  15 C :   -0.159403
  16 S :    0.434260
  17 C :   -0.026430
  18 C :   -0.061674
  19 C :   -0.151703
  20 S :    0.415493
  21 C :   -0.116784
  22 N :   -0.057395
  23 C :    0.023007
  24 C :   -0.090922
  25 C :   -0.083125
  26 C :    0.094291
  27 O :   -0.164338
  28 O :   -0.076423
  29 C :    0.078192
  30 C :   -0.007178
  31 C :   -0.055116
  32 C :   -0.163926
  33 S :    0.539082
  34 C :   -0.171287
  35 C :   -0.029648
  36 C :   -0.054186
  37 C :    0.028386
  38 C :   -0.064697
  39 C :   -0.032616
  40 N :   -0.050217
  41 C :   -0.064725
  42 C :   -0.030639
  43 N :   -0.051056
  44 C :    0.044789
  45 C :   -0.031576
  46 C :   -0.013153
  47 C :    0.007375
  48 N :   -0.021176
  49 C :    0.010203
  50 C :    0.011849
  51 N :   -0.031469
  52 C :   -0.006172
  53 C :    0.005447
  54 C :   -0.014122
  55 N :   -0.055824
  56 C :    0.012278
  57 C :    0.005724
  58 N :   -0.013240
  59 C :   -0.004258
  60 C :    0.002403
  61 C :   -0.015299
  62 N :   -0.036533
  63 C :    0.005296
  64 C :    0.005572
  65 N :   -0.028312
  66 C :    0.005544
  67 C :   -0.015454
  68 C :    0.001196
  69 N :   -0.026275
  70 C :    0.002045
  71 C :    0.004198
  72 N :   -0.036825
  73 H :    0.028090
  74 H :    0.040336
  75 H :    0.025912
  76 H :    0.027524
  77 H :    0.026395
  78 H :    0.029479
  79 H :    0.024074
  80 H :    0.041045
  81 H :    0.038664
  82 H :    0.018950
  83 H :    0.073408
  84 H :    0.027668
  85 H :    0.017133
  86 H :    0.032618
  87 H :    0.026694
  88 H :    0.026665
  89 H :    0.021522
  90 H :    0.017601
  91 H :    0.031673
  92 H :    0.039096
  93 H :    0.037552
  94 H :    0.027508
  95 H :    0.029929
  96 H :    0.023079
  97 H :    0.026594
  98 H :    0.026322
  99 H :    0.025575
 100 H :    0.042064
 101 H :    0.023786
 102 H :    0.025839

  Mayer bond orders larger than 0.100000
B(  0-C ,  1-C ) :   1.5778 B(  0-C ,  4-S ) :   1.1312 B(  0-C , 73-H ) :   0.9722
B(  1-C ,  2-C ) :   1.2634 B(  1-C , 74-H ) :   0.9997 B(  2-C ,  3-C ) :   1.4912
B(  2-C , 10-C ) :   0.9614 B(  3-C ,  4-S ) :   1.1498 B(  3-C ,  5-C ) :   1.1792
B(  5-C ,  6-C ) :   1.4831 B(  5-C , 16-S ) :   1.1374 B(  6-C ,  7-C ) :   0.9463
B(  6-C , 14-C ) :   1.2411 B(  7-C ,  8-O ) :   2.1150 B(  7-C ,  9-N ) :   1.0628
B(  9-N , 10-C ) :   1.0553 B(  9-N , 12-C ) :   0.9197 B( 10-C , 11-O ) :   2.1105
B( 12-C , 13-C ) :   1.1298 B( 12-C , 75-H ) :   0.9373 B( 12-C , 76-H ) :   0.9324
B( 13-C , 77-H ) :   0.9677 B( 13-C , 78-H ) :   0.9692 B( 13-C , 79-H ) :   0.9652
B( 14-C , 15-C ) :   1.4803 B( 14-C , 80-H ) :   1.0143 B( 15-C , 16-S ) :   1.0742
B( 15-C , 17-C ) :   1.1367 B( 17-C , 18-C ) :   1.6889 B( 17-C , 81-H ) :   0.9634
B( 18-C , 19-C ) :   1.1245 B( 18-C , 82-H ) :   0.9409 B( 19-C , 20-S ) :   1.0961
B( 19-C , 25-C ) :   1.5645 B( 20-S , 21-C ) :   1.1208 B( 21-C , 22-N ) :   1.2042
B( 21-C , 24-C ) :   1.4296 B( 22-N , 23-C ) :   0.9863 B( 22-N , 83-H ) :   0.9263
B( 23-C , 84-H ) :   0.9786 B( 23-C , 85-H ) :   0.9680 B( 23-C , 86-H ) :   0.9697
B( 24-C , 25-C ) :   1.2209 B( 24-C , 30-C ) :   1.0925 B( 25-C , 26-C ) :   0.8950
B( 26-C , 27-O ) :   2.0375 B( 26-C , 28-O ) :   1.2090 B( 28-O , 29-C ) :   0.9204
B( 29-C , 87-H ) :   0.9755 B( 29-C , 88-H ) :   0.9784 B( 29-C , 89-H ) :   0.9713
B( 30-C , 31-C ) :   1.6693 B( 30-C , 90-H ) :   0.9441 B( 31-C , 32-C ) :   1.1746
B( 31-C , 91-H ) :   0.9665 B( 32-C , 33-S ) :   1.1501 B( 32-C , 34-C ) :   0.1038
B( 32-C , 36-C ) :   1.2900 B( 33-S , 34-C ) :   1.1651 B( 34-C , 35-C ) :   1.3419
B( 34-C , 45-C ) :   1.1274 B( 35-C , 36-C ) :   1.1905 B( 35-C , 44-C ) :   1.1984
B( 36-C , 37-C ) :   1.2035 B( 37-C , 38-C ) :   1.5608 B( 37-C , 92-H ) :   0.9954
B( 38-C , 39-C ) :   1.0757 B( 38-C , 41-C ) :   1.2334 B( 39-C , 40-N ) :   3.0436
B( 41-C , 42-C ) :   1.0795 B( 41-C , 44-C ) :   1.5739 B( 42-C , 43-N ) :   3.0430
B( 44-C , 93-H ) :   0.9796 B( 45-C , 46-C ) :   1.2584 B( 45-C , 52-C ) :   0.1448
B( 45-C , 54-C ) :   1.2466 B( 46-C , 47-C ) :   1.1332 B( 46-C , 51-N ) :   1.4512
B( 47-C , 48-N ) :   1.4268 B( 47-C , 52-C ) :   1.3430 B( 48-N , 49-C ) :   1.6991
B( 49-C , 50-C ) :   1.1777 B( 49-C , 94-H ) :   0.9745 B( 50-C , 51-N ) :   1.6814
B( 50-C , 95-H ) :   0.9731 B( 52-C , 53-C ) :   1.3409 B( 52-C , 59-C ) :   0.9320
B( 53-C , 54-C ) :   1.1584 B( 53-C , 58-N ) :   1.4259 B( 54-C , 55-N ) :   1.4037
B( 55-N , 56-C ) :   1.6687 B( 56-C , 57-C ) :   1.1909 B( 56-C , 96-H ) :   0.9704
B( 57-C , 58-N ) :   1.6914 B( 57-C , 97-H ) :   0.9739 B( 59-C , 60-C ) :   1.3516
B( 59-C , 66-C ) :   0.1433 B( 59-C , 68-C ) :   1.3548 B( 60-C , 61-C ) :   1.1708
B( 60-C , 65-N ) :   1.4085 B( 61-C , 62-N ) :   1.3676 B( 61-C , 66-C ) :   1.2298
B( 62-N , 63-C ) :   1.7336 B( 63-C , 64-C ) :   1.1659 B( 63-C , 98-H ) :   0.9729
B( 64-C , 65-N ) :   1.7105 B( 64-C , 99-H ) :   0.9728 B( 66-C , 67-C ) :   1.2337
B( 66-C ,100-H ) :   1.0675 B( 67-C , 68-C ) :   1.1686 B( 67-C , 72-N ) :   1.3653
B( 68-C , 69-N ) :   1.4056 B( 69-N , 70-C ) :   1.7080 B( 70-C , 71-C ) :   1.1648
B( 70-C ,101-H ) :   0.9724 B( 71-C , 72-N ) :   1.7363 B( 71-C ,102-H ) :   0.9731

-----------------------------------------------------------------------------
         ABSORPTION SPECTRUM VIA TRANSITION ELECTRIC DIPOLE MOMENTS
-----------------------------------------------------------------------------
State   Energy  Wavelength   fosc         T2         TX        TY        TZ
        (cm-1)    (nm)                  (au**2)     (au)      (au)      (au)
-----------------------------------------------------------------------------
   0   13777.8    725.8   0.636088699  15.19893  -0.70905  -0.91870   3.72185
   1   20319.9    492.1   0.344837512   5.58688   0.48130  -1.00928  -2.08245
   2   21155.1    472.7   0.146505862   2.27990   0.08274  -1.49023  -0.22862
   3   22127.5    451.9   0.191027970   2.84210  -0.33685   0.25120   1.63265
   4   23560.9    424.4   0.711709126   9.94458  -0.24643  -2.29930  -2.14408
   5   24183.6    413.5   0.010114452   0.13769   0.13030  -0.34289  -0.05598
   6   24515.8    407.9   0.016773039   0.22524   0.14980  -0.42455   0.15019
   7   25747.6    388.4   0.005976167   0.07641   0.08161   0.18768  -0.18581
   8   26491.5    377.5   0.016407869   0.20390  -0.25493  -0.25254  -0.27411
   9   26958.6    370.9   0.003697486   0.04515   0.05369   0.13472  -0.15531
  10   28327.2    353.0   0.211686256   2.46017   0.07096  -0.72820  -1.38739
  11   28463.1    351.3   0.096919440   1.12100   0.05194   0.39530   0.98084
  12   28679.8    348.7   0.032933801   0.37804   0.02425   0.41222  -0.45555
  13   28964.8    345.2   0.038091127   0.43294  -0.22619  -0.21327   0.57991
  14   29617.6    337.6   0.031576064   0.35098   0.01279  -0.33389  -0.48922
  15   30097.5    332.3   0.009907679   0.10837   0.11646  -0.26048   0.16418
  16   30240.7    330.7   0.007642510   0.08320  -0.25296   0.02752   0.13585
  17   30878.9    323.8   0.049386605   0.52653  -0.40979   0.58694  -0.11876
  18   31363.3    318.8   0.010774673   0.11310  -0.25510   0.06882   0.20805
  19   31479.8    317.7   0.023787889   0.24877   0.25675  -0.02329  -0.42698
  20   31537.7    317.1   0.145601517   1.51989  -0.07282   1.13175   0.48345
  21   31829.5    314.2   0.030602924   0.31653  -0.05865   0.52016  -0.20619
  22   32111.2    311.4   0.238235555   2.44245  -0.63783   1.09155   0.91877
  23   32626.0    306.5   0.014397131   0.14527   0.14318  -0.34956   0.05080
  24   33438.2    299.1   0.113155223   1.11406  -0.04599   0.91751  -0.51972
  25   33690.3    296.8   0.014063704   0.13743  -0.00801  -0.02281  -0.36992
  26   34491.4    289.9   0.108409518   1.03474  -0.26061   0.07393   0.98049
  27   34725.8    288.0   0.246232211   2.33436  -0.61423  -1.12859  -0.82666
  28   34905.1    286.5   0.239221976   2.25625  -0.10560   0.71205   1.31837
  29   35071.4    285.1   0.024844633   0.23321  -0.19690   0.18466  -0.40043
  30   35252.4    283.7   0.045507538   0.42498   0.39321   0.46536  -0.23195
  31   35622.5    280.7   0.022634603   0.20918  -0.10333   0.19867   0.39879
  32   35708.5    280.0   0.123303577   1.13679   0.01048  -1.06537  -0.04076
  33   36296.4    275.5   0.023305559   0.21138   0.12685   0.28766  -0.33548
  34   36615.0    273.1   0.072807091   0.65462   0.16394   0.78700  -0.09152
  35   36720.6    272.3   0.026597894   0.23846  -0.12535  -0.46950  -0.04811
  36   36755.0    272.1   0.097997417   0.87776  -0.17471  -0.89504   0.21479
  37   37015.7    270.2   0.009432891   0.08389  -0.11741  -0.01626  -0.26428
  38   37593.5    266.0   0.171617913   1.50289  -0.71045   0.98085   0.18995
  39   37910.3    263.8   0.043462094   0.37742  -0.24888   0.55924   0.05221
  40   38393.3    260.5   0.010973005   0.09409  -0.18363   0.23301  -0.07796
  41   38723.4    258.2   0.043839065   0.37270  -0.08031   0.56630   0.21343
  42   38874.7    257.2   0.007371782   0.06243   0.11706   0.06373   0.21134
  43   39065.4    256.0   0.097697826   0.82332  -0.18956   0.84529  -0.26995
  44   39348.0    254.1   0.054792551   0.45843  -0.00322  -0.67694  -0.01328
  45   39620.8    252.4   0.063560437   0.52813   0.08250  -0.69491   0.19600
  46   39766.5    251.5   0.103643799   0.85803  -0.00904   0.81676  -0.43686

FINAL SINGLE POINT ENERGY     -4584.134470594015

DIPOLE MOMENT
-------------
                                X             Y             Z
Electronic contribution:    -11.96006      27.75824      20.59908
Nuclear contribution   :     12.51334     -29.36876     -21.04232
                        -----------------------------------------
Total Dipole Moment    :      0.55328      -1.61052      -0.44324
                        -----------------------------------------
Magnitude (a.u.)       :      1.75965
Magnitude (Debye)      :      4.47267

Rotational constants in cm-1:     0.001387     0.000292     0.000246
Rotational constants in MHz :    41.575192     8.744711     7.386778

                             ****ORCA TERMINATED NORMALLY****
TOTAL RUN TIME: 0 days 0 hours 10 minutes 45 seconds 968 msec
