                         Program Version 4.2.0 -  RELEASE  -
|  1> # ORCA input file
|  2> # SCF done       -187.618345939571          0.000774855606
|  3> ! CAM-B3LYP def2-SVP def2/J RIJCOSX Grid4 TightSCF
|  4> %maxcore 5000
|  5> %tddft
|  6>     Mode sTDDFT
|  7>     Ethresh 5.0
|  8>     maxcore 5000
|  9> end
| 10>
| 11> %pal
| 12>   nprocs 6
| 13>   end
| 14> * xyz 0 1
| 15>    C       -0.63550         0.02936        -6.93405
| 16>    S       -1.34898        -1.51890        -6.66469
| 17>    C       -2.24725        -0.92766        -5.32322
| 18>    C       -1.98629         0.41222        -5.12214
| 19>    C       -1.06410         0.95803        -6.05099
| 20>    N       -2.57980         1.15592        -4.07277
| 21>    O       -3.30270         0.55616        -3.29594
| 22>    O       -2.31661         2.33701        -4.00215
| 23>    C       -3.18006        -1.75146        -4.58023
| 24>    C       -4.52283        -1.85868        -4.84135
| 25>    N       -5.22003        -1.16160        -5.84799
| 26>    O       -6.42019        -1.32921        -5.92483
| 27>    O       -4.57043        -0.43926        -6.58718
| 28>    C       -5.13422        -2.77086        -3.89870
| 29>    C       -4.16107        -3.26413        -3.10783
| 30>    C       -2.88885        -2.68081        -3.49280
| 31>    C       -1.65604        -2.89484        -2.92000
| 32>    C       -0.53437        -2.00500        -2.96099
| 33>    C        0.35412        -2.36769        -1.99650
| 34>    C       -0.11555        -3.55859        -1.35367
| 35>    N        0.62137        -4.22467        -0.36232
| 36>    O        0.16592        -5.25451         0.11787
| 37>    O        1.68389        -3.73177        -0.02710
| 38>    C       -1.31792        -3.95426        -1.94365
| 39>    C       -1.96120        -5.18837        -1.74759
| 40>    C       -2.73709        -5.81202        -2.68897
| 41>    C       -3.38453        -7.05727        -2.60358
| 42>    N       -3.58025        -7.90143        -1.53590
| 43>    C       -3.24692        -7.69624        -0.14347
| 44>    C       -4.10283        -6.60890         0.49836
| 45>    C       -4.27350        -9.07284        -1.91555
| 46>    O       -4.56511        -9.96339        -1.14943
| 47>    C       -4.49925        -8.91138        -3.33805
| 48>    C       -3.96281        -7.67828        -3.72369
| 49>    C       -4.15619        -7.53497        -5.15196
| 50>    O       -3.87445        -6.64361        -5.92066
| 51>    N       -4.78953        -8.74133        -5.54378
| 52>    C       -5.19863        -8.91526        -6.91905
| 53>    C       -6.71057        -8.80036        -7.08710
| 54>    C       -5.00282        -9.56888        -4.47182
| 55>    C       -5.56396       -10.86418        -4.40355
| 56>    C       -5.89128       -11.71064        -5.41532
| 57>    C       -6.40287       -13.01237        -5.20323
| 58>    S       -6.86679       -13.57249        -3.62005
| 59>    C       -6.59705       -14.00361        -6.16125
| 60>    C       -6.26454       -13.82821        -7.59273
| 61>    O       -5.87432       -12.77701        -8.07617
| 62>    C       -6.44423       -15.04610        -8.35646
| 63>    C       -6.20066       -15.28847        -9.69276
| 64>    N       -6.48133       -16.58501        -9.95448
| 65>    C       -6.40807       -17.20817       -11.25272
| 66>    C       -7.74400       -17.10712       -11.98545
| 67>    C       -6.91263       -17.19317        -8.82478
| 68>    C       -6.90320       -16.27349        -7.79835
| 69>    C       -7.27131       -16.45282        -6.40543
| 70>    O       -7.62839       -17.51682        -5.93562
| 71>    C       -7.12030       -15.20817        -5.61544
| 72>    C       -7.34546       -15.11488        -4.24913
| 73>    C       -7.91462       -16.06323        -3.33710
| 74>    S       -7.37959       -16.07077        -1.66671
| 75>    C       -8.47239       -17.30452        -1.26660
| 76>    C       -9.22283       -17.68348        -2.35147
| 77>    C       -8.91076       -16.97870        -3.53359
| 78>    N      -10.23666       -18.68503        -2.27940
| 79>    O      -10.35862       -19.27599        -1.22630
| 80>    O      -10.91279       -18.86968        -3.26678
| 81>    H        0.05616         0.15180        -7.74255
| 82>    H       -0.76215         1.98868        -6.03022
| 83>    H       -6.18784        -2.96803        -3.86654
| 84>    H       -4.29457        -3.91659        -2.26887
| 85>    H       -0.46284        -1.13310        -3.57842
| 86>    H        1.27031        -1.87380        -1.73218
| 87>    H       -1.69679        -5.69911        -0.83379
| 88>    H       -2.83636        -5.35501        -3.66604
| 89>    H       -2.18162        -7.47864        -0.03756
| 90>    H       -3.44946        -8.65412         0.34512
| 91>    H       -3.95596        -5.64731         0.01293
| 92>    H       -3.83361        -6.50992         1.54564
| 93>    H       -5.15532        -6.87422         0.43333
| 94>    H       -4.83024        -9.86970        -7.30237
| 95>    H       -4.70803        -8.10906        -7.47264
| 96>    H       -6.96889        -8.94360        -8.13212
| 97>    H       -7.23144        -9.54937        -6.49566
| 98>    H       -7.04819        -7.81440        -6.77658
| 99>    H       -5.68734       -11.21131        -3.38273
|100>    H       -5.74438       -11.45684        -6.45414
|101>    H       -5.84024       -14.61790       -10.44746
|102>    H       -6.13367       -18.25759       -11.11883
|103>    H       -5.62463       -16.71252       -11.83117
|104>    H       -8.52924       -17.59263       -11.41117
|105>    H       -7.67138       -17.59126       -12.95490
|106>    H       -8.01775       -16.06545       -12.13501
|107>    H       -7.19334       -18.22738        -8.80301
|108>    H       -8.53238       -17.70390        -0.27297
|109>    H       -9.40711       -17.16006        -4.46770
|110> *
|111>
|112>                          ****END OF INPUT****

CARTESIAN COORDINATES (ANGSTROEM)
---------------------------------
  C     -0.635500    0.029360   -6.934050
  S     -1.348980   -1.518900   -6.664690
  C     -2.247250   -0.927660   -5.323220
  C     -1.986290    0.412220   -5.122140
  C     -1.064100    0.958030   -6.050990
  N     -2.579800    1.155920   -4.072770
  O     -3.302700    0.556160   -3.295940
  O     -2.316610    2.337010   -4.002150
  C     -3.180060   -1.751460   -4.580230
  C     -4.522830   -1.858680   -4.841350
  N     -5.220030   -1.161600   -5.847990
  O     -6.420190   -1.329210   -5.924830
  O     -4.570430   -0.439260   -6.587180
  C     -5.134220   -2.770860   -3.898700
  C     -4.161070   -3.264130   -3.107830
  C     -2.888850   -2.680810   -3.492800
  C     -1.656040   -2.894840   -2.920000
  C     -0.534370   -2.005000   -2.960990
  C      0.354120   -2.367690   -1.996500
  C     -0.115550   -3.558590   -1.353670
  N      0.621370   -4.224670   -0.362320
  O      0.165920   -5.254510    0.117870
  O      1.683890   -3.731770   -0.027100
  C     -1.317920   -3.954260   -1.943650
  C     -1.961200   -5.188370   -1.747590
  C     -2.737090   -5.812020   -2.688970
  C     -3.384530   -7.057270   -2.603580
  N     -3.580250   -7.901430   -1.535900
  C     -3.246920   -7.696240   -0.143470
  C     -4.102830   -6.608900    0.498360
  C     -4.273500   -9.072840   -1.915550
  O     -4.565110   -9.963390   -1.149430
  C     -4.499250   -8.911380   -3.338050
  C     -3.962810   -7.678280   -3.723690
  C     -4.156190   -7.534970   -5.151960
  O     -3.874450   -6.643610   -5.920660
  N     -4.789530   -8.741330   -5.543780
  C     -5.198630   -8.915260   -6.919050
  C     -6.710570   -8.800360   -7.087100
  C     -5.002820   -9.568880   -4.471820
  C     -5.563960  -10.864180   -4.403550
  C     -5.891280  -11.710640   -5.415320
  C     -6.402870  -13.012370   -5.203230
  S     -6.866790  -13.572490   -3.620050
  C     -6.597050  -14.003610   -6.161250
  C     -6.264540  -13.828210   -7.592730
  O     -5.874320  -12.777010   -8.076170
  C     -6.444230  -15.046100   -8.356460
  C     -6.200660  -15.288470   -9.692760
  N     -6.481330  -16.585010   -9.954480
  C     -6.408070  -17.208170  -11.252720
  C     -7.744000  -17.107120  -11.985450
  C     -6.912630  -17.193170   -8.824780
  C     -6.903200  -16.273490   -7.798350
  C     -7.271310  -16.452820   -6.405430
  O     -7.628390  -17.516820   -5.935620
  C     -7.120300  -15.208170   -5.615440
  C     -7.345460  -15.114880   -4.249130
  C     -7.914620  -16.063230   -3.337100
  S     -7.379590  -16.070770   -1.666710
  C     -8.472390  -17.304520   -1.266600
  C     -9.222830  -17.683480   -2.351470
  C     -8.910760  -16.978700   -3.533590
  N    -10.236660  -18.685030   -2.279400
  O    -10.358620  -19.275990   -1.226300
  O    -10.912790  -18.869680   -3.266780
  H      0.056160    0.151800   -7.742550
  H     -0.762150    1.988680   -6.030220
  H     -6.187840   -2.968030   -3.866540
  H     -4.294570   -3.916590   -2.268870
  H     -0.462840   -1.133100   -3.578420
  H      1.270310   -1.873800   -1.732180
  H     -1.696790   -5.699110   -0.833790
  H     -2.836360   -5.355010   -3.666040
  H     -2.181620   -7.478640   -0.037560
  H     -3.449460   -8.654120    0.345120
  H     -3.955960   -5.647310    0.012930
  H     -3.833610   -6.509920    1.545640
  H     -5.155320   -6.874220    0.433330
  H     -4.830240   -9.869700   -7.302370
  H     -4.708030   -8.109060   -7.472640
  H     -6.968890   -8.943600   -8.132120
  H     -7.231440   -9.549370   -6.495660
  H     -7.048190   -7.814400   -6.776580
  H     -5.687340  -11.211310   -3.382730
  H     -5.744380  -11.456840   -6.454140
  H     -5.840240  -14.617900  -10.447460
  H     -6.133670  -18.257590  -11.118830
  H     -5.624630  -16.712520  -11.831170
  H     -8.529240  -17.592630  -11.411170
  H     -7.671380  -17.591260  -12.954900
  H     -8.017750  -16.065450  -12.135010
  H     -7.193340  -18.227380   -8.803010
  H     -8.532380  -17.703900   -0.272970
  H     -9.407110  -17.160060   -4.467700

 Total Charge           Charge          ....    0
 Multiplicity           Mult            ....    1
 Number of Electrons    NEL             ....  486
 Basis Dimension        Dim             .... 1081

ORBITAL ENERGIES
----------------

  NO   OCC          E(Eh)            E(eV)
   0   2.0000     -88.987022     -2421.4600
   1   2.0000     -88.986602     -2421.4485
   2   2.0000     -88.982828     -2421.3459
   3   2.0000     -19.241314      -523.5828
   4   2.0000     -19.241259      -523.5813
   5   2.0000     -19.239818      -523.5421
   6   2.0000     -19.239615      -523.5365
   7   2.0000     -19.237864      -523.4889
   8   2.0000     -19.237553      -523.4804
   9   2.0000     -19.234788      -523.4052
  10   2.0000     -19.233747      -523.3769
  11   2.0000     -19.215693      -522.8856
  12   2.0000     -19.209416      -522.7148
  13   2.0000     -19.208208      -522.6819
  14   2.0000     -19.195227      -522.3287
  15   2.0000     -14.648939      -398.6179
  16   2.0000     -14.647725      -398.5849
  17   2.0000     -14.647348      -398.5746
  18   2.0000     -14.643749      -398.4767
  19   2.0000     -14.498898      -394.5351
  20   2.0000     -14.465853      -393.6359
  21   2.0000     -14.459699      -393.4684
  22   2.0000     -10.389256      -282.7060
  23   2.0000     -10.380373      -282.4643
  24   2.0000     -10.375575      -282.3337
  25   2.0000     -10.371339      -282.2185
  26   2.0000     -10.355792      -281.7954
  27   2.0000     -10.347124      -281.5595
  28   2.0000     -10.344019      -281.4751
  29   2.0000     -10.341996      -281.4200
  30   2.0000     -10.339354      -281.3481
  31   2.0000     -10.333309      -281.1836
  32   2.0000     -10.333129      -281.1787
  33   2.0000     -10.331419      -281.1322
  34   2.0000     -10.331239      -281.1273
  35   2.0000     -10.329048      -281.0677
  36   2.0000     -10.328749      -281.0596
  37   2.0000     -10.328393      -281.0499
  38   2.0000     -10.328306      -281.0475
  39   2.0000     -10.325909      -280.9823
  40   2.0000     -10.324092      -280.9328
  41   2.0000     -10.323824      -280.9255
  42   2.0000     -10.323552      -280.9181
  43   2.0000     -10.322366      -280.8858
  44   2.0000     -10.313366      -280.6410
  45   2.0000     -10.311548      -280.5915
  46   2.0000     -10.309788      -280.5436
  47   2.0000     -10.308323      -280.5037
  48   2.0000     -10.307970      -280.4941
  49   2.0000     -10.306283      -280.4482
  50   2.0000     -10.304277      -280.3936
  51   2.0000     -10.303522      -280.3731
  52   2.0000     -10.302887      -280.3558
  53   2.0000     -10.300918      -280.3022
  54   2.0000     -10.299232      -280.2563
  55   2.0000     -10.296178      -280.1732
  56   2.0000     -10.292560      -280.0748
  57   2.0000     -10.289417      -279.9893
  58   2.0000     -10.286833      -279.9190
  59   2.0000     -10.285328      -279.8780
  60   2.0000     -10.280653      -279.7508
  61   2.0000     -10.279715      -279.7253
  62   2.0000     -10.279218      -279.7117
  63   2.0000     -10.272538      -279.5300
  64   2.0000     -10.266082      -279.3543
  65   2.0000     -10.265168      -279.3294
  66   2.0000      -8.082954      -219.9484
  67   2.0000      -8.082100      -219.9251
  68   2.0000      -8.078466      -219.8262
  69   2.0000      -6.052081      -164.6855
  70   2.0000      -6.051158      -164.6604
  71   2.0000      -6.047784      -164.5686
  72   2.0000      -6.047772      -164.5683
  73   2.0000      -6.047105      -164.5501
  74   2.0000      -6.045424      -164.5043
  75   2.0000      -6.044511      -164.4795
  76   2.0000      -6.043215      -164.4442
  77   2.0000      -6.040867      -164.3803
  78   2.0000      -1.321385       -35.9567
  79   2.0000      -1.320864       -35.9425
  80   2.0000      -1.319346       -35.9012
  81   2.0000      -1.312950       -35.7272
  82   2.0000      -1.146110       -31.1873
  83   2.0000      -1.139960       -31.0199
  84   2.0000      -1.139675       -31.0121
  85   2.0000      -1.137367       -30.9493
  86   2.0000      -1.134919       -30.8827
  87   2.0000      -1.133368       -30.8405
  88   2.0000      -1.130029       -30.7497
  89   2.0000      -1.127977       -30.6938
  90   2.0000      -1.118704       -30.4415
  91   2.0000      -1.074427       -29.2366
  92   2.0000      -1.062394       -28.9092
  93   2.0000      -1.025007       -27.8918
  94   2.0000      -1.024644       -27.8820
  95   2.0000      -1.009547       -27.4712
  96   2.0000      -1.005787       -27.3689
  97   2.0000      -0.994187       -27.0532
  98   2.0000      -0.948677       -25.8148
  99   2.0000      -0.938015       -25.5247
 100   2.0000      -0.928216       -25.2581
 101   2.0000      -0.919864       -25.0308
 102   2.0000      -0.910190       -24.7675
 103   2.0000      -0.908749       -24.7283
 104   2.0000      -0.904128       -24.6026
 105   2.0000      -0.891186       -24.2504
 106   2.0000      -0.883909       -24.0524
 107   2.0000      -0.881415       -23.9845
 108   2.0000      -0.870715       -23.6934
 109   2.0000      -0.870499       -23.6875
 110   2.0000      -0.851888       -23.1811
 111   2.0000      -0.848770       -23.0962
 112   2.0000      -0.848042       -23.0764
 113   2.0000      -0.839404       -22.8413
 114   2.0000      -0.826551       -22.4916
 115   2.0000      -0.823397       -22.4058
 116   2.0000      -0.803731       -21.8706
 117   2.0000      -0.796832       -21.6829
 118   2.0000      -0.782325       -21.2881
 119   2.0000      -0.776190       -21.1212
 120   2.0000      -0.769234       -20.9319
 121   2.0000      -0.765735       -20.8367
 122   2.0000      -0.762576       -20.7507
 123   2.0000      -0.752698       -20.4819
 124   2.0000      -0.728915       -19.8348
 125   2.0000      -0.727224       -19.7888
 126   2.0000      -0.717409       -19.5217
 127   2.0000      -0.708501       -19.2793
 128   2.0000      -0.705252       -19.1909
 129   2.0000      -0.698919       -19.0186
 130   2.0000      -0.694848       -18.9078
 131   2.0000      -0.689920       -18.7737
 132   2.0000      -0.671354       -18.2685
 133   2.0000      -0.661670       -18.0049
 134   2.0000      -0.661301       -17.9949
 135   2.0000      -0.660941       -17.9851
 136   2.0000      -0.658178       -17.9099
 137   2.0000      -0.650954       -17.7134
 138   2.0000      -0.647105       -17.6086
 139   2.0000      -0.639751       -17.4085
 140   2.0000      -0.636875       -17.3302
 141   2.0000      -0.636018       -17.3069
 142   2.0000      -0.631729       -17.1902
 143   2.0000      -0.630672       -17.1615
 144   2.0000      -0.629218       -17.1219
 145   2.0000      -0.626436       -17.0462
 146   2.0000      -0.625154       -17.0113
 147   2.0000      -0.624241       -16.9865
 148   2.0000      -0.617930       -16.8147
 149   2.0000      -0.616710       -16.7815
 150   2.0000      -0.609934       -16.5972
 151   2.0000      -0.594867       -16.1872
 152   2.0000      -0.592020       -16.1097
 153   2.0000      -0.589146       -16.0315
 154   2.0000      -0.585070       -15.9206
 155   2.0000      -0.584078       -15.8936
 156   2.0000      -0.582234       -15.8434
 157   2.0000      -0.579190       -15.7606
 158   2.0000      -0.576822       -15.6961
 159   2.0000      -0.574841       -15.6422
 160   2.0000      -0.566555       -15.4167
 161   2.0000      -0.565480       -15.3875
 162   2.0000      -0.559267       -15.2184
 163   2.0000      -0.557034       -15.1577
 164   2.0000      -0.556384       -15.1400
 165   2.0000      -0.550938       -14.9918
 166   2.0000      -0.550364       -14.9762
 167   2.0000      -0.545547       -14.8451
 168   2.0000      -0.539871       -14.6906
 169   2.0000      -0.538497       -14.6532
 170   2.0000      -0.535606       -14.5746
 171   2.0000      -0.535370       -14.5682
 172   2.0000      -0.530099       -14.4247
 173   2.0000      -0.528134       -14.3713
 174   2.0000      -0.525715       -14.3054
 175   2.0000      -0.521608       -14.1937
 176   2.0000      -0.520176       -14.1547
 177   2.0000      -0.516784       -14.0624
 178   2.0000      -0.515406       -14.0249
 179   2.0000      -0.511722       -13.9247
 180   2.0000      -0.511194       -13.9103
 181   2.0000      -0.509502       -13.8642
 182   2.0000      -0.506616       -13.7857
 183   2.0000      -0.503868       -13.7109
 184   2.0000      -0.502987       -13.6870
 185   2.0000      -0.497828       -13.5466
 186   2.0000      -0.492505       -13.4017
 187   2.0000      -0.490432       -13.3453
 188   2.0000      -0.487317       -13.2606
 189   2.0000      -0.486116       -13.2279
 190   2.0000      -0.483572       -13.1587
 191   2.0000      -0.481191       -13.0939
 192   2.0000      -0.480024       -13.0621
 193   2.0000      -0.479143       -13.0381
 194   2.0000      -0.476960       -12.9787
 195   2.0000      -0.475640       -12.9428
 196   2.0000      -0.471629       -12.8337
 197   2.0000      -0.469198       -12.7675
 198   2.0000      -0.463507       -12.6127
 199   2.0000      -0.461963       -12.5707
 200   2.0000      -0.459358       -12.4998
 201   2.0000      -0.458505       -12.4766
 202   2.0000      -0.458093       -12.4654
 203   2.0000      -0.455888       -12.4053
 204   2.0000      -0.454498       -12.3675
 205   2.0000      -0.449973       -12.2444
 206   2.0000      -0.444975       -12.1084
 207   2.0000      -0.443663       -12.0727
 208   2.0000      -0.437762       -11.9121
 209   2.0000      -0.435648       -11.8546
 210   2.0000      -0.426771       -11.6130
 211   2.0000      -0.423468       -11.5232
 212   2.0000      -0.397021       -10.8035
 213   2.0000      -0.388728       -10.5778
 214   2.0000      -0.387688       -10.5495
 215   2.0000      -0.384276       -10.4567
 216   2.0000      -0.383374       -10.4321
 217   2.0000      -0.380707       -10.3596
 218   2.0000      -0.378986       -10.3127
 219   2.0000      -0.378616       -10.3027
 220   2.0000      -0.377950       -10.2846
 221   2.0000      -0.371014       -10.0958
 222   2.0000      -0.369059       -10.0426
 223   2.0000      -0.367758       -10.0072
 224   2.0000      -0.366621        -9.9763
 225   2.0000      -0.361325        -9.8321
 226   2.0000      -0.359500        -9.7825
 227   2.0000      -0.356669        -9.7055
 228   2.0000      -0.354324        -9.6416
 229   2.0000      -0.346359        -9.4249
 230   2.0000      -0.345584        -9.4038
 231   2.0000      -0.343157        -9.3378
 232   2.0000      -0.341182        -9.2840
 233   2.0000      -0.339722        -9.2443
 234   2.0000      -0.337099        -9.1729
 235   2.0000      -0.332650        -9.0519
 236   2.0000      -0.327484        -8.9113
 237   2.0000      -0.323224        -8.7954
 238   2.0000      -0.314802        -8.5662
 239   2.0000      -0.313877        -8.5410
 240   2.0000      -0.301326        -8.1995
 241   2.0000      -0.292060        -7.9474
 242   2.0000      -0.241064        -6.5597
 243   0.0000      -0.136088        -3.7031
 244   0.0000      -0.097242        -2.6461
 245   0.0000      -0.063237        -1.7208
 246   0.0000      -0.058237        -1.5847
 247   0.0000      -0.047603        -1.2953

MULLIKEN ATOMIC CHARGES
-----------------------
   0 C :   -0.052964
   1 S :    0.208322
   2 C :   -0.267932
   3 C :    0.204837
   4 C :    0.026241
   5 N :    0.260267
   6 O :   -0.245926
   7 O :   -0.236046
   8 C :    0.010507
   9 C :    0.115211
  10 N :    0.265954
  11 O :   -0.236099
  12 O :   -0.243571
  13 C :    0.027450
  14 C :    0.003630
  15 C :    0.071233
  16 C :    0.028284
  17 C :    0.008666
  18 C :    0.031148
  19 C :    0.078845
  20 N :    0.275841
  21 O :   -0.265128
  22 O :   -0.248169
  23 C :    0.035994
  24 C :   -0.040391
  25 C :   -0.054861
  26 C :    0.119026
  27 N :   -0.271933
  28 C :    0.093522
  29 C :    0.001006
  30 C :    0.149920
  31 O :   -0.192231
  32 C :   -0.050715
  33 C :   -0.023028
  34 C :    0.152270
  35 O :   -0.177835
  36 N :   -0.269141
  37 C :    0.090992
  38 C :    0.003388
  39 C :    0.143335
  40 C :   -0.050138
  41 C :    0.014829
  42 C :   -0.137821
  43 S :    0.175429
  44 C :    0.008608
  45 C :    0.143386
  46 O :   -0.175377
  47 C :   -0.016216
  48 C :    0.016437
  49 N :   -0.133460
  50 C :    0.089037
  51 C :    0.002443
  52 C :    0.013436
  53 C :   -0.022599
  54 C :    0.126367
  55 O :   -0.156037
  56 C :    0.024295
  57 C :   -0.116408
  58 C :   -0.129333
  59 S :    0.173173
  60 C :   -0.098278
  61 C :    0.134082
  62 C :    0.084571
  63 N :    0.265700
  64 O :   -0.247667
  65 O :   -0.235559
  66 H :    0.041027
  67 H :    0.009782
  68 H :   -0.002188
  69 H :   -0.001602
  70 H :   -0.011512
  71 H :    0.007322
  72 H :    0.019224
  73 H :    0.031631
  74 H :    0.047748
  75 H :    0.044819
  76 H :    0.017874
  77 H :    0.029988
  78 H :    0.023652
  79 H :    0.043654
  80 H :    0.044374
  81 H :    0.028649
  82 H :    0.022628
  83 H :    0.023239
  84 H :    0.014781
  85 H :    0.026149
  86 H :    0.008596
  87 H :    0.037171
  88 H :    0.035733
  89 H :    0.032421
  90 H :    0.033117
  91 H :    0.031016
  92 H :    0.011493
  93 H :    0.048729
  94 H :    0.017668
Sum of atomic charges:   -0.0000000

LOEWDIN ATOMIC CHARGES
----------------------
   0 C :   -0.168905
   1 S :    0.497618
   2 C :   -0.156290
   3 C :   -0.072785
   4 C :   -0.041166
   5 N :    0.288213
   6 O :   -0.209671
   7 O :   -0.199126
   8 C :   -0.019186
   9 C :   -0.012937
  10 N :    0.284114
  11 O :   -0.199110
  12 O :   -0.210048
  13 C :    0.002055
  14 C :   -0.025678
  15 C :    0.036744
  16 C :    0.048462
  17 C :   -0.045176
  18 C :    0.029870
  19 C :   -0.056866
  20 N :    0.286315
  21 O :   -0.228937
  22 O :   -0.212859
  23 C :    0.016724
  24 C :   -0.012854
  25 C :   -0.001510
  26 C :    0.059199
  27 N :   -0.005373
  28 C :    0.036143
  29 C :   -0.061293
  30 C :    0.078601
  31 O :   -0.193401
  32 C :   -0.116529
  33 C :   -0.090849
  34 C :    0.086669
  35 O :   -0.175287
  36 N :   -0.002779
  37 C :    0.035923
  38 C :   -0.060139
  39 C :    0.089192
  40 C :   -0.040143
  41 C :   -0.002196
  42 C :   -0.140826
  43 S :    0.477614
  44 C :   -0.071350
  45 C :    0.084049
  46 O :   -0.170328
  47 C :   -0.104418
  48 C :    0.035131
  49 N :    0.092603
  50 C :    0.044645
  51 C :   -0.056405
  52 C :    0.034715
  53 C :   -0.101938
  54 C :    0.078265
  55 O :   -0.153119
  56 C :   -0.088227
  57 C :   -0.140507
  58 C :   -0.194613
  59 S :    0.480711
  60 C :   -0.148722
  61 C :   -0.076859
  62 C :   -0.002621
  63 N :    0.285099
  64 O :   -0.210759
  65 O :   -0.200159
  66 H :    0.030702
  67 H :    0.044357
  68 H :    0.038466
  69 H :    0.031045
  70 H :    0.029567
  71 H :    0.040154
  72 H :    0.035770
  73 H :    0.047248
  74 H :    0.028486
  75 H :    0.038515
  76 H :    0.019650
  77 H :    0.035227
  78 H :    0.030216
  79 H :    0.028186
  80 H :    0.037865
  81 H :    0.034655
  82 H :    0.022878
  83 H :    0.030117
  84 H :    0.037338
  85 H :    0.038697
  86 H :    0.030581
  87 H :    0.035123
  88 H :    0.034706
  89 H :    0.031336
  90 H :    0.034579
  91 H :    0.030837
  92 H :    0.031698
  93 H :    0.040818
  94 H :    0.044455

  Mayer bond orders larger than 0.100000
B(  0-C ,  1-S ) :   1.1433 B(  0-C ,  4-C ) :   1.5785 B(  0-C , 66-H ) :   0.9655
B(  1-S ,  2-C ) :   1.2172 B(  2-C ,  3-C ) :   1.5154 B(  2-C ,  8-C ) :   1.0035
B(  3-C ,  4-C ) :   1.2589 B(  3-C ,  5-N ) :   0.9265 B(  4-C , 67-H ) :   0.9881
B(  5-N ,  6-O ) :   1.5108 B(  5-N ,  7-O ) :   1.5494 B(  6-O ,  7-O ) :   0.2650
B(  8-C ,  9-C ) :   1.6507 B(  8-C , 15-C ) :   1.0938 B(  9-C , 10-N ) :   0.9264
B(  9-C , 13-C ) :   1.1101 B( 10-N , 11-O ) :   1.5366 B( 10-N , 12-O ) :   1.5121
B( 11-O , 12-O ) :   0.2728 B( 13-C , 14-C ) :   1.6318 B( 13-C , 68-H ) :   1.0132
B( 14-C , 15-C ) :   1.0880 B( 14-C , 69-H ) :   0.9923 B( 15-C , 16-C ) :   1.5038
B( 16-C , 17-C ) :   1.1426 B( 16-C , 23-C ) :   0.9907 B( 17-C , 18-C ) :   1.5512
B( 17-C , 70-H ) :   1.0099 B( 18-C , 19-C ) :   1.1408 B( 18-C , 71-H ) :   1.0112
B( 19-C , 20-N ) :   0.9634 B( 19-C , 23-C ) :   1.4712 B( 20-N , 21-O ) :   1.4792
B( 20-N , 22-O ) :   1.5345 B( 21-O , 22-O ) :   0.2524 B( 23-C , 24-C ) :   1.2236
B( 24-C , 25-C ) :   1.4498 B( 24-C , 72-H ) :   0.9479 B( 25-C , 26-C ) :   1.2456
B( 25-C , 73-H ) :   0.9379 B( 26-C , 27-N ) :   1.1676 B( 26-C , 33-C ) :   1.3088
B( 27-N , 28-C ) :   0.9339 B( 27-N , 30-C ) :   1.0402 B( 28-C , 29-C ) :   1.1179
B( 28-C , 74-H ) :   0.9500 B( 28-C , 75-H ) :   0.9215 B( 29-C , 76-H ) :   0.9680
B( 29-C , 77-H ) :   0.9651 B( 29-C , 78-H ) :   0.9625 B( 30-C , 31-O ) :   2.1249
B( 30-C , 32-C ) :   0.9803 B( 32-C , 33-C ) :   1.2756 B( 32-C , 39-C ) :   1.2971
B( 33-C , 34-C ) :   0.9680 B( 34-C , 35-O ) :   2.1311 B( 34-C , 36-N ) :   1.0288
B( 36-N , 37-C ) :   0.9330 B( 36-N , 39-C ) :   1.1909 B( 37-C , 38-C ) :   1.1181
B( 37-C , 79-H ) :   0.9509 B( 37-C , 80-H ) :   0.9233 B( 38-C , 81-H ) :   0.9675
B( 38-C , 82-H ) :   0.9677 B( 38-C , 83-H ) :   0.9629 B( 39-C , 40-C ) :   1.2123
B( 40-C , 41-C ) :   1.5095 B( 40-C , 84-H ) :   0.9446 B( 41-C , 42-C ) :   1.1900
B( 41-C , 85-H ) :   0.9538 B( 42-C , 43-S ) :   1.1107 B( 42-C , 44-C ) :   1.4790
B( 43-S , 57-C ) :   1.1672 B( 44-C , 45-C ) :   0.9348 B( 44-C , 56-C ) :   1.1923
B( 45-C , 46-O ) :   2.1700 B( 45-C , 47-C ) :   1.0091 B( 47-C , 48-C ) :   1.4168
B( 47-C , 53-C ) :   1.2887 B( 48-C , 49-N ) :   1.2419 B( 48-C , 86-H ) :   0.9935
B( 49-N , 50-C ) :   0.9465 B( 49-N , 52-C ) :   1.2348 B( 50-C , 51-C ) :   1.1119
B( 50-C , 87-H ) :   0.9508 B( 50-C , 88-H ) :   0.9509 B( 51-C , 89-H ) :   0.9677
B( 51-C , 90-H ) :   0.9680 B( 51-C , 91-H ) :   0.9673 B( 52-C , 53-C ) :   1.4301
B( 52-C , 92-H ) :   0.9932 B( 53-C , 54-C ) :   0.9858 B( 54-C , 55-O ) :   2.2361
B( 54-C , 56-C ) :   0.9282 B( 56-C , 57-C ) :   1.5346 B( 57-C , 58-C ) :   1.0661
B( 58-C , 59-S ) :   1.1270 B( 58-C , 62-C ) :   1.5196 B( 59-S , 60-C ) :   1.2095
B( 60-C , 61-C ) :   1.5153 B( 60-C , 93-H ) :   0.9597 B( 61-C , 62-C ) :   1.2675
B( 61-C , 63-N ) :   0.9076 B( 62-C , 94-H ) :   0.9860 B( 63-N , 64-O ) :   1.5471
B( 63-N , 65-O ) :   1.5614 B( 64-O , 65-O ) :   0.2726

-----------------------------------------------------------------------------
         ABSORPTION SPECTRUM VIA TRANSITION ELECTRIC DIPOLE MOMENTS
-----------------------------------------------------------------------------
State   Energy  Wavelength   fosc         T2         TX        TY        TZ
        (cm-1)    (nm)                  (au**2)     (au)      (au)      (au)
-----------------------------------------------------------------------------
   0    7567.2   1321.5   0.361996805  15.74874   1.44662   3.58644   0.89079
   1   16029.8    623.8   0.503366332  10.33788   1.57223   2.10403   1.85447
   2   16694.9    599.0   0.085705173   1.69005  -0.63853  -0.94746  -0.62020
   3   19099.2    523.6   0.004523399   0.07797   0.23093  -0.10982   0.11217
   4   21274.4    470.0   0.000127598   0.00197   0.03454   0.01003  -0.02610
   5   21958.6    455.4   0.244441736   3.66476  -0.79264  -1.74192   0.04702
   6   23210.7    430.8   0.026997497   0.38292   0.06203   0.59754  -0.14841
   7   24437.2    409.2   0.031897911   0.42972   0.06957  -0.64015   0.12285
   8   25054.0    399.1   0.002559894   0.03364   0.05738  -0.14490   0.09668
   9   25518.7    391.9   0.129960329   1.67660  -0.43836  -0.34326   1.16902
  10   26588.3    376.1   0.129275673   1.60067  -0.35976   0.99437  -0.69460
  11   27074.3    369.4   0.003999458   0.04863  -0.18410  -0.09753   0.07228
  12   27178.2    367.9   0.015981182   0.19358   0.14107   0.39970  -0.11800
  13   27950.2    357.8   0.000308984   0.00364   0.02701  -0.00470   0.05374
  14   28260.1    353.9   0.004227871   0.04925   0.16991   0.00167   0.14276
  15   28419.5    351.9   0.013646147   0.15808   0.03753  -0.03186  -0.39453
  16   28512.3    350.7   0.000624036   0.00721  -0.07355  -0.01034  -0.04110
  17   28787.3    347.4   0.093392707   1.06804   0.24007   0.97093  -0.26018
  18   28979.8    345.1   0.007809138   0.08871  -0.23583  -0.13394  -0.12310
  19   29221.9    342.2   0.044440578   0.50066  -0.32241  -0.54144   0.32181
  20   29840.8    335.1   0.346434930   3.82196   1.37287  -0.56303   1.27287
  21   30657.9    326.2   0.036854973   0.39576   0.21474   0.40126   0.43432
  22   30827.4    324.4   0.199236512   2.12768  -1.25758  -0.39669  -0.62356
  23   30993.6    322.6   0.092628018   0.98389   0.30259   0.93982   0.09522
  24   31238.5    320.1   0.083389062   0.87881   0.86058   0.33028   0.17064
  25   31368.5    318.8   0.001440463   0.01512   0.04639   0.06586  -0.09289
  26   31528.3    317.2   0.090416336   0.94411   0.85097   0.30736   0.35425
  27   31858.3    313.9   0.054393786   0.56209   0.63529   0.33169   0.22017
  28   32002.5    312.5   0.021267438   0.21878  -0.11533  -0.44850   0.06580
  29   32242.3    310.2   0.046754036   0.47738   0.06497   0.67753   0.11883
  30   32519.0    307.5   0.007014513   0.07101   0.11650  -0.17848   0.15996
  31   32665.6    306.1   0.120871076   1.21817  -0.89740   0.26404  -0.58577
  32   33062.4    302.5   0.069177870   0.68882  -0.64367  -0.52295  -0.03217
  33   33306.9    300.2   0.015924425   0.15740  -0.31519  -0.22674  -0.08151
  34   33733.3    296.4   0.277262500   2.70587   0.40015   0.36646  -1.55289
  35   34125.0    293.0   0.037706650   0.36376  -0.10477   0.34419   0.48407
  36   34244.4    292.0   0.016710465   0.16065  -0.25865   0.20987  -0.22294
  37   34337.4    291.2   0.000815843   0.00782  -0.07303  -0.02120   0.04515
  38   34833.9    287.1   0.005026412   0.04750  -0.14107   0.16495   0.01986
  39   35168.9    284.3   0.013833291   0.12949  -0.12673   0.29214   0.16758
  40   35226.0    283.9   0.005963710   0.05574  -0.07848  -0.02424  -0.22133
  41   35476.3    281.9   0.008098253   0.07515  -0.26981  -0.04124   0.02551
  42   35671.3    280.3   0.004899552   0.04522   0.02155   0.20944   0.02983
  43   35787.3    279.4   0.002070593   0.01905   0.02201   0.07059  -0.11653
  44   36033.6    277.5   0.072779399   0.66493   0.06505  -0.35187  -0.73272
  45   36267.0    275.7   0.002769243   0.02514  -0.09058  -0.08233  -0.10077
  46   36526.4    273.8   0.008022947   0.07231  -0.10516  -0.14432   0.20106
  47   36784.7    271.9   0.011171572   0.09998   0.06364   0.29306   0.10024
  48   37000.3    270.3   0.057235378   0.50925   0.15532  -0.58418   0.37930
  49   37244.6    268.5   0.030169961   0.26668   0.02904  -0.29095   0.42565
  50   37274.3    268.3   0.002277745   0.02012   0.09862  -0.08669  -0.05363
  51   37551.2    266.3   0.037112272   0.32536   0.25869   0.39730   0.31717
  52   37647.2    265.6   0.040985412   0.35840   0.39522  -0.29209   0.34188
  53   37876.3    264.0   0.025272475   0.21966   0.35320   0.18441  -0.24679
  54   37960.4    263.4   0.015795824   0.13699   0.12410  -0.33751   0.08762
  55   38332.1    260.9   0.007949586   0.06827  -0.12357   0.17287  -0.15205
  56   38700.3    258.4   0.005969681   0.05078   0.00573   0.17396  -0.14314
  57   38930.2    256.9   0.010285721   0.08698  -0.22315   0.11464  -0.15506
  58   39402.5    253.8   0.091505058   0.76453   0.33233   0.78574   0.19158
  59   39472.1    253.3   0.321891962   2.68470   1.31682  -0.49816   0.83817
  60   39605.7    252.5   0.004857022   0.04037   0.07188   0.03339   0.18464
  61   39812.9    251.2   0.063161996   0.52228  -0.61570  -0.04106  -0.37618
  62   40132.9    249.2   0.197363451   1.61898  -0.12615   0.36664   1.21188
  63   40300.5    248.1   0.005027368   0.04107  -0.14883  -0.03506   0.13300

FINAL SINGLE POINT ENERGY     -4170.239910226162

DIPOLE MOMENT
-------------
                                X             Y             Z
Electronic contribution:      4.91291      15.53362      23.20967
Nuclear contribution   :     -4.20295     -18.18216     -26.90355
                        -----------------------------------------
Total Dipole Moment    :      0.70996      -2.64854      -3.69388
                        -----------------------------------------
Magnitude (a.u.)       :      4.60039
Magnitude (Debye)      :     11.69326

Rotational constants in cm-1:     0.001853     0.000354     0.000320
Rotational constants in MHz :    55.549595    10.598416     9.598142

                             ****ORCA TERMINATED NORMALLY****
TOTAL RUN TIME: 0 days 0 hours 9 minutes 42 seconds 378 msec
