                         Program Version 4.2.0 -  RELEASE  -
|  1> # ORCA input file
|  2> # SCF done       -187.796956007408          0.000623116416
|  3> ! CAM-B3LYP def2-SVP def2/J RIJCOSX Grid4 TightSCF
|  4> %maxcore 5000
|  5> %tddft
|  6>     Mode sTDDFT
|  7>     Ethresh 5.0
|  8>     maxcore 5000
|  9> end
| 10>
| 11> %pal
| 12>   nprocs 6
| 13>   end
| 14> * xyz 0 1
| 15>    C       -2.35799         0.15219        -3.94908
| 16>    S       -2.34453         1.86282        -3.92143
| 17>    C       -0.75346         1.88899        -3.20029
| 18>    C       -0.28609         0.60020        -3.01425
| 19>    C       -1.20956        -0.38409        -3.44759
| 20>    C       -0.85526        -1.83543        -3.38577
| 21>    C        0.34055        -2.09755        -4.28837
| 22>    S        1.68323        -0.88541        -3.95826
| 23>    O        2.84462        -1.59711        -3.50442
| 24>    O        1.81824        -0.04943        -5.11784
| 25>    C        1.05593         0.16889        -2.58466
| 26>    C       -0.15443         3.14052        -2.88184
| 27>    C        0.86154         3.41665        -1.99817
| 28>    C        1.15740         4.80836        -2.04898
| 29>    C        0.20514         5.40004        -3.00876
| 30>    C       -0.57879         4.39937        -3.48386
| 31>    C        0.04054         6.76190        -3.28843
| 32>    N       -0.16009         7.87370        -3.49596
| 33>    C        2.14862         5.48111        -1.37267
| 34>    C        2.57872         6.81903        -1.58652
| 35>    C        3.59947         7.11555        -0.70642
| 36>    C        3.83197         5.93987         0.11835
| 37>    C        2.99548         4.94925        -0.29252
| 38>    C        2.93645         3.66192         0.25073
| 39>    N        2.90131         2.60654         0.70380
| 40>    C        4.30060         8.35312        -0.71548
| 41>    N        5.03192         8.90880         0.31013
| 42>    C        5.11311         8.47096         1.68541
| 43>    C        3.75545         8.45603         2.37908
| 44>    C        5.58245        10.15037        -0.05558
| 45>    O        6.26485        10.82123         0.70186
| 46>    C        5.14050        10.36259        -1.41039
| 47>    C        4.36601         9.23388        -1.79166
| 48>    C        3.95302         9.42121        -3.16483
| 49>    O        3.30824         8.74316        -3.93280
| 50>    N        4.49654        10.68085        -3.51587
| 51>    C        4.16540        11.30880        -4.77058
| 52>    C        3.06514        12.35163        -4.59553
| 53>    C        5.15483        11.26399        -2.47175
| 54>    C        5.75009        12.56839        -2.56370
| 55>    C        5.85033        13.44772        -1.54977
| 56>    C        5.24806        13.27562        -0.25089
| 57>    C        5.93389        13.67581         0.90902
| 58>    C        5.49498        13.28167         2.22688
| 59>    N        6.17918        13.69313         3.30608
| 60>    C        7.26264        14.40786         3.14399
| 61>    C        7.72454        14.76065         1.82936
| 62>    N        7.05742        14.40199         0.76597
| 63>    C        8.90187        15.53816         1.68393
| 64>    N        9.85649        16.16626         1.60908
| 65>    C        7.97460        14.83800         4.29106
| 66>    N        8.57610        15.18088         5.20372
| 67>    C        4.35400        12.47442         2.41710
| 68>    C        3.57266        12.24835         1.27033
| 69>    C        4.00628        12.65586        -0.04419
| 70>    N        3.11494        12.31211        -0.98134
| 71>    S        1.89668        11.53693        -0.29463
| 72>    N        2.40967        11.58873         1.22010
| 73>    C        3.98105        11.90968         3.68305
| 74>    S        2.27943        11.77408         4.04993
| 75>    C        2.62034        11.12992         5.59371
| 76>    C        3.96049        10.99676         5.81925
| 77>    C        4.74988        11.42245         4.72067
| 78>    C        6.23455        11.23628         4.76014
| 79>    C        6.63255         9.79606         5.06942
| 80>    S        5.53927         8.98516         6.29138
| 81>    O        4.61655         8.14722         5.57138
| 82>    O        6.34278         8.36731         7.30770
| 83>    C        4.59444        10.38361         7.00220
| 84>    H       -3.21314        -0.36548        -4.33651
| 85>    H       -1.70284        -2.44876        -3.69854
| 86>    H       -0.60321        -2.10706        -2.35697
| 87>    H        0.08951        -1.96119        -5.33660
| 88>    H        0.77594        -3.07869        -4.12613
| 89>    H        1.77011         0.97842        -2.48435
| 90>    H        1.05806        -0.45400        -1.69364
| 91>    H        1.36352         2.72309        -1.35515
| 92>    H       -1.38027         4.49131        -4.19360
| 93>    H        2.18961         7.47273        -2.34091
| 94>    H        4.56905         5.84372         0.89207
| 95>    H        5.76807         9.20409         2.16577
| 96>    H        5.59632         7.49249         1.74556
| 97>    H        3.27104         9.42606         2.28253
| 98>    H        3.89013         8.23278         3.43548
| 99>    H        3.10207         7.70249         1.94528
|100>    H        3.81968        10.50706        -5.42871
|101>    H        5.06307        11.76086        -5.20162
|102>    H        2.15528        11.87328        -4.24240
|103>    H        2.85941        12.83494        -5.54628
|104>    H        3.36470        13.10436        -3.86969
|105>    H        6.16439        12.83412        -3.52745
|106>    H        6.44985        14.33904        -1.67142
|107>    H        1.81825        10.87574         6.25764
|108>    H        6.64900        11.90746         5.51819
|109>    H        6.67414        11.51284         3.80216
|110>    H        7.63604         9.73800         5.48022
|111>    H        6.55902         9.16437         4.18901
|112>    H        5.32518        11.02299         7.49091
|113>    H        3.88070         9.99290         7.72040
|114> *
|115>
|116>                          ****END OF INPUT****

CARTESIAN COORDINATES (ANGSTROEM)
---------------------------------
  C     -2.357990    0.152190   -3.949080
  S     -2.344530    1.862820   -3.921430
  C     -0.753460    1.888990   -3.200290
  C     -0.286090    0.600200   -3.014250
  C     -1.209560   -0.384090   -3.447590
  C     -0.855260   -1.835430   -3.385770
  C      0.340550   -2.097550   -4.288370
  S      1.683230   -0.885410   -3.958260
  O      2.844620   -1.597110   -3.504420
  O      1.818240   -0.049430   -5.117840
  C      1.055930    0.168890   -2.584660
  C     -0.154430    3.140520   -2.881840
  C      0.861540    3.416650   -1.998170
  C      1.157400    4.808360   -2.048980
  C      0.205140    5.400040   -3.008760
  C     -0.578790    4.399370   -3.483860
  C      0.040540    6.761900   -3.288430
  N     -0.160090    7.873700   -3.495960
  C      2.148620    5.481110   -1.372670
  C      2.578720    6.819030   -1.586520
  C      3.599470    7.115550   -0.706420
  C      3.831970    5.939870    0.118350
  C      2.995480    4.949250   -0.292520
  C      2.936450    3.661920    0.250730
  N      2.901310    2.606540    0.703800
  C      4.300600    8.353120   -0.715480
  N      5.031920    8.908800    0.310130
  C      5.113110    8.470960    1.685410
  C      3.755450    8.456030    2.379080
  C      5.582450   10.150370   -0.055580
  O      6.264850   10.821230    0.701860
  C      5.140500   10.362590   -1.410390
  C      4.366010    9.233880   -1.791660
  C      3.953020    9.421210   -3.164830
  O      3.308240    8.743160   -3.932800
  N      4.496540   10.680850   -3.515870
  C      4.165400   11.308800   -4.770580
  C      3.065140   12.351630   -4.595530
  C      5.154830   11.263990   -2.471750
  C      5.750090   12.568390   -2.563700
  C      5.850330   13.447720   -1.549770
  C      5.248060   13.275620   -0.250890
  C      5.933890   13.675810    0.909020
  C      5.494980   13.281670    2.226880
  N      6.179180   13.693130    3.306080
  C      7.262640   14.407860    3.143990
  C      7.724540   14.760650    1.829360
  N      7.057420   14.401990    0.765970
  C      8.901870   15.538160    1.683930
  N      9.856490   16.166260    1.609080
  C      7.974600   14.838000    4.291060
  N      8.576100   15.180880    5.203720
  C      4.354000   12.474420    2.417100
  C      3.572660   12.248350    1.270330
  C      4.006280   12.655860   -0.044190
  N      3.114940   12.312110   -0.981340
  S      1.896680   11.536930   -0.294630
  N      2.409670   11.588730    1.220100
  C      3.981050   11.909680    3.683050
  S      2.279430   11.774080    4.049930
  C      2.620340   11.129920    5.593710
  C      3.960490   10.996760    5.819250
  C      4.749880   11.422450    4.720670
  C      6.234550   11.236280    4.760140
  C      6.632550    9.796060    5.069420
  S      5.539270    8.985160    6.291380
  O      4.616550    8.147220    5.571380
  O      6.342780    8.367310    7.307700
  C      4.594440   10.383610    7.002200
  H     -3.213140   -0.365480   -4.336510
  H     -1.702840   -2.448760   -3.698540
  H     -0.603210   -2.107060   -2.356970
  H      0.089510   -1.961190   -5.336600
  H      0.775940   -3.078690   -4.126130
  H      1.770110    0.978420   -2.484350
  H      1.058060   -0.454000   -1.693640
  H      1.363520    2.723090   -1.355150
  H     -1.380270    4.491310   -4.193600
  H      2.189610    7.472730   -2.340910
  H      4.569050    5.843720    0.892070
  H      5.768070    9.204090    2.165770
  H      5.596320    7.492490    1.745560
  H      3.271040    9.426060    2.282530
  H      3.890130    8.232780    3.435480
  H      3.102070    7.702490    1.945280
  H      3.819680   10.507060   -5.428710
  H      5.063070   11.760860   -5.201620
  H      2.155280   11.873280   -4.242400
  H      2.859410   12.834940   -5.546280
  H      3.364700   13.104360   -3.869690
  H      6.164390   12.834120   -3.527450
  H      6.449850   14.339040   -1.671420
  H      1.818250   10.875740    6.257640
  H      6.649000   11.907460    5.518190
  H      6.674140   11.512840    3.802160
  H      7.636040    9.738000    5.480220
  H      6.559020    9.164370    4.189010
  H      5.325180   11.022990    7.490910
  H      3.880700    9.992900    7.720400

 Total Charge           Charge          ....    0
 Multiplicity           Mult            ....    1
 Number of Electrons    NEL             ....  516
 Basis Dimension        Dim             .... 1136

ORBITAL ENERGIES
----------------

  NO   OCC          E(Eh)            E(eV)
   0   2.0000     -89.136161     -2425.5182
   1   2.0000     -89.131546     -2425.3927
   2   2.0000     -89.055791     -2423.3313
   3   2.0000     -88.975711     -2421.1522
   4   2.0000     -88.969829     -2420.9921
   5   2.0000     -19.203415      -522.5515
   6   2.0000     -19.200827      -522.4811
   7   2.0000     -19.192564      -522.2562
   8   2.0000     -19.188803      -522.1539
   9   2.0000     -19.185024      -522.0510
  10   2.0000     -19.184668      -522.0414
  11   2.0000     -14.467394      -393.6778
  12   2.0000     -14.465368      -393.6227
  13   2.0000     -14.464718      -393.6050
  14   2.0000     -14.463863      -393.5817
  15   2.0000     -14.461647      -393.5214
  16   2.0000     -14.460257      -393.4836
  17   2.0000     -14.433661      -392.7599
  18   2.0000     -14.433408      -392.7530
  19   2.0000     -14.411711      -392.1626
  20   2.0000     -14.409883      -392.1128
  21   2.0000     -10.386633      -282.6346
  22   2.0000     -10.385031      -282.5911
  23   2.0000     -10.383832      -282.5584
  24   2.0000     -10.383085      -282.5381
  25   2.0000     -10.355680      -281.7924
  26   2.0000     -10.353245      -281.7261
  27   2.0000     -10.352752      -281.7127
  28   2.0000     -10.349732      -281.6305
  29   2.0000     -10.348453      -281.5957
  30   2.0000     -10.348340      -281.5926
  31   2.0000     -10.333393      -281.1859
  32   2.0000     -10.329146      -281.0703
  33   2.0000     -10.327354      -281.0216
  34   2.0000     -10.326369      -280.9948
  35   2.0000     -10.323662      -280.9211
  36   2.0000     -10.323253      -280.9100
  37   2.0000     -10.321241      -280.8552
  38   2.0000     -10.320576      -280.8371
  39   2.0000     -10.319037      -280.7953
  40   2.0000     -10.318124      -280.7704
  41   2.0000     -10.316543      -280.7274
  42   2.0000     -10.314959      -280.6843
  43   2.0000     -10.314752      -280.6787
  44   2.0000     -10.314659      -280.6761
  45   2.0000     -10.314469      -280.6710
  46   2.0000     -10.313929      -280.6563
  47   2.0000     -10.313504      -280.6447
  48   2.0000     -10.312727      -280.6236
  49   2.0000     -10.311331      -280.5856
  50   2.0000     -10.311291      -280.5845
  51   2.0000     -10.310807      -280.5713
  52   2.0000     -10.310278      -280.5569
  53   2.0000     -10.309672      -280.5404
  54   2.0000     -10.308160      -280.4993
  55   2.0000     -10.308137      -280.4987
  56   2.0000     -10.307530      -280.4822
  57   2.0000     -10.306508      -280.4543
  58   2.0000     -10.305503      -280.4270
  59   2.0000     -10.302552      -280.3467
  60   2.0000     -10.300661      -280.2952
  61   2.0000     -10.299241      -280.2566
  62   2.0000     -10.296764      -280.1892
  63   2.0000     -10.288560      -279.9659
  64   2.0000     -10.288217      -279.9566
  65   2.0000     -10.273457      -279.5550
  66   2.0000     -10.269314      -279.4422
  67   2.0000     -10.264358      -279.3074
  68   2.0000     -10.252726      -278.9909
  69   2.0000      -8.202780      -223.2090
  70   2.0000      -8.198233      -223.0853
  71   2.0000      -8.146467      -221.6766
  72   2.0000      -8.071481      -219.6362
  73   2.0000      -8.064843      -219.4555
  74   2.0000      -6.171630      -167.9386
  75   2.0000      -6.171305      -167.9298
  76   2.0000      -6.170800      -167.9160
  77   2.0000      -6.166943      -167.8110
  78   2.0000      -6.166781      -167.8067
  79   2.0000      -6.166361      -167.7952
  80   2.0000      -6.117396      -166.4628
  81   2.0000      -6.109647      -166.2519
  82   2.0000      -6.109589      -166.2504
  83   2.0000      -6.040756      -164.3773
  84   2.0000      -6.036381      -164.2583
  85   2.0000      -6.034190      -164.1987
  86   2.0000      -6.033849      -164.1894
  87   2.0000      -6.029642      -164.0749
  88   2.0000      -6.027222      -164.0090
  89   2.0000      -1.197757       -32.5926
  90   2.0000      -1.192673       -32.4543
  91   2.0000      -1.151822       -31.3427
  92   2.0000      -1.144244       -31.1365
  93   2.0000      -1.137634       -30.9566
  94   2.0000      -1.125007       -30.6130
  95   2.0000      -1.076847       -29.3025
  96   2.0000      -1.075285       -29.2600
  97   2.0000      -1.071738       -29.1635
  98   2.0000      -1.065708       -28.9994
  99   2.0000      -1.052665       -28.6445
 100   2.0000      -1.022568       -27.8255
 101   2.0000      -1.019089       -27.7308
 102   2.0000      -1.012881       -27.5619
 103   2.0000      -1.011022       -27.5113
 104   2.0000      -1.007059       -27.4035
 105   2.0000      -1.001055       -27.2401
 106   2.0000      -1.000453       -27.2237
 107   2.0000      -0.987474       -26.8705
 108   2.0000      -0.982840       -26.7444
 109   2.0000      -0.982360       -26.7314
 110   2.0000      -0.936785       -25.4912
 111   2.0000      -0.932507       -25.3748
 112   2.0000      -0.931085       -25.3361
 113   2.0000      -0.924670       -25.1616
 114   2.0000      -0.911819       -24.8119
 115   2.0000      -0.898175       -24.4406
 116   2.0000      -0.896006       -24.3816
 117   2.0000      -0.887501       -24.1501
 118   2.0000      -0.878195       -23.8969
 119   2.0000      -0.872835       -23.7510
 120   2.0000      -0.867282       -23.5999
 121   2.0000      -0.853950       -23.2372
 122   2.0000      -0.844734       -22.9864
 123   2.0000      -0.836689       -22.7675
 124   2.0000      -0.835222       -22.7275
 125   2.0000      -0.823162       -22.3994
 126   2.0000      -0.820245       -22.3200
 127   2.0000      -0.817398       -22.2425
 128   2.0000      -0.810431       -22.0529
 129   2.0000      -0.798305       -21.7230
 130   2.0000      -0.783756       -21.3271
 131   2.0000      -0.771384       -20.9904
 132   2.0000      -0.763270       -20.7696
 133   2.0000      -0.753741       -20.5103
 134   2.0000      -0.753058       -20.4917
 135   2.0000      -0.748290       -20.3620
 136   2.0000      -0.732141       -19.9226
 137   2.0000      -0.725565       -19.7436
 138   2.0000      -0.718239       -19.5443
 139   2.0000      -0.713142       -19.4056
 140   2.0000      -0.710390       -19.3307
 141   2.0000      -0.701678       -19.0936
 142   2.0000      -0.693480       -18.8705
 143   2.0000      -0.688399       -18.7323
 144   2.0000      -0.681519       -18.5451
 145   2.0000      -0.678142       -18.4532
 146   2.0000      -0.672048       -18.2874
 147   2.0000      -0.670629       -18.2487
 148   2.0000      -0.667391       -18.1606
 149   2.0000      -0.654256       -17.8032
 150   2.0000      -0.648335       -17.6421
 151   2.0000      -0.647518       -17.6199
 152   2.0000      -0.636917       -17.3314
 153   2.0000      -0.635194       -17.2845
 154   2.0000      -0.623482       -16.9658
 155   2.0000      -0.615925       -16.7602
 156   2.0000      -0.613700       -16.6996
 157   2.0000      -0.605542       -16.4776
 158   2.0000      -0.601161       -16.3584
 159   2.0000      -0.597891       -16.2694
 160   2.0000      -0.596865       -16.2415
 161   2.0000      -0.590896       -16.0791
 162   2.0000      -0.589735       -16.0475
 163   2.0000      -0.586247       -15.9526
 164   2.0000      -0.582169       -15.8416
 165   2.0000      -0.574682       -15.6379
 166   2.0000      -0.573898       -15.6166
 167   2.0000      -0.571463       -15.5503
 168   2.0000      -0.565440       -15.3864
 169   2.0000      -0.558990       -15.2109
 170   2.0000      -0.556272       -15.1369
 171   2.0000      -0.551884       -15.0175
 172   2.0000      -0.549992       -14.9661
 173   2.0000      -0.545622       -14.8471
 174   2.0000      -0.542428       -14.7602
 175   2.0000      -0.538545       -14.6546
 176   2.0000      -0.537265       -14.6197
 177   2.0000      -0.535989       -14.5850
 178   2.0000      -0.532855       -14.4997
 179   2.0000      -0.528688       -14.3863
 180   2.0000      -0.526833       -14.3358
 181   2.0000      -0.525244       -14.2926
 182   2.0000      -0.523746       -14.2518
 183   2.0000      -0.520339       -14.1591
 184   2.0000      -0.519273       -14.1301
 185   2.0000      -0.518969       -14.1219
 186   2.0000      -0.513426       -13.9710
 187   2.0000      -0.512151       -13.9363
 188   2.0000      -0.510821       -13.9002
 189   2.0000      -0.507903       -13.8207
 190   2.0000      -0.505901       -13.7663
 191   2.0000      -0.503877       -13.7112
 192   2.0000      -0.500207       -13.6113
 193   2.0000      -0.497076       -13.5261
 194   2.0000      -0.496195       -13.5021
 195   2.0000      -0.493891       -13.4394
 196   2.0000      -0.492637       -13.4053
 197   2.0000      -0.490129       -13.3371
 198   2.0000      -0.488615       -13.2959
 199   2.0000      -0.484383       -13.1807
 200   2.0000      -0.480356       -13.0712
 201   2.0000      -0.477778       -13.0010
 202   2.0000      -0.477130       -12.9834
 203   2.0000      -0.471028       -12.8173
 204   2.0000      -0.469899       -12.7866
 205   2.0000      -0.469239       -12.7687
 206   2.0000      -0.464043       -12.6272
 207   2.0000      -0.461030       -12.5453
 208   2.0000      -0.459499       -12.5036
 209   2.0000      -0.458292       -12.4708
 210   2.0000      -0.457545       -12.4504
 211   2.0000      -0.457502       -12.4493
 212   2.0000      -0.456444       -12.4205
 213   2.0000      -0.455727       -12.4010
 214   2.0000      -0.448300       -12.1989
 215   2.0000      -0.448126       -12.1941
 216   2.0000      -0.444575       -12.0975
 217   2.0000      -0.442434       -12.0393
 218   2.0000      -0.442087       -12.0298
 219   2.0000      -0.440530       -11.9874
 220   2.0000      -0.439540       -11.9605
 221   2.0000      -0.438902       -11.9431
 222   2.0000      -0.436054       -11.8656
 223   2.0000      -0.435000       -11.8370
 224   2.0000      -0.430771       -11.7219
 225   2.0000      -0.429656       -11.6915
 226   2.0000      -0.425613       -11.5815
 227   2.0000      -0.420336       -11.4379
 228   2.0000      -0.419518       -11.4157
 229   2.0000      -0.418034       -11.3753
 230   2.0000      -0.415662       -11.3107
 231   2.0000      -0.413561       -11.2536
 232   2.0000      -0.405460       -11.0331
 233   2.0000      -0.400547       -10.8994
 234   2.0000      -0.397842       -10.8258
 235   2.0000      -0.393594       -10.7102
 236   2.0000      -0.386910       -10.5283
 237   2.0000      -0.384335       -10.4583
 238   2.0000      -0.380911       -10.3651
 239   2.0000      -0.370113       -10.0713
 240   2.0000      -0.366715        -9.9788
 241   2.0000      -0.366406        -9.9704
 242   2.0000      -0.363611        -9.8944
 243   2.0000      -0.360955        -9.8221
 244   2.0000      -0.358759        -9.7623
 245   2.0000      -0.357984        -9.7413
 246   2.0000      -0.355587        -9.6760
 247   2.0000      -0.350776        -9.5451
 248   2.0000      -0.343976        -9.3601
 249   2.0000      -0.335163        -9.1203
 250   2.0000      -0.330244        -8.9864
 251   2.0000      -0.324393        -8.8272
 252   2.0000      -0.323187        -8.7944
 253   2.0000      -0.317396        -8.6368
 254   2.0000      -0.315090        -8.5740
 255   2.0000      -0.288412        -7.8481
 256   2.0000      -0.280208        -7.6248
 257   2.0000      -0.250061        -6.8045
 258   0.0000      -0.129881        -3.5343
 259   0.0000      -0.125006        -3.4016
 260   0.0000      -0.067667        -1.8413
 261   0.0000      -0.053464        -1.4548
 262   0.0000      -0.042822        -1.1652

MULLIKEN ATOMIC CHARGES
-----------------------
   0 C :   -0.113488
   1 S :    0.137737
   2 C :   -0.139546
   3 C :   -0.030711
   4 C :   -0.090250
   5 C :    0.110449
   6 C :    0.024491
   7 S :    0.630481
   8 O :   -0.454777
   9 O :   -0.457273
  10 C :    0.116740
  11 C :    0.126890
  12 C :   -0.143780
  13 C :    0.095958
  14 C :   -0.074747
  15 C :   -0.022259
  16 C :   -0.175996
  17 N :    0.138158
  18 C :    0.121812
  19 C :   -0.109065
  20 C :    0.030543
  21 C :   -0.014515
  22 C :   -0.096951
  23 C :   -0.176117
  24 N :    0.137209
  25 C :    0.145945
  26 N :   -0.249032
  27 C :    0.079847
  28 C :   -0.019958
  29 C :    0.144312
  30 O :   -0.231868
  31 C :   -0.050544
  32 C :   -0.066215
  33 C :    0.137625
  34 O :   -0.173257
  35 N :   -0.249424
  36 C :    0.092930
  37 C :    0.010336
  38 C :    0.135666
  39 C :   -0.007960
  40 C :   -0.006313
  41 C :    0.049588
  42 C :    0.025668
  43 C :   -0.096966
  44 N :    0.038628
  45 C :   -0.144045
  46 C :   -0.129480
  47 N :    0.057902
  48 C :   -0.208799
  49 N :    0.237638
  50 C :   -0.208056
  51 N :    0.239378
  52 C :    0.172509
  53 C :    0.028080
  54 C :   -0.031509
  55 N :   -0.270676
  56 S :    0.574508
  57 N :   -0.308652
  58 C :   -0.308184
  59 S :    0.189467
  60 C :   -0.087926
  61 C :   -0.097652
  62 C :   -0.004771
  63 C :    0.137276
  64 C :    0.015363
  65 S :    0.637483
  66 O :   -0.451239
  67 O :   -0.453564
  68 C :    0.135394
  69 H :    0.025012
  70 H :    0.020596
  71 H :    0.030210
  72 H :    0.058515
  73 H :    0.059563
  74 H :    0.072781
  75 H :    0.058090
  76 H :    0.003048
  77 H :    0.010140
  78 H :    0.021103
  79 H :   -0.005468
  80 H :    0.034137
  81 H :    0.027814
  82 H :    0.023692
  83 H :    0.048031
  84 H :    0.017073
  85 H :    0.049832
  86 H :    0.022339
  87 H :    0.025287
  88 H :    0.020819
  89 H :    0.025187
  90 H :    0.010432
  91 H :    0.023920
  92 H :    0.024843
  93 H :    0.031166
  94 H :    0.032820
  95 H :    0.056420
  96 H :    0.058428
  97 H :    0.053494
  98 H :    0.060232
Sum of atomic charges:   -0.0000000

LOEWDIN ATOMIC CHARGES
----------------------
   0 C :   -0.176030
   1 S :    0.457103
   2 C :   -0.163828
   3 C :   -0.072602
   4 C :   -0.072412
   5 C :   -0.032315
   6 C :   -0.132377
   7 S :    1.157285
   8 O :   -0.515648
   9 O :   -0.515446
  10 C :   -0.125969
  11 C :   -0.016294
  12 C :   -0.040036
  13 C :    0.050853
  14 C :   -0.071666
  15 C :    0.046611
  16 C :   -0.029876
  17 N :   -0.055601
  18 C :    0.028197
  19 C :    0.012892
  20 C :   -0.038371
  21 C :    0.050269
  22 C :   -0.082320
  23 C :   -0.029099
  24 N :   -0.064842
  25 C :    0.067165
  26 N :    0.003207
  27 C :    0.032775
  28 C :   -0.073081
  29 C :    0.075369
  30 O :   -0.219260
  31 C :   -0.139947
  32 C :   -0.114251
  33 C :    0.082878
  34 O :   -0.169831
  35 N :    0.012309
  36 C :    0.037581
  37 C :   -0.059781
  38 C :    0.096088
  39 C :   -0.030171
  40 C :    0.033646
  41 C :   -0.024307
  42 C :    0.016737
  43 C :   -0.005576
  44 N :    0.008525
  45 C :   -0.036517
  46 C :   -0.022528
  47 N :    0.000007
  48 C :   -0.035758
  49 N :   -0.002423
  50 C :   -0.039000
  51 N :   -0.008904
  52 C :   -0.010431
  53 C :   -0.048387
  54 C :   -0.037748
  55 N :   -0.272877
  56 S :    0.707369
  57 N :   -0.293634
  58 C :   -0.172374
  59 S :    0.492251
  60 C :   -0.164369
  61 C :   -0.104296
  62 C :   -0.039456
  63 C :   -0.035448
  64 C :   -0.134844
  65 S :    1.163107
  66 O :   -0.511833
  67 O :   -0.514476
  68 C :   -0.124612
  69 H :    0.027220
  70 H :    0.041525
  71 H :    0.038212
  72 H :    0.039855
  73 H :    0.038344
  74 H :    0.048078
  75 H :    0.043020
  76 H :    0.031453
  77 H :    0.033870
  78 H :    0.037175
  79 H :    0.037401
  80 H :    0.026607
  81 H :    0.020752
  82 H :    0.019628
  83 H :    0.033648
  84 H :    0.021409
  85 H :    0.039170
  86 H :    0.023295
  87 H :    0.030472
  88 H :    0.029811
  89 H :    0.023693
  90 H :    0.041279
  91 H :    0.044831
  92 H :    0.028264
  93 H :    0.043523
  94 H :    0.041343
  95 H :    0.040578
  96 H :    0.036702
  97 H :    0.039379
  98 H :    0.048089

  Mayer bond orders larger than 0.100000
B(  0-C ,  1-S ) :   1.1646 B(  0-C ,  4-C ) :   1.5771 B(  0-C , 69-H ) :   0.9705
B(  1-S ,  2-C ) :   1.1495 B(  2-C ,  3-C ) :   1.5374 B(  2-C , 11-C ) :   1.0861
B(  3-C ,  4-C ) :   1.2786 B(  3-C , 10-C ) :   1.0438 B(  4-C ,  5-C ) :   1.0554
B(  5-C ,  6-C ) :   1.1026 B(  5-C , 70-H ) :   0.9198 B(  5-C , 71-H ) :   0.9057
B(  6-C ,  7-S ) :   0.8220 B(  6-C , 72-H ) :   0.9273 B(  6-C , 73-H ) :   0.9297
B(  7-S ,  8-O ) :   1.7349 B(  7-S ,  9-O ) :   1.7043 B(  7-S , 10-C ) :   0.8353
B( 10-C , 74-H ) :   0.8995 B( 10-C , 75-H ) :   0.9006 B( 11-C , 12-C ) :   1.5579
B( 11-C , 15-C ) :   1.0332 B( 12-C , 13-C ) :   1.1373 B( 12-C , 76-H ) :   0.9947
B( 13-C , 14-C ) :   1.1004 B( 13-C , 18-C ) :   1.3968 B( 14-C , 15-C ) :   1.6825
B( 14-C , 16-C ) :   1.0846 B( 15-C , 77-H ) :   1.0135 B( 16-C , 17-N ) :   2.9808
B( 18-C , 19-C ) :   1.1093 B( 18-C , 22-C ) :   1.1093 B( 19-C , 20-C ) :   1.5542
B( 19-C , 78-H ) :   0.9942 B( 20-C , 21-C ) :   1.0345 B( 20-C , 25-C ) :   1.0250
B( 21-C , 22-C ) :   1.6519 B( 21-C , 79-H ) :   1.0292 B( 22-C , 23-C ) :   1.0903
B( 23-C , 24-N ) :   2.9596 B( 25-C , 26-N ) :   1.1926 B( 25-C , 32-C ) :   1.4035
B( 26-N , 27-C ) :   0.9336 B( 26-N , 29-C ) :   1.0595 B( 27-C , 28-C ) :   1.1175
B( 27-C , 80-H ) :   0.9143 B( 27-C , 81-H ) :   0.9480 B( 28-C , 82-H ) :   0.9517
B( 28-C , 83-H ) :   0.9425 B( 28-C , 84-H ) :   0.9558 B( 29-C , 30-O ) :   2.0149
B( 29-C , 31-C ) :   1.0043 B( 31-C , 32-C ) :   1.2211 B( 31-C , 38-C ) :   1.3457
B( 32-C , 33-C ) :   0.9699 B( 33-C , 34-O ) :   2.1114 B( 33-C , 35-N ) :   1.0235
B( 35-N , 36-C ) :   0.9464 B( 35-N , 38-C ) :   1.2185 B( 36-C , 37-C ) :   1.1217
B( 36-C , 85-H ) :   0.9295 B( 36-C , 86-H ) :   0.9496 B( 37-C , 87-H ) :   0.9635
B( 37-C , 88-H ) :   0.9655 B( 37-C , 89-H ) :   0.9636 B( 38-C , 39-C ) :   1.0627
B( 39-C , 40-C ) :   1.7717 B( 39-C , 90-H ) :   0.9490 B( 40-C , 41-C ) :   1.0864
B( 40-C , 91-H ) :   0.9457 B( 41-C , 42-C ) :   1.3132 B( 41-C , 52-C ) :   0.1359
B( 41-C , 54-C ) :   1.2397 B( 42-C , 43-C ) :   1.1003 B( 42-C , 47-N ) :   1.4453
B( 43-C , 44-N ) :   1.4488 B( 43-C , 52-C ) :   1.2831 B( 44-N , 45-C ) :   1.7204
B( 45-C , 46-C ) :   1.1945 B( 45-C , 50-C ) :   1.1507 B( 46-C , 47-N ) :   1.7520
B( 46-C , 48-C ) :   1.1517 B( 48-C , 49-N ) :   3.0485 B( 50-C , 51-N ) :   3.0499
B( 52-C , 53-C ) :   1.2382 B( 52-C , 58-C ) :   1.0886 B( 53-C , 54-C ) :   1.1124
B( 53-C , 57-N ) :   1.4341 B( 54-C , 55-N ) :   1.4815 B( 55-N , 56-S ) :   1.3017
B( 55-N , 57-N ) :   0.1568 B( 56-S , 57-N ) :   1.2965 B( 58-C , 59-S ) :   1.1590
B( 58-C , 62-C ) :   1.5368 B( 59-S , 60-C ) :   1.1881 B( 60-C , 61-C ) :   1.5584
B( 60-C , 92-H ) :   0.9695 B( 61-C , 62-C ) :   1.2721 B( 61-C , 68-C ) :   1.0164
B( 62-C , 63-C ) :   1.0926 B( 63-C , 64-C ) :   1.0807 B( 63-C , 93-H ) :   0.8903
B( 63-C , 94-H ) :   0.9016 B( 64-C , 65-S ) :   0.8293 B( 64-C , 95-H ) :   0.9209
B( 64-C , 96-H ) :   0.9196 B( 65-S , 66-O ) :   1.6503 B( 65-S , 67-O ) :   1.7390
B( 65-S , 68-C ) :   0.8491 B( 68-C , 97-H ) :   0.9073 B( 68-C , 98-H ) :   0.9188

-----------------------------------------------------------------------------
         ABSORPTION SPECTRUM VIA TRANSITION ELECTRIC DIPOLE MOMENTS
-----------------------------------------------------------------------------
State   Energy  Wavelength   fosc         T2         TX        TY        TZ
        (cm-1)    (nm)                  (au**2)     (au)      (au)      (au)
-----------------------------------------------------------------------------
   0    8327.5   1200.8   0.003403877   0.13457   0.15323   0.32229   0.08495
   1   10484.3    953.8   0.303343238   9.52509   1.72085   2.46573   0.69565
   2   16170.1    618.4   0.233592497   4.75579  -0.68924  -0.29504   2.04785
   3   16409.2    609.4   0.111679751   2.24059  -0.90229  -0.85837  -0.83046
   4   19656.9    508.7   0.053972447   0.90393   0.18076   0.93056   0.07283
   5   20748.3    482.0   0.051886149   0.82328  -0.17016  -0.74252   0.49294
   6   22203.6    450.4   0.147137077   2.18159   0.06207   1.31449  -0.67071
   7   23063.8    433.6   0.008061162   0.11506   0.02327   0.33203  -0.06543
   8   23175.4    431.5   0.007295195   0.10363   0.31768  -0.00250   0.05200
   9   24403.7    409.8   0.078983714   1.06551  -0.51537  -0.86234  -0.23721
  10   24977.1    400.4   0.009732522   0.12828   0.25373   0.24484  -0.06292
  11   25142.0    397.7   0.042809865   0.56056  -0.28245  -0.67302   0.16678
  12   25702.8    389.1   0.400103053   5.12469  -1.30705  -1.58013  -0.95891
  13   26266.2    380.7   0.010958537   0.13735   0.14028  -0.19395   0.28294
  14   26393.5    378.9   0.024262935   0.30264   0.21418   0.33706   0.37836
  15   26438.6    378.2   0.146375029   1.82266   1.11596   0.54490   0.52951
  16   26747.4    373.9   0.000129893   0.00160   0.02011   0.01252  -0.03221
  17   26773.9    373.5   0.012826284   0.15771  -0.34901   0.07394  -0.17446
  18   27020.7    370.1   0.003759768   0.04581   0.15230   0.14457  -0.04137
  19   27758.6    360.2   0.032998130   0.39135   0.14954   0.17368  -0.58209
  20   28353.0    352.7   0.047833720   0.55541   0.43050   0.44528   0.41449
  21   29208.4    342.4   0.068513439   0.77223  -0.50638  -0.18434  -0.69414
  22   29388.8    340.3   0.004743930   0.05314  -0.03053  -0.00182  -0.22849
  23   31038.8    322.2   0.092289463   0.97886   0.12528   0.07782   0.97832
  24   31548.3    317.0   0.012352632   0.12890  -0.10061  -0.08435  -0.33416
  25   31699.4    315.5   0.001120064   0.01163  -0.01684  -0.02752  -0.10291
  26   32417.4    308.5   0.014507219   0.14733  -0.05547   0.09002  -0.36898
  27   32546.8    307.2   0.010192188   0.10309   0.02572  -0.13844   0.28856
  28   32624.1    306.5   0.006738121   0.06799  -0.12898  -0.01576  -0.22607
  29   32952.6    303.5   0.111980692   1.11874  -0.63994  -0.59558   0.59540
  30   33296.5    300.3   0.129787992   1.28325   0.42679   0.37696  -0.97929
  31   33592.2    297.7   0.125801481   1.23289  -0.87379  -0.36688  -0.57860
  32   34045.6    293.7   0.660227492   6.38422  -1.77940  -1.45248  -1.05273
  33   34318.3    291.4   0.042615742   0.40881  -0.56812  -0.22369   0.18976
  34   34484.9    290.0   0.330232801   3.15259  -1.55497  -0.70326  -0.48998
  35   34669.0    288.4   0.302206581   2.86971  -1.33854  -0.95514  -0.40711
  36   34894.4    286.6   0.011590216   0.10935   0.14165  -0.29877  -0.00438
  37   35256.3    283.6   0.030076399   0.28084   0.37361  -0.15922   0.34046
  38   35672.3    280.3   0.181453685   1.67460   0.78968   0.83370   0.59661
  39   35706.4    280.1   0.002283652   0.02106  -0.07274  -0.10311  -0.07164
  40   36021.6    277.6   0.004720405   0.04314   0.03833  -0.16238  -0.12371
  41   36639.0    272.9   0.107915038   0.96965   0.65641   0.60355   0.41772
  42   36727.3    272.3   0.001075982   0.00964  -0.01749  -0.04945  -0.08302
  43   37144.9    269.2   0.023392676   0.20733  -0.37369  -0.08306  -0.24655
  44   37219.6    268.7   0.002527465   0.02236   0.08492  -0.00608   0.12291
  45   37461.5    266.9   0.103029823   0.90543   0.16751   0.68631   0.63745
  46   37997.6    263.2   0.063334013   0.54873   0.30936   0.62168   0.25795
  47   38404.6    260.4   0.135119151   1.15827  -0.34987  -1.01104   0.11691
  48   38542.9    259.5   0.030275039   0.25859   0.05807  -0.50353   0.04092
  49   38884.9    257.2   0.000586234   0.00496  -0.03571  -0.06044   0.00590
  50   39108.6    255.7   0.004809992   0.04049   0.15869   0.08673   0.08824
  51   39507.6    253.1   0.002041477   0.01701  -0.03073   0.11129   0.06067
  52   39860.9    250.9   0.014642401   0.12093   0.32695   0.08249   0.08504
  53   40030.8    249.8   0.132761177   1.09182  -0.26742  -0.47556   0.89115
  54   40102.9    249.4   0.009753641   0.08007  -0.06744  -0.10032   0.25585
  55   40318.0    248.0   0.087651790   0.71571  -0.39799  -0.25264   0.70249

FINAL SINGLE POINT ENERGY     -4832.569493646346

DIPOLE MOMENT
-------------
                                X             Y             Z
Electronic contribution:      3.81394      29.14210       7.95257
Nuclear contribution   :     -7.70585     -29.23208      -9.10751
                        -----------------------------------------
Total Dipole Moment    :     -3.89191      -0.08998      -1.15494
                        -----------------------------------------
Magnitude (a.u.)       :      4.06066
Magnitude (Debye)      :     10.32137

Rotational constants in cm-1:     0.001799     0.000447     0.000399
Rotational constants in MHz :    53.928808    13.389596    11.953012

                             ****ORCA TERMINATED NORMALLY****
TOTAL RUN TIME: 0 days 0 hours 12 minutes 20 seconds 648 msec
