                         Program Version 4.2.0 -  RELEASE  -
|  1> # ORCA input file
|  2> # SCF done       -185.454559551639          0.000534444970
|  3> ! CAM-B3LYP def2-SVP def2/J RIJCOSX Grid4 TightSCF
|  4> %maxcore 5000
|  5> %tddft
|  6>     Mode sTDDFT
|  7>     Ethresh 5.0
|  8>     maxcore 5000
|  9> end
| 10>
| 11> %pal
| 12>   nprocs 6
| 13>   end
| 14> * xyz 0 1
| 15>    C       -0.64250         0.77792         1.35226
| 16>    S       -0.03095         2.22830         2.03334
| 17>    C        1.38383         1.39578         2.63675
| 18>    C        1.34677         0.06633         2.29861
| 19>    C        0.17527        -0.28621         1.57862
| 20>    C       -0.07148        -1.71529         1.21561
| 21>    C       -0.20500        -2.54490         2.48731
| 22>    S        1.06058        -2.06169         3.72995
| 23>    O        0.42039        -1.21244         4.70112
| 24>    O        1.71832        -3.24315         4.21012
| 25>    C        2.23314        -0.99706         2.80163
| 26>    C        2.37992         2.12861         3.35876
| 27>    C        3.73954         2.23060         3.12408
| 28>    N        4.49571         1.59402         2.12885
| 29>    O        5.65742         1.94244         1.99890
| 30>    O        3.95604         0.74537         1.43283
| 31>    C        4.29586         3.23698         4.00091
| 32>    C        3.29348         3.78076         4.72901
| 33>    C        2.06369         3.10173         4.39863
| 34>    C        0.85449         3.18153         5.06285
| 35>    C       -0.05702         2.10647         5.29188
| 36>    C       -0.97304         2.50710         6.22196
| 37>    C       -0.73744         3.87835         6.55583
| 38>    N       -1.59129         4.62755         7.38355
| 39>    O       -1.43930         5.83769         7.43547
| 40>    O       -2.45039         4.01847         7.99809
| 41>    C        0.37489         4.33769         5.85097
| 42>    C        0.87157         5.64819         5.78060
| 43>    C        1.54199         6.14704         4.69255
| 44>    C        2.10926         7.42939         4.65571
| 45>    N        2.61872         8.01457         3.51719
| 46>    C        2.59357         7.45666         2.18605
| 47>    C        1.20294         7.52931         1.56137
| 48>    C        3.13701         9.29105         3.76517
| 49>    O        3.62823        10.00050         2.90854
| 50>    C        2.94728         9.48592         5.18933
| 51>    C        2.31941         8.33682         5.70426
| 52>    C        2.18509         8.49914         7.13827
| 53>    O        1.75851         7.77056         8.00472
| 54>    N        2.73290         9.77483         7.39171
| 55>    C        2.72508        10.33178         8.72298
| 56>    C        1.59122        11.33686         8.90862
| 57>    C        3.19408        10.37494         6.24868
| 58>    C        3.82070        11.63894         6.21697
| 59>    C        4.27402        12.19331         5.05728
| 60>    C        4.92738        13.44253         4.95727
| 61>    S        5.44225        14.00171         3.38252
| 62>    C        6.09747        15.45744         4.04628
| 63>    C        5.91770        15.48720         5.43507
| 64>    C        5.26131        14.35833         5.93817
| 65>    C        6.37218        16.55501         6.22770
| 66>    N        6.75075        17.42991         6.86551
| 67>    C        6.72401        16.47095         3.27551
| 68>    C        6.86806        16.40874         1.93180
| 69>    C        7.47277        17.38212         1.08427
| 70>    S        6.99411        17.36700        -0.59949
| 71>    C        7.97765        18.71969        -0.94476
| 72>    C        8.65288        19.16259         0.15627
| 73>    C        8.38482        18.39247         1.31751
| 74>    C        9.19292        18.64988         2.55081
| 75>    C       10.67113        18.49441         2.22246
| 76>    S       11.18297        19.61575         0.86472
| 77>    O       11.93661        20.70532         1.41905
| 78>    O       11.79978        18.82356        -0.16105
| 79>    C        9.60497        20.28814         0.20593
| 80>    H       -1.57486         0.79577         0.82351
| 81>    H        0.76987        -2.08246         0.62202
| 82>    H       -0.97649        -1.80760         0.61201
| 83>    H       -0.06502        -3.60639         2.30879
| 84>    H       -1.15607        -2.36794         2.98256
| 85>    H        2.69506        -1.59202         2.01990
| 86>    H        2.98216        -0.64491         3.50326
| 87>    H        5.34147         3.47565         4.03228
| 88>    H        3.39034         4.51077         5.50821
| 89>    H        0.05666         1.10520         4.91893
| 90>    H       -1.75914         1.91635         6.65299
| 91>    H        0.63814         6.30603         6.61026
| 92>    H        1.60885         5.54453         3.79731
| 93>    H        2.95280         6.42377         2.21798
| 94>    H        3.29419         8.05428         1.59641
| 95>    H        0.47814         6.97472         2.15303
| 96>    H        1.22960         7.11030         0.55956
| 97>    H        0.87777         8.56473         1.49649
| 98>    H        3.69520        10.79012         8.93468
| 99>    H        2.57944         9.48710         9.40198
|100>    H        1.68369        12.16638         8.21067
|101>    H        1.60937        11.72727         9.92215
|102>    H        0.63395        10.84949         8.74218
|103>    H        3.94314        12.16434         7.15238
|104>    H        4.13799        11.65084         4.13028
|105>    H        5.04556        14.22522         6.98293
|106>    H        7.05822        17.33197         3.83675
|107>    H        6.43884        15.55807         1.41511
|108>    H        8.00575        19.12175        -1.93782
|109>    H        8.93708        17.95138         3.34649
|110>    H        9.00567        19.66406         2.91477
|111>    H       10.89906        17.49141         1.87245
|112>    H       11.30243        18.75298         3.06744
|113>    H        9.81882        20.70900        -0.77171
|114>    H        9.30856        21.07006         0.90138
|115> *
|116>
|117>                          ****END OF INPUT****

CARTESIAN COORDINATES (ANGSTROEM)
---------------------------------
  C     -0.642500    0.777920    1.352260
  S     -0.030950    2.228300    2.033340
  C      1.383830    1.395780    2.636750
  C      1.346770    0.066330    2.298610
  C      0.175270   -0.286210    1.578620
  C     -0.071480   -1.715290    1.215610
  C     -0.205000   -2.544900    2.487310
  S      1.060580   -2.061690    3.729950
  O      0.420390   -1.212440    4.701120
  O      1.718320   -3.243150    4.210120
  C      2.233140   -0.997060    2.801630
  C      2.379920    2.128610    3.358760
  C      3.739540    2.230600    3.124080
  N      4.495710    1.594020    2.128850
  O      5.657420    1.942440    1.998900
  O      3.956040    0.745370    1.432830
  C      4.295860    3.236980    4.000910
  C      3.293480    3.780760    4.729010
  C      2.063690    3.101730    4.398630
  C      0.854490    3.181530    5.062850
  C     -0.057020    2.106470    5.291880
  C     -0.973040    2.507100    6.221960
  C     -0.737440    3.878350    6.555830
  N     -1.591290    4.627550    7.383550
  O     -1.439300    5.837690    7.435470
  O     -2.450390    4.018470    7.998090
  C      0.374890    4.337690    5.850970
  C      0.871570    5.648190    5.780600
  C      1.541990    6.147040    4.692550
  C      2.109260    7.429390    4.655710
  N      2.618720    8.014570    3.517190
  C      2.593570    7.456660    2.186050
  C      1.202940    7.529310    1.561370
  C      3.137010    9.291050    3.765170
  O      3.628230   10.000500    2.908540
  C      2.947280    9.485920    5.189330
  C      2.319410    8.336820    5.704260
  C      2.185090    8.499140    7.138270
  O      1.758510    7.770560    8.004720
  N      2.732900    9.774830    7.391710
  C      2.725080   10.331780    8.722980
  C      1.591220   11.336860    8.908620
  C      3.194080   10.374940    6.248680
  C      3.820700   11.638940    6.216970
  C      4.274020   12.193310    5.057280
  C      4.927380   13.442530    4.957270
  S      5.442250   14.001710    3.382520
  C      6.097470   15.457440    4.046280
  C      5.917700   15.487200    5.435070
  C      5.261310   14.358330    5.938170
  C      6.372180   16.555010    6.227700
  N      6.750750   17.429910    6.865510
  C      6.724010   16.470950    3.275510
  C      6.868060   16.408740    1.931800
  C      7.472770   17.382120    1.084270
  S      6.994110   17.367000   -0.599490
  C      7.977650   18.719690   -0.944760
  C      8.652880   19.162590    0.156270
  C      8.384820   18.392470    1.317510
  C      9.192920   18.649880    2.550810
  C     10.671130   18.494410    2.222460
  S     11.182970   19.615750    0.864720
  O     11.936610   20.705320    1.419050
  O     11.799780   18.823560   -0.161050
  C      9.604970   20.288140    0.205930
  H     -1.574860    0.795770    0.823510
  H      0.769870   -2.082460    0.622020
  H     -0.976490   -1.807600    0.612010
  H     -0.065020   -3.606390    2.308790
  H     -1.156070   -2.367940    2.982560
  H      2.695060   -1.592020    2.019900
  H      2.982160   -0.644910    3.503260
  H      5.341470    3.475650    4.032280
  H      3.390340    4.510770    5.508210
  H      0.056660    1.105200    4.918930
  H     -1.759140    1.916350    6.652990
  H      0.638140    6.306030    6.610260
  H      1.608850    5.544530    3.797310
  H      2.952800    6.423770    2.217980
  H      3.294190    8.054280    1.596410
  H      0.478140    6.974720    2.153030
  H      1.229600    7.110300    0.559560
  H      0.877770    8.564730    1.496490
  H      3.695200   10.790120    8.934680
  H      2.579440    9.487100    9.401980
  H      1.683690   12.166380    8.210670
  H      1.609370   11.727270    9.922150
  H      0.633950   10.849490    8.742180
  H      3.943140   12.164340    7.152380
  H      4.137990   11.650840    4.130280
  H      5.045560   14.225220    6.982930
  H      7.058220   17.331970    3.836750
  H      6.438840   15.558070    1.415110
  H      8.005750   19.121750   -1.937820
  H      8.937080   17.951380    3.346490
  H      9.005670   19.664060    2.914770
  H     10.899060   17.491410    1.872450
  H     11.302430   18.752980    3.067440
  H      9.818820   20.709000   -0.771710
  H      9.308560   21.070060    0.901380

 Total Charge           Charge          ....    0
 Multiplicity           Mult            ....    1
 Number of Electrons    NEL             ....  500
 Basis Dimension        Dim             .... 1105

ORBITAL ENERGIES
----------------

  NO   OCC          E(Eh)            E(eV)
   0   2.0000     -89.136053     -2425.5153
   1   2.0000     -89.132304     -2425.4133
   2   2.0000     -88.987696     -2421.4783
   3   2.0000     -88.973495     -2421.0919
   4   2.0000     -88.972130     -2421.0548
   5   2.0000     -19.242077      -523.6035
   6   2.0000     -19.241021      -523.5748
   7   2.0000     -19.227914      -523.2181
   8   2.0000     -19.227479      -523.2063
   9   2.0000     -19.206675      -522.6402
  10   2.0000     -19.197859      -522.4003
  11   2.0000     -19.191815      -522.2358
  12   2.0000     -19.189632      -522.1764
  13   2.0000     -19.185487      -522.0636
  14   2.0000     -19.185400      -522.0613
  15   2.0000     -14.650320      -398.6555
  16   2.0000     -14.637067      -398.2948
  17   2.0000     -14.466409      -393.6510
  18   2.0000     -14.461380      -393.5142
  19   2.0000     -14.419024      -392.3616
  20   2.0000     -10.387677      -282.6631
  21   2.0000     -10.382137      -282.5123
  22   2.0000     -10.356392      -281.8118
  23   2.0000     -10.344109      -281.4775
  24   2.0000     -10.343917      -281.4723
  25   2.0000     -10.334610      -281.2190
  26   2.0000     -10.331188      -281.1259
  27   2.0000     -10.330986      -281.1204
  28   2.0000     -10.329196      -281.0717
  29   2.0000     -10.325644      -280.9751
  30   2.0000     -10.324149      -280.9344
  31   2.0000     -10.322399      -280.8868
  32   2.0000     -10.321486      -280.8619
  33   2.0000     -10.319535      -280.8088
  34   2.0000     -10.319376      -280.8045
  35   2.0000     -10.318574      -280.7827
  36   2.0000     -10.316194      -280.7179
  37   2.0000     -10.316172      -280.7173
  38   2.0000     -10.315184      -280.6904
  39   2.0000     -10.314516      -280.6722
  40   2.0000     -10.314162      -280.6626
  41   2.0000     -10.313914      -280.6559
  42   2.0000     -10.313181      -280.6359
  43   2.0000     -10.311315      -280.5851
  44   2.0000     -10.310331      -280.5584
  45   2.0000     -10.309801      -280.5439
  46   2.0000     -10.308336      -280.5041
  47   2.0000     -10.308226      -280.5011
  48   2.0000     -10.307748      -280.4881
  49   2.0000     -10.307058      -280.4693
  50   2.0000     -10.306028      -280.4413
  51   2.0000     -10.305512      -280.4273
  52   2.0000     -10.302971      -280.3581
  53   2.0000     -10.301265      -280.3117
  54   2.0000     -10.300312      -280.2857
  55   2.0000     -10.299373      -280.2602
  56   2.0000     -10.295249      -280.1480
  57   2.0000     -10.294784      -280.1353
  58   2.0000     -10.294015      -280.1144
  59   2.0000     -10.288598      -279.9670
  60   2.0000     -10.278693      -279.6975
  61   2.0000     -10.276638      -279.6415
  62   2.0000     -10.273258      -279.5496
  63   2.0000     -10.272221      -279.5213
  64   2.0000     -10.270346      -279.4703
  65   2.0000      -8.202611      -223.2044
  66   2.0000      -8.199027      -223.1069
  67   2.0000      -8.083100      -219.9523
  68   2.0000      -8.069632      -219.5858
  69   2.0000      -8.067311      -219.5227
  70   2.0000      -6.171475      -167.9344
  71   2.0000      -6.171055      -167.9229
  72   2.0000      -6.170696      -167.9132
  73   2.0000      -6.167774      -167.8337
  74   2.0000      -6.167549      -167.8275
  75   2.0000      -6.167150      -167.8167
  76   2.0000      -6.052230      -164.6896
  77   2.0000      -6.048161      -164.5788
  78   2.0000      -6.045428      -164.5045
  79   2.0000      -6.038854      -164.3256
  80   2.0000      -6.036694      -164.2668
  81   2.0000      -6.034549      -164.2084
  82   2.0000      -6.032321      -164.1478
  83   2.0000      -6.031950      -164.1377
  84   2.0000      -6.029547      -164.0723
  85   2.0000      -1.319843       -35.9148
  86   2.0000      -1.306873       -35.5618
  87   2.0000      -1.197556       -32.5872
  88   2.0000      -1.193482       -32.4763
  89   2.0000      -1.146942       -31.2099
  90   2.0000      -1.137312       -30.9478
  91   2.0000      -1.136791       -30.9337
  92   2.0000      -1.124090       -30.5880
  93   2.0000      -1.076995       -29.3065
  94   2.0000      -1.076642       -29.2969
  95   2.0000      -1.072538       -29.1852
  96   2.0000      -1.066113       -29.0104
  97   2.0000      -1.025736       -27.9117
  98   2.0000      -1.022736       -27.8301
  99   2.0000      -1.010426       -27.4951
 100   2.0000      -1.003878       -27.3169
 101   2.0000      -0.997925       -27.1549
 102   2.0000      -0.992859       -27.0171
 103   2.0000      -0.942555       -25.6482
 104   2.0000      -0.937815       -25.5192
 105   2.0000      -0.931405       -25.3448
 106   2.0000      -0.930841       -25.3295
 107   2.0000      -0.920221       -25.0405
 108   2.0000      -0.915528       -24.9128
 109   2.0000      -0.909372       -24.7453
 110   2.0000      -0.892359       -24.2823
 111   2.0000      -0.888015       -24.1641
 112   2.0000      -0.883843       -24.0506
 113   2.0000      -0.879521       -23.9330
 114   2.0000      -0.878120       -23.8949
 115   2.0000      -0.859172       -23.3793
 116   2.0000      -0.855044       -23.2669
 117   2.0000      -0.845207       -22.9993
 118   2.0000      -0.834470       -22.7071
 119   2.0000      -0.830171       -22.5901
 120   2.0000      -0.825871       -22.4731
 121   2.0000      -0.816178       -22.2093
 122   2.0000      -0.809901       -22.0385
 123   2.0000      -0.788385       -21.4531
 124   2.0000      -0.779269       -21.2050
 125   2.0000      -0.769750       -20.9460
 126   2.0000      -0.765802       -20.8385
 127   2.0000      -0.756504       -20.5855
 128   2.0000      -0.752291       -20.4709
 129   2.0000      -0.739715       -20.1287
 130   2.0000      -0.736106       -20.0305
 131   2.0000      -0.726815       -19.7776
 132   2.0000      -0.718902       -19.5623
 133   2.0000      -0.710237       -19.3265
 134   2.0000      -0.694564       -18.9001
 135   2.0000      -0.690076       -18.7779
 136   2.0000      -0.686441       -18.6790
 137   2.0000      -0.684766       -18.6334
 138   2.0000      -0.676713       -18.4143
 139   2.0000      -0.669066       -18.2062
 140   2.0000      -0.665871       -18.1193
 141   2.0000      -0.660321       -17.9683
 142   2.0000      -0.650805       -17.7093
 143   2.0000      -0.644574       -17.5397
 144   2.0000      -0.639854       -17.4113
 145   2.0000      -0.634123       -17.2554
 146   2.0000      -0.631938       -17.1959
 147   2.0000      -0.628571       -17.1043
 148   2.0000      -0.620870       -16.8947
 149   2.0000      -0.618790       -16.8381
 150   2.0000      -0.618281       -16.8243
 151   2.0000      -0.613501       -16.6942
 152   2.0000      -0.611319       -16.6348
 153   2.0000      -0.605221       -16.4689
 154   2.0000      -0.601704       -16.3732
 155   2.0000      -0.597186       -16.2502
 156   2.0000      -0.593208       -16.1420
 157   2.0000      -0.591479       -16.0950
 158   2.0000      -0.589587       -16.0435
 159   2.0000      -0.588177       -16.0051
 160   2.0000      -0.585457       -15.9311
 161   2.0000      -0.574540       -15.6340
 162   2.0000      -0.569474       -15.4962
 163   2.0000      -0.565986       -15.4013
 164   2.0000      -0.564027       -15.3479
 165   2.0000      -0.560922       -15.2635
 166   2.0000      -0.558707       -15.2032
 167   2.0000      -0.553883       -15.0719
 168   2.0000      -0.549101       -14.9418
 169   2.0000      -0.546728       -14.8772
 170   2.0000      -0.541403       -14.7323
 171   2.0000      -0.539972       -14.6934
 172   2.0000      -0.537932       -14.6379
 173   2.0000      -0.536064       -14.5870
 174   2.0000      -0.531468       -14.4620
 175   2.0000      -0.529689       -14.4136
 176   2.0000      -0.526723       -14.3329
 177   2.0000      -0.525940       -14.3115
 178   2.0000      -0.524276       -14.2663
 179   2.0000      -0.523376       -14.2418
 180   2.0000      -0.522747       -14.2247
 181   2.0000      -0.521359       -14.1869
 182   2.0000      -0.518462       -14.1081
 183   2.0000      -0.514515       -14.0007
 184   2.0000      -0.511720       -13.9246
 185   2.0000      -0.509131       -13.8542
 186   2.0000      -0.506494       -13.7824
 187   2.0000      -0.503506       -13.7011
 188   2.0000      -0.501684       -13.6515
 189   2.0000      -0.498072       -13.5532
 190   2.0000      -0.497733       -13.5440
 191   2.0000      -0.493479       -13.4282
 192   2.0000      -0.486053       -13.2262
 193   2.0000      -0.484902       -13.1949
 194   2.0000      -0.484333       -13.1794
 195   2.0000      -0.483328       -13.1520
 196   2.0000      -0.480024       -13.0621
 197   2.0000      -0.478440       -13.0190
 198   2.0000      -0.474030       -12.8990
 199   2.0000      -0.471377       -12.8268
 200   2.0000      -0.471038       -12.8176
 201   2.0000      -0.468475       -12.7478
 202   2.0000      -0.465284       -12.6610
 203   2.0000      -0.463523       -12.6131
 204   2.0000      -0.461875       -12.5683
 205   2.0000      -0.460346       -12.5267
 206   2.0000      -0.458909       -12.4876
 207   2.0000      -0.456810       -12.4304
 208   2.0000      -0.455255       -12.3881
 209   2.0000      -0.454281       -12.3616
 210   2.0000      -0.448956       -12.2167
 211   2.0000      -0.444229       -12.0881
 212   2.0000      -0.440977       -11.9996
 213   2.0000      -0.440313       -11.9815
 214   2.0000      -0.439183       -11.9508
 215   2.0000      -0.437389       -11.9020
 216   2.0000      -0.434122       -11.8131
 217   2.0000      -0.432091       -11.7578
 218   2.0000      -0.427494       -11.6327
 219   2.0000      -0.423013       -11.5108
 220   2.0000      -0.421523       -11.4702
 221   2.0000      -0.400228       -10.8908
 222   2.0000      -0.395008       -10.7487
 223   2.0000      -0.391128       -10.6431
 224   2.0000      -0.387175       -10.5356
 225   2.0000      -0.383680       -10.4405
 226   2.0000      -0.381877       -10.3914
 227   2.0000      -0.381727       -10.3873
 228   2.0000      -0.378146       -10.2899
 229   2.0000      -0.374318       -10.1857
 230   2.0000      -0.369572       -10.0566
 231   2.0000      -0.367484        -9.9997
 232   2.0000      -0.365107        -9.9351
 233   2.0000      -0.361560        -9.8385
 234   2.0000      -0.359477        -9.7819
 235   2.0000      -0.356883        -9.7113
 236   2.0000      -0.354594        -9.6490
 237   2.0000      -0.354008        -9.6330
 238   2.0000      -0.349447        -9.5089
 239   2.0000      -0.343466        -9.3462
 240   2.0000      -0.341331        -9.2881
 241   2.0000      -0.336825        -9.1655
 242   2.0000      -0.331949        -9.0328
 243   2.0000      -0.327807        -8.9201
 244   2.0000      -0.323340        -8.7985
 245   2.0000      -0.320906        -8.7323
 246   2.0000      -0.303244        -8.2517
 247   2.0000      -0.289066        -7.8659
 248   2.0000      -0.279494        -7.6054
 249   2.0000      -0.238520        -6.4905
 250   0.0000      -0.136569        -3.7162
 251   0.0000      -0.096558        -2.6275
 252   0.0000      -0.065654        -1.7865
 253   0.0000      -0.043132        -1.1737
 254   0.0000      -0.031824        -0.8660

MULLIKEN ATOMIC CHARGES
-----------------------
   0 C :   -0.121862
   1 S :    0.157664
   2 C :   -0.265954
   3 C :    0.045508
   4 C :   -0.095771
   5 C :    0.113623
   6 C :    0.024419
   7 S :    0.630390
   8 O :   -0.454233
   9 O :   -0.450918
  10 C :    0.146241
  11 C :    0.041513
  12 C :    0.072023
  13 N :    0.267037
  14 O :   -0.243347
  15 O :   -0.255688
  16 C :    0.006563
  17 C :    0.013370
  18 C :   -0.024006
  19 C :    0.027279
  20 C :    0.018237
  21 C :    0.015165
  22 C :    0.098836
  23 N :    0.271088
  24 O :   -0.251061
  25 O :   -0.252672
  26 C :    0.038484
  27 C :   -0.022521
  28 C :   -0.047250
  29 C :    0.119539
  30 N :   -0.250499
  31 C :    0.095775
  32 C :    0.004143
  33 C :    0.167113
  34 O :   -0.219622
  35 C :   -0.080787
  36 C :   -0.038047
  37 C :    0.152095
  38 O :   -0.173454
  39 N :   -0.258192
  40 C :    0.096223
  41 C :    0.003065
  42 C :    0.149917
  43 C :   -0.036952
  44 C :    0.087833
  45 C :   -0.079594
  46 S :    0.168876
  47 C :   -0.050079
  48 C :   -0.068297
  49 C :    0.025249
  50 C :   -0.188837
  51 N :    0.129563
  52 C :   -0.019267
  53 C :    0.049546
  54 C :   -0.180465
  55 S :    0.140005
  56 C :   -0.098909
  57 C :   -0.079482
  58 C :   -0.046517
  59 C :    0.112611
  60 C :    0.007026
  61 S :    0.639135
  62 O :   -0.460683
  63 O :   -0.461473
  64 C :    0.128759
  65 H :    0.020995
  66 H :    0.031216
  67 H :    0.019233
  68 H :    0.057172
  69 H :    0.061005
  70 H :    0.056381
  71 H :    0.060230
  72 H :    0.000862
  73 H :    0.009630
  74 H :    0.003573
  75 H :    0.008464
  76 H :    0.047672
  77 H :    0.004707
  78 H :    0.027147
  79 H :    0.044745
  80 H :    0.018299
  81 H :    0.025413
  82 H :    0.028666
  83 H :    0.024051
  84 H :    0.049724
  85 H :    0.014838
  86 H :    0.027581
  87 H :    0.035937
  88 H :   -0.027393
  89 H :    0.011265
  90 H :   -0.000611
  91 H :    0.022528
  92 H :    0.003746
  93 H :    0.028642
  94 H :    0.027203
  95 H :    0.032535
  96 H :    0.059265
  97 H :    0.066210
  98 H :    0.057419
  99 H :    0.054176
Sum of atomic charges:   -0.0000000

LOEWDIN ATOMIC CHARGES
----------------------
   0 C :   -0.178056
   1 S :    0.460401
   2 C :   -0.170935
   3 C :   -0.069249
   4 C :   -0.076268
   5 C :   -0.031222
   6 C :   -0.131960
   7 S :    1.163922
   8 O :   -0.519318
   9 O :   -0.512376
  10 C :   -0.123652
  11 C :   -0.017165
  12 C :   -0.042721
  13 N :    0.284084
  14 O :   -0.209035
  15 O :   -0.214146
  16 C :   -0.009983
  17 C :   -0.033041
  18 C :    0.014487
  19 C :    0.053430
  20 C :   -0.041956
  21 C :    0.031204
  22 C :   -0.048631
  23 N :    0.283462
  24 O :   -0.214120
  25 O :   -0.217648
  26 C :    0.003132
  27 C :    0.024196
  28 C :   -0.017678
  29 C :    0.055062
  30 N :    0.003042
  31 C :    0.037047
  32 C :   -0.060538
  33 C :    0.075810
  34 O :   -0.209831
  35 C :   -0.125035
  36 C :   -0.095412
  37 C :    0.082873
  38 O :   -0.168553
  39 N :    0.000452
  40 C :    0.036736
  41 C :   -0.060082
  42 C :    0.088530
  43 C :   -0.051526
  44 C :    0.022328
  45 C :   -0.171683
  46 S :    0.480326
  47 C :   -0.130370
  48 C :   -0.108729
  49 C :   -0.010102
  50 C :   -0.034447
  51 N :   -0.054349
  52 C :   -0.050529
  53 C :   -0.019226
  54 C :   -0.179753
  55 S :    0.455685
  56 C :   -0.167490
  57 C :   -0.097304
  58 C :   -0.055265
  59 C :   -0.034315
  60 C :   -0.132031
  61 S :    1.156204
  62 O :   -0.520063
  63 O :   -0.516738
  64 C :   -0.127877
  65 H :    0.025906
  66 H :    0.039408
  67 H :    0.041489
  68 H :    0.037036
  69 H :    0.040816
  70 H :    0.042699
  71 H :    0.044611
  72 H :    0.036953
  73 H :    0.034338
  74 H :    0.031129
  75 H :    0.041195
  76 H :    0.045945
  77 H :    0.032194
  78 H :    0.024218
  79 H :    0.038348
  80 H :    0.022804
  81 H :    0.031859
  82 H :    0.032074
  83 H :    0.023040
  84 H :    0.040187
  85 H :    0.021435
  86 H :    0.032668
  87 H :    0.035010
  88 H :    0.028484
  89 H :    0.037948
  90 H :    0.039209
  91 H :    0.039985
  92 H :    0.026909
  93 H :    0.029224
  94 H :    0.040994
  95 H :    0.040715
  96 H :    0.039643
  97 H :    0.041880
  98 H :    0.048197
  99 H :    0.039451

  Mayer bond orders larger than 0.100000
B(  0-C ,  1-S ) :   1.1660 B(  0-C ,  4-C ) :   1.5822 B(  0-C , 65-H ) :   0.9699
B(  1-S ,  2-C ) :   1.1520 B(  2-C ,  3-C ) :   1.5637 B(  2-C , 11-C ) :   1.0486
B(  3-C ,  4-C ) :   1.2588 B(  3-C , 10-C ) :   1.0402 B(  4-C ,  5-C ) :   1.0652
B(  5-C ,  6-C ) :   1.0963 B(  5-C , 66-H ) :   0.9059 B(  5-C , 67-H ) :   0.9189
B(  6-C ,  7-S ) :   0.8213 B(  6-C , 68-H ) :   0.9306 B(  6-C , 69-H ) :   0.9261
B(  7-S ,  8-O ) :   1.6352 B(  7-S ,  9-O ) :   1.7444 B(  7-S , 10-C ) :   0.8397
B( 10-C , 70-H ) :   0.8965 B( 10-C , 71-H ) :   0.9065 B( 11-C , 12-C ) :   1.5670
B( 11-C , 18-C ) :   1.0852 B( 12-C , 13-N ) :   0.9477 B( 12-C , 16-C ) :   1.1213
B( 13-N , 14-O ) :   1.5318 B( 13-N , 15-O ) :   1.4953 B( 14-O , 15-O ) :   0.2604
B( 16-C , 17-C ) :   1.5953 B( 16-C , 72-H ) :   1.0128 B( 17-C , 18-C ) :   1.1221
B( 17-C , 73-H ) :   0.9965 B( 18-C , 19-C ) :   1.4510 B( 19-C , 20-C ) :   1.1643
B( 19-C , 26-C ) :   0.9879 B( 20-C , 21-C ) :   1.5330 B( 20-C , 74-H ) :   0.9922
B( 21-C , 22-C ) :   1.1346 B( 21-C , 75-H ) :   1.0158 B( 22-C , 23-N ) :   0.9518
B( 22-C , 26-C ) :   1.4679 B( 23-N , 24-O ) :   1.4962 B( 23-N , 25-O ) :   1.5220
B( 24-O , 25-O ) :   0.2598 B( 26-C , 27-C ) :   1.2289 B( 27-C , 28-C ) :   1.4842
B( 27-C , 76-H ) :   0.9364 B( 28-C , 29-C ) :   1.2139 B( 28-C , 77-H ) :   0.9424
B( 29-C , 30-N ) :   1.1506 B( 29-C , 36-C ) :   1.3152 B( 30-N , 31-C ) :   0.9453
B( 30-N , 33-C ) :   1.0777 B( 31-C , 32-C ) :   1.1198 B( 31-C , 78-H ) :   0.9487
B( 31-C , 79-H ) :   0.9279 B( 32-C , 80-H ) :   0.9683 B( 32-C , 81-H ) :   0.9677
B( 32-C , 82-H ) :   0.9632 B( 33-C , 34-O ) :   2.0049 B( 33-C , 35-C ) :   0.9918
B( 34-O , 89-H ) :   0.1255 B( 35-C , 36-C ) :   1.2914 B( 35-C , 42-C ) :   1.2797
B( 36-C , 37-C ) :   0.9653 B( 37-C , 38-O ) :   2.1006 B( 37-C , 39-N ) :   1.0358
B( 39-N , 40-C ) :   0.9418 B( 39-N , 42-C ) :   1.1787 B( 40-C , 41-C ) :   1.1210
B( 40-C , 83-H ) :   0.9498 B( 40-C , 84-H ) :   0.9270 B( 41-C , 85-H ) :   0.9683
B( 41-C , 86-H ) :   0.9681 B( 41-C , 87-H ) :   0.9637 B( 42-C , 43-C ) :   1.1919
B( 43-C , 44-C ) :   1.5926 B( 43-C , 88-H ) :   0.9622 B( 44-C , 45-C ) :   1.1419
B( 44-C , 89-H ) :   0.9295 B( 45-C , 46-S ) :   1.1149 B( 45-C , 49-C ) :   1.4574
B( 46-S , 47-C ) :   1.1460 B( 47-C , 48-C ) :   1.4224 B( 47-C , 52-C ) :   1.1988
B( 48-C , 49-C ) :   1.3042 B( 48-C , 50-C ) :   1.0993 B( 49-C , 90-H ) :   0.9989
B( 50-C , 51-N ) :   3.0174 B( 52-C , 53-C ) :   1.6666 B( 52-C , 91-H ) :   0.9537
B( 53-C , 54-C ) :   1.1147 B( 53-C , 92-H ) :   0.9498 B( 54-C , 55-S ) :   1.1367
B( 54-C , 58-C ) :   1.5421 B( 55-S , 56-C ) :   1.1812 B( 56-C , 57-C ) :   1.5704
B( 56-C , 93-H ) :   0.9703 B( 57-C , 58-C ) :   1.2792 B( 57-C , 64-C ) :   1.0225
B( 58-C , 59-C ) :   1.0610 B( 59-C , 60-C ) :   1.0975 B( 59-C , 94-H ) :   0.9105
B( 59-C , 95-H ) :   0.8979 B( 60-C , 61-S ) :   0.8308 B( 60-C , 96-H ) :   0.9283
B( 60-C , 97-H ) :   0.9266 B( 61-S , 62-O ) :   1.7232 B( 61-S , 63-O ) :   1.7149
B( 61-S , 64-C ) :   0.8390 B( 64-C , 98-H ) :   0.9163 B( 64-C , 99-H ) :   0.9092

-----------------------------------------------------------------------------
         ABSORPTION SPECTRUM VIA TRANSITION ELECTRIC DIPOLE MOMENTS
-----------------------------------------------------------------------------
State   Energy  Wavelength   fosc         T2         TX        TY        TZ
        (cm-1)    (nm)                  (au**2)     (au)      (au)      (au)
-----------------------------------------------------------------------------
   0    6645.3   1504.8   0.297346790  14.73080  -1.12010  -3.65194  -0.37352
   1   14047.1    711.9   0.040004312   0.93755  -0.29314  -0.78133   0.49107
   2   15608.6    640.7   0.525135490  11.07600  -1.77026  -2.80943   0.22206
   3   17043.5    586.7   0.006516219   0.12587   0.08832   0.28119  -0.19749
   4   20701.6    483.1   0.318884881   5.07114  -1.02945  -1.65217   1.13213
   5   21780.5    459.1   0.021585198   0.32626   0.27968  -0.41116   0.28104
   6   22803.0    438.5   0.083919361   1.21156  -0.43237  -0.63988   0.78433
   7   24067.3    415.5   0.013782103   0.18852  -0.33543  -0.21285   0.17523
   8   24241.5    412.5   0.042065009   0.57126   0.68270   0.00876   0.32420
   9   25265.5    395.8   0.018988853   0.24743  -0.25626   0.22930   0.35942
  10   25702.3    389.1   0.052840120   0.67681   0.65132   0.06554  -0.49830
  11   25939.7    385.5   0.084864845   1.07706   0.58144   0.03223  -0.85904
  12   26679.6    374.8   0.343014613   4.23261  -0.27742  -1.69572   1.13145
  13   27553.6    362.9   0.175310497   2.09462   0.66519   0.00589  -1.28534
  14   27699.6    361.0   0.038255903   0.45468   0.30362  -0.14798  -0.58360
  15   28089.7    356.0   0.151624574   1.77705   0.15010   0.11468  -1.31961
  16   29338.1    340.9   0.005410000   0.06071  -0.18858   0.12542   0.09705
  17   29643.5    337.3   0.052654951   0.58477  -0.36636  -0.64932   0.17007
  18   30086.0    332.4   0.052489112   0.57436  -0.34334  -0.67351   0.05346
  19   30629.2    326.5   0.469380546   5.04505   1.74514   0.71278  -1.22126
  20   30805.3    324.6   0.049541828   0.52945   0.31083  -0.59431  -0.28219
  21   31151.0    321.0   0.146418568   1.54739  -0.73099   0.13742   0.99707
  22   31463.7    317.8   0.075257892   0.78744  -0.50094   0.10996   0.72417
  23   31760.0    314.9   0.038157599   0.39553   0.43622  -0.12418  -0.43568
  24   32892.7    304.0   0.029542092   0.29568  -0.46899  -0.12958   0.24276
  25   32951.5    303.5   0.009588766   0.09580   0.26238  -0.15586   0.05162
  26   33087.9    302.2   0.043153506   0.42936  -0.62046  -0.02701   0.20896
  27   33309.9    300.2   0.002767271   0.02735   0.01007  -0.01555  -0.16434
  28   33547.8    298.1   0.133575494   1.31081   0.28835  -0.07879  -1.10519
  29   33626.1    297.4   0.015525814   0.15200  -0.33112   0.16412  -0.12420
  30   33892.6    295.0   0.061871999   0.60099  -0.55548  -0.26687   0.47033
  31   34502.5    289.8   0.190653152   1.81915  -1.10891   0.02901   0.76722
  32   35416.1    282.4   0.018172202   0.16892  -0.27154  -0.00109  -0.30852
  33   35534.0    281.4   0.037232269   0.34495   0.53255   0.04770  -0.24302
  34   35843.4    279.0   0.003748785   0.03443  -0.02956  -0.14130  -0.11659
  35   36391.7    274.8   0.139027470   1.25769   0.99177  -0.24732  -0.46142
  36   36755.7    272.1   0.115041596   1.03040   0.88610   0.28534  -0.40474
  37   36784.0    271.9   0.012670462   0.11340  -0.06841   0.32543  -0.05307
  38   37243.0    268.5   0.027377570   0.24201  -0.27066   0.27328   0.30670
  39   37537.0    266.4   0.007002854   0.06142  -0.03159   0.02545  -0.24448
  40   37640.0    265.7   0.009081896   0.07943  -0.15143  -0.07868  -0.22430
  41   37965.3    263.4   0.023438230   0.20324   0.26054  -0.32708   0.16847
  42   38282.6    261.2   0.013855273   0.11915   0.31270  -0.12430  -0.07693
  43   38839.9    257.5   0.004901346   0.04154  -0.05566  -0.14392  -0.13317
  44   39090.2    255.8   0.040860275   0.34412  -0.42788  -0.06459   0.39606
  45   39263.4    254.7   0.011350000   0.09517  -0.10194  -0.17991   0.22893
  46   39752.1    251.6   0.062051136   0.51388  -0.63818  -0.02365   0.32566
  47   40140.1    249.1   0.016806169   0.13784   0.08323   0.14060   0.33338

FINAL SINGLE POINT ENERGY     -4748.398237313841

DIPOLE MOMENT
-------------
                                X             Y             Z
Electronic contribution:      4.12118      -7.33838      -3.16129
Nuclear contribution   :     -5.96664       8.00109       1.04335
                        -----------------------------------------
Total Dipole Moment    :     -1.84546       0.66271      -2.11794
                        -----------------------------------------
Magnitude (a.u.)       :      2.88628
Magnitude (Debye)      :      7.33633

Rotational constants in cm-1:     0.001983     0.000273     0.000251
Rotational constants in MHz :    59.459037     8.169806     7.518698

                             ****ORCA TERMINATED NORMALLY****
TOTAL RUN TIME: 0 days 0 hours 11 minutes 15 seconds 117 msec
