                         Program Version 4.2.0 -  RELEASE  -
|  1> # ORCA input file
|  2> # SCF done       -193.820275737885          0.000253023597
|  3> ! CAM-B3LYP def2-SVP def2/J RIJCOSX Grid4 TightSCF
|  4> %maxcore 5000
|  5> %tddft
|  6>     Mode sTDDFT
|  7>     Ethresh 5.0
|  8>     maxcore 5000
|  9> end
| 10>
| 11> %pal
| 12>   nprocs 6
| 13>   end
| 14> * xyz 0 1
| 15>    C       -2.82747        -0.52437        -8.58971
| 16>    S       -3.52217        -1.70730        -7.58860
| 17>    C       -5.06711        -0.90432        -7.57434
| 18>    C       -5.00414         0.27882        -8.30786
| 19>    C       -3.71679         0.48555        -8.90029
| 20>    C       -3.49035         1.63783        -9.70459
| 21>    C       -2.22490         1.83304       -10.29802
| 22>    N       -1.19343         1.98812       -10.77406
| 23>    C       -4.50808         2.55032        -9.88300
| 24>    C       -5.74426         2.38278        -9.24673
| 25>    C       -5.99983         1.28175        -8.45514
| 26>    C       -7.21380         1.19644        -7.74002
| 27>    N       -8.17555         1.15520        -7.11690
| 28>    C       -6.17413        -1.53364        -6.93040
| 29>    C       -7.42718        -1.82867        -7.43809
| 30>    N       -7.92663        -1.56830        -8.72264
| 31>    O       -9.00328        -2.05338        -9.01762
| 32>    O       -7.24577        -0.89806        -9.48806
| 33>    C       -8.14826        -2.62937        -6.47890
| 34>    C       -7.34417        -2.86765        -5.41436
| 35>    C       -6.09682        -2.18780        -5.61650
| 36>    C       -5.08286        -2.00070        -4.69677
| 37>    C       -4.21833        -0.86796        -4.60686
| 38>    C       -3.52048        -0.94523        -3.44006
| 39>    C       -3.86944        -2.15187        -2.75486
| 40>    N       -3.23317        -2.47432        -1.54549
| 41>    O       -3.70259        -3.34592        -0.82668
| 42>    O       -2.23284        -1.83850        -1.25981
| 43>    C       -4.81861        -2.85119        -3.51763
| 44>    C       -5.31927        -4.16314        -3.47828
| 45>    C       -5.32721        -5.04436        -2.42548
| 46>    C       -5.87727        -6.32858        -2.54913
| 47>    N       -5.97708        -7.21775        -1.50873
| 48>    C       -5.56558        -6.98717        -0.14221
| 49>    C       -6.58719        -6.15138         0.62317
| 50>    C       -6.60141        -8.41356        -1.88881
| 51>    O       -6.80547        -9.34088        -1.13503
| 52>    C       -6.89077        -8.23383        -3.30253
| 53>    C       -6.43521        -6.96249        -3.68025
| 54>    C       -6.70167        -6.79354        -5.09686
| 55>    O       -6.48009        -5.87625        -5.86207
| 56>    N       -7.31032        -7.99660        -5.48236
| 57>    C       -7.77723        -8.19265        -6.83484
| 58>    C       -9.27867        -7.94686        -6.95747
| 59>    C       -7.44406        -8.87150        -4.43003
| 60>    C       -8.02884       -10.14401        -4.53171
| 61>    C       -8.19271       -10.97127        -3.45198
| 62>    C       -8.79023       -12.24521        -3.50016
| 63>    C       -9.01876       -13.06005        -2.40029
| 64>    C       -9.63809       -14.26205        -2.82610
| 65>    C       -9.78577       -14.14953        -4.29001
| 66>    C       -9.28437       -12.94799        -4.67644
| 67>    C      -10.36020       -15.08899        -5.15476
| 68>    N      -10.84081       -15.82508        -5.89434
| 69>    C      -10.02065       -15.33992        -2.05552
| 70>    C      -10.58711       -16.55896        -2.51231
| 71>    C      -10.78770       -17.39372        -1.43612
| 72>    C      -10.38963       -16.68093        -0.23164
| 73>    C       -9.90714       -15.46264        -0.58915
| 74>    C       -9.41750       -14.50057         0.30123
| 75>    N       -9.03238       -13.73360         1.06432
| 76>    C      -11.32760       -18.70660        -1.44915
| 77>    S      -12.29093       -19.25759        -0.11309
| 78>    C      -12.72353       -20.69336        -0.91169
| 79>    C      -12.13475       -20.79551        -2.15557
| 80>    C      -11.30068       -19.66930        -2.46452
| 81>    C      -10.51040       -19.71595        -3.64478
| 82>    C       -9.46082       -18.80306        -3.89821
| 83>    N       -8.54221       -18.15346        -4.11979
| 84>    C      -10.66795       -20.76720        -4.52915
| 85>    C      -11.56094       -21.81427        -4.27323
| 86>    C      -12.26867       -21.85978        -3.09224
| 87>    C      -13.11340       -22.94838        -2.78738
| 88>    N      -13.80275       -23.82828        -2.53248
| 89>    H       -1.81128        -0.61721        -8.91957
| 90>    H       -4.34281         3.41919       -10.50219
| 91>    H       -6.50933         3.13439        -9.36958
| 92>    H       -9.15790        -2.95801        -6.63322
| 93>    H       -7.62291        -3.37923        -4.51488
| 94>    H       -4.22207        -0.03462        -5.28220
| 95>    H       -2.82033        -0.23018        -3.05058
| 96>    H       -5.75444        -4.50183        -4.40918
| 97>    H       -4.93239        -4.74591        -1.46723
| 98>    H       -4.58786        -6.50017        -0.13498
| 99>    H       -5.47790        -7.97450         0.31899
|100>    H       -6.69958        -5.16741         0.17449
|101>    H       -6.25677        -6.02732         1.65005
|102>    H       -7.55362        -6.65005         0.62623
|103>    H       -7.51549        -9.20040        -7.16817
|104>    H       -7.23706        -7.46800        -7.45014
|105>    H       -9.84094        -8.62197        -6.31588
|106>    H       -9.59211        -8.09831        -7.98638
|107>    H       -9.51158        -6.92387        -6.67278
|108>    H       -8.36900       -10.46215        -5.50634
|109>    H       -7.85656       -10.63806        -2.47841
|110>    H       -8.76195       -12.81960        -1.38695
|111>    H       -9.25189       -12.58103        -5.68529
|112>    H      -10.84566       -16.76315        -3.53087
|113>    H      -10.44765       -17.08461         0.76262
|114>    H      -13.38826       -21.39565        -0.44847
|115>    H      -10.06919       -20.79023        -5.42711
|116>    H      -11.66521       -22.61310        -4.99163
|117> *
|118>
|119>                          ****END OF INPUT****

CARTESIAN COORDINATES (ANGSTROEM)
---------------------------------
  C     -2.827470   -0.524370   -8.589710
  S     -3.522170   -1.707300   -7.588600
  C     -5.067110   -0.904320   -7.574340
  C     -5.004140    0.278820   -8.307860
  C     -3.716790    0.485550   -8.900290
  C     -3.490350    1.637830   -9.704590
  C     -2.224900    1.833040  -10.298020
  N     -1.193430    1.988120  -10.774060
  C     -4.508080    2.550320   -9.883000
  C     -5.744260    2.382780   -9.246730
  C     -5.999830    1.281750   -8.455140
  C     -7.213800    1.196440   -7.740020
  N     -8.175550    1.155200   -7.116900
  C     -6.174130   -1.533640   -6.930400
  C     -7.427180   -1.828670   -7.438090
  N     -7.926630   -1.568300   -8.722640
  O     -9.003280   -2.053380   -9.017620
  O     -7.245770   -0.898060   -9.488060
  C     -8.148260   -2.629370   -6.478900
  C     -7.344170   -2.867650   -5.414360
  C     -6.096820   -2.187800   -5.616500
  C     -5.082860   -2.000700   -4.696770
  C     -4.218330   -0.867960   -4.606860
  C     -3.520480   -0.945230   -3.440060
  C     -3.869440   -2.151870   -2.754860
  N     -3.233170   -2.474320   -1.545490
  O     -3.702590   -3.345920   -0.826680
  O     -2.232840   -1.838500   -1.259810
  C     -4.818610   -2.851190   -3.517630
  C     -5.319270   -4.163140   -3.478280
  C     -5.327210   -5.044360   -2.425480
  C     -5.877270   -6.328580   -2.549130
  N     -5.977080   -7.217750   -1.508730
  C     -5.565580   -6.987170   -0.142210
  C     -6.587190   -6.151380    0.623170
  C     -6.601410   -8.413560   -1.888810
  O     -6.805470   -9.340880   -1.135030
  C     -6.890770   -8.233830   -3.302530
  C     -6.435210   -6.962490   -3.680250
  C     -6.701670   -6.793540   -5.096860
  O     -6.480090   -5.876250   -5.862070
  N     -7.310320   -7.996600   -5.482360
  C     -7.777230   -8.192650   -6.834840
  C     -9.278670   -7.946860   -6.957470
  C     -7.444060   -8.871500   -4.430030
  C     -8.028840  -10.144010   -4.531710
  C     -8.192710  -10.971270   -3.451980
  C     -8.790230  -12.245210   -3.500160
  C     -9.018760  -13.060050   -2.400290
  C     -9.638090  -14.262050   -2.826100
  C     -9.785770  -14.149530   -4.290010
  C     -9.284370  -12.947990   -4.676440
  C    -10.360200  -15.088990   -5.154760
  N    -10.840810  -15.825080   -5.894340
  C    -10.020650  -15.339920   -2.055520
  C    -10.587110  -16.558960   -2.512310
  C    -10.787700  -17.393720   -1.436120
  C    -10.389630  -16.680930   -0.231640
  C     -9.907140  -15.462640   -0.589150
  C     -9.417500  -14.500570    0.301230
  N     -9.032380  -13.733600    1.064320
  C    -11.327600  -18.706600   -1.449150
  S    -12.290930  -19.257590   -0.113090
  C    -12.723530  -20.693360   -0.911690
  C    -12.134750  -20.795510   -2.155570
  C    -11.300680  -19.669300   -2.464520
  C    -10.510400  -19.715950   -3.644780
  C     -9.460820  -18.803060   -3.898210
  N     -8.542210  -18.153460   -4.119790
  C    -10.667950  -20.767200   -4.529150
  C    -11.560940  -21.814270   -4.273230
  C    -12.268670  -21.859780   -3.092240
  C    -13.113400  -22.948380   -2.787380
  N    -13.802750  -23.828280   -2.532480
  H     -1.811280   -0.617210   -8.919570
  H     -4.342810    3.419190  -10.502190
  H     -6.509330    3.134390   -9.369580
  H     -9.157900   -2.958010   -6.633220
  H     -7.622910   -3.379230   -4.514880
  H     -4.222070   -0.034620   -5.282200
  H     -2.820330   -0.230180   -3.050580
  H     -5.754440   -4.501830   -4.409180
  H     -4.932390   -4.745910   -1.467230
  H     -4.587860   -6.500170   -0.134980
  H     -5.477900   -7.974500    0.318990
  H     -6.699580   -5.167410    0.174490
  H     -6.256770   -6.027320    1.650050
  H     -7.553620   -6.650050    0.626230
  H     -7.515490   -9.200400   -7.168170
  H     -7.237060   -7.468000   -7.450140
  H     -9.840940   -8.621970   -6.315880
  H     -9.592110   -8.098310   -7.986380
  H     -9.511580   -6.923870   -6.672780
  H     -8.369000  -10.462150   -5.506340
  H     -7.856560  -10.638060   -2.478410
  H     -8.761950  -12.819600   -1.386950
  H     -9.251890  -12.581030   -5.685290
  H    -10.845660  -16.763150   -3.530870
  H    -10.447650  -17.084610    0.762620
  H    -13.388260  -21.395650   -0.448470
  H    -10.069190  -20.790230   -5.427110
  H    -11.665210  -22.613100   -4.991630

 Total Charge           Charge          ....    0
 Multiplicity           Mult            ....    1
 Number of Electrons    NEL             ....  514
 Basis Dimension        Dim             .... 1184

ORBITAL ENERGIES
----------------

  NO   OCC          E(Eh)            E(eV)
   0   2.0000     -89.003688     -2421.9135
   1   2.0000     -88.998426     -2421.7703
   2   2.0000     -19.242071      -523.6034
   3   2.0000     -19.239739      -523.5399
   4   2.0000     -19.238147      -523.4966
   5   2.0000     -19.236251      -523.4450
   6   2.0000     -19.211971      -522.7843
   7   2.0000     -19.203645      -522.5578
   8   2.0000     -14.649986      -398.6464
   9   2.0000     -14.645076      -398.5128
  10   2.0000     -14.471066      -393.7777
  11   2.0000     -14.464947      -393.6112
  12   2.0000     -14.425738      -392.5443
  13   2.0000     -14.420210      -392.3939
  14   2.0000     -14.420159      -392.3925
  15   2.0000     -14.414749      -392.2453
  16   2.0000     -14.414585      -392.2408
  17   2.0000     -14.413260      -392.2048
  18   2.0000     -10.393019      -282.8084
  19   2.0000     -10.386710      -282.6368
  20   2.0000     -10.357239      -281.8348
  21   2.0000     -10.350820      -281.6601
  22   2.0000     -10.344125      -281.4780
  23   2.0000     -10.343976      -281.4739
  24   2.0000     -10.338654      -281.3291
  25   2.0000     -10.337682      -281.3026
  26   2.0000     -10.335442      -281.2417
  27   2.0000     -10.333913      -281.2001
  28   2.0000     -10.332951      -281.1739
  29   2.0000     -10.332091      -281.1505
  30   2.0000     -10.330770      -281.1145
  31   2.0000     -10.330626      -281.1106
  32   2.0000     -10.330524      -281.1079
  33   2.0000     -10.330050      -281.0950
  34   2.0000     -10.329280      -281.0740
  35   2.0000     -10.326319      -280.9934
  36   2.0000     -10.325630      -280.9747
  37   2.0000     -10.325535      -280.9721
  38   2.0000     -10.325514      -280.9715
  39   2.0000     -10.323806      -280.9250
  40   2.0000     -10.323760      -280.9238
  41   2.0000     -10.323530      -280.9175
  42   2.0000     -10.323526      -280.9174
  43   2.0000     -10.322675      -280.8943
  44   2.0000     -10.321683      -280.8673
  45   2.0000     -10.321325      -280.8575
  46   2.0000     -10.319756      -280.8148
  47   2.0000     -10.318194      -280.7723
  48   2.0000     -10.318148      -280.7711
  49   2.0000     -10.317617      -280.7566
  50   2.0000     -10.316994      -280.7397
  51   2.0000     -10.316527      -280.7270
  52   2.0000     -10.316502      -280.7263
  53   2.0000     -10.316183      -280.7176
  54   2.0000     -10.315403      -280.6964
  55   2.0000     -10.314979      -280.6848
  56   2.0000     -10.314792      -280.6798
  57   2.0000     -10.314377      -280.6685
  58   2.0000     -10.311870      -280.6003
  59   2.0000     -10.309456      -280.5346
  60   2.0000     -10.308976      -280.5215
  61   2.0000     -10.308046      -280.4962
  62   2.0000     -10.304031      -280.3869
  63   2.0000     -10.301817      -280.3267
  64   2.0000     -10.300260      -280.2843
  65   2.0000     -10.295009      -280.1414
  66   2.0000     -10.294868      -280.1376
  67   2.0000     -10.291710      -280.0517
  68   2.0000     -10.289431      -279.9897
  69   2.0000     -10.285807      -279.8910
  70   2.0000     -10.283395      -279.8254
  71   2.0000     -10.280699      -279.7520
  72   2.0000     -10.276140      -279.6280
  73   2.0000     -10.264899      -279.3221
  74   2.0000      -8.098811      -220.3798
  75   2.0000      -8.092911      -220.2193
  76   2.0000      -6.067654      -165.1093
  77   2.0000      -6.063259      -164.9897
  78   2.0000      -6.062164      -164.9599
  79   2.0000      -6.061804      -164.9501
  80   2.0000      -6.057326      -164.8282
  81   2.0000      -6.056297      -164.8002
  82   2.0000      -1.319706       -35.9110
  83   2.0000      -1.315672       -35.8013
  84   2.0000      -1.151706       -31.3395
  85   2.0000      -1.142548       -31.0903
  86   2.0000      -1.135977       -30.9115
  87   2.0000      -1.133144       -30.8344
  88   2.0000      -1.080846       -29.4113
  89   2.0000      -1.070554       -29.1313
  90   2.0000      -1.040033       -28.3007
  91   2.0000      -1.035294       -28.1718
  92   2.0000      -1.022653       -27.8278
  93   2.0000      -1.018056       -27.7027
  94   2.0000      -1.010378       -27.4938
  95   2.0000      -1.006875       -27.3985
  96   2.0000      -1.004815       -27.3424
  97   2.0000      -1.004162       -27.3246
  98   2.0000      -0.999973       -27.2106
  99   2.0000      -0.996371       -27.1126
 100   2.0000      -0.991262       -26.9736
 101   2.0000      -0.988093       -26.8874
 102   2.0000      -0.970474       -26.4079
 103   2.0000      -0.964385       -26.2422
 104   2.0000      -0.943167       -25.6649
 105   2.0000      -0.927078       -25.2271
 106   2.0000      -0.921818       -25.0840
 107   2.0000      -0.918796       -25.0017
 108   2.0000      -0.915227       -24.9046
 109   2.0000      -0.913737       -24.8640
 110   2.0000      -0.887176       -24.1413
 111   2.0000      -0.884088       -24.0573
 112   2.0000      -0.881881       -23.9972
 113   2.0000      -0.871240       -23.7076
 114   2.0000      -0.868195       -23.6248
 115   2.0000      -0.867454       -23.6046
 116   2.0000      -0.861709       -23.4483
 117   2.0000      -0.857593       -23.3363
 118   2.0000      -0.851562       -23.1722
 119   2.0000      -0.833114       -22.6702
 120   2.0000      -0.831477       -22.6256
 121   2.0000      -0.818492       -22.2723
 122   2.0000      -0.808231       -21.9931
 123   2.0000      -0.792914       -21.5763
 124   2.0000      -0.791080       -21.5264
 125   2.0000      -0.783390       -21.3171
 126   2.0000      -0.776370       -21.1261
 127   2.0000      -0.770854       -20.9760
 128   2.0000      -0.767519       -20.8853
 129   2.0000      -0.738115       -20.0851
 130   2.0000      -0.735665       -20.0185
 131   2.0000      -0.731730       -19.9114
 132   2.0000      -0.725027       -19.7290
 133   2.0000      -0.720261       -19.5993
 134   2.0000      -0.714676       -19.4473
 135   2.0000      -0.712431       -19.3862
 136   2.0000      -0.710436       -19.3319
 137   2.0000      -0.705093       -19.1866
 138   2.0000      -0.692163       -18.8347
 139   2.0000      -0.689169       -18.7532
 140   2.0000      -0.679720       -18.4961
 141   2.0000      -0.676273       -18.4023
 142   2.0000      -0.670262       -18.2388
 143   2.0000      -0.663001       -18.0412
 144   2.0000      -0.659505       -17.9460
 145   2.0000      -0.657487       -17.8911
 146   2.0000      -0.652474       -17.7547
 147   2.0000      -0.650469       -17.7002
 148   2.0000      -0.639461       -17.4006
 149   2.0000      -0.634459       -17.2645
 150   2.0000      -0.630934       -17.1686
 151   2.0000      -0.628611       -17.1054
 152   2.0000      -0.626618       -17.0512
 153   2.0000      -0.623137       -16.9564
 154   2.0000      -0.610556       -16.6141
 155   2.0000      -0.607579       -16.5331
 156   2.0000      -0.602277       -16.3888
 157   2.0000      -0.600954       -16.3528
 158   2.0000      -0.599395       -16.3104
 159   2.0000      -0.597314       -16.2537
 160   2.0000      -0.591436       -16.0938
 161   2.0000      -0.590912       -16.0795
 162   2.0000      -0.585508       -15.9325
 163   2.0000      -0.581643       -15.8273
 164   2.0000      -0.575911       -15.6713
 165   2.0000      -0.565541       -15.3892
 166   2.0000      -0.564680       -15.3657
 167   2.0000      -0.563080       -15.3222
 168   2.0000      -0.560792       -15.2599
 169   2.0000      -0.552247       -15.0274
 170   2.0000      -0.551054       -14.9949
 171   2.0000      -0.548957       -14.9379
 172   2.0000      -0.544682       -14.8216
 173   2.0000      -0.542627       -14.7656
 174   2.0000      -0.539359       -14.6767
 175   2.0000      -0.537268       -14.6198
 176   2.0000      -0.535788       -14.5795
 177   2.0000      -0.534503       -14.5446
 178   2.0000      -0.530155       -14.4262
 179   2.0000      -0.527757       -14.3610
 180   2.0000      -0.526313       -14.3217
 181   2.0000      -0.524994       -14.2858
 182   2.0000      -0.518426       -14.1071
 183   2.0000      -0.517251       -14.0751
 184   2.0000      -0.515684       -14.0325
 185   2.0000      -0.511826       -13.9275
 186   2.0000      -0.507782       -13.8174
 187   2.0000      -0.505835       -13.7645
 188   2.0000      -0.503856       -13.7106
 189   2.0000      -0.502157       -13.6644
 190   2.0000      -0.497955       -13.5500
 191   2.0000      -0.495071       -13.4716
 192   2.0000      -0.494639       -13.4598
 193   2.0000      -0.492043       -13.3892
 194   2.0000      -0.490112       -13.3366
 195   2.0000      -0.488042       -13.2803
 196   2.0000      -0.487010       -13.2522
 197   2.0000      -0.483822       -13.1655
 198   2.0000      -0.480906       -13.0861
 199   2.0000      -0.477874       -13.0036
 200   2.0000      -0.477005       -12.9800
 201   2.0000      -0.475625       -12.9424
 202   2.0000      -0.472999       -12.8710
 203   2.0000      -0.472488       -12.8570
 204   2.0000      -0.469885       -12.7862
 205   2.0000      -0.469760       -12.7828
 206   2.0000      -0.467798       -12.7294
 207   2.0000      -0.463708       -12.6181
 208   2.0000      -0.458297       -12.4709
 209   2.0000      -0.457702       -12.4547
 210   2.0000      -0.456250       -12.4152
 211   2.0000      -0.454008       -12.3542
 212   2.0000      -0.452624       -12.3165
 213   2.0000      -0.452473       -12.3124
 214   2.0000      -0.448624       -12.2077
 215   2.0000      -0.447491       -12.1769
 216   2.0000      -0.447359       -12.1733
 217   2.0000      -0.444170       -12.0865
 218   2.0000      -0.443510       -12.0685
 219   2.0000      -0.442386       -12.0379
 220   2.0000      -0.441950       -12.0261
 221   2.0000      -0.441695       -12.0191
 222   2.0000      -0.441135       -12.0039
 223   2.0000      -0.433368       -11.7925
 224   2.0000      -0.429182       -11.6786
 225   2.0000      -0.428699       -11.6655
 226   2.0000      -0.423733       -11.5304
 227   2.0000      -0.421983       -11.4828
 228   2.0000      -0.419933       -11.4270
 229   2.0000      -0.419233       -11.4079
 230   2.0000      -0.418417       -11.3857
 231   2.0000      -0.414097       -11.2682
 232   2.0000      -0.403025       -10.9669
 233   2.0000      -0.393346       -10.7035
 234   2.0000      -0.390833       -10.6351
 235   2.0000      -0.390036       -10.6134
 236   2.0000      -0.385664       -10.4945
 237   2.0000      -0.377750       -10.2791
 238   2.0000      -0.376639       -10.2489
 239   2.0000      -0.372150       -10.1267
 240   2.0000      -0.371340       -10.1047
 241   2.0000      -0.367809       -10.0086
 242   2.0000      -0.363567        -9.8932
 243   2.0000      -0.358729        -9.7615
 244   2.0000      -0.354404        -9.6438
 245   2.0000      -0.347342        -9.4516
 246   2.0000      -0.345366        -9.3979
 247   2.0000      -0.340978        -9.2785
 248   2.0000      -0.337735        -9.1902
 249   2.0000      -0.332140        -9.0380
 250   2.0000      -0.323749        -8.8096
 251   2.0000      -0.323158        -8.7936
 252   2.0000      -0.311513        -8.4767
 253   2.0000      -0.304886        -8.2964
 254   2.0000      -0.281591        -7.6625
 255   2.0000      -0.278135        -7.5684
 256   2.0000      -0.240866        -6.5543
 257   0.0000      -0.147694        -4.0190
 258   0.0000      -0.129185        -3.5153
 259   0.0000      -0.090721        -2.4686
 260   0.0000      -0.086394        -2.3509
 261   0.0000      -0.077042        -2.0964

MULLIKEN ATOMIC CHARGES
-----------------------
   0 C :   -0.124173
   1 S :    0.241577
   2 C :   -0.336229
   3 C :    0.280298
   4 C :    0.078297
   5 C :   -0.054307
   6 C :   -0.189650
   7 N :    0.130688
   8 C :    0.024760
   9 C :    0.023750
  10 C :   -0.065489
  11 C :   -0.224511
  12 N :    0.142554
  13 C :    0.058086
  14 C :    0.077992
  15 N :    0.277646
  16 O :   -0.239175
  17 O :   -0.261329
  18 C :    0.021309
  19 C :    0.030939
  20 C :    0.040871
  21 C :   -0.006383
  22 C :    0.014842
  23 C :    0.018144
  24 C :    0.071066
  25 N :    0.279290
  26 O :   -0.260202
  27 O :   -0.246584
  28 C :    0.096250
  29 C :   -0.096381
  30 C :   -0.010851
  31 C :    0.138680
  32 N :   -0.250450
  33 C :    0.095852
  34 C :    0.007672
  35 C :    0.167323
  36 O :   -0.196666
  37 C :   -0.069074
  38 C :   -0.057163
  39 C :    0.162280
  40 O :   -0.200278
  41 N :   -0.250709
  42 C :    0.096144
  43 C :    0.004514
  44 C :    0.157345
  45 C :   -0.033339
  46 C :    0.012993
  47 C :    0.109725
  48 C :   -0.099113
  49 C :    0.127843
  50 C :   -0.090164
  51 C :   -0.012012
  52 C :   -0.160899
  53 N :    0.130202
  54 C :    0.102041
  55 C :   -0.109191
  56 C :    0.100788
  57 C :   -0.020367
  58 C :   -0.082397
  59 C :   -0.184278
  60 N :    0.145792
  61 C :   -0.191068
  62 S :    0.210595
  63 C :   -0.122538
  64 C :    0.083854
  65 C :    0.194197
  66 C :   -0.083461
  67 C :   -0.203744
  68 N :    0.131012
  69 C :    0.024886
  70 C :    0.022058
  71 C :   -0.047785
  72 C :   -0.189752
  73 N :    0.131835
  74 H :    0.045616
  75 H :    0.004976
  76 H :    0.005106
  77 H :    0.000784
  78 H :   -0.005783
  79 H :    0.004901
  80 H :    0.006222
  81 H :    0.031256
  82 H :    0.004317
  83 H :    0.039230
  84 H :    0.045458
  85 H :    0.019405
  86 H :    0.029715
  87 H :    0.026496
  88 H :    0.026822
  89 H :    0.047780
  90 H :    0.017060
  91 H :    0.030477
  92 H :    0.029336
  93 H :   -0.029426
  94 H :    0.019346
  95 H :    0.019806
  96 H :   -0.002285
  97 H :    0.014789
  98 H :    0.001662
  99 H :    0.048565
 100 H :    0.013516
 101 H :    0.008573
Sum of atomic charges:   -0.0000000

LOEWDIN ATOMIC CHARGES
----------------------
   0 C :   -0.173722
   1 S :    0.551719
   2 C :   -0.179953
   3 C :   -0.020932
   4 C :   -0.038667
   5 C :   -0.044675
   6 C :   -0.028229
   7 N :   -0.042365
   8 C :    0.014065
   9 C :    0.021444
  10 C :   -0.038194
  11 C :   -0.030872
  12 N :   -0.053305
  13 C :   -0.021384
  14 C :   -0.028835
  15 N :    0.288213
  16 O :   -0.202580
  17 O :   -0.212304
  18 C :    0.022289
  19 C :   -0.027803
  20 C :    0.042257
  21 C :    0.036237
  22 C :   -0.050684
  23 C :    0.016472
  24 C :   -0.047432
  25 N :    0.287276
  26 O :   -0.221197
  27 O :   -0.210749
  28 C :    0.005277
  29 C :    0.007260
  30 C :   -0.009532
  31 C :    0.067661
  32 N :    0.007749
  33 C :    0.039216
  34 C :   -0.058391
  35 C :    0.078931
  36 O :   -0.186755
  37 C :   -0.109812
  38 C :   -0.103635
  39 C :    0.080426
  40 O :   -0.187141
  41 N :    0.003694
  42 C :    0.037467
  43 C :   -0.059689
  44 C :    0.079676
  45 C :   -0.044394
  46 C :    0.044822
  47 C :   -0.023085
  48 C :    0.000121
  49 C :    0.035457
  50 C :   -0.071628
  51 C :    0.049634
  52 C :   -0.025822
  53 N :   -0.061791
  54 C :    0.044486
  55 C :   -0.014226
  56 C :   -0.039644
  57 C :    0.043546
  58 C :   -0.074595
  59 C :   -0.033486
  60 N :   -0.054181
  61 C :   -0.173883
  62 S :    0.529386
  63 C :   -0.176825
  64 C :   -0.036709
  65 C :   -0.027182
  66 C :   -0.043868
  67 C :   -0.025426
  68 N :   -0.041968
  69 C :    0.022160
  70 C :    0.014255
  71 C :   -0.043316
  72 C :   -0.028188
  73 N :   -0.039179
  74 H :    0.036909
  75 H :    0.045741
  76 H :    0.046692
  77 H :    0.038159
  78 H :    0.030801
  79 H :    0.029617
  80 H :    0.039029
  81 H :    0.039395
  82 H :    0.029595
  83 H :    0.030397
  84 H :    0.038995
  85 H :    0.023923
  86 H :    0.034346
  87 H :    0.030732
  88 H :    0.024315
  89 H :    0.039589
  90 H :    0.022282
  91 H :    0.033879
  92 H :    0.032472
  93 H :    0.028260
  94 H :    0.043887
  95 H :    0.041645
  96 H :    0.034559
  97 H :    0.034707
  98 H :    0.034247
  99 H :    0.037221
 100 H :    0.048769
 101 H :    0.046877

  Mayer bond orders larger than 0.100000
B(  0-C ,  1-S ) :   1.2389 B(  0-C ,  2-C ) :   0.1188 B(  0-C ,  4-C ) :   1.4174
B(  0-C , 74-H ) :   0.9490 B(  1-S ,  2-C ) :   1.1941 B(  2-C ,  3-C ) :   1.3730
B(  2-C , 13-C ) :   1.0551 B(  3-C ,  4-C ) :   1.1915 B(  3-C , 10-C ) :   1.2039
B(  4-C ,  5-C ) :   1.1859 B(  5-C ,  6-C ) :   1.0753 B(  5-C ,  8-C ) :   1.5389
B(  6-C ,  7-N ) :   3.0405 B(  8-C ,  9-C ) :   1.1827 B(  8-C , 75-H ) :   0.9942
B(  9-C , 10-C ) :   1.5397 B(  9-C , 76-H ) :   0.9926 B( 10-C , 11-C ) :   1.0971
B( 11-C , 12-N ) :   3.0207 B( 13-C , 14-C ) :   1.5839 B( 13-C , 20-C ) :   1.0708
B( 14-C , 15-N ) :   0.9520 B( 14-C , 18-C ) :   1.1148 B( 15-N , 16-O ) :   1.5405
B( 15-N , 17-O ) :   1.4729 B( 16-O , 17-O ) :   0.2547 B( 18-C , 19-C ) :   1.5960
B( 18-C , 77-H ) :   1.0090 B( 19-C , 20-C ) :   1.1236 B( 19-C , 78-H ) :   1.0009
B( 20-C , 21-C ) :   1.4800 B( 21-C , 22-C ) :   1.1441 B( 21-C , 28-C ) :   1.0155
B( 22-C , 23-C ) :   1.5439 B( 22-C , 79-H ) :   1.0030 B( 23-C , 24-C ) :   1.1563
B( 23-C , 80-H ) :   1.0090 B( 24-C , 25-N ) :   0.9652 B( 24-C , 28-C ) :   1.4279
B( 25-N , 26-O ) :   1.4583 B( 25-N , 27-O ) :   1.5363 B( 26-O , 27-O ) :   0.2494
B( 26-O , 82-H ) :   0.1047 B( 28-C , 29-C ) :   1.2015 B( 29-C , 30-C ) :   1.5120
B( 29-C , 81-H ) :   0.9373 B( 30-C , 31-C ) :   1.1897 B( 30-C , 82-H ) :   0.9457
B( 31-C , 32-N ) :   1.1690 B( 31-C , 38-C ) :   1.2612 B( 32-N , 33-C ) :   0.9348
B( 32-N , 35-C ) :   1.0685 B( 33-C , 34-C ) :   1.1252 B( 33-C , 83-H ) :   0.9482
B( 33-C , 84-H ) :   0.9283 B( 34-C , 85-H ) :   0.9674 B( 34-C , 86-H ) :   0.9675
B( 34-C , 87-H ) :   0.9636 B( 35-C , 36-O ) :   2.0376 B( 35-C , 37-C ) :   0.9757
B( 36-O , 94-H ) :   0.1114 B( 37-C , 38-C ) :   1.3147 B( 37-C , 44-C ) :   1.2847
B( 38-C , 39-C ) :   0.9789 B( 39-C , 40-O ) :   2.0187 B( 39-C , 41-N ) :   1.0677
B( 40-O , 81-H ) :   0.1091 B( 41-N , 42-C ) :   0.9407 B( 41-N , 44-C ) :   1.1628
B( 42-C , 43-C ) :   1.1206 B( 42-C , 88-H ) :   0.9500 B( 42-C , 89-H ) :   0.9279
B( 43-C , 90-H ) :   0.9683 B( 43-C , 91-H ) :   0.9681 B( 43-C , 92-H ) :   0.9638
B( 44-C , 45-C ) :   1.1930 B( 45-C , 46-C ) :   1.5146 B( 45-C , 93-H ) :   0.9625
B( 46-C , 47-C ) :   1.1460 B( 46-C , 94-H ) :   0.9571 B( 47-C , 48-C ) :   1.4784
B( 47-C , 51-C ) :   1.0343 B( 48-C , 49-C ) :   1.1228 B( 48-C , 95-H ) :   1.0131
B( 49-C , 50-C ) :   1.1051 B( 49-C , 54-C ) :   1.3873 B( 50-C , 51-C ) :   1.6878
B( 50-C , 52-C ) :   1.0926 B( 51-C , 96-H ) :   1.0157 B( 52-C , 53-N ) :   2.9525
B( 54-C , 55-C ) :   1.1482 B( 54-C , 58-C ) :   1.1121 B( 55-C , 56-C ) :   1.5593
B( 55-C , 97-H ) :   0.9881 B( 56-C , 57-C ) :   1.0441 B( 56-C , 61-C ) :   1.0619
B( 57-C , 58-C ) :   1.6751 B( 57-C , 98-H ) :   1.0173 B( 58-C , 59-C ) :   1.0822
B( 59-C , 60-N ) :   2.9718 B( 61-C , 62-S ) :   1.1936 B( 61-C , 63-C ) :   0.1171
B( 61-C , 65-C ) :   1.3719 B( 62-S , 63-C ) :   1.2188 B( 63-C , 64-C ) :   1.4358
B( 63-C , 99-H ) :   0.9504 B( 64-C , 65-C ) :   1.1851 B( 64-C , 71-C ) :   1.1889
B( 65-C , 66-C ) :   1.2058 B( 66-C , 67-C ) :   1.0936 B( 66-C , 69-C ) :   1.5406
B( 67-C , 68-N ) :   3.0095 B( 69-C , 70-C ) :   1.1902 B( 69-C ,100-H ) :   0.9916
B( 70-C , 71-C ) :   1.5394 B( 70-C ,101-H ) :   0.9957 B( 71-C , 72-C ) :   1.0774
B( 72-C , 73-N ) :   3.0388

-----------------------------------------------------------------------------
         ABSORPTION SPECTRUM VIA TRANSITION ELECTRIC DIPOLE MOMENTS
-----------------------------------------------------------------------------
State   Energy  Wavelength   fosc         T2         TX        TY        TZ
        (cm-1)    (nm)                  (au**2)     (au)      (au)      (au)
-----------------------------------------------------------------------------
   0    5670.0   1763.7   0.430860690  25.01671  -1.62657  -4.63464   0.94398
   1   10727.7    932.2   0.275029885   8.44014  -1.23495  -2.62840   0.08095
   2   11840.5    844.6   0.028571508   0.79440  -0.31666  -0.18998   0.81119
   3   14618.5    684.1   0.137291135   3.09183   0.50270   1.53318  -0.69891
   4   17058.0    586.2   0.031923141   0.61610  -0.31454  -0.26628  -0.66803
   5   18191.5    549.7   0.134961392   2.44240  -0.41542  -0.83918  -1.25124
   6   19248.7    519.5   0.027733857   0.47433  -0.23366  -0.63647   0.12101
   7   20806.8    480.6   0.093509061   1.47953   0.65094   0.92773  -0.44173
   8   21318.7    469.1   0.151746900   2.34333  -0.92878  -1.19910   0.20707
   9   22063.5    453.2   0.138346854   2.06429   0.22307   1.40379  -0.20951
  10   22236.0    449.7   0.005485961   0.08122  -0.28252  -0.03741   0.00138
  11   22376.8    446.9   0.223717723   3.29138  -0.93896  -1.54842   0.11016
  12   22878.5    437.1   0.022907353   0.32963   0.05332   0.55433  -0.13963
  13   23017.5    434.5   0.010368381   0.14830  -0.07932  -0.37161  -0.06256
  14   24242.5    412.5   0.066981415   0.90960   0.09370   0.31735  -0.89449
  15   24324.8    411.1   0.035926993   0.48624   0.53857   0.42617  -0.12064
  16   24992.0    400.1   0.042012419   0.55342   0.36373   0.14222  -0.63316
  17   25569.7    391.1   0.190797219   2.45653   1.20941  -0.19837   0.97699
  18   25921.0    385.8   0.246583931   3.13176  -0.46945  -1.56465   0.68062
  19   26014.2    384.4   0.001984443   0.02511   0.09932  -0.09375  -0.08038
  20   26156.4    382.3   0.034927943   0.43961  -0.18607  -0.57108   0.28082
  21   26852.1    372.4   0.077309489   0.94783  -0.75640  -0.44080  -0.42589
  22   27299.3    366.3   0.059864100   0.72192  -0.77179  -0.16834  -0.31292
  23   27395.5    365.0   0.002894635   0.03478   0.16007  -0.03734   0.08814
  24   28454.8    351.4   0.219248172   2.53662   0.64256   1.27311  -0.70917
  25   28637.8    349.2   0.006117206   0.07032   0.09341   0.12549  -0.21412
  26   28968.6    345.2   0.153778935   1.74761   0.44696  -0.32753   1.20023
  27   29168.0    342.8   0.197555374   2.22976  -0.75488   0.02735  -1.28809
  28   30374.1    329.2   0.000824772   0.00894   0.03165  -0.08810   0.01329
  29   31142.2    321.1   0.040726510   0.43053   0.15128  -0.43378   0.46848
  30   31310.3    319.4   0.045638293   0.47986  -0.04397   0.68874  -0.05971
  31   31487.3    317.6   0.005387661   0.05633  -0.03299   0.20871  -0.10809
  32   31579.8    316.7   0.036448383   0.37997  -0.48308  -0.11517   0.36515
  33   31699.0    315.5   0.212137150   2.20316  -0.93244  -1.15018  -0.10398
  34   31920.9    313.3   0.019763669   0.20383   0.38940   0.21338   0.08161
  35   32021.1    312.3   0.025588117   0.26307   0.25854   0.43815   0.06523
  36   32169.5    310.9   0.003691530   0.03778  -0.14484   0.01967  -0.12811
  37   32456.7    308.1   0.092231977   0.93552   0.29464  -0.27330   0.87978
  38   32558.3    307.1   0.002081816   0.02105   0.05899  -0.10360  -0.08270
  39   32663.7    306.2   0.069557435   0.70106   0.61167   0.09061   0.56454
  40   33439.3    299.0   0.032252293   0.31753   0.36458   0.28198  -0.32418
  41   33575.2    297.8   0.007408484   0.07264  -0.06474   0.04692  -0.25739
  42   33722.7    296.5   0.014310327   0.13970  -0.00234  -0.28888   0.23715
  43   33922.2    294.8   0.020909333   0.20292   0.31235  -0.30357  -0.11492
  44   34100.6    293.2   0.043939474   0.42420  -0.52906   0.29995   0.23307
  45   34358.4    291.0   0.027254368   0.26114   0.06756  -0.25742   0.43625
  46   34402.8    290.7   0.088721881   0.84901  -0.46911  -0.69264   0.38626
  47   34637.5    288.7   0.026629614   0.25310  -0.22796  -0.37354  -0.24820
  48   34735.1    287.9   0.074091110   0.70222  -0.42061  -0.18709  -0.70021
  49   34928.2    286.3   0.107630375   1.01446   0.32593  -0.43615   0.84735
  50   34992.8    285.8   0.019490431   0.18337   0.29645   0.18047   0.25083
  51   35309.8    283.2   0.094448823   0.88060   0.57416   0.67960   0.29845
  52   35341.7    283.0   0.018573880   0.17302  -0.24944  -0.28323  -0.17487
  53   35451.1    282.1   0.109019486   1.01239  -0.82361   0.08691  -0.57141
  54   36477.2    274.1   0.011375080   0.10266  -0.14937  -0.15186  -0.23935
  55   36617.0    273.1   0.008076886   0.07262   0.16345   0.05017   0.20829
  56   36888.5    271.1   0.080305834   0.71669   0.32068   0.73634  -0.26769
  57   37419.5    267.2   0.001977087   0.01739   0.02699  -0.03483   0.12431
  58   37624.5    265.8   0.001261372   0.01104   0.01185   0.07435  -0.07327
  59   37717.7    265.1   0.031766966   0.27727  -0.31827  -0.41941  -0.00845
  60   38158.2    262.1   0.023867842   0.20592   0.28848   0.07082   0.34306
  61   38306.6    261.1   0.211307922   1.81601  -0.42173  -1.27847  -0.06050
  62   38588.9    259.1   0.156506776   1.33520  -0.33177   0.99284  -0.48927
  63   38614.7    259.0   0.029559747   0.25201  -0.15819  -0.09785  -0.46628
  64   38936.2    256.8   0.069248835   0.58551   0.11576   0.72173  -0.22630
  65   38976.4    256.6   0.064067871   0.54115  -0.36012   0.10268   0.63318
  66   39228.0    254.9   0.061250083   0.51403   0.58867   0.30080  -0.27753
  67   39546.8    252.9   0.211667206   1.76205  -0.17713  -0.84129  -1.01138
  68   39977.4    250.1   0.110689545   0.91152   0.61470   0.72588  -0.08222
  69   40171.3    248.9   0.009077017   0.07439   0.02366  -0.26899  -0.03835
  70   40300.5    248.1   0.053836431   0.43979  -0.25790  -0.51624   0.32675

FINAL SINGLE POINT ENERGY     -3941.464201114316

DIPOLE MOMENT
-------------
                                X             Y             Z
Electronic contribution:      0.35108     -11.00850      -7.07825
Nuclear contribution   :     -1.04183       9.64165       7.20122
                        -----------------------------------------
Total Dipole Moment    :     -0.69075      -1.36686       0.12297
                        -----------------------------------------
Magnitude (a.u.)       :      1.53641
Magnitude (Debye)      :      3.90525

Rotational constants in cm-1:     0.002230     0.000234     0.000220
Rotational constants in MHz :    66.868627     7.017474     6.601726

                             ****ORCA TERMINATED NORMALLY****
TOTAL RUN TIME: 0 days 0 hours 12 minutes 26 seconds 930 msec
