                         Program Version 4.2.0 -  RELEASE  -
|  1> # ORCA input file
|  2> # SCF done       -211.889206839506          0.000915658684
|  3> ! CAM-B3LYP def2-SVP def2/J RIJCOSX Grid4 TightSCF
|  4> %maxcore 5000
|  5> %tddft
|  6>     Mode sTDDFT
|  7>     Ethresh 5.0
|  8>     maxcore 5000
|  9> end
| 10>
| 11> %pal
| 12>   nprocs 6
| 13>   end
| 14> * xyz 0 1
| 15>    C        9.17718         2.61493         2.08300
| 16>    S        8.95208         2.46491         3.77517
| 17>    C        8.23516         4.03765         3.85916
| 18>    C        8.22417         4.64413         2.63182
| 19>    C        8.74382         3.81395         1.60624
| 20>    C        8.78193         4.24325         0.17144
| 21>    N       10.22220         4.45058        -0.19924
| 22>    O       10.59777         5.57321        -0.41631
| 23>    O       10.90127         3.45725        -0.24293
| 24>    C        7.94546         5.49591        -0.06150
| 25>    C        8.18231         6.54891         1.01777
| 26>    C        7.76426         6.04782         2.40637
| 27>    N        6.29250         6.12339         2.50868
| 28>    O        5.83407         7.02597         3.18619
| 29>    O        5.62466         5.31430         1.91866
| 30>    C        7.69722         4.60799         5.07981
| 31>    C        8.39286         5.28796         6.05537
| 32>    N        9.78650         5.47221         6.09080
| 33>    O       10.26038         6.03998         7.05696
| 34>    O       10.43497         5.06153         5.14038
| 35>    C        7.46553         5.82797         7.01932
| 36>    C        6.21125         5.53399         6.60315
| 37>    C        6.28774         4.74700         5.39399
| 38>    C        5.23750         4.16042         4.70841
| 39>    C        5.28195         2.99651         3.90340
| 40>    C        3.99848         2.60391         3.63863
| 41>    C        3.07871         3.53602         4.20431
| 42>    N        1.69962         3.36305         4.05904
| 43>    O        0.93671         4.03295         4.74587
| 44>    O        1.32000         2.51973         3.26255
| 45>    C        3.80954         4.57254         4.81103
| 46>    C        3.49743         5.88962         5.13994
| 47>    C        2.25533         6.47184         5.31585
| 48>    C        2.08742         7.84818         5.42606
| 49>    S        0.59452         8.54303         6.03109
| 50>    C        1.17356        10.18382         5.94823
| 51>    C        2.47221        10.20480         5.40208
| 52>    C        2.96515         8.90142         5.11395
| 53>    N        4.17895         9.01532         4.53466
| 54>    C        4.48255        10.35287         4.43654
| 55>    C        5.67700        10.79131         3.84528
| 56>    N        6.64702        11.15508         3.35351
| 57>    C        3.46049        11.11634         4.96992
| 58>    C        0.33647        11.21225         6.41232
| 59>    C        0.72960        12.51118         6.53731
| 60>    C        0.00168        13.61795         7.03794
| 61>    S        0.92751        15.09397         7.05716
| 62>    C       -0.34589        16.01980         7.78898
| 63>    C       -1.45576        15.19713         7.98783
| 64>    C       -1.25967        13.84162         7.59151
| 65>    C       -2.31266        12.83904         7.79901
| 66>    O       -2.32872        11.73928         7.27430
| 67>    C       -3.38939        13.24130         8.72798
| 68>    C       -4.25736        12.26414         9.20895
| 69>    C       -5.29073        12.60423        10.06197
| 70>    C       -5.48333        13.92919        10.42791
| 71>    C       -4.64094        14.91087         9.94050
| 72>    C       -3.58309        14.57429         9.09983
| 73>    C       -2.71810        15.64143         8.57066
| 74>    O       -3.06467        16.81258         8.61170
| 75>    C       -0.12687        17.39299         8.13269
| 76>    S       -1.43588        18.53949         8.23683
| 77>    C       -0.36370        19.79595         8.63113
| 78>    C        0.93552        19.37882         8.73614
| 79>    C        1.08875        18.01904         8.40583
| 80>    C        2.42583        17.34820         8.47763
| 81>    N        2.44247        16.42799         9.65315
| 82>    O        2.91958        15.33301         9.48522
| 83>    O        1.99795        16.84842        10.69308
| 84>    C        3.58259        18.34278         8.64565
| 85>    C        3.24941        19.43539         9.65202
| 86>    C        2.06187        20.26581         9.15552
| 87>    N        2.52458        21.09165         8.00044
| 88>    O        2.58534        20.55494         6.92113
| 89>    O        2.83659        22.23025         8.23874
| 90>    H        9.63421         1.81830         1.53101
| 91>    H        8.44379         3.41861        -0.46530
| 92>    H        6.89303         5.20339        -0.07251
| 93>    H        8.19342         5.92380        -1.03382
| 94>    H        7.63417         7.46148         0.77579
| 95>    H        9.24289         6.80090         1.05580
| 96>    H        8.15045         6.71982         3.18036
| 97>    H        7.76688         6.36455         7.89773
| 98>    H        5.30162         5.74564         7.13091
| 99>    H        6.16899         2.45553         3.64222
|100>    H        3.68815         1.72937         3.09765
|101>    H        4.35665         6.53557         5.25886
|102>    H        1.37896         5.84425         5.40197
|103>    H        4.74225         8.27709         4.13191
|104>    H        3.44919        12.18641         5.00803
|105>    H       -0.66476        10.92627         6.69908
|106>    H        1.74224        12.76266         6.25070
|107>    H       -4.10179        11.24175         8.89872
|108>    H       -5.95213        11.83809        10.43707
|109>    H       -6.29472        14.19559        11.08802
|110>    H       -4.78072        15.94930        10.20069
|111>    H       -0.73822        20.78259         8.82249
|112>    H        2.63049        16.73303         7.59916
|113>    H        3.78147        18.78260         7.66599
|114>    H        4.47855        17.80213         8.95669
|115>    H        4.11556        20.07956         9.81266
|116>    H        2.97091        18.99150        10.61062
|117>    H        1.74314        20.97608         9.92394
|118> *
|119>
|120>                          ****END OF INPUT****

CARTESIAN COORDINATES (ANGSTROEM)
---------------------------------
  C      9.177180    2.614930    2.083000
  S      8.952080    2.464910    3.775170
  C      8.235160    4.037650    3.859160
  C      8.224170    4.644130    2.631820
  C      8.743820    3.813950    1.606240
  C      8.781930    4.243250    0.171440
  N     10.222200    4.450580   -0.199240
  O     10.597770    5.573210   -0.416310
  O     10.901270    3.457250   -0.242930
  C      7.945460    5.495910   -0.061500
  C      8.182310    6.548910    1.017770
  C      7.764260    6.047820    2.406370
  N      6.292500    6.123390    2.508680
  O      5.834070    7.025970    3.186190
  O      5.624660    5.314300    1.918660
  C      7.697220    4.607990    5.079810
  C      8.392860    5.287960    6.055370
  N      9.786500    5.472210    6.090800
  O     10.260380    6.039980    7.056960
  O     10.434970    5.061530    5.140380
  C      7.465530    5.827970    7.019320
  C      6.211250    5.533990    6.603150
  C      6.287740    4.747000    5.393990
  C      5.237500    4.160420    4.708410
  C      5.281950    2.996510    3.903400
  C      3.998480    2.603910    3.638630
  C      3.078710    3.536020    4.204310
  N      1.699620    3.363050    4.059040
  O      0.936710    4.032950    4.745870
  O      1.320000    2.519730    3.262550
  C      3.809540    4.572540    4.811030
  C      3.497430    5.889620    5.139940
  C      2.255330    6.471840    5.315850
  C      2.087420    7.848180    5.426060
  S      0.594520    8.543030    6.031090
  C      1.173560   10.183820    5.948230
  C      2.472210   10.204800    5.402080
  C      2.965150    8.901420    5.113950
  N      4.178950    9.015320    4.534660
  C      4.482550   10.352870    4.436540
  C      5.677000   10.791310    3.845280
  N      6.647020   11.155080    3.353510
  C      3.460490   11.116340    4.969920
  C      0.336470   11.212250    6.412320
  C      0.729600   12.511180    6.537310
  C      0.001680   13.617950    7.037940
  S      0.927510   15.093970    7.057160
  C     -0.345890   16.019800    7.788980
  C     -1.455760   15.197130    7.987830
  C     -1.259670   13.841620    7.591510
  C     -2.312660   12.839040    7.799010
  O     -2.328720   11.739280    7.274300
  C     -3.389390   13.241300    8.727980
  C     -4.257360   12.264140    9.208950
  C     -5.290730   12.604230   10.061970
  C     -5.483330   13.929190   10.427910
  C     -4.640940   14.910870    9.940500
  C     -3.583090   14.574290    9.099830
  C     -2.718100   15.641430    8.570660
  O     -3.064670   16.812580    8.611700
  C     -0.126870   17.392990    8.132690
  S     -1.435880   18.539490    8.236830
  C     -0.363700   19.795950    8.631130
  C      0.935520   19.378820    8.736140
  C      1.088750   18.019040    8.405830
  C      2.425830   17.348200    8.477630
  N      2.442470   16.427990    9.653150
  O      2.919580   15.333010    9.485220
  O      1.997950   16.848420   10.693080
  C      3.582590   18.342780    8.645650
  C      3.249410   19.435390    9.652020
  C      2.061870   20.265810    9.155520
  N      2.524580   21.091650    8.000440
  O      2.585340   20.554940    6.921130
  O      2.836590   22.230250    8.238740
  H      9.634210    1.818300    1.531010
  H      8.443790    3.418610   -0.465300
  H      6.893030    5.203390   -0.072510
  H      8.193420    5.923800   -1.033820
  H      7.634170    7.461480    0.775790
  H      9.242890    6.800900    1.055800
  H      8.150450    6.719820    3.180360
  H      7.766880    6.364550    7.897730
  H      5.301620    5.745640    7.130910
  H      6.168990    2.455530    3.642220
  H      3.688150    1.729370    3.097650
  H      4.356650    6.535570    5.258860
  H      1.378960    5.844250    5.401970
  H      4.742250    8.277090    4.131910
  H      3.449190   12.186410    5.008030
  H     -0.664760   10.926270    6.699080
  H      1.742240   12.762660    6.250700
  H     -4.101790   11.241750    8.898720
  H     -5.952130   11.838090   10.437070
  H     -6.294720   14.195590   11.088020
  H     -4.780720   15.949300   10.200690
  H     -0.738220   20.782590    8.822490
  H      2.630490   16.733030    7.599160
  H      3.781470   18.782600    7.665990
  H      4.478550   17.802130    8.956690
  H      4.115560   20.079560    9.812660
  H      2.970910   18.991500   10.610620
  H      1.743140   20.976080    9.923940

 Total Charge           Charge          ....    0
 Multiplicity           Mult            ....    1
 Number of Electrons    NEL             ....  554
 Basis Dimension        Dim             .... 1206

ORBITAL ENERGIES
----------------

  NO   OCC          E(Eh)            E(eV)
   0   2.0000     -88.992748     -2421.6158
   1   2.0000     -88.988545     -2421.5014
   2   2.0000     -88.976912     -2421.1849
   3   2.0000     -88.971984     -2421.0508
   4   2.0000     -19.279667      -524.6264
   5   2.0000     -19.276126      -524.5301
   6   2.0000     -19.258150      -524.0409
   7   2.0000     -19.258039      -524.0379
   8   2.0000     -19.254161      -523.9324
   9   2.0000     -19.253971      -523.9272
  10   2.0000     -19.253461      -523.9133
  11   2.0000     -19.249942      -523.8176
  12   2.0000     -19.236207      -523.4438
  13   2.0000     -19.233220      -523.3625
  14   2.0000     -19.231699      -523.3211
  15   2.0000     -19.229155      -523.2519
  16   2.0000     -19.222916      -523.0821
  17   2.0000     -19.219137      -522.9793
  18   2.0000     -14.670703      -399.2101
  19   2.0000     -14.654316      -398.7642
  20   2.0000     -14.649992      -398.6465
  21   2.0000     -14.647937      -398.5906
  22   2.0000     -14.643058      -398.4579
  23   2.0000     -14.631134      -398.1334
  24   2.0000     -14.493791      -394.3961
  25   2.0000     -14.427419      -392.5900
  26   2.0000     -10.384633      -282.5802
  27   2.0000     -10.383850      -282.5589
  28   2.0000     -10.362929      -281.9896
  29   2.0000     -10.354486      -281.7599
  30   2.0000     -10.349819      -281.6329
  31   2.0000     -10.349528      -281.6250
  32   2.0000     -10.347297      -281.5643
  33   2.0000     -10.346798      -281.5507
  34   2.0000     -10.346496      -281.5425
  35   2.0000     -10.344387      -281.4851
  36   2.0000     -10.342702      -281.4392
  37   2.0000     -10.332025      -281.1487
  38   2.0000     -10.331799      -281.1425
  39   2.0000     -10.326566      -281.0002
  40   2.0000     -10.326175      -280.9895
  41   2.0000     -10.325276      -280.9651
  42   2.0000     -10.321511      -280.8626
  43   2.0000     -10.319493      -280.8077
  44   2.0000     -10.318117      -280.7702
  45   2.0000     -10.314631      -280.6754
  46   2.0000     -10.314586      -280.6742
  47   2.0000     -10.314024      -280.6588
  48   2.0000     -10.310965      -280.5756
  49   2.0000     -10.310128      -280.5528
  50   2.0000     -10.309650      -280.5398
  51   2.0000     -10.309283      -280.5299
  52   2.0000     -10.309150      -280.5262
  53   2.0000     -10.309039      -280.5232
  54   2.0000     -10.307087      -280.4701
  55   2.0000     -10.306646      -280.4581
  56   2.0000     -10.305906      -280.4380
  57   2.0000     -10.302573      -280.3473
  58   2.0000     -10.302420      -280.3431
  59   2.0000     -10.302049      -280.3330
  60   2.0000     -10.300588      -280.2933
  61   2.0000     -10.299797      -280.2717
  62   2.0000     -10.299548      -280.2649
  63   2.0000     -10.298216      -280.2287
  64   2.0000     -10.298117      -280.2260
  65   2.0000     -10.298059      -280.2244
  66   2.0000     -10.297725      -280.2153
  67   2.0000     -10.297018      -280.1961
  68   2.0000     -10.296538      -280.1830
  69   2.0000     -10.295683      -280.1598
  70   2.0000     -10.294971      -280.1404
  71   2.0000     -10.292459      -280.0721
  72   2.0000     -10.285770      -279.8900
  73   2.0000     -10.281759      -279.7809
  74   2.0000     -10.271662      -279.5061
  75   2.0000      -8.088464      -220.0983
  76   2.0000      -8.083503      -219.9633
  77   2.0000      -8.070780      -219.6171
  78   2.0000      -8.067294      -219.5222
  79   2.0000      -6.057662      -164.8374
  80   2.0000      -6.053387      -164.7210
  81   2.0000      -6.052739      -164.7034
  82   2.0000      -6.050673      -164.6472
  83   2.0000      -6.048604      -164.5909
  84   2.0000      -6.045721      -164.5124
  85   2.0000      -6.040023      -164.3574
  86   2.0000      -6.036533      -164.2624
  87   2.0000      -6.035341      -164.2300
  88   2.0000      -6.033408      -164.1774
  89   2.0000      -6.032182      -164.1440
  90   2.0000      -6.029699      -164.0765
  91   2.0000      -1.353673       -36.8353
  92   2.0000      -1.338453       -36.4212
  93   2.0000      -1.334793       -36.3216
  94   2.0000      -1.332968       -36.2719
  95   2.0000      -1.313673       -35.7469
  96   2.0000      -1.299656       -35.3654
  97   2.0000      -1.172637       -31.9091
  98   2.0000      -1.159347       -31.5474
  99   2.0000      -1.156039       -31.4574
 100   2.0000      -1.155007       -31.4293
 101   2.0000      -1.150370       -31.3032
 102   2.0000      -1.146007       -31.1844
 103   2.0000      -1.131558       -30.7913
 104   2.0000      -1.120526       -30.4911
 105   2.0000      -1.116264       -30.3751
 106   2.0000      -1.029870       -28.0242
 107   2.0000      -1.019948       -27.7542
 108   2.0000      -1.012265       -27.5451
 109   2.0000      -1.010788       -27.5050
 110   2.0000      -1.005895       -27.3718
 111   2.0000      -1.001732       -27.2585
 112   2.0000      -0.988613       -26.9015
 113   2.0000      -0.980813       -26.6893
 114   2.0000      -0.964870       -26.2554
 115   2.0000      -0.961147       -26.1541
 116   2.0000      -0.942888       -25.6573
 117   2.0000      -0.938990       -25.5512
 118   2.0000      -0.938341       -25.5336
 119   2.0000      -0.921591       -25.0778
 120   2.0000      -0.909795       -24.7568
 121   2.0000      -0.903203       -24.5774
 122   2.0000      -0.898550       -24.4508
 123   2.0000      -0.882356       -24.0101
 124   2.0000      -0.874055       -23.7843
 125   2.0000      -0.866751       -23.5855
 126   2.0000      -0.865267       -23.5451
 127   2.0000      -0.862352       -23.4658
 128   2.0000      -0.857857       -23.3435
 129   2.0000      -0.854906       -23.2632
 130   2.0000      -0.851508       -23.1707
 131   2.0000      -0.843913       -22.9640
 132   2.0000      -0.830027       -22.5862
 133   2.0000      -0.827552       -22.5188
 134   2.0000      -0.821892       -22.3648
 135   2.0000      -0.810369       -22.0513
 136   2.0000      -0.793882       -21.6026
 137   2.0000      -0.775933       -21.1142
 138   2.0000      -0.764925       -20.8147
 139   2.0000      -0.759919       -20.6784
 140   2.0000      -0.754049       -20.5187
 141   2.0000      -0.753071       -20.4921
 142   2.0000      -0.752601       -20.4793
 143   2.0000      -0.743259       -20.2251
 144   2.0000      -0.727772       -19.8037
 145   2.0000      -0.724576       -19.7167
 146   2.0000      -0.722394       -19.6573
 147   2.0000      -0.714203       -19.4344
 148   2.0000      -0.701829       -19.0977
 149   2.0000      -0.699288       -19.0286
 150   2.0000      -0.696981       -18.9658
 151   2.0000      -0.691379       -18.8134
 152   2.0000      -0.686560       -18.6822
 153   2.0000      -0.683774       -18.6064
 154   2.0000      -0.677672       -18.4404
 155   2.0000      -0.669469       -18.2172
 156   2.0000      -0.664557       -18.0835
 157   2.0000      -0.659038       -17.9333
 158   2.0000      -0.657251       -17.8847
 159   2.0000      -0.655066       -17.8252
 160   2.0000      -0.649409       -17.6713
 161   2.0000      -0.646139       -17.5823
 162   2.0000      -0.645969       -17.5777
 163   2.0000      -0.642314       -17.4783
 164   2.0000      -0.641279       -17.4501
 165   2.0000      -0.636074       -17.3084
 166   2.0000      -0.633921       -17.2499
 167   2.0000      -0.633646       -17.2424
 168   2.0000      -0.632668       -17.2158
 169   2.0000      -0.625832       -17.0298
 170   2.0000      -0.624894       -17.0042
 171   2.0000      -0.622703       -16.9446
 172   2.0000      -0.618628       -16.8337
 173   2.0000      -0.614617       -16.7246
 174   2.0000      -0.612993       -16.6804
 175   2.0000      -0.608843       -16.5675
 176   2.0000      -0.607678       -16.5358
 177   2.0000      -0.604837       -16.4584
 178   2.0000      -0.601386       -16.3645
 179   2.0000      -0.593724       -16.1561
 180   2.0000      -0.590010       -16.0550
 181   2.0000      -0.588281       -16.0079
 182   2.0000      -0.585929       -15.9439
 183   2.0000      -0.584260       -15.8985
 184   2.0000      -0.579288       -15.7632
 185   2.0000      -0.578265       -15.7354
 186   2.0000      -0.572829       -15.5875
 187   2.0000      -0.569407       -15.4944
 188   2.0000      -0.564766       -15.3681
 189   2.0000      -0.562121       -15.2961
 190   2.0000      -0.558855       -15.2072
 191   2.0000      -0.555243       -15.1089
 192   2.0000      -0.553677       -15.0663
 193   2.0000      -0.550458       -14.9787
 194   2.0000      -0.546943       -14.8831
 195   2.0000      -0.546581       -14.8732
 196   2.0000      -0.544466       -14.8157
 197   2.0000      -0.542891       -14.7728
 198   2.0000      -0.537476       -14.6255
 199   2.0000      -0.531994       -14.4763
 200   2.0000      -0.531630       -14.4664
 201   2.0000      -0.529692       -14.4136
 202   2.0000      -0.528912       -14.3924
 203   2.0000      -0.526428       -14.3248
 204   2.0000      -0.521586       -14.1931
 205   2.0000      -0.516987       -14.0679
 206   2.0000      -0.515820       -14.0362
 207   2.0000      -0.512328       -13.9412
 208   2.0000      -0.508411       -13.8346
 209   2.0000      -0.505229       -13.7480
 210   2.0000      -0.503853       -13.7105
 211   2.0000      -0.499874       -13.6023
 212   2.0000      -0.496295       -13.5049
 213   2.0000      -0.495327       -13.4785
 214   2.0000      -0.493342       -13.4245
 215   2.0000      -0.491037       -13.3618
 216   2.0000      -0.484276       -13.1778
 217   2.0000      -0.481796       -13.1103
 218   2.0000      -0.478579       -13.0228
 219   2.0000      -0.476149       -12.9567
 220   2.0000      -0.473566       -12.8864
 221   2.0000      -0.471076       -12.8186
 222   2.0000      -0.470493       -12.8028
 223   2.0000      -0.469319       -12.7708
 224   2.0000      -0.466244       -12.6871
 225   2.0000      -0.465670       -12.6715
 226   2.0000      -0.460345       -12.5266
 227   2.0000      -0.456478       -12.4214
 228   2.0000      -0.454204       -12.3595
 229   2.0000      -0.452653       -12.3173
 230   2.0000      -0.448013       -12.1910
 231   2.0000      -0.446318       -12.1449
 232   2.0000      -0.444946       -12.1076
 233   2.0000      -0.443279       -12.0622
 234   2.0000      -0.442851       -12.0506
 235   2.0000      -0.441547       -12.0151
 236   2.0000      -0.436598       -11.8804
 237   2.0000      -0.435303       -11.8452
 238   2.0000      -0.432796       -11.7770
 239   2.0000      -0.430937       -11.7264
 240   2.0000      -0.428806       -11.6684
 241   2.0000      -0.422875       -11.5070
 242   2.0000      -0.416550       -11.3349
 243   2.0000      -0.408599       -11.1185
 244   2.0000      -0.402094       -10.9415
 245   2.0000      -0.398474       -10.8430
 246   2.0000      -0.397362       -10.8128
 247   2.0000      -0.395577       -10.7642
 248   2.0000      -0.390984       -10.6392
 249   2.0000      -0.390490       -10.6258
 250   2.0000      -0.387760       -10.5515
 251   2.0000      -0.385064       -10.4781
 252   2.0000      -0.382486       -10.4080
 253   2.0000      -0.381115       -10.3707
 254   2.0000      -0.377177       -10.2635
 255   2.0000      -0.376077       -10.2336
 256   2.0000      -0.374405       -10.1881
 257   2.0000      -0.373611       -10.1665
 258   2.0000      -0.372692       -10.1415
 259   2.0000      -0.362651        -9.8682
 260   2.0000      -0.362339        -9.8597
 261   2.0000      -0.361408        -9.8344
 262   2.0000      -0.356849        -9.7104
 263   2.0000      -0.352674        -9.5967
 264   2.0000      -0.350475        -9.5369
 265   2.0000      -0.349205        -9.5023
 266   2.0000      -0.345552        -9.4030
 267   2.0000      -0.342778        -9.3275
 268   2.0000      -0.335118        -9.1190
 269   2.0000      -0.331144        -9.0109
 270   2.0000      -0.327074        -8.9001
 271   2.0000      -0.325627        -8.8608
 272   2.0000      -0.316052        -8.6002
 273   2.0000      -0.310826        -8.4580
 274   2.0000      -0.304554        -8.2873
 275   2.0000      -0.286694        -7.8013
 276   2.0000      -0.243747        -6.6327
 277   0.0000      -0.137679        -3.7464
 278   0.0000      -0.092460        -2.5160
 279   0.0000      -0.076686        -2.0867
 280   0.0000      -0.049529        -1.3478
 281   0.0000      -0.049210        -1.3391

MULLIKEN ATOMIC CHARGES
-----------------------
   0 C :   -0.098892
   1 S :    0.185068
   2 C :   -0.268203
   3 C :    0.060369
   4 C :   -0.032901
   5 C :    0.088973
   6 N :    0.214559
   7 O :   -0.223348
   8 O :   -0.222931
   9 C :    0.072349
  10 C :    0.058164
  11 C :    0.150105
  12 N :    0.218213
  13 O :   -0.271646
  14 O :   -0.184234
  15 C :   -0.026003
  16 C :    0.106580
  17 N :    0.263348
  18 O :   -0.241802
  19 O :   -0.246708
  20 C :   -0.007072
  21 C :    0.002087
  22 C :    0.022878
  23 C :    0.018446
  24 C :    0.009973
  25 C :    0.045545
  26 C :    0.044311
  27 N :    0.286459
  28 O :   -0.281754
  29 O :   -0.269564
  30 C :    0.099411
  31 C :   -0.121429
  32 C :    0.084725
  33 C :   -0.173007
  34 S :    0.206174
  35 C :   -0.139108
  36 C :    0.115868
  37 C :    0.108470
  38 N :   -0.009467
  39 C :   -0.105348
  40 C :   -0.142414
  41 N :    0.175734
  42 C :   -0.039931
  43 C :    0.066863
  44 C :    0.049376
  45 C :   -0.106985
  46 S :    0.140762
  47 C :   -0.142228
  48 C :    0.042717
  49 C :    0.026237
  50 C :    0.131957
  51 O :   -0.173213
  52 C :   -0.004074
  53 C :   -0.019711
  54 C :    0.049766
  55 C :    0.048305
  56 C :   -0.014985
  57 C :    0.003174
  58 C :    0.128772
  59 O :   -0.191060
  60 C :   -0.140178
  61 S :    0.238233
  62 C :   -0.101976
  63 C :   -0.028292
  64 C :    0.028449
  65 C :    0.064845
  66 N :    0.198273
  67 O :   -0.225310
  68 O :   -0.217466
  69 C :    0.064286
  70 C :    0.063257
  71 C :    0.114091
  72 N :    0.200195
  73 O :   -0.225412
  74 O :   -0.222873
  75 H :    0.033573
  76 H :    0.047207
  77 H :    0.036066
  78 H :    0.028062
  79 H :    0.027541
  80 H :    0.059094
  81 H :    0.031814
  82 H :   -0.008874
  83 H :   -0.005819
  84 H :   -0.026611
  85 H :    0.003322
  86 H :   -0.003714
  87 H :    0.027057
  88 H :    0.134607
  89 H :   -0.000788
  90 H :    0.010515
  91 H :   -0.025911
  92 H :    0.001952
  93 H :    0.001760
  94 H :    0.001511
  95 H :    0.001307
  96 H :    0.024812
  97 H :    0.044076
  98 H :    0.049980
  99 H :    0.026872
 100 H :    0.028012
 101 H :    0.051127
 102 H :    0.023612
Sum of atomic charges:   -0.0000000

LOEWDIN ATOMIC CHARGES
----------------------
   0 C :   -0.167357
   1 S :    0.490434
   2 C :   -0.164170
   3 C :   -0.075389
   4 C :   -0.077698
   5 C :    0.019477
   6 N :    0.273853
   7 O :   -0.188095
   8 O :   -0.192655
   9 C :   -0.034419
  10 C :   -0.017246
  11 C :    0.020860
  12 N :    0.293261
  13 O :   -0.221915
  14 O :   -0.157693
  15 C :   -0.041170
  16 C :   -0.036105
  17 N :    0.282183
  18 O :   -0.207153
  19 O :   -0.215645
  20 C :   -0.016568
  21 C :   -0.037472
  22 C :   -0.017072
  23 C :    0.062675
  24 C :   -0.070307
  25 C :    0.057519
  26 C :   -0.090263
  27 N :    0.287306
  28 O :   -0.240015
  29 O :   -0.232071
  30 C :    0.030468
  31 C :   -0.045327
  32 C :    0.029575
  33 C :   -0.200363
  34 S :    0.495049
  35 C :   -0.132232
  36 C :   -0.071248
  37 C :    0.014364
  38 N :    0.101621
  39 C :   -0.024089
  40 C :   -0.042975
  41 N :   -0.032519
  42 C :   -0.030720
  43 C :   -0.019044
  44 C :   -0.034377
  45 C :   -0.121090
  46 S :    0.503923
  47 C :   -0.140582
  48 C :   -0.089910
  49 C :   -0.085125
  50 C :    0.092562
  51 O :   -0.142097
  52 C :   -0.048398
  53 C :    0.016723
  54 C :   -0.002115
  55 C :   -0.001765
  56 C :    0.016388
  57 C :   -0.047685
  58 C :    0.087725
  59 O :   -0.161955
  60 C :   -0.200494
  61 S :    0.556940
  62 C :   -0.180545
  63 C :   -0.080821
  64 C :   -0.062899
  65 C :    0.004837
  66 N :    0.269282
  67 O :   -0.199420
  68 O :   -0.195880
  69 C :   -0.022379
  70 C :   -0.022153
  71 C :    0.019514
  72 N :    0.270741
  73 O :   -0.199797
  74 O :   -0.194038
  75 H :    0.030106
  76 H :    0.050335
  77 H :    0.035243
  78 H :    0.037831
  79 H :    0.036974
  80 H :    0.042507
  81 H :    0.047746
  82 H :    0.035038
  83 H :    0.028779
  84 H :    0.019324
  85 H :    0.038972
  86 H :    0.026586
  87 H :    0.037819
  88 H :    0.079857
  89 H :    0.035053
  90 H :    0.032823
  91 H :    0.027949
  92 H :    0.037573
  93 H :    0.035336
  94 H :    0.035163
  95 H :    0.037836
  96 H :    0.027850
  97 H :    0.025222
  98 H :    0.037312
  99 H :    0.036873
 100 H :    0.036143
 101 H :    0.038993
 102 H :    0.043997

  Mayer bond orders larger than 0.100000
B(  0-C ,  1-S ) :   1.1660 B(  0-C ,  4-C ) :   1.5913 B(  0-C , 75-H ) :   0.9623
B(  1-S ,  2-C ) :   1.1794 B(  2-C ,  3-C ) :   1.6023 B(  2-C , 15-C ) :   0.9667
B(  3-C ,  4-C ) :   1.2892 B(  3-C , 11-C ) :   0.9740 B(  4-C ,  5-C ) :   0.9745
B(  5-C ,  6-N ) :   0.8283 B(  5-C ,  9-C ) :   1.0747 B(  5-C , 76-H ) :   0.9097
B(  6-N ,  7-O ) :   1.5879 B(  6-N ,  8-O ) :   1.5781 B(  7-O ,  8-O ) :   0.2679
B(  9-C , 10-C ) :   1.0382 B(  9-C , 77-H ) :   0.9186 B(  9-C , 78-H ) :   0.9208
B( 10-C , 11-C ) :   1.0638 B( 10-C , 79-H ) :   0.9288 B( 10-C , 80-H ) :   0.9354
B( 11-C , 12-N ) :   0.8320 B( 11-C , 81-H ) :   0.8968 B( 12-N , 13-O ) :   1.4646
B( 12-N , 14-O ) :   1.6101 B( 13-O , 14-O ) :   0.2514 B( 13-O , 88-H ) :   0.1023
B( 15-C , 16-C ) :   1.5839 B( 15-C , 22-C ) :   1.1464 B( 16-C , 17-N ) :   0.9290
B( 16-C , 20-C ) :   1.1431 B( 17-N , 18-O ) :   1.5296 B( 17-N , 19-O ) :   1.5140
B( 18-O , 19-O ) :   0.2699 B( 20-C , 21-C ) :   1.5859 B( 20-C , 82-H ) :   1.0164
B( 21-C , 22-C ) :   1.1133 B( 21-C , 83-H ) :   1.0004 B( 22-C , 23-C ) :   1.4152
B( 23-C , 24-C ) :   1.2127 B( 23-C , 30-C ) :   0.9762 B( 24-C , 25-C ) :   1.4776
B( 24-C , 84-H ) :   1.0057 B( 25-C , 26-C ) :   1.1759 B( 25-C , 85-H ) :   1.0068
B( 26-C , 27-N ) :   0.9957 B( 26-C , 30-C ) :   1.3628 B( 27-N , 28-O ) :   1.4459
B( 27-N , 29-O ) :   1.5204 B( 28-O , 29-O ) :   0.2319 B( 30-C , 31-C ) :   1.3338
B( 31-C , 32-C ) :   1.4357 B( 31-C , 86-H ) :   0.9498 B( 32-C , 33-C ) :   1.2722
B( 32-C , 87-H ) :   0.9348 B( 33-C , 34-S ) :   1.0788 B( 33-C , 37-C ) :   1.2564
B( 34-S , 35-C ) :   1.1816 B( 35-C , 36-C ) :   1.2258 B( 35-C , 43-C ) :   1.1876
B( 36-C , 37-C ) :   1.2698 B( 36-C , 42-C ) :   1.1901 B( 37-C , 38-N ) :   1.2398
B( 38-N , 39-C ) :   1.2296 B( 38-N , 88-H ) :   0.8953 B( 39-C , 40-C ) :   1.0558
B( 39-C , 42-C ) :   1.5757 B( 40-C , 41-N ) :   3.0574 B( 42-C , 89-H ) :   1.0063
B( 43-C , 44-C ) :   1.6321 B( 43-C , 90-H ) :   0.9292 B( 44-C , 45-C ) :   1.1853
B( 44-C , 91-H ) :   0.9327 B( 45-C , 46-S ) :   1.1391 B( 45-C , 49-C ) :   1.4333
B( 46-S , 47-C ) :   1.1670 B( 47-C , 48-C ) :   1.4674 B( 47-C , 60-C ) :   1.1126
B( 48-C , 49-C ) :   1.2216 B( 48-C , 58-C ) :   0.9669 B( 49-C , 50-C ) :   0.9601
B( 50-C , 51-O ) :   2.1167 B( 50-C , 52-C ) :   0.9566 B( 51-O , 90-H ) :   0.1014
B( 52-C , 53-C ) :   1.3950 B( 52-C , 57-C ) :   1.3594 B( 53-C , 54-C ) :   1.3660
B( 53-C , 92-H ) :   0.9958 B( 54-C , 55-C ) :   1.3537 B( 54-C , 93-H ) :   0.9932
B( 55-C , 56-C ) :   1.3652 B( 55-C , 94-H ) :   0.9934 B( 56-C , 57-C ) :   1.3950
B( 56-C , 95-H ) :   0.9967 B( 57-C , 58-C ) :   0.9671 B( 58-C , 59-O ) :   2.0998
B( 60-C , 61-S ) :   1.1846 B( 60-C , 64-C ) :   1.4626 B( 61-S , 62-C ) :   1.1959
B( 62-C , 63-C ) :   1.5198 B( 62-C , 96-H ) :   0.9679 B( 63-C , 64-C ) :   1.3353
B( 63-C , 71-C ) :   0.9591 B( 64-C , 65-C ) :   0.9810 B( 65-C , 66-N ) :   0.8389
B( 65-C , 69-C ) :   1.0653 B( 65-C , 97-H ) :   0.8971 B( 66-N , 67-O ) :   1.5565
B( 66-N , 68-O ) :   1.5810 B( 67-O , 68-O ) :   0.2693 B( 69-C , 70-C ) :   1.0555
B( 69-C , 98-H ) :   0.9285 B( 69-C , 99-H ) :   0.9257 B( 70-C , 71-C ) :   1.0739
B( 70-C ,100-H ) :   0.9280 B( 70-C ,101-H ) :   0.9326 B( 71-C , 72-N ) :   0.8426
B( 71-C ,102-H ) :   0.9119 B( 72-N , 73-O ) :   1.5689 B( 72-N , 74-O ) :   1.5714
B( 73-O , 74-O ) :   0.2684

-----------------------------------------------------------------------------
         ABSORPTION SPECTRUM VIA TRANSITION ELECTRIC DIPOLE MOMENTS
-----------------------------------------------------------------------------
State   Energy  Wavelength   fosc         T2         TX        TY        TZ
        (cm-1)    (nm)                  (au**2)     (au)      (au)      (au)
-----------------------------------------------------------------------------
   0    7022.9   1423.9   0.375581895  17.60609   2.50906  -3.31216  -0.58337
   1   17413.7    574.3   0.967461029  18.29021  -1.44349   3.76050   1.43708
   2   17848.6    560.3   0.037309687   0.68817  -0.31972   0.62111   0.44741
   3   18610.9    537.3   0.004060342   0.07182  -0.18838   0.18514  -0.04538
   4   20293.6    492.8   0.006648700   0.10786  -0.09061   0.27886   0.14793
   5   22768.1    439.2   0.002569176   0.03715   0.09261  -0.09087   0.14252
   6   23122.3    432.5   0.003012299   0.04289  -0.09788  -0.02394   0.18093
   7   23387.0    427.6   0.241601667   3.40096  -0.89097  -1.61366   0.05686
   8   24279.8    411.9   0.046929457   0.63632  -0.34580  -0.66894   0.26317
   9   24830.1    402.7   0.077172249   1.02319  -0.70726  -0.61381  -0.38238
  10   25170.1    397.3   0.013358220   0.17472   0.33389  -0.00343   0.25145
  11   26330.4    379.8   0.040309168   0.50399  -0.38304   0.17622   0.57115
  12   27700.5    361.0   0.006704004   0.07968   0.10231   0.25948  -0.04335
  13   28058.7    356.4   0.115489131   1.35503  -1.05081  -0.29520  -0.40458
  14   28554.9    350.2   0.004045956   0.04665  -0.18895  -0.08397  -0.06241
  15   28805.8    347.2   0.367508945   4.20013   1.53327   1.28854   0.43461
  16   29012.7    344.7   0.112426000   1.27572   1.09248   0.18425   0.21967
  17   29808.8    335.5   0.117106356   1.29334  -0.93542  -0.63496  -0.12313
  18   29913.5    334.3   0.024511591   0.26976   0.21793   0.46437   0.08145
  19   30242.3    330.7   0.047688095   0.51912  -0.64912  -0.23258  -0.20899
  20   30793.2    324.7   0.015515692   0.16588  -0.36564  -0.12441  -0.12926
  21   30973.6    322.9   0.022130444   0.23522   0.19403  -0.42951  -0.11443
  22   31557.0    316.9   0.115490528   1.20483  -0.68661   0.73551   0.43865
  23   31983.9    312.7   0.036423438   0.37491   0.47035   0.21142   0.33012
  24   32615.4    306.6   0.163758173   1.65294   0.94305   0.84480  -0.22338
  25   32629.1    306.5   0.067622826   0.68228  -0.74838  -0.21982   0.27182
  26   32932.7    303.7   0.019270219   0.19264  -0.09252   0.36267  -0.22924
  27   33226.7    301.0   0.002090402   0.02071   0.11053   0.07682   0.05092
  28   33237.2    300.9   0.059165971   0.58603  -0.59341  -0.38173  -0.29697
  29   33292.4    300.4   0.076202101   0.75353   0.73551   0.41083   0.20921
  30   33430.7    299.1   0.033311965   0.32804  -0.50143  -0.18264  -0.20797
  31   34041.3    293.8   0.041982842   0.40601   0.57016   0.24514   0.14436
  32   34757.6    287.7   0.005333677   0.05052   0.21663   0.04977  -0.03334
  33   34877.0    286.7   0.008584799   0.08103  -0.26356  -0.09852   0.04315
  34   34977.5    285.9   0.000077034   0.00073   0.02622  -0.00584  -0.00181
  35   35088.0    285.0   0.011138212   0.10450   0.23625  -0.18360  -0.12241
  36   35282.7    283.4   0.042500353   0.39656  -0.50122  -0.16526   0.34354
  37   35318.6    283.1   0.001507191   0.01405  -0.00251   0.10793   0.04892
  38   35558.7    281.2   0.004935833   0.04570   0.14450   0.03201  -0.15424
  39   35869.3    278.8   0.002310556   0.02121   0.12934  -0.02381   0.06253
  40   36016.7    277.6   0.003072229   0.02808  -0.15232  -0.06246  -0.03130
  41   36223.2    276.1   0.016229251   0.14750   0.35333   0.03886  -0.14542
  42   36548.9    273.6   0.097027615   0.87397  -0.06669  -0.89684   0.25534
  43   36738.5    272.2   0.071342909   0.63930   0.41299   0.61362   0.30366
  44   36781.3    271.9   0.031554847   0.28243  -0.50007  -0.17989  -0.00061
  45   37184.3    268.9   0.063986293   0.56650   0.72855  -0.14928   0.11590
  46   37297.9    268.1   0.078489689   0.69279  -0.01591  -0.83105  -0.04350
  47   37641.0    265.7   0.020989440   0.18358   0.26211  -0.32727   0.08813
  48   37961.3    263.4   0.063472198   0.55045   0.02066  -0.73877  -0.06518
  49   38117.6    262.3   0.024367348   0.21045  -0.38817  -0.24436   0.00794
  50   38184.9    261.9   0.038478013   0.33174  -0.40340   0.28436   0.29690
  51   38227.8    261.6   0.023700154   0.20410   0.35688   0.26126   0.09209
  52   38332.8    260.9   0.068917033   0.59188   0.47151   0.51864   0.31712
  53   38380.3    260.6   0.012538054   0.10755   0.19087   0.03332   0.26459
  54   38503.3    259.7   0.032448433   0.27744   0.26180   0.37650   0.25913
  55   39020.6    256.3   0.068138776   0.57488  -0.60855  -0.36316  -0.26955
  56   39098.1    255.8   0.001912169   0.01610   0.12488  -0.00570  -0.02175
  57   39215.4    255.0   0.041810363   0.35100   0.02329   0.33726   0.48653
  58   39502.5    253.1   0.041408274   0.34509  -0.42612  -0.35777  -0.18846
  59   39841.0    251.0   0.002192672   0.01812  -0.01868  -0.02087  -0.13166
  60   39902.0    250.6   0.006200314   0.05116   0.20753   0.08993  -0.00145
  61   40044.4    249.7   0.024215314   0.19908   0.00504   0.21834  -0.38907

FINAL SINGLE POINT ENERGY     -4962.777129773375

DIPOLE MOMENT
-------------
                                X             Y             Z
Electronic contribution:     -5.18155      -6.17161       0.95593
Nuclear contribution   :      2.23293       7.74369       0.31915
                        -----------------------------------------
Total Dipole Moment    :     -2.94862       1.57207       1.27508
                        -----------------------------------------
Magnitude (a.u.)       :      3.57654
Magnitude (Debye)      :      9.09084

Rotational constants in cm-1:     0.001448     0.000302     0.000268
Rotational constants in MHz :    43.398404     9.047676     8.024190

                             ****ORCA TERMINATED NORMALLY****
TOTAL RUN TIME: 0 days 0 hours 13 minutes 49 seconds 37 msec
