                         Program Version 4.2.0 -  RELEASE  -
|  1> # ORCA input file
|  2> # SCF done       -149.606016820152          0.000306846173
|  3> ! CAM-B3LYP def2-SVP def2/J RIJCOSX Grid4 TightSCF
|  4> %maxcore 5000
|  5> %tddft
|  6>     Mode sTDDFT
|  7>     Ethresh 5.0
|  8>     maxcore 5000
|  9> end
| 10>
| 11> %pal
| 12>   nprocs 6
| 13>   end
| 14> * xyz 0 1
| 15>    C       -1.11236        -0.80899        -2.32757
| 16>    C       -1.01407         0.45301        -2.90921
| 17>    C        0.14181         0.61880        -3.63933
| 18>    S        0.58221         2.06672        -4.49094
| 19>    C        2.19317         1.59685        -5.17983
| 20>    S        1.12435        -0.80627        -3.61272
| 21>    C       -0.03728        -1.63325        -2.60112
| 22>    C        0.19167        -2.96153        -2.17224
| 23>    C       -0.61052        -3.73292        -1.35341
| 24>    C       -0.00382        -4.99709        -1.16583
| 25>    C        1.25129        -4.97264        -1.94256
| 26>    C        1.35288        -3.75273        -2.53444
| 27>    C        2.18074        -6.00699        -2.07417
| 28>    N        2.96140        -6.84175        -2.20313
| 29>    C       -0.46048        -6.05349        -0.40051
| 30>    C        0.18661        -7.29400        -0.17894
| 31>    C       -0.57828        -8.06242         0.67982
| 32>    C       -1.76262        -7.29121         1.02055
| 33>    C       -1.71102        -6.09582         0.37521
| 34>    C       -2.68991        -5.10021         0.44380
| 35>    N       -3.51029        -4.29863         0.51742
| 36>    C       -0.31515        -9.34985         1.20281
| 37>    S       -1.25680        -9.92394         2.55077
| 38>    C       -0.34681       -11.40536         2.62286
| 39>    C        0.62813       -11.43782         1.62327
| 40>    C        0.63962       -10.29423         0.82161
| 41>    C        1.55739       -10.14959        -0.34809
| 42>    C        2.08833       -11.51356        -0.78453
| 43>    C        1.03035       -12.38639        -1.44227
| 44>    O        1.20204       -13.54066        -1.73610
| 45>    O       -0.11477       -11.73497        -1.66489
| 46>    C       -1.15149       -12.48227        -2.28484
| 47>    C        2.66644       -12.25879         0.42256
| 48>    C        1.55607       -12.59395         1.41729
| 49>    C       -0.61266       -12.38825         3.59837
| 50>    C       -1.57613       -12.26801         4.55358
| 51>    C       -1.85530       -13.21217         5.56592
| 52>    C       -2.81132       -13.06757         6.55449
| 53>    C       -2.78951       -14.20119         7.40602
| 54>    C       -1.74027       -15.09015         6.86892
| 55>    C       -1.19413       -14.49103         5.77854
| 56>    C       -1.35337       -16.33640         7.37129
| 57>    N       -1.00666       -17.36345         7.75384
| 58>    C       -3.56792       -14.43806         8.51796
| 59>    C       -3.53322       -15.56701         9.38417
| 60>    C       -4.46607       -15.40625        10.38001
| 61>    C       -5.13682       -14.13627        10.16209
| 62>    C       -4.61185       -13.54650         9.05460
| 63>    C       -5.01466       -12.31092         8.54149
| 64>    N       -5.37264       -11.29067         8.15080
| 65>    C       -4.75548       -16.30384        11.46179
| 66>    C       -5.74244       -16.07325        12.46220
| 67>    C       -5.81829       -17.07531        13.37792
| 68>    S       -6.91264       -17.12622        14.73847
| 69>    C       -6.45080       -18.70581        15.50242
| 70>    S       -4.66943       -18.34299        13.03464
| 71>    C       -4.10496       -17.49979        11.66069
| 72>    H       -1.94181        -1.12410        -1.72146
| 73>    H       -1.74993         1.22967        -2.81028
| 74>    H        2.55310         2.45835        -5.73283
| 75>    H        2.07022         0.74664        -5.84472
| 76>    H        2.87720         1.35545        -4.37121
| 77>    H       -1.54085        -3.43158        -0.91625
| 78>    H        2.15008        -3.41176        -3.17026
| 79>    H        1.14399        -7.54501        -0.58253
| 80>    H       -2.54799        -7.63598         1.66813
| 81>    H        2.40439        -9.51206        -0.07655
| 82>    H        1.03137        -9.66960        -1.17423
| 83>    H        2.87707       -11.37272        -1.53139
| 84>    H       -1.96198       -11.78227        -2.47020
| 85>    H       -1.48448       -13.28668        -1.62573
| 86>    H       -0.79696       -12.91948        -3.22013
| 87>    H        3.41798       -11.62669         0.89848
| 88>    H        3.14601       -13.18042         0.09270
| 89>    H        1.99540       -12.89461         2.37166
| 90>    H        0.97986       -13.44612         1.04168
| 91>    H        0.00558       -13.27410         3.56525
| 92>    H       -2.18449       -11.37151         4.56303
| 93>    H       -3.46594       -12.22614         6.66907
| 94>    H       -0.40543       -14.89495         5.17121
| 95>    H       -2.87227       -16.40121         9.26141
| 96>    H       -5.91862       -13.73237        10.77749
| 97>    H       -6.37241       -15.20527        12.50748
| 98>    H       -7.09145       -18.82189        16.37058
| 99>    H       -5.40832       -18.67313        15.80592
|100>    H       -6.62137       -19.51516        14.79828
|101>    H       -3.32118       -17.93216        11.07232
|102> *
|103>
|104>                          ****END OF INPUT****

CARTESIAN COORDINATES (ANGSTROEM)
---------------------------------
  C     -1.112360   -0.808990   -2.327570
  C     -1.014070    0.453010   -2.909210
  C      0.141810    0.618800   -3.639330
  S      0.582210    2.066720   -4.490940
  C      2.193170    1.596850   -5.179830
  S      1.124350   -0.806270   -3.612720
  C     -0.037280   -1.633250   -2.601120
  C      0.191670   -2.961530   -2.172240
  C     -0.610520   -3.732920   -1.353410
  C     -0.003820   -4.997090   -1.165830
  C      1.251290   -4.972640   -1.942560
  C      1.352880   -3.752730   -2.534440
  C      2.180740   -6.006990   -2.074170
  N      2.961400   -6.841750   -2.203130
  C     -0.460480   -6.053490   -0.400510
  C      0.186610   -7.294000   -0.178940
  C     -0.578280   -8.062420    0.679820
  C     -1.762620   -7.291210    1.020550
  C     -1.711020   -6.095820    0.375210
  C     -2.689910   -5.100210    0.443800
  N     -3.510290   -4.298630    0.517420
  C     -0.315150   -9.349850    1.202810
  S     -1.256800   -9.923940    2.550770
  C     -0.346810  -11.405360    2.622860
  C      0.628130  -11.437820    1.623270
  C      0.639620  -10.294230    0.821610
  C      1.557390  -10.149590   -0.348090
  C      2.088330  -11.513560   -0.784530
  C      1.030350  -12.386390   -1.442270
  O      1.202040  -13.540660   -1.736100
  O     -0.114770  -11.734970   -1.664890
  C     -1.151490  -12.482270   -2.284840
  C      2.666440  -12.258790    0.422560
  C      1.556070  -12.593950    1.417290
  C     -0.612660  -12.388250    3.598370
  C     -1.576130  -12.268010    4.553580
  C     -1.855300  -13.212170    5.565920
  C     -2.811320  -13.067570    6.554490
  C     -2.789510  -14.201190    7.406020
  C     -1.740270  -15.090150    6.868920
  C     -1.194130  -14.491030    5.778540
  C     -1.353370  -16.336400    7.371290
  N     -1.006660  -17.363450    7.753840
  C     -3.567920  -14.438060    8.517960
  C     -3.533220  -15.567010    9.384170
  C     -4.466070  -15.406250   10.380010
  C     -5.136820  -14.136270   10.162090
  C     -4.611850  -13.546500    9.054600
  C     -5.014660  -12.310920    8.541490
  N     -5.372640  -11.290670    8.150800
  C     -4.755480  -16.303840   11.461790
  C     -5.742440  -16.073250   12.462200
  C     -5.818290  -17.075310   13.377920
  S     -6.912640  -17.126220   14.738470
  C     -6.450800  -18.705810   15.502420
  S     -4.669430  -18.342990   13.034640
  C     -4.104960  -17.499790   11.660690
  H     -1.941810   -1.124100   -1.721460
  H     -1.749930    1.229670   -2.810280
  H      2.553100    2.458350   -5.732830
  H      2.070220    0.746640   -5.844720
  H      2.877200    1.355450   -4.371210
  H     -1.540850   -3.431580   -0.916250
  H      2.150080   -3.411760   -3.170260
  H      1.143990   -7.545010   -0.582530
  H     -2.547990   -7.635980    1.668130
  H      2.404390   -9.512060   -0.076550
  H      1.031370   -9.669600   -1.174230
  H      2.877070  -11.372720   -1.531390
  H     -1.961980  -11.782270   -2.470200
  H     -1.484480  -13.286680   -1.625730
  H     -0.796960  -12.919480   -3.220130
  H      3.417980  -11.626690    0.898480
  H      3.146010  -13.180420    0.092700
  H      1.995400  -12.894610    2.371660
  H      0.979860  -13.446120    1.041680
  H      0.005580  -13.274100    3.565250
  H     -2.184490  -11.371510    4.563030
  H     -3.465940  -12.226140    6.669070
  H     -0.405430  -14.894950    5.171210
  H     -2.872270  -16.401210    9.261410
  H     -5.918620  -13.732370   10.777490
  H     -6.372410  -15.205270   12.507480
  H     -7.091450  -18.821890   16.370580
  H     -5.408320  -18.673130   15.805920
  H     -6.621370  -19.515160   14.798280
  H     -3.321180  -17.932160   11.072320

 Total Charge           Charge          ....    0
 Multiplicity           Mult            ....    1
 Number of Electrons    NEL             ....  430
 Basis Dimension        Dim             ....  968

ORBITAL ENERGIES
----------------

  NO   OCC          E(Eh)            E(eV)
   0   2.0000     -88.971932     -2421.0493
   1   2.0000     -88.964797     -2420.8552
   2   2.0000     -88.960481     -2420.7378
   3   2.0000     -88.947908     -2420.3956
   4   2.0000     -88.935519     -2420.0585
   5   2.0000     -19.261941      -524.1441
   6   2.0000     -19.201390      -522.4964
   7   2.0000     -14.407851      -392.0576
   8   2.0000     -14.405513      -391.9939
   9   2.0000     -14.402916      -391.9233
  10   2.0000     -14.400564      -391.8593
  11   2.0000     -10.394422      -282.8466
  12   2.0000     -10.333152      -281.1794
  13   2.0000     -10.322370      -280.8860
  14   2.0000     -10.319801      -280.8161
  15   2.0000     -10.313610      -280.6476
  16   2.0000     -10.313285      -280.6387
  17   2.0000     -10.312361      -280.6136
  18   2.0000     -10.311971      -280.6030
  19   2.0000     -10.311516      -280.5906
  20   2.0000     -10.311000      -280.5766
  21   2.0000     -10.310519      -280.5635
  22   2.0000     -10.309969      -280.5485
  23   2.0000     -10.309596      -280.5384
  24   2.0000     -10.308494      -280.5084
  25   2.0000     -10.308155      -280.4992
  26   2.0000     -10.307837      -280.4905
  27   2.0000     -10.307726      -280.4875
  28   2.0000     -10.305839      -280.4361
  29   2.0000     -10.305322      -280.4221
  30   2.0000     -10.305244      -280.4199
  31   2.0000     -10.304560      -280.4013
  32   2.0000     -10.303118      -280.3621
  33   2.0000     -10.301763      -280.3252
  34   2.0000     -10.301549      -280.3194
  35   2.0000     -10.301040      -280.3055
  36   2.0000     -10.299759      -280.2707
  37   2.0000     -10.299610      -280.2666
  38   2.0000     -10.298308      -280.2312
  39   2.0000     -10.295877      -280.1651
  40   2.0000     -10.293989      -280.1137
  41   2.0000     -10.293966      -280.1131
  42   2.0000     -10.289542      -279.9927
  43   2.0000     -10.287354      -279.9331
  44   2.0000     -10.286891      -279.9205
  45   2.0000     -10.286365      -279.9062
  46   2.0000     -10.286018      -279.8968
  47   2.0000     -10.285676      -279.8875
  48   2.0000     -10.280651      -279.7507
  49   2.0000     -10.279184      -279.7108
  50   2.0000     -10.274463      -279.5824
  51   2.0000     -10.273955      -279.5685
  52   2.0000     -10.273346      -279.5519
  53   2.0000     -10.273244      -279.5492
  54   2.0000     -10.272755      -279.5359
  55   2.0000     -10.270333      -279.4700
  56   2.0000     -10.269771      -279.4547
  57   2.0000      -8.066975      -219.5135
  58   2.0000      -8.060305      -219.3321
  59   2.0000      -8.055818      -219.2099
  60   2.0000      -8.043643      -218.8787
  61   2.0000      -8.031134      -218.5383
  62   2.0000      -6.036429      -164.2596
  63   2.0000      -6.032175      -164.1438
  64   2.0000      -6.029756      -164.0780
  65   2.0000      -6.029016      -164.0579
  66   2.0000      -6.025180      -163.9535
  67   2.0000      -6.024959      -163.9475
  68   2.0000      -6.022570      -163.8824
  69   2.0000      -6.021126      -163.8432
  70   2.0000      -6.017943      -163.7566
  71   2.0000      -6.013991      -163.6490
  72   2.0000      -6.009898      -163.5376
  73   2.0000      -6.003399      -163.3608
  74   2.0000      -6.001614      -163.3122
  75   2.0000      -5.997574      -163.2023
  76   2.0000      -5.990631      -163.0134
  77   2.0000      -1.192812       -32.4581
  78   2.0000      -1.095967       -29.8228
  79   2.0000      -1.012552       -27.5529
  80   2.0000      -1.008985       -27.4559
  81   2.0000      -1.003110       -27.2960
  82   2.0000      -0.996357       -27.1122
  83   2.0000      -0.995592       -27.0914
  84   2.0000      -0.992740       -27.0138
  85   2.0000      -0.988376       -26.8951
  86   2.0000      -0.979984       -26.6667
  87   2.0000      -0.979479       -26.6530
  88   2.0000      -0.972070       -26.4514
  89   2.0000      -0.970582       -26.4109
  90   2.0000      -0.932404       -25.3720
  91   2.0000      -0.913948       -24.8698
  92   2.0000      -0.910543       -24.7771
  93   2.0000      -0.901859       -24.5408
  94   2.0000      -0.881282       -23.9809
  95   2.0000      -0.869048       -23.6480
  96   2.0000      -0.865603       -23.5543
  97   2.0000      -0.851706       -23.1761
  98   2.0000      -0.850110       -23.1327
  99   2.0000      -0.844065       -22.9682
 100   2.0000      -0.840956       -22.8836
 101   2.0000      -0.839311       -22.8388
 102   2.0000      -0.833998       -22.6942
 103   2.0000      -0.829414       -22.5695
 104   2.0000      -0.817362       -22.2416
 105   2.0000      -0.810804       -22.0631
 106   2.0000      -0.806395       -21.9431
 107   2.0000      -0.791867       -21.5478
 108   2.0000      -0.774802       -21.0834
 109   2.0000      -0.759474       -20.6663
 110   2.0000      -0.747676       -20.3453
 111   2.0000      -0.738424       -20.0935
 112   2.0000      -0.736430       -20.0393
 113   2.0000      -0.730917       -19.8893
 114   2.0000      -0.710660       -19.3380
 115   2.0000      -0.709494       -19.3063
 116   2.0000      -0.701884       -19.0992
 117   2.0000      -0.692401       -18.8412
 118   2.0000      -0.689795       -18.7703
 119   2.0000      -0.673823       -18.3357
 120   2.0000      -0.667209       -18.1557
 121   2.0000      -0.663688       -18.0599
 122   2.0000      -0.645804       -17.5732
 123   2.0000      -0.640316       -17.4239
 124   2.0000      -0.637733       -17.3536
 125   2.0000      -0.635658       -17.2971
 126   2.0000      -0.628792       -17.1103
 127   2.0000      -0.625795       -17.0287
 128   2.0000      -0.623240       -16.9592
 129   2.0000      -0.618754       -16.8371
 130   2.0000      -0.618061       -16.8183
 131   2.0000      -0.605428       -16.4745
 132   2.0000      -0.585937       -15.9442
 133   2.0000      -0.579077       -15.7575
 134   2.0000      -0.572107       -15.5678
 135   2.0000      -0.567100       -15.4316
 136   2.0000      -0.563560       -15.3353
 137   2.0000      -0.554009       -15.0753
 138   2.0000      -0.549441       -14.9510
 139   2.0000      -0.548458       -14.9243
 140   2.0000      -0.539542       -14.6817
 141   2.0000      -0.538327       -14.6486
 142   2.0000      -0.531066       -14.4511
 143   2.0000      -0.530873       -14.4458
 144   2.0000      -0.527036       -14.3414
 145   2.0000      -0.525130       -14.2895
 146   2.0000      -0.522040       -14.2054
 147   2.0000      -0.520733       -14.1699
 148   2.0000      -0.518731       -14.1154
 149   2.0000      -0.514570       -14.0022
 150   2.0000      -0.514147       -13.9907
 151   2.0000      -0.513821       -13.9818
 152   2.0000      -0.507932       -13.8215
 153   2.0000      -0.507001       -13.7962
 154   2.0000      -0.505360       -13.7515
 155   2.0000      -0.502899       -13.6846
 156   2.0000      -0.500703       -13.6248
 157   2.0000      -0.496999       -13.5240
 158   2.0000      -0.492387       -13.3985
 159   2.0000      -0.490324       -13.3424
 160   2.0000      -0.489938       -13.3319
 161   2.0000      -0.488075       -13.2812
 162   2.0000      -0.487642       -13.2694
 163   2.0000      -0.485345       -13.2069
 164   2.0000      -0.480356       -13.0711
 165   2.0000      -0.477344       -12.9892
 166   2.0000      -0.474720       -12.9178
 167   2.0000      -0.474106       -12.9011
 168   2.0000      -0.470698       -12.8084
 169   2.0000      -0.468840       -12.7578
 170   2.0000      -0.466949       -12.7063
 171   2.0000      -0.464533       -12.6406
 172   2.0000      -0.463274       -12.6063
 173   2.0000      -0.459480       -12.5031
 174   2.0000      -0.455540       -12.3959
 175   2.0000      -0.449605       -12.2344
 176   2.0000      -0.445350       -12.1186
 177   2.0000      -0.440223       -11.9791
 178   2.0000      -0.439363       -11.9557
 179   2.0000      -0.436507       -11.8779
 180   2.0000      -0.435863       -11.8604
 181   2.0000      -0.433813       -11.8046
 182   2.0000      -0.432948       -11.7811
 183   2.0000      -0.430354       -11.7105
 184   2.0000      -0.429423       -11.6852
 185   2.0000      -0.428416       -11.6578
 186   2.0000      -0.427277       -11.6268
 187   2.0000      -0.424086       -11.5400
 188   2.0000      -0.420410       -11.4399
 189   2.0000      -0.413010       -11.2386
 190   2.0000      -0.411239       -11.1904
 191   2.0000      -0.410303       -11.1649
 192   2.0000      -0.406833       -11.0705
 193   2.0000      -0.404608       -11.0099
 194   2.0000      -0.399490       -10.8707
 195   2.0000      -0.396045       -10.7769
 196   2.0000      -0.395426       -10.7601
 197   2.0000      -0.390264       -10.6196
 198   2.0000      -0.389944       -10.6109
 199   2.0000      -0.379683       -10.3317
 200   2.0000      -0.377280       -10.2663
 201   2.0000      -0.365718        -9.9517
 202   2.0000      -0.350869        -9.5476
 203   2.0000      -0.346960        -9.4413
 204   2.0000      -0.337637        -9.1876
 205   2.0000      -0.335957        -9.1418
 206   2.0000      -0.321091        -8.7373
 207   2.0000      -0.316531        -8.6132
 208   2.0000      -0.315635        -8.5889
 209   2.0000      -0.310358        -8.4453
 210   2.0000      -0.297770        -8.1027
 211   2.0000      -0.287393        -7.8203
 212   2.0000      -0.265211        -7.2167
 213   2.0000      -0.256127        -6.9696
 214   2.0000      -0.234505        -6.3812
 215   0.0000      -0.122679        -3.3383
 216   0.0000      -0.106885        -2.9085
 217   0.0000      -0.035605        -0.9689
 218   0.0000      -0.005822        -0.1584
 219   0.0000       0.003997         0.1088

MULLIKEN ATOMIC CHARGES
-----------------------
   0 C :    0.028469
   1 C :    0.042862
   2 C :   -0.125967
   3 S :    0.021363
   4 C :   -0.100824
   5 S :    0.100641
   6 C :   -0.105411
   7 C :    0.161879
   8 C :   -0.158202
   9 C :    0.125020
  10 C :   -0.103339
  11 C :   -0.028187
  12 C :   -0.163233
  13 N :    0.118627
  14 C :    0.121239
  15 C :   -0.172073
  16 C :    0.107775
  17 C :   -0.030220
  18 C :   -0.094086
  19 C :   -0.171838
  20 N :    0.129750
  21 C :   -0.102436
  22 S :    0.107391
  23 C :   -0.076725
  24 C :   -0.083691
  25 C :   -0.075511
  26 C :    0.205023
  27 C :   -0.122600
  28 C :    0.165972
  29 O :   -0.215320
  30 O :   -0.291252
  31 C :    0.183491
  32 C :    0.078982
  33 C :    0.084164
  34 C :   -0.012186
  35 C :   -0.006141
  36 C :    0.124592
  37 C :   -0.119561
  38 C :    0.117452
  39 C :   -0.101543
  40 C :   -0.015808
  41 C :   -0.168283
  42 N :    0.128739
  43 C :    0.120682
  44 C :   -0.142298
  45 C :    0.139195
  46 C :   -0.025618
  47 C :   -0.095689
  48 C :   -0.176927
  49 N :    0.129423
  50 C :    0.082262
  51 C :    0.013963
  52 C :   -0.154390
  53 S :   -0.000223
  54 C :   -0.097213
  55 S :    0.114558
  56 C :   -0.126085
  57 H :    0.002656
  58 H :   -0.006544
  59 H :    0.073465
  60 H :    0.075265
  61 H :    0.074924
  62 H :   -0.008039
  63 H :    0.000744
  64 H :   -0.008572
  65 H :    0.006274
  66 H :    0.037320
  67 H :    0.029691
  68 H :    0.038506
  69 H :    0.037030
  70 H :    0.032812
  71 H :    0.035998
  72 H :    0.011854
  73 H :    0.022136
  74 H :    0.022140
  75 H :    0.036424
  76 H :   -0.010160
  77 H :   -0.001141
  78 H :   -0.000704
  79 H :   -0.005346
  80 H :   -0.011329
  81 H :   -0.005879
  82 H :   -0.018114
  83 H :    0.069498
  84 H :    0.071249
  85 H :    0.071873
  86 H :    0.035334
Sum of atomic charges:   -0.0000000

LOEWDIN ATOMIC CHARGES
----------------------
   0 C :   -0.020534
   1 C :   -0.087771
   2 C :   -0.309473
   3 S :    0.314375
   4 C :   -0.159987
   5 S :    0.425149
   6 C :   -0.185050
   7 C :   -0.021444
   8 C :   -0.050050
   9 C :    0.034560
  10 C :   -0.077205
  11 C :    0.038025
  12 C :   -0.026486
  13 N :   -0.074508
  14 C :    0.027634
  15 C :   -0.043329
  16 C :   -0.031006
  17 C :    0.039516
  18 C :   -0.079101
  19 C :   -0.027892
  20 N :   -0.069108
  21 C :   -0.158910
  22 S :    0.441027
  23 C :   -0.168812
  24 C :   -0.045779
  25 C :   -0.035488
  26 C :   -0.020820
  27 C :   -0.052144
  28 C :    0.087747
  29 O :   -0.178889
  30 O :   -0.081809
  31 C :    0.082055
  32 C :   -0.010998
  33 C :   -0.031213
  34 C :   -0.023474
  35 C :   -0.021212
  36 C :   -0.015397
  37 C :   -0.032655
  38 C :    0.031703
  39 C :   -0.076257
  40 C :    0.049126
  41 C :   -0.028536
  42 N :   -0.068828
  43 C :    0.036076
  44 C :   -0.037761
  45 C :   -0.001244
  46 C :    0.049310
  47 C :   -0.082371
  48 C :   -0.030245
  49 N :   -0.070062
  50 C :   -0.062007
  51 C :   -0.093792
  52 C :   -0.314292
  53 S :    0.291154
  54 C :   -0.161342
  55 S :    0.443780
  56 C :   -0.181830
  57 H :    0.039283
  58 H :    0.033450
  59 H :    0.038191
  60 H :    0.026131
  61 H :    0.026378
  62 H :    0.030952
  63 H :    0.030316
  64 H :    0.029498
  65 H :    0.031396
  66 H :    0.040866
  67 H :    0.037937
  68 H :    0.050606
  69 H :    0.026954
  70 H :    0.023536
  71 H :    0.024366
  72 H :    0.026907
  73 H :    0.033123
  74 H :    0.034861
  75 H :    0.037796
  76 H :    0.032496
  77 H :    0.029324
  78 H :    0.034414
  79 H :    0.033558
  80 H :    0.030277
  81 H :    0.034433
  82 H :    0.027307
  83 H :    0.036680
  84 H :    0.024433
  85 H :    0.024398
  86 H :    0.028011

  Mayer bond orders larger than 0.100000
B(  0-C ,  1-C ) :   1.3047 B(  0-C ,  6-C ) :   1.4849 B(  0-C , 57-H ) :   0.9966
B(  1-C ,  2-C ) :   1.5079 B(  1-C , 58-H ) :   0.9925 B(  2-C ,  3-S ) :   1.0426
B(  2-C ,  5-S ) :   1.1307 B(  3-S ,  4-C ) :   1.0140 B(  4-C , 59-H ) :   0.9723
B(  4-C , 60-H ) :   0.9641 B(  4-C , 61-H ) :   0.9645 B(  5-S ,  6-C ) :   1.0823
B(  6-C ,  7-C ) :   1.1310 B(  7-C ,  8-C ) :   1.5288 B(  7-C , 11-C ) :   1.0428
B(  8-C ,  9-C ) :   1.1627 B(  8-C , 62-H ) :   1.0031 B(  9-C , 10-C ) :   1.1043
B(  9-C , 14-C ) :   1.3550 B( 10-C , 11-C ) :   1.6777 B( 10-C , 12-C ) :   1.0885
B( 11-C , 63-H ) :   1.0109 B( 12-C , 13-N ) :   2.9550 B( 14-C , 15-C ) :   1.1413
B( 14-C , 18-C ) :   1.1172 B( 15-C , 16-C ) :   1.5128 B( 15-C , 64-H ) :   0.9956
B( 16-C , 17-C ) :   1.0431 B( 16-C , 21-C ) :   1.1226 B( 17-C , 18-C ) :   1.6703
B( 17-C , 65-H ) :   1.0117 B( 18-C , 19-C ) :   1.0813 B( 19-C , 20-N ) :   2.9671
B( 21-C , 22-S ) :   1.1177 B( 21-C , 23-C ) :   0.1074 B( 21-C , 25-C ) :   1.4715
B( 22-S , 23-C ) :   1.1034 B( 23-C , 24-C ) :   1.4331 B( 23-C , 34-C ) :   1.1920
B( 24-C , 25-C ) :   1.3493 B( 24-C , 33-C ) :   1.0503 B( 25-C , 26-C ) :   1.0491
B( 26-C , 27-C ) :   1.0449 B( 26-C , 66-H ) :   0.8883 B( 26-C , 67-H ) :   0.8927
B( 27-C , 28-C ) :   0.9213 B( 27-C , 32-C ) :   1.0534 B( 27-C , 68-H ) :   0.8889
B( 28-C , 29-O ) :   2.1012 B( 28-C , 30-O ) :   1.2166 B( 30-O , 31-C ) :   0.9206
B( 31-C , 69-H ) :   0.9811 B( 31-C , 70-H ) :   0.9778 B( 31-C , 71-H ) :   0.9751
B( 32-C , 33-C ) :   1.0959 B( 32-C , 72-H ) :   0.9472 B( 32-C , 73-H ) :   0.9256
B( 33-C , 74-H ) :   0.9100 B( 33-C , 75-H ) :   0.9020 B( 34-C , 35-C ) :   1.5800
B( 34-C , 76-H ) :   0.9705 B( 35-C , 36-C ) :   1.1460 B( 35-C , 77-H ) :   0.9744
B( 36-C , 37-C ) :   1.4892 B( 36-C , 40-C ) :   1.0426 B( 37-C , 38-C ) :   1.1347
B( 37-C , 78-H ) :   1.0092 B( 38-C , 39-C ) :   1.1022 B( 38-C , 43-C ) :   1.3884
B( 39-C , 40-C ) :   1.6849 B( 39-C , 41-C ) :   1.0882 B( 40-C , 79-H ) :   1.0158
B( 41-C , 42-N ) :   2.9674 B( 43-C , 44-C ) :   1.1245 B( 43-C , 47-C ) :   1.1078
B( 44-C , 45-C ) :   1.5739 B( 44-C , 80-H ) :   1.0010 B( 45-C , 46-C ) :   1.0605
B( 45-C , 50-C ) :   1.0450 B( 46-C , 47-C ) :   1.6596 B( 46-C , 81-H ) :   1.0186
B( 47-C , 48-C ) :   1.0876 B( 48-C , 49-N ) :   2.9628 B( 50-C , 51-C ) :   1.2389
B( 50-C , 56-C ) :   1.5385 B( 51-C , 52-C ) :   1.5758 B( 51-C , 82-H ) :   0.9906
B( 52-C , 53-S ) :   1.0174 B( 52-C , 55-S ) :   1.1283 B( 53-S , 54-C ) :   1.0141
B( 54-C , 83-H ) :   0.9727 B( 54-C , 84-H ) :   0.9656 B( 54-C , 85-H ) :   0.9652
B( 55-S , 56-C ) :   1.1514 B( 56-C , 86-H ) :   0.9623

-----------------------------------------------------------------------------
         ABSORPTION SPECTRUM VIA TRANSITION ELECTRIC DIPOLE MOMENTS
-----------------------------------------------------------------------------
State   Energy  Wavelength   fosc         T2         TX        TY        TZ
        (cm-1)    (nm)                  (au**2)     (au)      (au)      (au)
-----------------------------------------------------------------------------
   0   10495.0    952.8   1.336252459  41.91624  -1.82824  -4.49272   4.28827
   1   13497.6    740.9   0.127030819   3.09834  -0.96084   0.55863   1.36494
   2   15468.9    646.5   0.002751211   0.05855   0.12530   0.17307  -0.11358
   3   15942.9    627.2   0.002330100   0.04812   0.07855   0.02381  -0.20342
   4   20231.7    494.3   0.012414962   0.20202  -0.30380   0.29842   0.14374
   5   20967.8    476.9   0.002119972   0.03329   0.03238  -0.16991   0.05802
   6   22040.4    453.7   0.412976526   6.16852  -0.15534  -1.98609   1.48319
   7   24286.5    411.8   0.293449136   3.97781   0.13916   1.78793  -0.87278
   8   24742.5    404.2   0.217890347   2.89914  -0.73312  -0.65092   1.39211
   9   25422.2    393.4   0.004372921   0.05663  -0.09216  -0.15200   0.15821
  10   26643.3    375.3   0.057094231   0.70547   0.52536   0.09458  -0.64848
  11   27959.0    357.7   0.526102097   6.19474   1.00785   0.96846  -2.05939
  12   28578.4    349.9   0.197606351   2.27635  -0.25266   1.37101  -0.57692
  13   29623.8    337.6   0.184341604   2.04860  -0.36111  -1.11154   0.82624
  14   30417.4    328.8   0.005947509   0.06437  -0.17141   0.06273   0.17622
  15   30724.6    325.5   0.006411076   0.06869  -0.05544  -0.24681   0.06858
  16   31092.0    321.6   0.008425092   0.08921  -0.23841  -0.10169   0.14842
  17   32088.8    311.6   0.017681792   0.18140   0.01217   0.42110  -0.06272
  18   33966.5    294.4   0.028101296   0.27237  -0.41054   0.06159   0.31627
  19   35088.4    285.0   0.071718613   0.67289  -0.02672  -0.76954   0.28282
  20   35208.8    284.0   0.311641113   2.91393   0.46945  -1.61508   0.29166
  21   35444.1    282.1   0.014719883   0.13672  -0.18990  -0.28440   0.14062
  22   35978.1    277.9   0.009303117   0.08513  -0.17048   0.19790  -0.13000
  23   36110.3    276.9   0.129939217   1.18463   0.74344   0.21527  -0.76524
  24   36252.3    275.8   0.074142196   0.67330  -0.44570  -0.29012   0.62488
  25   36438.0    274.4   0.142405463   1.28661  -0.17282   1.09034  -0.26057
  26   37560.1    266.2   0.011385897   0.09980   0.21176   0.04368  -0.23032
  27   38210.9    261.7   0.008535070   0.07354   0.06850  -0.26208  -0.01252
  28   38569.3    259.3   0.006040611   0.05156  -0.04659   0.21299  -0.06345
  29   39962.9    250.2   0.003295437   0.02715  -0.11556   0.01165   0.11687

FINAL SINGLE POINT ENERGY     -4127.871685999327

DIPOLE MOMENT
-------------
                                X             Y             Z
Electronic contribution:    -12.74861      11.79666      14.26139
Nuclear contribution   :     13.62307     -11.22420     -14.94702
                        -----------------------------------------
Total Dipole Moment    :      0.87446       0.57247      -0.68563
                        -----------------------------------------
Magnitude (a.u.)       :      1.24999
Magnitude (Debye)      :      3.17723

Rotational constants in cm-1:     0.002521     0.000284     0.000260
Rotational constants in MHz :    75.584415     8.527544     7.801076

                             ****ORCA TERMINATED NORMALLY****
TOTAL RUN TIME: 0 days 0 hours 7 minutes 20 seconds 576 msec
