                         Program Version 4.2.0 -  RELEASE  -
|  1> # ORCA input file
|  2> # SCF done       -139.823032488971          0.000871937109
|  3> ! CAM-B3LYP def2-SVP def2/J RIJCOSX Grid4 TightSCF
|  4> %maxcore 5000
|  5> %tddft
|  6>     Mode sTDDFT
|  7>     Ethresh 5.0
|  8>     maxcore 5000
|  9> end
| 10>
| 11> %pal
| 12>   nprocs 6
| 13>   end
| 14> * xyz 0 1
| 15>    C        0.60250        -0.17175         1.12679
| 16>    C        0.67965         1.17801         0.80411
| 17>    C        0.50681         1.41945        -0.54401
| 18>    S        0.54099         2.98830        -1.27905
| 19>    C        0.21457         2.57691        -3.01492
| 20>    S        0.24906        -0.04519        -1.42830
| 21>    C        0.37121        -0.99361         0.03571
| 22>    C        0.23801        -2.39765         0.00459
| 23>    C        0.29359        -3.27205         1.07482
| 24>    C        0.12542        -4.59356         0.60428
| 25>    C       -0.05119        -4.49242        -0.86083
| 26>    C        0.01494        -3.18059        -1.20112
| 27>    C       -0.28166        -5.54044        -1.75870
| 28>    N       -0.48136        -6.36758        -2.52997
| 29>    C        0.12995        -5.75965         1.34739
| 30>    C        0.04275        -7.09413         0.88268
| 31>    C        0.10354        -7.96048         1.96509
| 32>    C        0.21945        -7.15401         3.16812
| 33>    C        0.24428        -5.84154         2.81529
| 34>    C        0.34418        -4.77688         3.71595
| 35>    N        0.42688        -3.92706         4.48555
| 36>    C        0.07810        -9.37400         1.94420
| 37>    C        0.01878       -10.20799         0.83920
| 38>    C        0.01873       -11.55696         1.27093
| 39>    C        0.08559       -11.51737         2.74685
| 40>    C        0.12586       -10.21703         3.13132
| 41>    C        0.14390       -12.60524         3.62533
| 42>    N        0.21409       -13.46377         4.38501
| 43>    C       -0.02731       -12.70033         0.49769
| 44>    C       -0.09435       -14.04465         0.94194
| 45>    C       -0.10822       -14.88902        -0.15509
| 46>    C       -0.04350       -14.06132        -1.35040
| 47>    C       -0.00350       -12.75611        -0.97726
| 48>    C        0.08252       -11.67574        -1.86213
| 49>    N        0.16058       -10.82033        -2.62460
| 50>    C       -0.16140       -16.30412        -0.14651
| 51>    C       -0.27834       -17.13286         0.95523
| 52>    C       -0.25943       -18.48729         0.52801
| 53>    C       -0.12606       -18.45030        -0.94176
| 54>    C       -0.07935       -17.14892        -1.32830
| 55>    C       -0.07303       -19.54488        -1.81038
| 56>    N       -0.02719       -20.42069        -2.55325
| 57>    C       -0.33173       -19.62082         1.30630
| 58>    C       -0.21406       -20.97438         0.88416
| 59>    C       -0.30167       -21.80179         1.97772
| 60>    C       -0.50417       -20.96832         3.15412
| 61>    C       -0.52502       -19.66622         2.76987
| 62>    C       -0.74030       -18.58157         3.62648
| 63>    N       -0.92924       -17.72166         4.36433
| 64>    C       -0.20944       -23.23178         1.99995
| 65>    C       -0.22626       -24.02853         3.17961
| 66>    C       -0.11490       -25.35991         2.92561
| 67>    S       -0.09753       -26.62558         4.12692
| 68>    C        0.11819       -28.09676         3.08716
| 69>    S        0.00867       -25.67513         1.21208
| 70>    C       -0.08490       -24.00772         0.86773
| 71>    H        0.71013        -0.55520         2.12480
| 72>    H        0.85322         1.96698         1.51253
| 73>    H        0.21300         3.51663        -3.55757
| 74>    H       -0.75459         2.09314        -3.09712
| 75>    H        1.00078         1.92737        -3.38905
| 76>    H        0.44898        -3.00163         2.09935
| 77>    H       -0.08000        -2.76650        -2.18861
| 78>    H       -0.04481        -7.38119        -0.14663
| 79>    H        0.27906        -7.53458         4.17048
| 80>    H       -0.02739        -9.89199        -0.18422
| 81>    H        0.18392        -9.86354         4.14359
| 82>    H       -0.13112       -14.35000         1.96871
| 83>    H       -0.03339       -14.42646        -2.36032
| 84>    H       -0.36026       -16.81591         1.97604
| 85>    H        0.01100       -16.79665        -2.33891
| 86>    H       -0.05789       -21.27865        -0.13099
| 87>    H       -0.62715       -21.33056         4.15734
| 88>    H       -0.30971       -23.63859         4.17624
| 89>    H        0.14782       -28.94453         3.76396
| 90>    H        1.05240       -28.02188         2.53804
| 91>    H       -0.72290       -28.18931         2.40603
| 92>    H       -0.04898       -23.68414        -0.15293
| 93> *
| 94>
| 95>                          ****END OF INPUT****

CARTESIAN COORDINATES (ANGSTROEM)
---------------------------------
  C      0.602500   -0.171750    1.126790
  C      0.679650    1.178010    0.804110
  C      0.506810    1.419450   -0.544010
  S      0.540990    2.988300   -1.279050
  C      0.214570    2.576910   -3.014920
  S      0.249060   -0.045190   -1.428300
  C      0.371210   -0.993610    0.035710
  C      0.238010   -2.397650    0.004590
  C      0.293590   -3.272050    1.074820
  C      0.125420   -4.593560    0.604280
  C     -0.051190   -4.492420   -0.860830
  C      0.014940   -3.180590   -1.201120
  C     -0.281660   -5.540440   -1.758700
  N     -0.481360   -6.367580   -2.529970
  C      0.129950   -5.759650    1.347390
  C      0.042750   -7.094130    0.882680
  C      0.103540   -7.960480    1.965090
  C      0.219450   -7.154010    3.168120
  C      0.244280   -5.841540    2.815290
  C      0.344180   -4.776880    3.715950
  N      0.426880   -3.927060    4.485550
  C      0.078100   -9.374000    1.944200
  C      0.018780  -10.207990    0.839200
  C      0.018730  -11.556960    1.270930
  C      0.085590  -11.517370    2.746850
  C      0.125860  -10.217030    3.131320
  C      0.143900  -12.605240    3.625330
  N      0.214090  -13.463770    4.385010
  C     -0.027310  -12.700330    0.497690
  C     -0.094350  -14.044650    0.941940
  C     -0.108220  -14.889020   -0.155090
  C     -0.043500  -14.061320   -1.350400
  C     -0.003500  -12.756110   -0.977260
  C      0.082520  -11.675740   -1.862130
  N      0.160580  -10.820330   -2.624600
  C     -0.161400  -16.304120   -0.146510
  C     -0.278340  -17.132860    0.955230
  C     -0.259430  -18.487290    0.528010
  C     -0.126060  -18.450300   -0.941760
  C     -0.079350  -17.148920   -1.328300
  C     -0.073030  -19.544880   -1.810380
  N     -0.027190  -20.420690   -2.553250
  C     -0.331730  -19.620820    1.306300
  C     -0.214060  -20.974380    0.884160
  C     -0.301670  -21.801790    1.977720
  C     -0.504170  -20.968320    3.154120
  C     -0.525020  -19.666220    2.769870
  C     -0.740300  -18.581570    3.626480
  N     -0.929240  -17.721660    4.364330
  C     -0.209440  -23.231780    1.999950
  C     -0.226260  -24.028530    3.179610
  C     -0.114900  -25.359910    2.925610
  S     -0.097530  -26.625580    4.126920
  C      0.118190  -28.096760    3.087160
  S      0.008670  -25.675130    1.212080
  C     -0.084900  -24.007720    0.867730
  H      0.710130   -0.555200    2.124800
  H      0.853220    1.966980    1.512530
  H      0.213000    3.516630   -3.557570
  H     -0.754590    2.093140   -3.097120
  H      1.000780    1.927370   -3.389050
  H      0.448980   -3.001630    2.099350
  H     -0.080000   -2.766500   -2.188610
  H     -0.044810   -7.381190   -0.146630
  H      0.279060   -7.534580    4.170480
  H     -0.027390   -9.891990   -0.184220
  H      0.183920   -9.863540    4.143590
  H     -0.131120  -14.350000    1.968710
  H     -0.033390  -14.426460   -2.360320
  H     -0.360260  -16.815910    1.976040
  H      0.011000  -16.796650   -2.338910
  H     -0.057890  -21.278650   -0.130990
  H     -0.627150  -21.330560    4.157340
  H     -0.309710  -23.638590    4.176240
  H      0.147820  -28.944530    3.763960
  H      1.052400  -28.021880    2.538040
  H     -0.722900  -28.189310    2.406030
  H     -0.048980  -23.684140   -0.152930

 Total Charge           Charge          ....    0
 Multiplicity           Mult            ....    1
 Number of Electrons    NEL             ....  404
 Basis Dimension        Dim             ....  910

ORBITAL ENERGIES
----------------

  NO   OCC          E(Eh)            E(eV)
   0   2.0000     -88.982187     -2421.3284
   1   2.0000     -88.971878     -2421.0479
   2   2.0000     -88.957888     -2420.6672
   3   2.0000     -88.940277     -2420.1880
   4   2.0000     -14.409283      -392.0965
   5   2.0000     -14.408042      -392.0628
   6   2.0000     -14.405739      -392.0001
   7   2.0000     -14.404766      -391.9736
   8   2.0000     -14.404751      -391.9732
   9   2.0000     -14.404032      -391.9536
  10   2.0000     -10.344996      -281.5017
  11   2.0000     -10.325925      -280.9827
  12   2.0000     -10.325279      -280.9651
  13   2.0000     -10.324286      -280.9381
  14   2.0000     -10.323095      -280.9057
  15   2.0000     -10.321632      -280.8659
  16   2.0000     -10.321099      -280.8514
  17   2.0000     -10.319403      -280.8052
  18   2.0000     -10.318095      -280.7696
  19   2.0000     -10.316932      -280.7380
  20   2.0000     -10.315511      -280.6993
  21   2.0000     -10.315150      -280.6895
  22   2.0000     -10.315145      -280.6894
  23   2.0000     -10.314466      -280.6709
  24   2.0000     -10.314107      -280.6611
  25   2.0000     -10.313827      -280.6535
  26   2.0000     -10.313634      -280.6482
  27   2.0000     -10.310574      -280.5650
  28   2.0000     -10.310410      -280.5605
  29   2.0000     -10.310189      -280.5545
  30   2.0000     -10.308472      -280.5078
  31   2.0000     -10.308263      -280.5021
  32   2.0000     -10.308116      -280.4981
  33   2.0000     -10.308037      -280.4960
  34   2.0000     -10.307287      -280.4755
  35   2.0000     -10.306194      -280.4458
  36   2.0000     -10.306081      -280.4427
  37   2.0000     -10.305557      -280.4285
  38   2.0000     -10.305171      -280.4179
  39   2.0000     -10.304965      -280.4124
  40   2.0000     -10.304963      -280.4123
  41   2.0000     -10.303910      -280.3836
  42   2.0000     -10.303397      -280.3697
  43   2.0000     -10.302348      -280.3411
  44   2.0000     -10.302025      -280.3323
  45   2.0000     -10.299279      -280.2576
  46   2.0000     -10.298083      -280.2251
  47   2.0000     -10.293316      -280.0954
  48   2.0000     -10.290899      -280.0296
  49   2.0000     -10.286043      -279.8975
  50   2.0000     -10.285483      -279.8822
  51   2.0000     -10.283316      -279.8232
  52   2.0000     -10.281916      -279.7852
  53   2.0000     -10.279131      -279.7094
  54   2.0000     -10.277103      -279.6542
  55   2.0000     -10.276087      -279.6265
  56   2.0000      -8.077255      -219.7933
  57   2.0000      -8.067399      -219.5251
  58   2.0000      -8.053682      -219.1518
  59   2.0000      -8.035898      -218.6679
  60   2.0000      -6.046715      -164.5395
  61   2.0000      -6.042431      -164.4229
  62   2.0000      -6.039275      -164.3370
  63   2.0000      -6.036810      -164.2699
  64   2.0000      -6.032238      -164.1455
  65   2.0000      -6.029716      -164.0769
  66   2.0000      -6.023989      -163.9211
  67   2.0000      -6.019838      -163.8081
  68   2.0000      -6.013541      -163.6368
  69   2.0000      -6.006383      -163.4420
  70   2.0000      -6.002322      -163.3315
  71   2.0000      -5.995402      -163.1432
  72   2.0000      -1.019468       -27.7411
  73   2.0000      -1.017265       -27.6812
  74   2.0000      -1.013356       -27.5748
  75   2.0000      -1.007010       -27.4021
  76   2.0000      -1.002008       -27.2660
  77   2.0000      -0.998773       -27.1780
  78   2.0000      -0.995979       -27.1020
  79   2.0000      -0.993960       -27.0470
  80   2.0000      -0.984931       -26.8013
  81   2.0000      -0.984517       -26.7901
  82   2.0000      -0.982863       -26.7451
  83   2.0000      -0.979782       -26.6612
  84   2.0000      -0.975478       -26.5441
  85   2.0000      -0.970450       -26.4073
  86   2.0000      -0.922824       -25.1113
  87   2.0000      -0.908128       -24.7114
  88   2.0000      -0.892145       -24.2765
  89   2.0000      -0.883011       -24.0280
  90   2.0000      -0.873274       -23.7630
  91   2.0000      -0.869388       -23.6573
  92   2.0000      -0.856389       -23.3035
  93   2.0000      -0.853577       -23.2270
  94   2.0000      -0.851811       -23.1790
  95   2.0000      -0.850155       -23.1339
  96   2.0000      -0.839321       -22.8391
  97   2.0000      -0.835028       -22.7223
  98   2.0000      -0.828489       -22.5443
  99   2.0000      -0.819608       -22.3027
 100   2.0000      -0.811582       -22.0843
 101   2.0000      -0.796431       -21.6720
 102   2.0000      -0.778957       -21.1965
 103   2.0000      -0.762768       -20.7560
 104   2.0000      -0.754401       -20.5283
 105   2.0000      -0.743598       -20.2343
 106   2.0000      -0.728360       -19.8197
 107   2.0000      -0.726956       -19.7815
 108   2.0000      -0.714770       -19.4499
 109   2.0000      -0.709008       -19.2931
 110   2.0000      -0.701938       -19.1007
 111   2.0000      -0.698942       -19.0192
 112   2.0000      -0.695434       -18.9237
 113   2.0000      -0.674816       -18.3627
 114   2.0000      -0.672749       -18.3064
 115   2.0000      -0.669659       -18.2224
 116   2.0000      -0.645600       -17.5677
 117   2.0000      -0.645413       -17.5626
 118   2.0000      -0.641365       -17.4524
 119   2.0000      -0.636007       -17.3066
 120   2.0000      -0.635283       -17.2869
 121   2.0000      -0.631094       -17.1730
 122   2.0000      -0.628322       -17.0975
 123   2.0000      -0.615272       -16.7424
 124   2.0000      -0.599440       -16.3116
 125   2.0000      -0.588718       -16.0198
 126   2.0000      -0.576920       -15.6988
 127   2.0000      -0.569033       -15.4842
 128   2.0000      -0.561637       -15.2829
 129   2.0000      -0.551156       -14.9977
 130   2.0000      -0.542851       -14.7717
 131   2.0000      -0.541127       -14.7248
 132   2.0000      -0.538638       -14.6571
 133   2.0000      -0.537243       -14.6191
 134   2.0000      -0.532211       -14.4822
 135   2.0000      -0.527036       -14.3414
 136   2.0000      -0.526718       -14.3327
 137   2.0000      -0.525478       -14.2990
 138   2.0000      -0.522246       -14.2110
 139   2.0000      -0.520832       -14.1726
 140   2.0000      -0.519941       -14.1483
 141   2.0000      -0.518467       -14.1082
 142   2.0000      -0.516212       -14.0468
 143   2.0000      -0.514382       -13.9971
 144   2.0000      -0.512628       -13.9493
 145   2.0000      -0.509096       -13.8532
 146   2.0000      -0.502029       -13.6609
 147   2.0000      -0.500908       -13.6304
 148   2.0000      -0.496541       -13.5116
 149   2.0000      -0.494408       -13.4535
 150   2.0000      -0.493507       -13.4290
 151   2.0000      -0.492418       -13.3994
 152   2.0000      -0.490434       -13.3454
 153   2.0000      -0.489177       -13.3112
 154   2.0000      -0.485542       -13.2123
 155   2.0000      -0.485161       -13.2019
 156   2.0000      -0.478570       -13.0226
 157   2.0000      -0.477941       -13.0054
 158   2.0000      -0.476243       -12.9592
 159   2.0000      -0.474245       -12.9049
 160   2.0000      -0.472687       -12.8625
 161   2.0000      -0.472055       -12.8453
 162   2.0000      -0.458405       -12.4738
 163   2.0000      -0.454804       -12.3758
 164   2.0000      -0.451743       -12.2926
 165   2.0000      -0.440605       -11.9895
 166   2.0000      -0.439844       -11.9688
 167   2.0000      -0.439481       -11.9589
 168   2.0000      -0.438740       -11.9387
 169   2.0000      -0.437944       -11.9171
 170   2.0000      -0.437152       -11.8955
 171   2.0000      -0.435277       -11.8445
 172   2.0000      -0.434242       -11.8163
 173   2.0000      -0.433340       -11.7918
 174   2.0000      -0.432345       -11.7647
 175   2.0000      -0.431196       -11.7334
 176   2.0000      -0.429104       -11.6765
 177   2.0000      -0.422575       -11.4988
 178   2.0000      -0.416172       -11.3246
 179   2.0000      -0.415122       -11.2960
 180   2.0000      -0.414364       -11.2754
 181   2.0000      -0.413707       -11.2575
 182   2.0000      -0.412111       -11.2141
 183   2.0000      -0.400779       -10.9058
 184   2.0000      -0.396134       -10.7794
 185   2.0000      -0.394936       -10.7468
 186   2.0000      -0.393046       -10.6953
 187   2.0000      -0.388234       -10.5644
 188   2.0000      -0.375905       -10.2289
 189   2.0000      -0.361871        -9.8470
 190   2.0000      -0.350535        -9.5385
 191   2.0000      -0.346981        -9.4418
 192   2.0000      -0.335630        -9.1329
 193   2.0000      -0.325435        -8.8555
 194   2.0000      -0.321524        -8.7491
 195   2.0000      -0.319933        -8.7058
 196   2.0000      -0.318035        -8.6542
 197   2.0000      -0.297201        -8.0872
 198   2.0000      -0.287851        -7.8328
 199   2.0000      -0.275302        -7.4913
 200   2.0000      -0.263182        -7.1615
 201   2.0000      -0.249731        -6.7955
 202   0.0000      -0.142823        -3.8864
 203   0.0000      -0.117601        -3.2001
 204   0.0000      -0.096196        -2.6176
 205   0.0000      -0.014982        -0.4077
 206   0.0000      -0.003420        -0.0931

MULLIKEN ATOMIC CHARGES
-----------------------
   0 C :    0.038741
   1 C :    0.043402
   2 C :   -0.123233
   3 S :    0.032139
   4 C :   -0.101545
   5 S :    0.112117
   6 C :   -0.110130
   7 C :    0.162498
   8 C :   -0.157544
   9 C :    0.132349
  10 C :   -0.087902
  11 C :   -0.023277
  12 C :   -0.181860
  13 N :    0.154165
  14 C :    0.110605
  15 C :   -0.119351
  16 C :    0.099363
  17 C :   -0.026239
  18 C :   -0.094281
  19 C :   -0.175200
  20 N :    0.126340
  21 C :    0.113624
  22 C :   -0.129501
  23 C :    0.124915
  24 C :   -0.084953
  25 C :   -0.022264
  26 C :   -0.185131
  27 N :    0.151630
  28 C :    0.118647
  29 C :   -0.125741
  30 C :    0.108718
  31 C :   -0.022429
  32 C :   -0.085878
  33 C :   -0.186800
  34 N :    0.150324
  35 C :    0.103572
  36 C :   -0.118160
  37 C :    0.111142
  38 C :   -0.090316
  39 C :   -0.020696
  40 C :   -0.176442
  41 N :    0.130197
  42 C :    0.124527
  43 C :   -0.139078
  44 C :    0.138935
  45 C :   -0.014381
  46 C :   -0.088069
  47 C :   -0.183186
  48 N :    0.149513
  49 C :    0.073923
  50 C :    0.017238
  51 C :   -0.155076
  52 S :    0.004623
  53 C :   -0.099676
  54 S :    0.122537
  55 C :   -0.118518
  56 H :    0.008735
  57 H :   -0.002019
  58 H :    0.076719
  59 H :    0.076833
  60 H :    0.077951
  61 H :   -0.006513
  62 H :    0.005120
  63 H :    0.010353
  64 H :   -0.007192
  65 H :    0.009330
  66 H :   -0.002495
  67 H :    0.009956
  68 H :   -0.004324
  69 H :    0.012382
  70 H :   -0.004662
  71 H :   -0.008932
  72 H :   -0.001386
  73 H :   -0.015812
  74 H :    0.071892
  75 H :    0.072329
  76 H :    0.072903
  77 H :    0.039910
Sum of atomic charges:    0.0000000

LOEWDIN ATOMIC CHARGES
----------------------
   0 C :   -0.010329
   1 C :   -0.084857
   2 C :   -0.303987
   3 S :    0.326325
   4 C :   -0.158438
   5 S :    0.432600
   6 C :   -0.185767
   7 C :   -0.007425
   8 C :   -0.058020
   9 C :    0.052850
  10 C :   -0.065650
  11 C :    0.041104
  12 C :   -0.035872
  13 N :   -0.046335
  14 C :    0.016398
  15 C :   -0.002281
  16 C :   -0.025755
  17 C :    0.040813
  18 C :   -0.083033
  19 C :   -0.028543
  20 N :   -0.071789
  21 C :   -0.003992
  22 C :   -0.021858
  23 C :    0.042773
  24 C :   -0.074443
  25 C :    0.048791
  26 C :   -0.035975
  27 N :   -0.050973
  28 C :    0.035476
  29 C :   -0.013256
  30 C :   -0.012302
  31 C :    0.045825
  32 C :   -0.076794
  33 C :   -0.035617
  34 N :   -0.053339
  35 C :   -0.019371
  36 C :   -0.002943
  37 C :    0.026240
  38 C :   -0.080442
  39 C :    0.046591
  40 C :   -0.028918
  41 N :   -0.068558
  42 C :    0.052454
  43 C :   -0.041236
  44 C :    0.010244
  45 C :    0.054518
  46 C :   -0.075546
  47 C :   -0.036189
  48 N :   -0.050897
  49 C :   -0.064053
  50 C :   -0.092407
  51 C :   -0.313210
  52 S :    0.294779
  53 C :   -0.161034
  54 S :    0.451602
  55 C :   -0.176229
  56 H :    0.041826
  57 H :    0.035462
  58 H :    0.039812
  59 H :    0.027708
  60 H :    0.027511
  61 H :    0.031736
  62 H :    0.032458
  63 H :    0.037108
  64 H :    0.033602
  65 H :    0.037084
  66 H :    0.035616
  67 H :    0.037315
  68 H :    0.034893
  69 H :    0.038009
  70 H :    0.034735
  71 H :    0.031466
  72 H :    0.036565
  73 H :    0.028338
  74 H :    0.037664
  75 H :    0.024998
  76 H :    0.024686
  77 H :    0.029686

  Mayer bond orders larger than 0.100000
B(  0-C ,  1-C ) :   1.3253 B(  0-C ,  6-C ) :   1.4556 B(  0-C , 56-H ) :   0.9967
B(  1-C ,  2-C ) :   1.4821 B(  1-C , 57-H ) :   0.9927 B(  2-C ,  3-S ) :   1.0558
B(  2-C ,  5-S ) :   1.1395 B(  3-S ,  4-C ) :   1.0119 B(  4-C , 58-H ) :   0.9717
B(  4-C , 59-H ) :   0.9645 B(  4-C , 60-H ) :   0.9638 B(  5-S ,  6-C ) :   1.0778
B(  6-C ,  7-C ) :   1.1569 B(  7-C ,  8-C ) :   1.5158 B(  7-C , 11-C ) :   1.0209
B(  8-C ,  9-C ) :   1.1812 B(  8-C , 61-H ) :   1.0011 B(  9-C , 10-C ) :   1.0894
B(  9-C , 14-C ) :   1.3425 B( 10-C , 11-C ) :   1.7095 B( 10-C , 12-C ) :   1.0826
B( 11-C , 62-H ) :   1.0115 B( 12-C , 13-N ) :   2.9767 B( 14-C , 15-C ) :   1.1471
B( 14-C , 18-C ) :   1.1195 B( 15-C , 16-C ) :   1.5121 B( 15-C , 63-H ) :   1.0043
B( 16-C , 17-C ) :   1.0719 B( 16-C , 21-C ) :   1.0294 B( 17-C , 18-C ) :   1.6494
B( 17-C , 64-H ) :   1.0183 B( 18-C , 19-C ) :   1.0843 B( 19-C , 20-N ) :   2.9643
B( 21-C , 22-C ) :   1.5339 B( 21-C , 25-C ) :   1.0437 B( 22-C , 23-C ) :   1.1403
B( 22-C , 65-H ) :   1.0051 B( 23-C , 24-C ) :   1.0974 B( 23-C , 28-C ) :   1.3630
B( 24-C , 25-C ) :   1.6833 B( 24-C , 26-C ) :   1.0806 B( 25-C , 66-H ) :   1.0194
B( 26-C , 27-N ) :   2.9779 B( 28-C , 29-C ) :   1.1337 B( 28-C , 32-C ) :   1.1065
B( 29-C , 30-C ) :   1.5411 B( 29-C , 67-H ) :   1.0040 B( 30-C , 31-C ) :   1.0525
B( 30-C , 35-C ) :   1.0200 B( 31-C , 32-C ) :   1.6728 B( 31-C , 68-H ) :   1.0188
B( 32-C , 33-C ) :   1.0816 B( 33-C , 34-N ) :   2.9778 B( 35-C , 36-C ) :   1.5407
B( 35-C , 39-C ) :   1.0604 B( 36-C , 37-C ) :   1.1251 B( 36-C , 69-H ) :   1.0042
B( 37-C , 38-C ) :   1.1076 B( 37-C , 42-C ) :   1.3876 B( 38-C , 39-C ) :   1.6637
B( 38-C , 40-C ) :   1.0852 B( 39-C , 70-H ) :   1.0184 B( 40-C , 41-N ) :   2.9674
B( 42-C , 43-C ) :   1.1279 B( 42-C , 46-C ) :   1.0947 B( 43-C , 44-C ) :   1.5755
B( 43-C , 71-H ) :   1.0012 B( 44-C , 45-C ) :   1.0427 B( 44-C , 49-C ) :   1.0541
B( 45-C , 46-C ) :   1.6834 B( 45-C , 72-H ) :   1.0185 B( 46-C , 47-C ) :   1.0839
B( 47-C , 48-N ) :   2.9758 B( 49-C , 50-C ) :   1.2368 B( 49-C , 55-C ) :   1.5267
B( 50-C , 51-C ) :   1.5758 B( 50-C , 73-H ) :   0.9915 B( 51-C , 52-S ) :   1.0211
B( 51-C , 54-S ) :   1.1263 B( 52-S , 53-C ) :   1.0131 B( 53-C , 74-H ) :   0.9726
B( 53-C , 75-H ) :   0.9655 B( 53-C , 76-H ) :   0.9650 B( 54-S , 55-C ) :   1.1614
B( 55-C , 77-H ) :   0.9622

-----------------------------------------------------------------------------
         ABSORPTION SPECTRUM VIA TRANSITION ELECTRIC DIPOLE MOMENTS
-----------------------------------------------------------------------------
State   Energy  Wavelength   fosc         T2         TX        TY        TZ
        (cm-1)    (nm)                  (au**2)     (au)      (au)      (au)
-----------------------------------------------------------------------------
   0    9361.5   1068.2   1.153848663  40.57712   0.18628   6.33644  -0.62603
   1   12618.6    792.5   0.013929847   0.36342   0.02262   0.57177   0.18969
   2   14494.9    689.9   0.065868788   1.49603  -0.00068   0.74512  -0.96996
   3   15114.3    661.6   0.002874746   0.06262   0.02709  -0.05078   0.24352
   4   15587.1    641.6   0.006903409   0.14581  -0.08077  -0.36772  -0.06373
   5   17227.4    580.5   0.101915190   1.94758   0.02226   0.26952  -1.36910
   6   18705.3    534.6   0.007694841   0.13543  -0.04050  -0.18987   0.31263
   7   20637.3    484.6   0.102646087   1.63744   0.03256   1.27469   0.10746
   8   21539.9    464.3   0.066594481   1.01782   0.03968   1.00684  -0.05007
   9   22139.9    451.7   0.054883194   0.81609  -0.02711  -0.60209   0.67294
  10   22452.1    445.4   0.082000905   1.20237   0.05560   1.07001   0.23316
  11   23034.7    434.1   0.618119847   8.83417  -0.11935  -2.93476   0.45508
  12   23468.0    426.1   0.022222848   0.31174   0.00435  -0.53637  -0.15502
  13   24709.4    404.7   0.233894385   3.11626   0.02617   1.75380  -0.19939
  14   24887.0    401.8   0.324503661   4.29262  -0.02248  -2.06664   0.14533
  15   27050.5    369.7   0.039408505   0.47961  -0.02436  -0.64950   0.23909
  16   27685.7    361.2   0.036051052   0.42869   0.00895  -0.28118  -0.59122
  17   28440.0    351.6   0.013257856   0.15347  -0.00560  -0.38746  -0.05757
  18   28765.3    347.6   0.003341549   0.03824  -0.01567  -0.14311  -0.13235
  19   29036.7    344.4   0.000050463   0.00057   0.01448   0.01787   0.00658
  20   29410.7    340.0   0.153950708   1.72326   0.05176   1.30396  -0.14235
  21   30201.2    331.1   0.045158304   0.49225  -0.03839   0.40404  -0.57231
  22   31186.4    320.7   0.035765134   0.37755  -0.07470   0.33655  -0.50862
  23   31691.6    315.5   0.078161735   0.81194  -0.09896   0.54514  -0.71061
  24   32095.8    311.6   0.014594231   0.14970  -0.05445  -0.35800   0.13625
  25   33430.0    299.1   0.006184515   0.06090  -0.05421  -0.22718  -0.07972
  26   33969.4    294.4   0.003079442   0.02984  -0.02958   0.17017  -0.00320
  27   35009.8    285.6   0.041130066   0.38676  -0.01585  -0.50327  -0.36500
  28   35096.2    284.9   0.097226895   0.91202   0.04192   0.92528   0.23263
  29   35347.0    282.9   0.218759143   2.03746  -0.01076  -0.58650  -1.30129
  30   35585.9    281.0   0.623477968   5.76791   0.16754   2.15333  -1.05024
  31   36104.5    277.0   0.041466059   0.37810  -0.00253  -0.40852   0.45957
  32   36138.8    276.7   0.003826663   0.03486   0.00345   0.13343  -0.13056
  33   36395.4    274.8   0.000039715   0.00036  -0.01039   0.01480  -0.00568
  34   37194.0    268.9   0.073194450   0.64786  -0.05130  -0.34125   0.72717
  35   37870.4    264.1   0.016155142   0.14044   0.02104  -0.13775   0.34788
  36   38244.0    261.5   0.023580949   0.20299  -0.00528   0.45051   0.00172
  37   38869.6    257.3   0.025237180   0.21375  -0.03077  -0.11457   0.44685
  38   39033.3    256.2   0.008769559   0.07396  -0.05126  -0.19315   0.18447
  39   39373.6    254.0   0.019813633   0.16567  -0.01109  -0.29177  -0.28358
  40   39899.2    250.6   0.310930040   2.56552  -0.03645  -0.66237  -1.45789
  41   40074.8    249.5   0.008313241   0.06829   0.01606   0.01725   0.26026

FINAL SINGLE POINT ENERGY     -3683.957453409510

DIPOLE MOMENT
-------------
                                X             Y             Z
Electronic contribution:     -0.91172       2.52291       1.17403
Nuclear contribution   :      1.18553      -1.50362      -2.08204
                        -----------------------------------------
Total Dipole Moment    :      0.27381       1.01930      -0.90801
                        -----------------------------------------
Magnitude (a.u.)       :      1.39227
Magnitude (Debye)      :      3.53888

Rotational constants in cm-1:     0.005769     0.000256     0.000245
Rotational constants in MHz :   172.945272     7.670450     7.354756

                             ****ORCA TERMINATED NORMALLY****
TOTAL RUN TIME: 0 days 0 hours 6 minutes 39 seconds 864 msec
