                         Program Version 4.2.0 -  RELEASE  -
|  1> # ORCA input file
|  2> # SCF done       -182.447767933574          0.000371346548
|  3> ! CAM-B3LYP def2-SVP def2/J RIJCOSX Grid4 TightSCF
|  4> %maxcore 5000
|  5> %tddft
|  6>     Mode sTDDFT
|  7>     Ethresh 5.0
|  8>     maxcore 5000
|  9> end
| 10>
| 11> %pal
| 12>   nprocs 6
| 13>   end
| 14> * xyz 0 1
| 15>    C        3.96068        -4.00955        -0.56080
| 16>    C        4.66052        -2.88239        -0.13280
| 17>    C        5.78117        -2.63714        -0.88924
| 18>    S        6.87920        -1.31452        -0.64498
| 19>    C        8.15418        -1.68648        -1.88075
| 20>    S        5.97693        -3.80669        -2.15820
| 21>    C        4.52964        -4.63725        -1.65054
| 22>    C        4.05059        -5.79131        -2.31297
| 23>    S        2.60220        -6.57686        -1.73905
| 24>    C        2.69761        -7.78990        -2.99193
| 25>    C        3.81269        -7.58083        -3.78835
| 26>    C        4.56600        -6.45612        -3.41360
| 27>    S        6.04562        -5.95354        -4.22717
| 28>    C        5.38145        -5.52556        -5.88277
| 29>    C        5.25928        -6.71038        -6.82930
| 30>    C        4.06359        -7.60846        -6.55443
| 31>    S        4.23957        -8.68827        -5.08760
| 32>    C        1.70670        -8.77139        -3.19168
| 33>    C        0.62054        -8.94512        -2.39597
| 34>    C       -0.46196        -9.81971        -2.65627
| 35>    S       -1.43198       -10.34742        -1.32262
| 36>    C       -2.45708       -11.29746        -2.36809
| 37>    C       -2.04983       -11.17463        -3.70018
| 38>    C       -0.94498       -10.33384        -3.86247
| 39>    C       -0.41010        -9.94666        -5.21246
| 40>    C       -0.16846        -8.44812        -5.32255
| 41>    O        0.71732        -7.93972        -5.96046
| 42>    O       -1.11182        -7.75689        -4.68340
| 43>    C       -0.99874        -6.34183        -4.72252
| 44>    C       -1.40696       -10.33126        -6.31767
| 45>    C       -1.85082       -11.77318        -6.11603
| 46>    C       -2.69879       -11.87800        -4.85138
| 47>    C       -3.50642       -12.02742        -1.76700
| 48>    C       -3.68409       -12.16268        -0.39833
| 49>    C       -4.81250       -12.96426        -0.13988
| 50>    C       -5.37552       -13.31192        -1.46208
| 51>    C       -4.59173       -12.75107        -2.41812
| 52>    C       -6.53421       -14.05227        -1.71727
| 53>    N       -7.48464       -14.64569        -1.97182
| 54>    C       -5.28929       -13.38208         1.08885
| 55>    C       -6.34715       -14.29280         1.34838
| 56>    C       -6.41664       -14.53073         2.70953
| 57>    C       -5.41862       -13.69740         3.35483
| 58>    C       -4.74906       -12.99796         2.39748
| 59>    C       -3.75005       -12.05359         2.65432
| 60>    N       -2.94192       -11.27611         2.90558
| 61>    C       -7.33087       -15.39285         3.36119
| 62>    C       -7.20689       -15.94999         4.60006
| 63>    C       -8.40416       -16.43613         5.33407
| 64>    O       -9.51398       -16.60920         4.88631
| 65>    C       -7.95674       -16.59955         6.73519
| 66>    C       -8.69429       -16.90740         7.84135
| 67>    C       -8.05114       -16.97977         9.09780
| 68>    C       -6.65151       -16.72554         9.18339
| 69>    C       -6.01841       -16.79074        10.44080
| 70>    C       -6.73995       -17.09733        11.56003
| 71>    C       -8.12341       -17.35052        11.47421
| 72>    C       -8.76664       -17.29353        10.26973
| 73>    F       -8.80641       -17.64787        12.58888
| 74>    F       -6.13604       -17.15987        12.75482
| 75>    C       -5.91142       -16.41702         8.01894
| 76>    C       -6.55464       -16.36137         6.81197
| 77>    C       -6.05725       -16.10219         5.46313
| 78>    C       -4.75406       -16.23580         5.05759
| 79>    C       -4.35432       -16.26791         3.70459
| 80>    N       -3.98325       -16.37973         2.62409
| 81>    C       -3.68141       -16.46406         5.94249
| 82>    N       -2.77828       -16.63355         6.63062
| 83>    H        3.06228        -4.37295        -0.09396
| 84>    H        4.37226        -2.26775         0.69971
| 85>    H        8.91166        -0.91596        -1.78133
| 86>    H        7.71574        -1.65964        -2.87421
| 87>    H        8.58055        -2.66467        -1.67815
| 88>    H        4.42480        -5.02482        -5.73444
| 89>    H        6.10445        -4.80881        -6.27113
| 90>    H        6.17627        -7.30206        -6.78525
| 91>    H        5.15803        -6.31990        -7.84645
| 92>    H        3.13657        -7.04977        -6.43097
| 93>    H        3.93656        -8.31819        -7.37130
| 94>    H        1.87731        -9.40439        -4.04893
| 95>    H        0.56867        -8.39237        -1.46523
| 96>    H        0.53829       -10.45741        -5.41331
| 97>    H       -0.82758        -6.00176        -5.74566
| 98>    H       -0.16607        -6.01789        -4.09460
| 99>    H       -1.93549        -5.94884        -4.33743
|100>    H       -0.93055       -10.20125        -7.29023
|101>    H       -2.27661        -9.67219        -6.26884
|102>    H       -2.43304       -12.11204        -6.97377
|103>    H       -0.97257       -12.41571        -6.02870
|104>    H       -2.85318       -12.92902        -4.59954
|105>    H       -3.67871       -11.42629        -5.03635
|106>    H       -3.04030       -11.74803         0.35249
|107>    H       -4.76919       -12.80872        -3.47377
|108>    H       -6.94612       -14.77406         0.59994
|109>    H       -5.28218       -13.59960         4.41645
|110>    H       -8.27078       -15.58042         2.85202
|111>    H       -9.75460       -17.09242         7.76033
|112>    H       -4.95924       -16.60296        10.52308
|113>    H       -9.82629       -17.48968        10.22102
|114>    H       -4.85472       -16.22231         8.11161
|115> *
|116>
|117>                          ****END OF INPUT****

CARTESIAN COORDINATES (ANGSTROEM)
---------------------------------
  C      3.960680   -4.009550   -0.560800
  C      4.660520   -2.882390   -0.132800
  C      5.781170   -2.637140   -0.889240
  S      6.879200   -1.314520   -0.644980
  C      8.154180   -1.686480   -1.880750
  S      5.976930   -3.806690   -2.158200
  C      4.529640   -4.637250   -1.650540
  C      4.050590   -5.791310   -2.312970
  S      2.602200   -6.576860   -1.739050
  C      2.697610   -7.789900   -2.991930
  C      3.812690   -7.580830   -3.788350
  C      4.566000   -6.456120   -3.413600
  S      6.045620   -5.953540   -4.227170
  C      5.381450   -5.525560   -5.882770
  C      5.259280   -6.710380   -6.829300
  C      4.063590   -7.608460   -6.554430
  S      4.239570   -8.688270   -5.087600
  C      1.706700   -8.771390   -3.191680
  C      0.620540   -8.945120   -2.395970
  C     -0.461960   -9.819710   -2.656270
  S     -1.431980  -10.347420   -1.322620
  C     -2.457080  -11.297460   -2.368090
  C     -2.049830  -11.174630   -3.700180
  C     -0.944980  -10.333840   -3.862470
  C     -0.410100   -9.946660   -5.212460
  C     -0.168460   -8.448120   -5.322550
  O      0.717320   -7.939720   -5.960460
  O     -1.111820   -7.756890   -4.683400
  C     -0.998740   -6.341830   -4.722520
  C     -1.406960  -10.331260   -6.317670
  C     -1.850820  -11.773180   -6.116030
  C     -2.698790  -11.878000   -4.851380
  C     -3.506420  -12.027420   -1.767000
  C     -3.684090  -12.162680   -0.398330
  C     -4.812500  -12.964260   -0.139880
  C     -5.375520  -13.311920   -1.462080
  C     -4.591730  -12.751070   -2.418120
  C     -6.534210  -14.052270   -1.717270
  N     -7.484640  -14.645690   -1.971820
  C     -5.289290  -13.382080    1.088850
  C     -6.347150  -14.292800    1.348380
  C     -6.416640  -14.530730    2.709530
  C     -5.418620  -13.697400    3.354830
  C     -4.749060  -12.997960    2.397480
  C     -3.750050  -12.053590    2.654320
  N     -2.941920  -11.276110    2.905580
  C     -7.330870  -15.392850    3.361190
  C     -7.206890  -15.949990    4.600060
  C     -8.404160  -16.436130    5.334070
  O     -9.513980  -16.609200    4.886310
  C     -7.956740  -16.599550    6.735190
  C     -8.694290  -16.907400    7.841350
  C     -8.051140  -16.979770    9.097800
  C     -6.651510  -16.725540    9.183390
  C     -6.018410  -16.790740   10.440800
  C     -6.739950  -17.097330   11.560030
  C     -8.123410  -17.350520   11.474210
  C     -8.766640  -17.293530   10.269730
  F     -8.806410  -17.647870   12.588880
  F     -6.136040  -17.159870   12.754820
  C     -5.911420  -16.417020    8.018940
  C     -6.554640  -16.361370    6.811970
  C     -6.057250  -16.102190    5.463130
  C     -4.754060  -16.235800    5.057590
  C     -4.354320  -16.267910    3.704590
  N     -3.983250  -16.379730    2.624090
  C     -3.681410  -16.464060    5.942490
  N     -2.778280  -16.633550    6.630620
  H      3.062280   -4.372950   -0.093960
  H      4.372260   -2.267750    0.699710
  H      8.911660   -0.915960   -1.781330
  H      7.715740   -1.659640   -2.874210
  H      8.580550   -2.664670   -1.678150
  H      4.424800   -5.024820   -5.734440
  H      6.104450   -4.808810   -6.271130
  H      6.176270   -7.302060   -6.785250
  H      5.158030   -6.319900   -7.846450
  H      3.136570   -7.049770   -6.430970
  H      3.936560   -8.318190   -7.371300
  H      1.877310   -9.404390   -4.048930
  H      0.568670   -8.392370   -1.465230
  H      0.538290  -10.457410   -5.413310
  H     -0.827580   -6.001760   -5.745660
  H     -0.166070   -6.017890   -4.094600
  H     -1.935490   -5.948840   -4.337430
  H     -0.930550  -10.201250   -7.290230
  H     -2.276610   -9.672190   -6.268840
  H     -2.433040  -12.112040   -6.973770
  H     -0.972570  -12.415710   -6.028700
  H     -2.853180  -12.929020   -4.599540
  H     -3.678710  -11.426290   -5.036350
  H     -3.040300  -11.748030    0.352490
  H     -4.769190  -12.808720   -3.473770
  H     -6.946120  -14.774060    0.599940
  H     -5.282180  -13.599600    4.416450
  H     -8.270780  -15.580420    2.852020
  H     -9.754600  -17.092420    7.760330
  H     -4.959240  -16.602960   10.523080
  H     -9.826290  -17.489680   10.221020
  H     -4.854720  -16.222310    8.111610

 Total Charge           Charge          ....    0
 Multiplicity           Mult            ....    1
 Number of Electrons    NEL             ....  516
 Basis Dimension        Dim             .... 1136

ORBITAL ENERGIES
----------------

  NO   OCC          E(Eh)            E(eV)
   0   2.0000     -88.963494     -2420.8197
   1   2.0000     -88.961518     -2420.7660
   2   2.0000     -88.959389     -2420.7080
   3   2.0000     -88.936981     -2420.0983
   4   2.0000     -88.927028     -2419.8275
   5   2.0000     -88.922682     -2419.7092
   6   2.0000     -24.796146      -674.7374
   7   2.0000     -24.795550      -674.7212
   8   2.0000     -19.266652      -524.2723
   9   2.0000     -19.214177      -522.8443
  10   2.0000     -19.211333      -522.7669
  11   2.0000     -14.415748      -392.2724
  12   2.0000     -14.411748      -392.1636
  13   2.0000     -14.410218      -392.1220
  14   2.0000     -14.399975      -391.8433
  15   2.0000     -10.404791      -283.1287
  16   2.0000     -10.379430      -282.4386
  17   2.0000     -10.378956      -282.4258
  18   2.0000     -10.365762      -282.0667
  19   2.0000     -10.344326      -281.4834
  20   2.0000     -10.341247      -281.3996
  21   2.0000     -10.327253      -281.0188
  22   2.0000     -10.321671      -280.8669
  23   2.0000     -10.321577      -280.8644
  24   2.0000     -10.319264      -280.8014
  25   2.0000     -10.317903      -280.7644
  26   2.0000     -10.317586      -280.7558
  27   2.0000     -10.316876      -280.7365
  28   2.0000     -10.316173      -280.7173
  29   2.0000     -10.313696      -280.6499
  30   2.0000     -10.312524      -280.6180
  31   2.0000     -10.312094      -280.6063
  32   2.0000     -10.311695      -280.5955
  33   2.0000     -10.310813      -280.5715
  34   2.0000     -10.310780      -280.5706
  35   2.0000     -10.308874      -280.5187
  36   2.0000     -10.308540      -280.5096
  37   2.0000     -10.307016      -280.4682
  38   2.0000     -10.306477      -280.4535
  39   2.0000     -10.304751      -280.4065
  40   2.0000     -10.304102      -280.3889
  41   2.0000     -10.302239      -280.3382
  42   2.0000     -10.302205      -280.3372
  43   2.0000     -10.301055      -280.3060
  44   2.0000     -10.300762      -280.2980
  45   2.0000     -10.300416      -280.2886
  46   2.0000     -10.300307      -280.2856
  47   2.0000     -10.300029      -280.2780
  48   2.0000     -10.299458      -280.2625
  49   2.0000     -10.299289      -280.2579
  50   2.0000     -10.298787      -280.2442
  51   2.0000     -10.298612      -280.2395
  52   2.0000     -10.298486      -280.2361
  53   2.0000     -10.297834      -280.2183
  54   2.0000     -10.295957      -280.1672
  55   2.0000     -10.293298      -280.0949
  56   2.0000     -10.293043      -280.0879
  57   2.0000     -10.292193      -280.0648
  58   2.0000     -10.290151      -280.0092
  59   2.0000     -10.289845      -280.0009
  60   2.0000     -10.288753      -279.9712
  61   2.0000     -10.287970      -279.9499
  62   2.0000     -10.283410      -279.8258
  63   2.0000     -10.279856      -279.7291
  64   2.0000     -10.279051      -279.7072
  65   2.0000     -10.276430      -279.6359
  66   2.0000     -10.270743      -279.4811
  67   2.0000     -10.269503      -279.4474
  68   2.0000      -8.058725      -219.2890
  69   2.0000      -8.057121      -219.2454
  70   2.0000      -8.053246      -219.1400
  71   2.0000      -8.032673      -218.5801
  72   2.0000      -8.021906      -218.2872
  73   2.0000      -8.017510      -218.1675
  74   2.0000      -6.028071      -164.0322
  75   2.0000      -6.026305      -163.9841
  76   2.0000      -6.024185      -163.9264
  77   2.0000      -6.022974      -163.8934
  78   2.0000      -6.022286      -163.8747
  79   2.0000      -6.020487      -163.8258
  80   2.0000      -6.019243      -163.7919
  81   2.0000      -6.018347      -163.7675
  82   2.0000      -6.015115      -163.6796
  83   2.0000      -6.003048      -163.3513
  84   2.0000      -5.998956      -163.2399
  85   2.0000      -5.992430      -163.0623
  86   2.0000      -5.992360      -163.0604
  87   2.0000      -5.988410      -162.9529
  88   2.0000      -5.988078      -162.9439
  89   2.0000      -5.984103      -162.8357
  90   2.0000      -5.981466      -162.7640
  91   2.0000      -5.976923      -162.6403
  92   2.0000      -1.318480       -35.8777
  93   2.0000      -1.303649       -35.4741
  94   2.0000      -1.199912       -32.6513
  95   2.0000      -1.129180       -30.7265
  96   2.0000      -1.103778       -30.0353
  97   2.0000      -1.019899       -27.7529
  98   2.0000      -1.015205       -27.6251
  99   2.0000      -1.006189       -27.3798
 100   2.0000      -1.002766       -27.2866
 101   2.0000      -1.001831       -27.2612
 102   2.0000      -0.996771       -27.1235
 103   2.0000      -0.991161       -26.9709
 104   2.0000      -0.982193       -26.7268
 105   2.0000      -0.981056       -26.6959
 106   2.0000      -0.980514       -26.6812
 107   2.0000      -0.974176       -26.5087
 108   2.0000      -0.935907       -25.4673
 109   2.0000      -0.930768       -25.3275
 110   2.0000      -0.926595       -25.2139
 111   2.0000      -0.919154       -25.0114
 112   2.0000      -0.905582       -24.6421
 113   2.0000      -0.902748       -24.5650
 114   2.0000      -0.891516       -24.2594
 115   2.0000      -0.889461       -24.2035
 116   2.0000      -0.882590       -24.0165
 117   2.0000      -0.871801       -23.7229
 118   2.0000      -0.864769       -23.5316
 119   2.0000      -0.860880       -23.4257
 120   2.0000      -0.853303       -23.2195
 121   2.0000      -0.843802       -22.9610
 122   2.0000      -0.839499       -22.8439
 123   2.0000      -0.837992       -22.8029
 124   2.0000      -0.836345       -22.7581
 125   2.0000      -0.824746       -22.4425
 126   2.0000      -0.816681       -22.2230
 127   2.0000      -0.808457       -21.9992
 128   2.0000      -0.801069       -21.7982
 129   2.0000      -0.784282       -21.3414
 130   2.0000      -0.768829       -20.9209
 131   2.0000      -0.767212       -20.8769
 132   2.0000      -0.763094       -20.7648
 133   2.0000      -0.748114       -20.3572
 134   2.0000      -0.742544       -20.2056
 135   2.0000      -0.739017       -20.1097
 136   2.0000      -0.733622       -19.9629
 137   2.0000      -0.720148       -19.5962
 138   2.0000      -0.717072       -19.5125
 139   2.0000      -0.711379       -19.3576
 140   2.0000      -0.704899       -19.1813
 141   2.0000      -0.701477       -19.0882
 142   2.0000      -0.681413       -18.5422
 143   2.0000      -0.675563       -18.3830
 144   2.0000      -0.672773       -18.3071
 145   2.0000      -0.666946       -18.1485
 146   2.0000      -0.664040       -18.0695
 147   2.0000      -0.659009       -17.9325
 148   2.0000      -0.652718       -17.7614
 149   2.0000      -0.647084       -17.6081
 150   2.0000      -0.644501       -17.5378
 151   2.0000      -0.640716       -17.4348
 152   2.0000      -0.634912       -17.2768
 153   2.0000      -0.628659       -17.1067
 154   2.0000      -0.618397       -16.8274
 155   2.0000      -0.616556       -16.7773
 156   2.0000      -0.613950       -16.7064
 157   2.0000      -0.605574       -16.4785
 158   2.0000      -0.599405       -16.3106
 159   2.0000      -0.594624       -16.1805
 160   2.0000      -0.591265       -16.0891
 161   2.0000      -0.585096       -15.9213
 162   2.0000      -0.583417       -15.8756
 163   2.0000      -0.583037       -15.8652
 164   2.0000      -0.579662       -15.7734
 165   2.0000      -0.572193       -15.5702
 166   2.0000      -0.566138       -15.4054
 167   2.0000      -0.563257       -15.3270
 168   2.0000      -0.556500       -15.1431
 169   2.0000      -0.552186       -15.0258
 170   2.0000      -0.550846       -14.9893
 171   2.0000      -0.547377       -14.8949
 172   2.0000      -0.546573       -14.8730
 173   2.0000      -0.544824       -14.8254
 174   2.0000      -0.534896       -14.5553
 175   2.0000      -0.534784       -14.5522
 176   2.0000      -0.533307       -14.5120
 177   2.0000      -0.532073       -14.4784
 178   2.0000      -0.527545       -14.3552
 179   2.0000      -0.524959       -14.2849
 180   2.0000      -0.521667       -14.1953
 181   2.0000      -0.521353       -14.1867
 182   2.0000      -0.520308       -14.1583
 183   2.0000      -0.518441       -14.1075
 184   2.0000      -0.517202       -14.0738
 185   2.0000      -0.515033       -14.0148
 186   2.0000      -0.513791       -13.9810
 187   2.0000      -0.510019       -13.8783
 188   2.0000      -0.506396       -13.7797
 189   2.0000      -0.506081       -13.7712
 190   2.0000      -0.504183       -13.7195
 191   2.0000      -0.502780       -13.6813
 192   2.0000      -0.501598       -13.6492
 193   2.0000      -0.499524       -13.5927
 194   2.0000      -0.496837       -13.5196
 195   2.0000      -0.491718       -13.3803
 196   2.0000      -0.490649       -13.3512
 197   2.0000      -0.487836       -13.2747
 198   2.0000      -0.484540       -13.1850
 199   2.0000      -0.483636       -13.1604
 200   2.0000      -0.478617       -13.0238
 201   2.0000      -0.475348       -12.9349
 202   2.0000      -0.471540       -12.8313
 203   2.0000      -0.470514       -12.8033
 204   2.0000      -0.469593       -12.7783
 205   2.0000      -0.465669       -12.6715
 206   2.0000      -0.462438       -12.5836
 207   2.0000      -0.461712       -12.5638
 208   2.0000      -0.458350       -12.4723
 209   2.0000      -0.457170       -12.4402
 210   2.0000      -0.455034       -12.3821
 211   2.0000      -0.450613       -12.2618
 212   2.0000      -0.449219       -12.2239
 213   2.0000      -0.448552       -12.2057
 214   2.0000      -0.444108       -12.0848
 215   2.0000      -0.441457       -12.0127
 216   2.0000      -0.441309       -12.0086
 217   2.0000      -0.439288       -11.9536
 218   2.0000      -0.437477       -11.9044
 219   2.0000      -0.435439       -11.8489
 220   2.0000      -0.431862       -11.7516
 221   2.0000      -0.430474       -11.7138
 222   2.0000      -0.429381       -11.6840
 223   2.0000      -0.425924       -11.5900
 224   2.0000      -0.424843       -11.5606
 225   2.0000      -0.423766       -11.5313
 226   2.0000      -0.419047       -11.4029
 227   2.0000      -0.418007       -11.3745
 228   2.0000      -0.415263       -11.2999
 229   2.0000      -0.412732       -11.2310
 230   2.0000      -0.412004       -11.2112
 231   2.0000      -0.409799       -11.1512
 232   2.0000      -0.406792       -11.0694
 233   2.0000      -0.404638       -11.0108
 234   2.0000      -0.401413       -10.9230
 235   2.0000      -0.394830       -10.7439
 236   2.0000      -0.392066       -10.6687
 237   2.0000      -0.391817       -10.6619
 238   2.0000      -0.385933       -10.5018
 239   2.0000      -0.384350       -10.4587
 240   2.0000      -0.381517       -10.3816
 241   2.0000      -0.367233        -9.9929
 242   2.0000      -0.356710        -9.7066
 243   2.0000      -0.355294        -9.6680
 244   2.0000      -0.338129        -9.2010
 245   2.0000      -0.333139        -9.0652
 246   2.0000      -0.331442        -9.0190
 247   2.0000      -0.324677        -8.8349
 248   2.0000      -0.323073        -8.7913
 249   2.0000      -0.320870        -8.7313
 250   2.0000      -0.315178        -8.5764
 251   2.0000      -0.305436        -8.3113
 252   2.0000      -0.300555        -8.1785
 253   2.0000      -0.297694        -8.1007
 254   2.0000      -0.291395        -7.9293
 255   2.0000      -0.286568        -7.7979
 256   2.0000      -0.260524        -7.0892
 257   2.0000      -0.230572        -6.2742
 258   0.0000      -0.128501        -3.4967
 259   0.0000      -0.082692        -2.2502
 260   0.0000      -0.056057        -1.5254
 261   0.0000      -0.052129        -1.4185
 262   0.0000      -0.017911        -0.4874

MULLIKEN ATOMIC CHARGES
-----------------------
   0 C :   -0.002560
   1 C :    0.042485
   2 C :   -0.128892
   3 S :    0.006667
   4 C :   -0.097676
   5 S :    0.120107
   6 C :   -0.099072
   7 C :   -0.019254
   8 S :    0.114009
   9 C :   -0.110647
  10 C :   -0.013234
  11 C :   -0.099948
  12 S :   -0.003883
  13 C :   -0.085756
  14 C :    0.100602
  15 C :   -0.090862
  16 S :   -0.006645
  17 C :    0.035071
  18 C :   -0.019063
  19 C :   -0.086612
  20 S :    0.154079
  21 C :   -0.130775
  22 C :   -0.073453
  23 C :   -0.003673
  24 C :    0.029805
  25 C :    0.119900
  26 O :   -0.203670
  27 O :   -0.288242
  28 C :    0.184091
  29 C :    0.023274
  30 C :    0.078513
  31 C :    0.077690
  32 C :    0.118471
  33 C :   -0.168583
  34 C :    0.147337
  35 C :   -0.086874
  36 C :   -0.030379
  37 C :   -0.180896
  38 N :    0.141910
  39 C :    0.110752
  40 C :   -0.059299
  41 C :    0.051364
  42 C :   -0.013139
  43 C :   -0.094002
  44 C :   -0.179372
  45 N :    0.135487
  46 C :    0.046786
  47 C :   -0.129130
  48 C :    0.142897
  49 O :   -0.136437
  50 C :    0.014243
  51 C :   -0.084746
  52 C :    0.112398
  53 C :    0.112516
  54 C :   -0.108265
  55 C :    0.241621
  56 C :    0.238198
  57 C :   -0.102451
  58 F :   -0.172430
  59 F :   -0.171868
  60 C :   -0.084234
  61 C :    0.039213
  62 C :    0.260572
  63 C :   -0.340808
  64 C :   -0.193462
  65 N :    0.176061
  66 C :   -0.176569
  67 N :    0.158561
  68 H :   -0.006149
  69 H :   -0.016791
  70 H :    0.068029
  71 H :    0.071136
  72 H :    0.074361
  73 H :    0.049583
  74 H :    0.050411
  75 H :    0.020521
  76 H :    0.015164
  77 H :    0.062737
  78 H :    0.050724
  79 H :    0.015198
  80 H :   -0.003159
  81 H :    0.033554
  82 H :    0.032919
  83 H :    0.031521
  84 H :    0.036522
  85 H :    0.017783
  86 H :    0.013574
  87 H :    0.007817
  88 H :    0.008952
  89 H :    0.031884
  90 H :    0.029391
  91 H :    0.012026
  92 H :   -0.005243
  93 H :    0.006892
  94 H :    0.008076
  95 H :    0.028540
  96 H :   -0.007792
  97 H :    0.007449
  98 H :   -0.000035
  99 H :   -0.003418
Sum of atomic charges:   -0.0000000

LOEWDIN ATOMIC CHARGES
----------------------
   0 C :   -0.045249
   1 C :   -0.097081
   2 C :   -0.319301
   3 S :    0.302354
   4 C :   -0.161036
   5 S :    0.430621
   6 C :   -0.215405
   7 C :   -0.165774
   8 S :    0.431362
   9 C :   -0.189598
  10 C :   -0.194438
  11 C :   -0.236497
  12 S :    0.287333
  13 C :   -0.125774
  14 C :   -0.065462
  15 C :   -0.125536
  16 S :    0.289909
  17 C :   -0.014578
  18 C :   -0.073298
  19 C :   -0.135759
  20 S :    0.472618
  21 C :   -0.179718
  22 C :   -0.023599
  23 C :   -0.062998
  24 C :   -0.045756
  25 C :    0.089287
  26 O :   -0.177183
  27 O :   -0.078849
  28 C :    0.082048
  29 C :   -0.013435
  30 C :   -0.023946
  31 C :   -0.029948
  32 C :   -0.006500
  33 C :   -0.069003
  34 C :    0.056429
  35 C :   -0.066489
  36 C :    0.048016
  37 C :   -0.031443
  38 N :   -0.058273
  39 C :    0.014434
  40 C :    0.024332
  41 C :   -0.047092
  42 C :    0.041789
  43 C :   -0.078249
  44 C :   -0.028003
  45 N :   -0.067862
  46 C :    0.081098
  47 C :   -0.089334
  48 C :    0.082497
  49 O :   -0.138693
  50 C :   -0.053447
  51 C :    0.030419
  52 C :   -0.009278
  53 C :   -0.005769
  54 C :   -0.030002
  55 C :    0.067210
  56 C :    0.067139
  57 C :   -0.032745
  58 F :   -0.050364
  59 F :   -0.049581
  60 C :    0.013849
  61 C :   -0.020815
  62 C :    0.064151
  63 C :   -0.132730
  64 C :   -0.021041
  65 N :   -0.040144
  66 C :   -0.018806
  67 N :   -0.048138
  68 H :    0.026217
  69 H :    0.028822
  70 H :    0.035391
  71 H :    0.023811
  72 H :    0.026560
  73 H :    0.025701
  74 H :    0.027774
  75 H :    0.024604
  76 H :    0.029426
  77 H :    0.026514
  78 H :    0.029846
  79 H :    0.029353
  80 H :    0.024110
  81 H :    0.043000
  82 H :    0.021815
  83 H :    0.022582
  84 H :    0.026996
  85 H :    0.030655
  86 H :    0.025427
  87 H :    0.029049
  88 H :    0.026290
  89 H :    0.036765
  90 H :    0.035813
  91 H :    0.027347
  92 H :    0.034989
  93 H :    0.037847
  94 H :    0.034711
  95 H :    0.052482
  96 H :    0.040926
  97 H :    0.047612
  98 H :    0.044929
  99 H :    0.039758

  Mayer bond orders larger than 0.100000
B(  0-C ,  1-C ) :   1.3009 B(  0-C ,  6-C ) :   1.4796 B(  0-C , 68-H ) :   0.9898
B(  1-C ,  2-C ) :   1.5269 B(  1-C , 69-H ) :   0.9946 B(  2-C ,  3-S ) :   1.0377
B(  2-C ,  5-S ) :   1.1038 B(  3-S ,  4-C ) :   1.0133 B(  4-C , 70-H ) :   0.9726
B(  4-C , 71-H ) :   0.9644 B(  4-C , 72-H ) :   0.9656 B(  5-S ,  6-C ) :   1.0990
B(  6-C ,  7-C ) :   1.1886 B(  7-C ,  8-S ) :   1.1249 B(  7-C ,  9-C ) :   0.1004
B(  7-C , 11-C ) :   1.5287 B(  8-S ,  9-C ) :   1.0794 B(  9-C , 10-C ) :   1.5234
B(  9-C , 17-C ) :   1.2244 B( 10-C , 11-C ) :   1.2635 B( 10-C , 16-S ) :   1.0557
B( 11-C , 12-S ) :   1.0463 B( 12-S , 13-C ) :   1.0058 B( 13-C , 14-C ) :   1.0416
B( 13-C , 73-H ) :   0.9483 B( 13-C , 74-H ) :   0.9525 B( 14-C , 15-C ) :   1.0390
B( 14-C , 75-H ) :   0.9371 B( 14-C , 76-H ) :   0.9304 B( 15-C , 16-S ) :   1.0089
B( 15-C , 77-H ) :   0.9429 B( 15-C , 78-H ) :   0.9508 B( 17-C , 18-C ) :   1.6113
B( 17-C , 79-H ) :   0.9427 B( 18-C , 19-C ) :   1.1363 B( 18-C , 80-H ) :   0.9500
B( 19-C , 20-S ) :   1.1485 B( 19-C , 23-C ) :   1.4377 B( 20-S , 21-C ) :   1.1132
B( 21-C , 22-C ) :   1.4334 B( 21-C , 32-C ) :   1.1618 B( 22-C , 23-C ) :   1.3954
B( 22-C , 31-C ) :   1.0493 B( 23-C , 24-C ) :   0.9618 B( 24-C , 25-C ) :   0.9345
B( 24-C , 29-C ) :   1.0668 B( 24-C , 81-H ) :   0.8769 B( 25-C , 26-O ) :   2.0801
B( 25-C , 27-O ) :   1.2238 B( 27-O , 28-C ) :   0.9208 B( 28-C , 82-H ) :   0.9717
B( 28-C , 83-H ) :   0.9770 B( 28-C , 84-H ) :   0.9811 B( 29-C , 30-C ) :   1.0750
B( 29-C , 85-H ) :   0.9350 B( 29-C , 86-H ) :   0.9389 B( 30-C , 31-C ) :   1.0923
B( 30-C , 87-H ) :   0.9310 B( 30-C , 88-H ) :   0.9348 B( 31-C , 89-H ) :   0.9145
B( 31-C , 90-H ) :   0.9049 B( 32-C , 33-C ) :   1.4718 B( 32-C , 36-C ) :   1.0347
B( 33-C , 34-C ) :   1.2100 B( 33-C , 91-H ) :   0.9902 B( 34-C , 35-C ) :   1.0831
B( 34-C , 39-C ) :   1.3386 B( 35-C , 36-C ) :   1.6948 B( 35-C , 37-C ) :   1.0864
B( 36-C , 92-H ) :   1.0175 B( 37-C , 38-N ) :   2.9705 B( 39-C , 40-C ) :   1.1405
B( 39-C , 43-C ) :   1.1379 B( 40-C , 41-C ) :   1.4837 B( 40-C , 93-H ) :   1.0051
B( 41-C , 42-C ) :   1.0646 B( 41-C , 46-C ) :   1.0815 B( 42-C , 43-C ) :   1.6525
B( 42-C , 94-H ) :   1.0143 B( 43-C , 44-C ) :   1.0973 B( 44-C , 45-N ) :   2.9666
B( 46-C , 47-C ) :   1.6255 B( 46-C , 95-H ) :   0.9584 B( 47-C , 48-C ) :   0.9385
B( 47-C , 62-C ) :   1.0463 B( 48-C , 49-O ) :   2.2825 B( 48-C , 50-C ) :   0.9138
B( 50-C , 51-C ) :   1.4764 B( 50-C , 61-C ) :   1.2211 B( 51-C , 52-C ) :   1.1946
B( 51-C , 96-H ) :   1.0154 B( 52-C , 53-C ) :   1.2559 B( 52-C , 57-C ) :   1.1943
B( 53-C , 54-C ) :   1.1907 B( 53-C , 60-C ) :   1.2136 B( 54-C , 55-C ) :   1.4421
B( 54-C , 57-C ) :   0.1088 B( 54-C , 97-H ) :   1.0064 B( 55-C , 56-C ) :   1.1916
B( 55-C , 59-F ) :   1.1342 B( 56-C , 57-C ) :   1.4439 B( 56-C , 58-F ) :   1.1330
B( 57-C , 98-H ) :   1.0062 B( 60-C , 61-C ) :   1.4589 B( 60-C , 99-H ) :   0.9939
B( 61-C , 62-C ) :   0.9977 B( 62-C , 63-C ) :   1.6511 B( 63-C , 64-C ) :   1.1558
B( 63-C , 66-C ) :   1.1386 B( 64-C , 65-N ) :   2.9970 B( 66-C , 67-N ) :   2.9842

-----------------------------------------------------------------------------
         ABSORPTION SPECTRUM VIA TRANSITION ELECTRIC DIPOLE MOMENTS
-----------------------------------------------------------------------------
State   Energy  Wavelength   fosc         T2         TX        TY        TZ
        (cm-1)    (nm)                  (au**2)     (au)      (au)      (au)
-----------------------------------------------------------------------------
   0    9510.0   1051.5   0.852655441  29.51662  -3.32657  -3.06911   3.00518
   1   15784.9    633.5   0.182275539   3.80157  -1.17099  -0.85259  -1.30516
   2   17526.6    570.6   0.024744154   0.46478   0.12660   0.49624  -0.45000
   3   21138.7    473.1   0.115462026   1.79819   0.35267  -0.51035   1.18885
   4   22487.4    444.7   0.533691117   7.81316  -1.82084  -1.64938   1.33314
   5   23336.0    428.5   0.120032406   1.69335  -1.13454  -0.63564  -0.04612
   6   23568.8    424.3   0.615844828   8.60220   1.65641   2.28786   0.79006
   7   24652.1    405.6   0.057836689   0.77237   0.20410   0.50590  -0.68904
   8   25197.7    396.9   0.050862120   0.66452  -0.15249  -0.08739   0.79601
   9   25981.3    384.9   0.031530305   0.39952   0.34967  -0.45830   0.25927
  10   26464.8    377.9   0.081654546   1.01575  -0.52515   0.11005  -0.85315
  11   26618.2    375.7   0.012960658   0.16030  -0.32474  -0.04041   0.23067
  12   27351.1    365.6   0.368266656   4.43265   0.21421  -0.06874   2.09333
  13   27845.7    359.1   0.009617074   0.11370   0.16374  -0.03548  -0.29263
  14   28843.3    346.7   0.045261728   0.51661   0.46701   0.49461  -0.23211
  15   29186.3    342.6   0.105801897   1.19341   0.49796   0.34278  -0.90992
  16   30460.2    328.3   0.049644905   0.53656  -0.69110   0.20385   0.13184
  17   30937.5    323.2   0.263773053   2.80686   0.70749   0.47952  -1.44097
  18   31081.6    321.7   0.166696473   1.76563   0.44449   0.01435  -1.25214
  19   31905.8    313.4   0.040727916   0.42024   0.04267   0.22629   0.60598
  20   32404.0    308.6   0.155362680   1.57843  -0.75411   0.62740   0.78493
  21   33052.6    302.5   0.053434574   0.53222   0.30811   0.56501   0.34359
  22   33102.9    302.1   0.001866072   0.01856   0.10186  -0.05972  -0.06795
  23   33667.8    297.0   0.030921009   0.30235  -0.53744   0.00442   0.11614
  24   33879.4    295.2   0.191922123   1.86494  -0.76259  -0.41744   1.05315
  25   34306.7    291.5   0.000627278   0.00602  -0.03599  -0.06767   0.01206
  26   34725.1    288.0   0.088659821   0.84054  -0.28917  -0.01047   0.86995
  27   34961.6    286.0   0.027651991   0.26038   0.41270  -0.14229  -0.26423
  28   35747.0    279.7   0.016054917   0.14786   0.31286  -0.00717  -0.22344
  29   35827.5    279.1   0.160079313   1.47094   0.77473   0.12323  -0.92496
  30   36164.2    276.5   0.476148658   4.33450   1.32193   0.45816  -1.54178
  31   36300.2    275.5   0.022894335   0.20763  -0.30905  -0.12146   0.31204
  32   36328.2    275.3   0.005731935   0.05194  -0.06798  -0.18662  -0.11178
  33   36876.7    271.2   0.018861371   0.16838   0.15660   0.35971   0.12027
  34   36948.3    270.6   0.016427151   0.14637  -0.13349   0.35719   0.03103
  35   37547.2    266.3   0.063572999   0.55740   0.19254   0.34194  -0.63514
  36   37719.3    265.1   0.008847975   0.07722  -0.20516   0.15769   0.10134
  37   38703.9    258.4   0.010591158   0.09009   0.03164  -0.02592  -0.29735
  38   39134.0    255.5   0.040382516   0.33972   0.34548   0.46886   0.02304
  39   39498.8    253.2   0.001682455   0.01402  -0.00580  -0.00991  -0.11786
  40   39840.3    251.0   0.031531071   0.26055  -0.11743  -0.19165  -0.45829
  41   40204.6    248.7   0.022293056   0.18254   0.11347   0.06851  -0.40617

FINAL SINGLE POINT ENERGY     -5068.216707896222

DIPOLE MOMENT
-------------
                                X             Y             Z
Electronic contribution:    -44.41081     -52.79229      95.86678
Nuclear contribution   :     45.47589      55.96130     -98.92484
                        -----------------------------------------
Total Dipole Moment    :      1.06508       3.16900      -3.05806
                        -----------------------------------------
Magnitude (a.u.)       :      4.53086
Magnitude (Debye)      :     11.51654

Rotational constants in cm-1:     0.001488     0.000248     0.000220
Rotational constants in MHz :    44.609673     7.449550     6.608133

                             ****ORCA TERMINATED NORMALLY****
TOTAL RUN TIME: 0 days 0 hours 10 minutes 5 seconds 274 msec
