                         Program Version 4.2.0 -  RELEASE  -
|  1> # ORCA input file
|  2> # SCF done       -163.631568930775          0.000821989513
|  3> ! CAM-B3LYP def2-SVP def2/J RIJCOSX Grid4 TightSCF
|  4> %maxcore 5000
|  5> %tddft
|  6>     Mode sTDDFT
|  7>     Ethresh 5.0
|  8>     maxcore 5000
|  9> end
| 10>
| 11> %pal
| 12>   nprocs 6
| 13>   end
| 14> * xyz 0 1
| 15>    C        0.09880        -0.66147         5.04012
| 16>    S        0.24199        -0.98084         3.36902
| 17>    C       -0.60883        -2.48828         3.53446
| 18>    C       -0.97244        -2.70034         4.84830
| 19>    C       -0.55688        -1.65227         5.71753
| 20>    C       -0.75759        -1.61617         7.19190
| 21>    O       -0.58928        -0.62216         7.84319
| 22>    O       -1.13110        -2.77316         7.74754
| 23>    O       -1.65817        -3.82178         5.26012
| 24>    C       -3.07653        -3.67296         5.25602
| 25>    C       -0.82460        -3.36838         2.43445
| 26>    S       -1.51196        -4.94649         2.67435
| 27>    C       -1.39553        -5.31388         0.97945
| 28>    C       -0.84073        -4.23514         0.28254
| 29>    C       -0.52134        -3.14617         1.11223
| 30>    C       -0.61817        -4.19017        -1.10283
| 31>    N       -0.42518        -4.11043        -2.23197
| 32>    C       -1.84206        -6.57771         0.52874
| 33>    C       -1.76588        -7.02358        -0.75501
| 34>    C       -2.22418        -8.30282        -1.14261
| 35>    N       -2.15142        -8.77618        -2.43111
| 36>    C       -1.67089        -8.05882        -3.58838
| 37>    C       -2.69692        -7.05347        -4.10401
| 38>    C       -2.65922       -10.08096        -2.54217
| 39>    O       -2.69257       -10.70083        -3.58721
| 40>    C       -3.06783       -10.42337        -1.19670
| 41>    C       -2.79235        -9.31567        -0.36416
| 42>    C       -3.20234        -9.65578         0.98179
| 43>    O       -3.17281        -9.02665         2.02270
| 44>    N       -3.70465       -10.95920         0.87367
| 45>    C       -4.17412       -11.68043         2.03331
| 46>    C       -3.12767       -12.66119         2.55587
| 47>    C       -3.62903       -11.44020        -0.41499
| 48>    C       -4.06100       -12.72545        -0.79888
| 49>    C       -3.96926       -13.18224        -2.08197
| 50>    C       -4.37763       -14.47128        -2.49473
| 51>    C       -4.89953       -15.50714        -1.74390
| 52>    C       -5.14394       -16.62499        -2.58788
| 53>    C       -4.74022       -16.20768        -3.94612
| 54>    C       -4.28744       -14.93011        -3.87499
| 55>    C       -4.81198       -16.97354        -5.11482
| 56>    N       -4.86238       -17.57458        -6.09272
| 57>    C       -5.63768       -17.85472        -2.21993
| 58>    C       -5.82230       -19.00231        -3.05174
| 59>    C       -6.26533       -20.04710        -2.28287
| 60>    C       -6.43271       -19.57135        -0.91815
| 61>    C       -6.05947       -18.26425        -0.87063
| 62>    C       -6.11130       -17.45265         0.26672
| 63>    N       -6.16884       -16.79206         1.20598
| 64>    C       -6.55319       -21.36459        -2.76278
| 65>    S       -7.20328       -21.53798        -4.35835
| 66>    C       -7.30663       -23.24320        -4.18772
| 67>    C       -6.85314       -23.66634        -2.97311
| 68>    C       -6.40233       -22.59260        -2.13956
| 69>    C       -5.70232       -22.74923        -0.84162
| 70>    O       -5.11543       -21.84620        -0.30223
| 71>    O       -5.72831       -23.96793        -0.29338
| 72>    O       -6.80599       -24.95483        -2.53118
| 73>    C       -7.19317       -25.96856        -3.43408
| 74>    H        0.51235         0.23208         5.46315
| 75>    H       -1.23158        -3.48358         7.08526
| 76>    H       -3.47668        -4.64367         5.53887
| 77>    H       -3.44020        -3.40203         4.26225
| 78>    H       -3.39402        -2.91304         5.97595
| 79>    H       -0.08556        -2.23042         0.75305
| 80>    H       -2.26888        -7.22403         1.28559
| 81>    H       -1.33497        -6.39463        -1.51833
| 82>    H       -1.48204        -8.81658        -4.35392
| 83>    H       -0.72956        -7.55842        -3.34601
| 84>    H       -3.61948        -7.56443        -4.36904
| 85>    H       -2.30666        -6.55616        -4.98707
| 86>    H       -2.91825        -6.29947        -3.35218
| 87>    H       -5.10498       -12.19912         1.78945
| 88>    H       -4.38141       -10.92419         2.79553
| 89>    H       -2.86845       -13.39734         1.79845
| 90>    H       -3.51599       -13.18095         3.42698
| 91>    H       -2.22550       -12.12582         2.84200
| 92>    H       -4.48004       -13.36559        -0.03663
| 93>    H       -3.55586       -12.53420        -2.84369
| 94>    H       -5.08800       -15.50138        -0.68928
| 95>    H       -3.91881       -14.33094        -4.68715
| 96>    H       -5.60071       -19.04284        -4.10048
| 97>    H       -6.81360       -20.15335        -0.10254
| 98>    H       -7.69400       -23.82588        -4.99816
| 99>    H       -6.17014       -24.61992        -0.86324
|100>    H       -7.05015       -26.90727        -2.90271
|101>    H       -6.56903       -25.95444        -4.33128
|102>    H       -8.24397       -25.86237        -3.71656
|103> *
|104>
|105>                          ****END OF INPUT****

CARTESIAN COORDINATES (ANGSTROEM)
---------------------------------
  C      0.098800   -0.661470    5.040120
  S      0.241990   -0.980840    3.369020
  C     -0.608830   -2.488280    3.534460
  C     -0.972440   -2.700340    4.848300
  C     -0.556880   -1.652270    5.717530
  C     -0.757590   -1.616170    7.191900
  O     -0.589280   -0.622160    7.843190
  O     -1.131100   -2.773160    7.747540
  O     -1.658170   -3.821780    5.260120
  C     -3.076530   -3.672960    5.256020
  C     -0.824600   -3.368380    2.434450
  S     -1.511960   -4.946490    2.674350
  C     -1.395530   -5.313880    0.979450
  C     -0.840730   -4.235140    0.282540
  C     -0.521340   -3.146170    1.112230
  C     -0.618170   -4.190170   -1.102830
  N     -0.425180   -4.110430   -2.231970
  C     -1.842060   -6.577710    0.528740
  C     -1.765880   -7.023580   -0.755010
  C     -2.224180   -8.302820   -1.142610
  N     -2.151420   -8.776180   -2.431110
  C     -1.670890   -8.058820   -3.588380
  C     -2.696920   -7.053470   -4.104010
  C     -2.659220  -10.080960   -2.542170
  O     -2.692570  -10.700830   -3.587210
  C     -3.067830  -10.423370   -1.196700
  C     -2.792350   -9.315670   -0.364160
  C     -3.202340   -9.655780    0.981790
  O     -3.172810   -9.026650    2.022700
  N     -3.704650  -10.959200    0.873670
  C     -4.174120  -11.680430    2.033310
  C     -3.127670  -12.661190    2.555870
  C     -3.629030  -11.440200   -0.414990
  C     -4.061000  -12.725450   -0.798880
  C     -3.969260  -13.182240   -2.081970
  C     -4.377630  -14.471280   -2.494730
  C     -4.899530  -15.507140   -1.743900
  C     -5.143940  -16.624990   -2.587880
  C     -4.740220  -16.207680   -3.946120
  C     -4.287440  -14.930110   -3.874990
  C     -4.811980  -16.973540   -5.114820
  N     -4.862380  -17.574580   -6.092720
  C     -5.637680  -17.854720   -2.219930
  C     -5.822300  -19.002310   -3.051740
  C     -6.265330  -20.047100   -2.282870
  C     -6.432710  -19.571350   -0.918150
  C     -6.059470  -18.264250   -0.870630
  C     -6.111300  -17.452650    0.266720
  N     -6.168840  -16.792060    1.205980
  C     -6.553190  -21.364590   -2.762780
  S     -7.203280  -21.537980   -4.358350
  C     -7.306630  -23.243200   -4.187720
  C     -6.853140  -23.666340   -2.973110
  C     -6.402330  -22.592600   -2.139560
  C     -5.702320  -22.749230   -0.841620
  O     -5.115430  -21.846200   -0.302230
  O     -5.728310  -23.967930   -0.293380
  O     -6.805990  -24.954830   -2.531180
  C     -7.193170  -25.968560   -3.434080
  H      0.512350    0.232080    5.463150
  H     -1.231580   -3.483580    7.085260
  H     -3.476680   -4.643670    5.538870
  H     -3.440200   -3.402030    4.262250
  H     -3.394020   -2.913040    5.975950
  H     -0.085560   -2.230420    0.753050
  H     -2.268880   -7.224030    1.285590
  H     -1.334970   -6.394630   -1.518330
  H     -1.482040   -8.816580   -4.353920
  H     -0.729560   -7.558420   -3.346010
  H     -3.619480   -7.564430   -4.369040
  H     -2.306660   -6.556160   -4.987070
  H     -2.918250   -6.299470   -3.352180
  H     -5.104980  -12.199120    1.789450
  H     -4.381410  -10.924190    2.795530
  H     -2.868450  -13.397340    1.798450
  H     -3.515990  -13.180950    3.426980
  H     -2.225500  -12.125820    2.842000
  H     -4.480040  -13.365590   -0.036630
  H     -3.555860  -12.534200   -2.843690
  H     -5.088000  -15.501380   -0.689280
  H     -3.918810  -14.330940   -4.687150
  H     -5.600710  -19.042840   -4.100480
  H     -6.813600  -20.153350   -0.102540
  H     -7.694000  -23.825880   -4.998160
  H     -6.170140  -24.619920   -0.863240
  H     -7.050150  -26.907270   -2.902710
  H     -6.569030  -25.954440   -4.331280
  H     -8.243970  -25.862370   -3.716560

 Total Charge           Charge          ....    0
 Multiplicity           Mult            ....    1
 Number of Electrons    NEL             ....  434
 Basis Dimension        Dim             ....  983

ORBITAL ENERGIES
----------------

  NO   OCC          E(Eh)            E(eV)
   0   2.0000     -88.986310     -2421.4406
   1   2.0000     -88.983364     -2421.3604
   2   2.0000     -88.977846     -2421.2103
   3   2.0000     -19.287797      -524.8476
   4   2.0000     -19.282603      -524.7063
   5   2.0000     -19.252212      -523.8793
   6   2.0000     -19.246871      -523.7340
   7   2.0000     -19.194613      -522.3120
   8   2.0000     -19.194232      -522.3016
   9   2.0000     -19.193600      -522.2844
  10   2.0000     -19.193540      -522.2828
  11   2.0000     -14.454879      -393.3373
  12   2.0000     -14.454802      -393.3352
  13   2.0000     -14.418329      -392.3427
  14   2.0000     -14.404579      -391.9685
  15   2.0000     -14.401912      -391.8959
  16   2.0000     -10.403825      -283.1025
  17   2.0000     -10.402857      -283.0761
  18   2.0000     -10.376185      -282.3504
  19   2.0000     -10.376016      -282.3458
  20   2.0000     -10.361896      -281.9615
  21   2.0000     -10.358115      -281.8586
  22   2.0000     -10.350896      -281.6622
  23   2.0000     -10.343760      -281.4680
  24   2.0000     -10.341254      -281.3998
  25   2.0000     -10.339931      -281.3638
  26   2.0000     -10.334824      -281.2248
  27   2.0000     -10.332491      -281.1614
  28   2.0000     -10.331676      -281.1392
  29   2.0000     -10.329679      -281.0849
  30   2.0000     -10.325141      -280.9614
  31   2.0000     -10.323212      -280.9089
  32   2.0000     -10.319804      -280.8161
  33   2.0000     -10.319455      -280.8067
  34   2.0000     -10.317861      -280.7633
  35   2.0000     -10.310555      -280.5645
  36   2.0000     -10.308396      -280.5057
  37   2.0000     -10.307141      -280.4716
  38   2.0000     -10.307018      -280.4682
  39   2.0000     -10.306891      -280.4648
  40   2.0000     -10.305943      -280.4390
  41   2.0000     -10.305441      -280.4253
  42   2.0000     -10.305426      -280.4249
  43   2.0000     -10.304986      -280.4129
  44   2.0000     -10.304398      -280.3969
  45   2.0000     -10.302928      -280.3569
  46   2.0000     -10.302009      -280.3319
  47   2.0000     -10.301938      -280.3300
  48   2.0000     -10.301714      -280.3239
  49   2.0000     -10.296524      -280.1827
  50   2.0000     -10.296046      -280.1697
  51   2.0000     -10.294991      -280.1409
  52   2.0000     -10.291560      -280.0476
  53   2.0000     -10.285586      -279.8850
  54   2.0000     -10.281085      -279.7625
  55   2.0000     -10.265370      -279.3349
  56   2.0000     -10.264373      -279.3078
  57   2.0000     -10.260826      -279.2113
  58   2.0000     -10.259000      -279.1616
  59   2.0000      -8.081986      -219.9220
  60   2.0000      -8.078136      -219.8173
  61   2.0000      -8.073414      -219.6888
  62   2.0000      -6.051242      -164.6627
  63   2.0000      -6.047393      -164.5579
  64   2.0000      -6.046980      -164.5467
  65   2.0000      -6.044215      -164.4714
  66   2.0000      -6.043087      -164.4408
  67   2.0000      -6.042724      -164.4309
  68   2.0000      -6.040421      -164.3682
  69   2.0000      -6.038419      -164.3137
  70   2.0000      -6.035578      -164.2364
  71   2.0000      -1.191011       -32.4091
  72   2.0000      -1.186904       -32.2973
  73   2.0000      -1.172454       -31.9041
  74   2.0000      -1.170489       -31.8506
  75   2.0000      -1.135954       -30.9109
  76   2.0000      -1.129345       -30.7310
  77   2.0000      -1.092109       -29.7178
  78   2.0000      -1.091091       -29.6901
  79   2.0000      -1.065877       -29.0040
  80   2.0000      -1.057438       -28.7743
  81   2.0000      -1.023868       -27.8609
  82   2.0000      -1.014416       -27.6037
  83   2.0000      -1.006616       -27.3914
  84   2.0000      -1.003454       -27.3054
  85   2.0000      -0.993479       -27.0339
  86   2.0000      -0.992988       -27.0206
  87   2.0000      -0.980533       -26.6817
  88   2.0000      -0.974329       -26.5128
  89   2.0000      -0.930498       -25.3201
  90   2.0000      -0.921524       -25.0759
  91   2.0000      -0.910993       -24.7894
  92   2.0000      -0.888572       -24.1793
  93   2.0000      -0.882414       -24.0117
  94   2.0000      -0.874956       -23.8088
  95   2.0000      -0.872482       -23.7414
  96   2.0000      -0.869894       -23.6710
  97   2.0000      -0.862963       -23.4824
  98   2.0000      -0.855829       -23.2883
  99   2.0000      -0.844220       -22.9724
 100   2.0000      -0.836434       -22.7605
 101   2.0000      -0.831727       -22.6324
 102   2.0000      -0.819259       -22.2932
 103   2.0000      -0.806766       -21.9532
 104   2.0000      -0.799655       -21.7597
 105   2.0000      -0.793094       -21.5812
 106   2.0000      -0.782553       -21.2944
 107   2.0000      -0.764854       -20.8127
 108   2.0000      -0.759196       -20.6588
 109   2.0000      -0.733193       -19.9512
 110   2.0000      -0.725206       -19.7339
 111   2.0000      -0.721883       -19.6434
 112   2.0000      -0.717108       -19.5135
 113   2.0000      -0.713499       -19.4153
 114   2.0000      -0.709573       -19.3085
 115   2.0000      -0.703832       -19.1522
 116   2.0000      -0.701761       -19.0959
 117   2.0000      -0.691844       -18.8260
 118   2.0000      -0.686272       -18.6744
 119   2.0000      -0.678999       -18.4765
 120   2.0000      -0.676437       -18.4068
 121   2.0000      -0.671261       -18.2659
 122   2.0000      -0.661563       -18.0020
 123   2.0000      -0.652202       -17.7473
 124   2.0000      -0.650250       -17.6942
 125   2.0000      -0.636833       -17.3291
 126   2.0000      -0.633448       -17.2370
 127   2.0000      -0.627945       -17.0873
 128   2.0000      -0.618484       -16.8298
 129   2.0000      -0.605576       -16.4786
 130   2.0000      -0.603692       -16.4273
 131   2.0000      -0.592145       -16.1131
 132   2.0000      -0.589771       -16.0485
 133   2.0000      -0.586613       -15.9626
 134   2.0000      -0.581602       -15.8262
 135   2.0000      -0.579684       -15.7740
 136   2.0000      -0.573807       -15.6141
 137   2.0000      -0.571598       -15.5540
 138   2.0000      -0.567584       -15.4448
 139   2.0000      -0.563286       -15.3278
 140   2.0000      -0.559757       -15.2318
 141   2.0000      -0.557694       -15.1756
 142   2.0000      -0.541974       -14.7479
 143   2.0000      -0.536024       -14.5859
 144   2.0000      -0.534036       -14.5319
 145   2.0000      -0.533314       -14.5122
 146   2.0000      -0.531926       -14.4744
 147   2.0000      -0.531193       -14.4545
 148   2.0000      -0.530051       -14.4234
 149   2.0000      -0.529444       -14.4069
 150   2.0000      -0.527407       -14.3515
 151   2.0000      -0.523764       -14.2523
 152   2.0000      -0.520556       -14.1651
 153   2.0000      -0.520127       -14.1534
 154   2.0000      -0.518303       -14.1037
 155   2.0000      -0.516024       -14.0417
 156   2.0000      -0.510638       -13.8952
 157   2.0000      -0.508254       -13.8303
 158   2.0000      -0.506376       -13.7792
 159   2.0000      -0.505124       -13.7451
 160   2.0000      -0.503457       -13.6998
 161   2.0000      -0.499380       -13.5888
 162   2.0000      -0.491219       -13.3667
 163   2.0000      -0.490083       -13.3358
 164   2.0000      -0.487863       -13.2754
 165   2.0000      -0.486621       -13.2416
 166   2.0000      -0.483806       -13.1650
 167   2.0000      -0.479961       -13.0604
 168   2.0000      -0.477873       -13.0036
 169   2.0000      -0.476050       -12.9540
 170   2.0000      -0.473861       -12.8944
 171   2.0000      -0.471172       -12.8212
 172   2.0000      -0.468107       -12.7378
 173   2.0000      -0.466482       -12.6936
 174   2.0000      -0.459501       -12.5037
 175   2.0000      -0.454873       -12.3777
 176   2.0000      -0.453547       -12.3416
 177   2.0000      -0.451613       -12.2890
 178   2.0000      -0.451000       -12.2723
 179   2.0000      -0.445100       -12.1118
 180   2.0000      -0.443804       -12.0765
 181   2.0000      -0.443158       -12.0589
 182   2.0000      -0.442328       -12.0364
 183   2.0000      -0.441016       -12.0007
 184   2.0000      -0.438273       -11.9260
 185   2.0000      -0.437510       -11.9053
 186   2.0000      -0.435660       -11.8549
 187   2.0000      -0.435062       -11.8386
 188   2.0000      -0.433708       -11.8018
 189   2.0000      -0.431534       -11.7426
 190   2.0000      -0.429395       -11.6844
 191   2.0000      -0.423614       -11.5271
 192   2.0000      -0.422398       -11.4940
 193   2.0000      -0.416881       -11.3439
 194   2.0000      -0.413199       -11.2437
 195   2.0000      -0.411365       -11.1938
 196   2.0000      -0.398682       -10.8487
 197   2.0000      -0.392719       -10.6864
 198   2.0000      -0.390433       -10.6242
 199   2.0000      -0.386801       -10.5254
 200   2.0000      -0.385843       -10.4993
 201   2.0000      -0.375695       -10.2232
 202   2.0000      -0.352796        -9.6001
 203   2.0000      -0.351069        -9.5531
 204   2.0000      -0.350661        -9.5420
 205   2.0000      -0.344810        -9.3828
 206   2.0000      -0.342992        -9.3333
 207   2.0000      -0.340989        -9.2788
 208   2.0000      -0.340279        -9.2595
 209   2.0000      -0.334789        -9.1101
 210   2.0000      -0.323387        -8.7998
 211   2.0000      -0.317518        -8.6401
 212   2.0000      -0.315632        -8.5888
 213   2.0000      -0.298633        -8.1262
 214   2.0000      -0.288343        -7.8462
 215   2.0000      -0.282683        -7.6922
 216   2.0000      -0.232990        -6.3400
 217   0.0000      -0.124269        -3.3815
 218   0.0000      -0.085355        -2.3226
 219   0.0000      -0.040636        -1.1058
 220   0.0000      -0.024521        -0.6673
 221   0.0000      -0.021468        -0.5842

MULLIKEN ATOMIC CHARGES
-----------------------
   0 C :   -0.081590
   1 S :    0.170231
   2 C :   -0.088077
   3 C :    0.110376
   4 C :   -0.033400
   5 C :    0.150233
   6 O :   -0.171850
   7 O :   -0.164298
   8 O :   -0.382866
   9 C :    0.180511
  10 C :   -0.057426
  11 S :    0.185613
  12 C :   -0.065143
  13 C :   -0.060184
  14 C :   -0.021065
  15 C :   -0.168809
  16 N :    0.114411
  17 C :    0.056072
  18 C :   -0.039535
  19 C :    0.136867
  20 N :   -0.255117
  21 C :    0.096151
  22 C :    0.011372
  23 C :    0.166977
  24 O :   -0.209951
  25 C :   -0.061444
  26 C :   -0.067813
  27 C :    0.168012
  28 O :   -0.217687
  29 N :   -0.255293
  30 C :    0.097169
  31 C :    0.008042
  32 C :    0.143001
  33 C :   -0.015006
  34 C :    0.002915
  35 C :    0.108430
  36 C :   -0.119937
  37 C :    0.115298
  38 C :   -0.092114
  39 C :    0.001882
  40 C :   -0.175699
  41 N :    0.128080
  42 C :    0.109702
  43 C :   -0.115026
  44 C :    0.095376
  45 C :    0.075248
  46 C :   -0.130020
  47 C :   -0.165282
  48 N :    0.116000
  49 C :   -0.165222
  50 S :    0.188187
  51 C :   -0.190983
  52 C :    0.230098
  53 C :   -0.004209
  54 C :    0.149625
  55 O :   -0.186378
  56 O :   -0.155981
  57 O :   -0.365157
  58 C :    0.177508
  59 H :    0.050242
  60 H :    0.187063
  61 H :    0.055907
  62 H :    0.035647
  63 H :    0.039150
  64 H :    0.000631
  65 H :    0.003488
  66 H :   -0.014743
  67 H :    0.041495
  68 H :    0.034350
  69 H :    0.022961
  70 H :    0.028120
  71 H :    0.017847
  72 H :    0.031127
  73 H :    0.040631
  74 H :    0.018474
  75 H :    0.029620
  76 H :    0.025551
  77 H :   -0.013357
  78 H :    0.004422
  79 H :    0.000353
  80 H :    0.009646
  81 H :    0.005918
  82 H :    0.004851
  83 H :    0.023965
  84 H :    0.182336
  85 H :    0.048928
  86 H :    0.038404
  87 H :    0.036146
Sum of atomic charges:   -0.0000000

LOEWDIN ATOMIC CHARGES
----------------------
   0 C :   -0.131287
   1 S :    0.479610
   2 C :   -0.211244
   3 C :    0.000568
   4 C :   -0.134255
   5 C :    0.073312
   6 O :   -0.161118
   7 O :   -0.031732
   8 O :   -0.132663
   9 C :    0.079127
  10 C :   -0.177663
  11 S :    0.502013
  12 C :   -0.147605
  13 C :   -0.101267
  14 C :   -0.033861
  15 C :   -0.025274
  16 N :   -0.060900
  17 C :   -0.001685
  18 C :   -0.034196
  19 C :    0.075333
  20 N :    0.003669
  21 C :    0.036956
  22 C :   -0.058523
  23 C :    0.080964
  24 O :   -0.198662
  25 C :   -0.113351
  26 C :   -0.118341
  27 C :    0.079376
  28 O :   -0.206461
  29 N :    0.002349
  30 C :    0.037016
  31 C :   -0.059225
  32 C :    0.072397
  33 C :   -0.023432
  34 C :    0.023134
  35 C :   -0.021719
  36 C :   -0.016803
  37 C :    0.033382
  38 C :   -0.084390
  39 C :    0.060303
  40 C :   -0.029516
  41 N :   -0.068084
  42 C :    0.042464
  43 C :   -0.020294
  44 C :   -0.029882
  45 C :    0.082965
  46 C :   -0.096569
  47 C :   -0.023949
  48 N :   -0.077496
  49 C :   -0.128006
  50 S :    0.489641
  51 C :   -0.244213
  52 C :    0.021982
  53 C :   -0.133867
  54 C :    0.082302
  55 O :   -0.161558
  56 O :   -0.028708
  57 O :   -0.103545
  58 C :    0.087499
  59 H :    0.039451
  60 H :    0.075665
  61 H :    0.033702
  62 H :    0.017321
  63 H :    0.020213
  64 H :    0.036357
  65 H :    0.036227
  66 H :    0.035481
  67 H :    0.037262
  68 H :    0.027383
  69 H :    0.029424
  70 H :    0.033738
  71 H :    0.023407
  72 H :    0.026194
  73 H :    0.036995
  74 H :    0.023570
  75 H :    0.033842
  76 H :    0.030676
  77 H :    0.034758
  78 H :    0.037429
  79 H :    0.031424
  80 H :    0.041788
  81 H :    0.032068
  82 H :    0.038644
  83 H :    0.025373
  84 H :    0.067822
  85 H :    0.034133
  86 H :    0.022997
  87 H :    0.021635

  Mayer bond orders larger than 0.100000
B(  0-C ,  1-S ) :   1.1903 B(  0-C ,  4-C ) :   1.5585 B(  0-C , 59-H ) :   0.9633
B(  1-S ,  2-C ) :   1.1377 B(  2-C ,  3-C ) :   1.5199 B(  2-C , 10-C ) :   1.1366
B(  3-C ,  4-C ) :   1.2022 B(  3-C ,  8-O ) :   1.0824 B(  4-C ,  5-C ) :   0.8861
B(  5-C ,  6-O ) :   2.2078 B(  5-C ,  7-O ) :   1.2687 B(  7-O , 60-H ) :   0.9205
B(  8-O ,  9-C ) :   0.8862 B(  9-C , 61-H ) :   0.9821 B(  9-C , 62-H ) :   0.9697
B(  9-C , 63-H ) :   0.9713 B( 10-C , 11-S ) :   1.1324 B( 10-C , 14-C ) :   1.4751
B( 11-S , 12-C ) :   1.1218 B( 12-C , 13-C ) :   1.4327 B( 12-C , 17-C ) :   1.1626
B( 13-C , 14-C ) :   1.2921 B( 13-C , 15-C ) :   1.1153 B( 14-C , 64-H ) :   1.0041
B( 15-C , 16-N ) :   2.9659 B( 17-C , 18-C ) :   1.6040 B( 17-C , 65-H ) :   0.9198
B( 18-C , 19-C ) :   1.1811 B( 18-C , 66-H ) :   0.9469 B( 19-C , 20-N ) :   1.1669
B( 19-C , 26-C ) :   1.3149 B( 20-N , 21-C ) :   0.9398 B( 20-N , 23-C ) :   1.0626
B( 21-C , 22-C ) :   1.1231 B( 21-C , 67-H ) :   0.9272 B( 21-C , 68-H ) :   0.9480
B( 22-C , 69-H ) :   0.9631 B( 22-C , 70-H ) :   0.9675 B( 22-C , 71-H ) :   0.9677
B( 23-C , 24-O ) :   2.0227 B( 23-C , 25-C ) :   0.9840 B( 24-O , 78-H ) :   0.1132
B( 25-C , 26-C ) :   1.2706 B( 25-C , 32-C ) :   1.3176 B( 26-C , 27-C ) :   0.9858
B( 27-C , 28-O ) :   2.0135 B( 27-C , 29-N ) :   1.0705 B( 28-O , 65-H ) :   0.1191
B( 29-N , 30-C ) :   0.9417 B( 29-N , 32-C ) :   1.1561 B( 30-C , 31-C ) :   1.1214
B( 30-C , 72-H ) :   0.9499 B( 30-C , 73-H ) :   0.9278 B( 31-C , 74-H ) :   0.9687
B( 31-C , 75-H ) :   0.9679 B( 31-C , 76-H ) :   0.9634 B( 32-C , 33-C ) :   1.1715
B( 33-C , 34-C ) :   1.5665 B( 33-C , 77-H ) :   0.9663 B( 34-C , 35-C ) :   1.1147
B( 34-C , 78-H ) :   0.9556 B( 35-C , 36-C ) :   1.5197 B( 35-C , 39-C ) :   1.0379
B( 36-C , 37-C ) :   1.1367 B( 36-C , 79-H ) :   0.9953 B( 37-C , 38-C ) :   1.1013
B( 37-C , 42-C ) :   1.4123 B( 38-C , 39-C ) :   1.6610 B( 38-C , 40-C ) :   1.0890
B( 39-C , 80-H ) :   1.0270 B( 40-C , 41-N ) :   2.9641 B( 42-C , 43-C ) :   1.1030
B( 42-C , 46-C ) :   1.1157 B( 43-C , 44-C ) :   1.5874 B( 43-C , 81-H ) :   1.0005
B( 44-C , 45-C ) :   1.0628 B( 44-C , 49-C ) :   1.0508 B( 45-C , 46-C ) :   1.6641
B( 45-C , 82-H ) :   1.0078 B( 46-C , 47-C ) :   1.0925 B( 47-C , 48-N ) :   2.9604
B( 49-C , 50-S ) :   1.2179 B( 49-C , 53-C ) :   1.5051 B( 50-S , 51-C ) :   1.1075
B( 51-C , 52-C ) :   1.5360 B( 51-C , 83-H ) :   0.9764 B( 52-C , 53-C ) :   1.1909
B( 52-C , 57-O ) :   1.0708 B( 53-C , 54-C ) :   0.9053 B( 54-C , 55-O ) :   2.1201
B( 54-C , 56-O ) :   1.2956 B( 56-O , 84-H ) :   0.9207 B( 57-O , 58-C ) :   0.9320
B( 58-C , 85-H ) :   0.9806 B( 58-C , 86-H ) :   0.9708 B( 58-C , 87-H ) :   0.9717

-----------------------------------------------------------------------------
         ABSORPTION SPECTRUM VIA TRANSITION ELECTRIC DIPOLE MOMENTS
-----------------------------------------------------------------------------
State   Energy  Wavelength   fosc         T2         TX        TY        TZ
        (cm-1)    (nm)                  (au**2)     (au)      (au)      (au)
-----------------------------------------------------------------------------
   0   10102.2    989.9   0.808611762  26.35112  -1.70866  -4.81026  -0.54134
   1   16978.6    589.0   0.245580441   4.76177   0.75323   1.95995   0.59413
   2   17299.3    578.1   0.095075187   1.80932  -0.46414  -1.26197   0.03658
   3   19350.3    516.8   0.006837676   0.11633  -0.12044  -0.30894   0.07989
   4   23806.1    420.1   0.356576847   4.93107  -0.51270  -1.79947  -1.19587
   5   24643.5    405.8   0.462924821   6.18420   0.75925   2.36708   0.06835
   6   24921.4    401.3   0.027235333   0.35978  -0.05610  -0.32981  -0.49785
   7   27006.4    370.3   0.139811828   1.70432  -0.06633  -0.60948  -1.15259
   8   27276.6    366.6   0.013877297   0.16749   0.00033   0.31052  -0.26658
   9   27486.4    363.8   0.146791399   1.75816   0.26795   1.29360  -0.11379
  10   29409.0    340.0   0.023735909   0.26571  -0.12411  -0.49925   0.03243
  11   29766.7    335.9   0.101858932   1.12653  -0.21701  -0.80042  -0.66239
  12   30532.2    327.5   0.170262951   1.83585  -0.14969  -0.75444  -1.11547
  13   30708.1    325.6   0.137866925   1.47803  -0.17083  -0.71115  -0.97114
  14   31827.9    314.2   0.011310744   0.11699  -0.11835   0.07819   0.31124
  15   32321.9    309.4   0.099933027   1.01786  -0.22787  -0.66738  -0.72149
  16   32467.5    308.0   0.017408265   0.17652   0.13634   0.01271  -0.39720
  17   33699.1    296.7   0.041501706   0.40544  -0.18137  -0.60807  -0.05286
  18   34247.0    292.0   0.077172800   0.74185   0.11945   0.80533   0.28112
  19   35480.5    281.8   0.000532846   0.00494   0.03262   0.00546   0.06205
  20   36436.0    274.5   0.065315850   0.59015  -0.04122   0.24271   0.72770
  21   36812.4    271.6   0.077856558   0.69627  -0.03413   0.20034   0.80930
  22   36888.1    271.1   0.000032680   0.00029   0.00317   0.00444  -0.01618
  23   37674.9    265.4   0.134333798   1.17384   0.19407   0.95255   0.47835
  24   37831.0    264.3   0.010491508   0.09130  -0.10228  -0.28260  -0.03121
  25   38239.1    261.5   0.079814981   0.68715  -0.23035  -0.67337  -0.42505
  26   38424.9    260.2   0.021513216   0.18432  -0.09108   0.06969   0.41372
  27   38609.5    259.0   0.000262431   0.00224  -0.00378  -0.00591   0.04678
  28   38992.9    256.5   0.247487492   2.08950  -0.28451  -1.32674  -0.49832
  29   39682.7    252.0   0.148207375   1.22954  -0.40617  -0.61125   0.83123
  30   40212.6    248.7   0.163013664   1.33456   0.07476   0.49724   1.04006

FINAL SINGLE POINT ENERGY     -3722.608264437855

DIPOLE MOMENT
-------------
                                X             Y             Z
Electronic contribution:      6.06554       8.95887       3.79212
Nuclear contribution   :     -7.68054     -10.91508      -5.36758
                        -----------------------------------------
Total Dipole Moment    :     -1.61499      -1.95621      -1.57545
                        -----------------------------------------
Magnitude (a.u.)       :      2.98614
Magnitude (Debye)      :      7.59016

Rotational constants in cm-1:     0.003410     0.000287     0.000267
Rotational constants in MHz :   102.229543     8.604417     8.006568

                             ****ORCA TERMINATED NORMALLY****
TOTAL RUN TIME: 0 days 0 hours 7 minutes 35 seconds 701 msec
