                         Program Version 4.2.0 -  RELEASE  -
|  1> # ORCA input file
|  2> # SCF done       -146.240357993130          0.000641524689
|  3> ! CAM-B3LYP def2-SVP def2/J RIJCOSX Grid4 TightSCF
|  4> %maxcore 5000
|  5> %tddft
|  6>     Mode sTDDFT
|  7>     Ethresh 5.0
|  8>     maxcore 5000
|  9> end
| 10>
| 11> %pal
| 12>   nprocs 6
| 13>   end
| 14> * xyz 0 1
| 15>    C       -5.70428        -5.12574        -7.50599
| 16>    C       -5.54752        -6.14559        -6.60278
| 17>    C       -5.81328        -7.58618        -6.85707
| 18>    C       -5.08228        -5.62463        -5.33559
| 19>    C       -4.96469        -4.25912        -5.50502
| 20>    C       -5.34886        -3.91106        -6.87550
| 21>    C       -5.29002        -2.59891        -7.25719
| 22>    C       -4.86069        -1.65224        -6.30138
| 23>    C       -4.52132        -2.05913        -5.04465
| 24>    O       -4.56360        -3.31952        -4.63188
| 25>    C       -4.80008        -6.41599        -4.17978
| 26>    C       -4.42438        -5.94383        -2.97384
| 27>    C       -4.12360        -6.77204        -1.85458
| 28>    S       -4.14624        -8.52164        -1.96431
| 29>    C       -3.66743        -8.70611        -0.30270
| 30>    C       -3.51699        -7.45529         0.29549
| 31>    C       -3.77306        -6.38141        -0.59031
| 32>    C       -3.17675        -7.23835         1.63446
| 33>    N       -2.90736        -7.02681         2.73392
| 34>    C       -3.47389       -10.01158         0.21438
| 35>    C       -2.99868       -10.25325         1.46018
| 36>    N       -2.89014       -11.46722         2.02868
| 37>    N       -2.97885       -12.64612         1.30886
| 38>    C       -2.80142       -13.72425         2.27920
| 39>    C       -1.76950       -14.75408         1.81218
| 40>    C       -0.43899       -14.11814         1.38614
| 41>    C       -1.64215       -15.83512         2.90802
| 42>    C       -1.56214       -15.25043         4.36591
| 43>    N       -0.48266       -15.92221         5.06715
| 44>    S        0.69723       -16.28400         3.88334
| 45>    N       -0.46995       -16.66450         2.67053
| 46>    C       -1.29695       -13.74000         4.38345
| 47>    C       -1.21515       -13.24810         5.82693
| 48>    C       -2.40543       -13.02527         3.60879
| 49>    N       -1.99857       -11.69542         3.16566
| 50>    C       -1.98618       -10.66739         4.08515
| 51>    S       -3.28318       -10.38810         5.25298
| 52>    C       -2.50111        -8.95622         5.84479
| 53>    C       -1.31622        -8.71802         5.15365
| 54>    C       -1.04593        -9.68595         4.15869
| 55>    C       -0.42595        -7.66267         5.39364
| 56>    N        0.34845        -6.83180         5.57095
| 57>    C       -3.10906        -8.24085         6.90692
| 58>    C       -2.61144        -7.10016         7.44584
| 59>    C       -3.18491        -6.37207         8.50762
| 60>    S       -4.67172        -6.83317         9.28270
| 61>    C       -4.60948        -5.51614        10.36306
| 62>    C       -3.49748        -4.72571        10.16719
| 63>    C       -2.67144        -5.21000         9.09968
| 64>    C       -1.48999        -4.52469         8.76506
| 65>    C       -1.15204        -3.40198         9.47283
| 66>    S        0.31328        -2.48736         9.11973
| 67>    C       -1.96610        -2.91908        10.52949
| 68>    C       -3.11370        -3.55951        10.87389
| 69>    H       -6.03760        -5.21936        -8.52203
| 70>    H       -6.16012        -7.73457        -7.87655
| 71>    H       -6.57159        -7.96008        -6.16936
| 72>    H       -4.90793        -8.17364        -6.70504
| 73>    H       -5.55769        -2.28271        -8.25392
| 74>    H       -4.79659        -0.60772        -6.55457
| 75>    H       -4.18598        -1.38303        -4.27190
| 76>    H       -4.89775        -7.48716        -4.30296
| 77>    H       -4.33067        -4.88059        -2.80484
| 78>    H       -3.69907        -5.35032        -0.29061
| 79>    H       -3.73191       -10.83613        -0.43301
| 80>    H       -2.73589        -9.43856         2.11573
| 81>    H       -2.25739       -12.69166         0.58524
| 82>    H       -3.76854       -14.22548         2.41136
| 83>    H       -2.18457       -15.26366         0.93592
| 84>    H       -0.26924       -13.15978         1.86961
| 85>    H       -0.42026       -13.96515         0.30882
| 86>    H        0.38289       -14.78336         1.63100
| 87>    H       -2.53759       -16.46493         2.84126
| 88>    H       -2.50119       -15.44374         4.89534
| 89>    H       -0.79122       -16.76090         5.54956
| 90>    H       -0.68789       -17.65481         2.67999
| 91>    H       -0.33023       -13.55985         3.91220
| 92>    H       -2.18165       -13.33134         6.32042
| 93>    H       -0.89551       -12.21057         5.85874
| 94>    H       -0.49230       -13.84967         6.37045
| 95>    H       -3.29734       -12.95201         4.25408
| 96>    H       -0.17440        -9.65651         3.52910
| 97>    H       -4.03353        -8.65256         7.29194
| 98>    H       -1.69555        -6.69301         7.04597
| 99>    H       -5.38840        -5.38540        11.08780
|100>    H       -0.86502        -4.88474         7.96176
|101>    H        0.72792        -3.25762         8.11585
|102>    H       -1.64865        -2.02938        11.05166
|103>    H       -3.73752        -3.19720        11.67646
|104> *
|105>
|106>                          ****END OF INPUT****

CARTESIAN COORDINATES (ANGSTROEM)
---------------------------------
  C     -5.704280   -5.125740   -7.505990
  C     -5.547520   -6.145590   -6.602780
  C     -5.813280   -7.586180   -6.857070
  C     -5.082280   -5.624630   -5.335590
  C     -4.964690   -4.259120   -5.505020
  C     -5.348860   -3.911060   -6.875500
  C     -5.290020   -2.598910   -7.257190
  C     -4.860690   -1.652240   -6.301380
  C     -4.521320   -2.059130   -5.044650
  O     -4.563600   -3.319520   -4.631880
  C     -4.800080   -6.415990   -4.179780
  C     -4.424380   -5.943830   -2.973840
  C     -4.123600   -6.772040   -1.854580
  S     -4.146240   -8.521640   -1.964310
  C     -3.667430   -8.706110   -0.302700
  C     -3.516990   -7.455290    0.295490
  C     -3.773060   -6.381410   -0.590310
  C     -3.176750   -7.238350    1.634460
  N     -2.907360   -7.026810    2.733920
  C     -3.473890  -10.011580    0.214380
  C     -2.998680  -10.253250    1.460180
  N     -2.890140  -11.467220    2.028680
  N     -2.978850  -12.646120    1.308860
  C     -2.801420  -13.724250    2.279200
  C     -1.769500  -14.754080    1.812180
  C     -0.438990  -14.118140    1.386140
  C     -1.642150  -15.835120    2.908020
  C     -1.562140  -15.250430    4.365910
  N     -0.482660  -15.922210    5.067150
  S      0.697230  -16.284000    3.883340
  N     -0.469950  -16.664500    2.670530
  C     -1.296950  -13.740000    4.383450
  C     -1.215150  -13.248100    5.826930
  C     -2.405430  -13.025270    3.608790
  N     -1.998570  -11.695420    3.165660
  C     -1.986180  -10.667390    4.085150
  S     -3.283180  -10.388100    5.252980
  C     -2.501110   -8.956220    5.844790
  C     -1.316220   -8.718020    5.153650
  C     -1.045930   -9.685950    4.158690
  C     -0.425950   -7.662670    5.393640
  N      0.348450   -6.831800    5.570950
  C     -3.109060   -8.240850    6.906920
  C     -2.611440   -7.100160    7.445840
  C     -3.184910   -6.372070    8.507620
  S     -4.671720   -6.833170    9.282700
  C     -4.609480   -5.516140   10.363060
  C     -3.497480   -4.725710   10.167190
  C     -2.671440   -5.210000    9.099680
  C     -1.489990   -4.524690    8.765060
  C     -1.152040   -3.401980    9.472830
  S      0.313280   -2.487360    9.119730
  C     -1.966100   -2.919080   10.529490
  C     -3.113700   -3.559510   10.873890
  H     -6.037600   -5.219360   -8.522030
  H     -6.160120   -7.734570   -7.876550
  H     -6.571590   -7.960080   -6.169360
  H     -4.907930   -8.173640   -6.705040
  H     -5.557690   -2.282710   -8.253920
  H     -4.796590   -0.607720   -6.554570
  H     -4.185980   -1.383030   -4.271900
  H     -4.897750   -7.487160   -4.302960
  H     -4.330670   -4.880590   -2.804840
  H     -3.699070   -5.350320   -0.290610
  H     -3.731910  -10.836130   -0.433010
  H     -2.735890   -9.438560    2.115730
  H     -2.257390  -12.691660    0.585240
  H     -3.768540  -14.225480    2.411360
  H     -2.184570  -15.263660    0.935920
  H     -0.269240  -13.159780    1.869610
  H     -0.420260  -13.965150    0.308820
  H      0.382890  -14.783360    1.631000
  H     -2.537590  -16.464930    2.841260
  H     -2.501190  -15.443740    4.895340
  H     -0.791220  -16.760900    5.549560
  H     -0.687890  -17.654810    2.679990
  H     -0.330230  -13.559850    3.912200
  H     -2.181650  -13.331340    6.320420
  H     -0.895510  -12.210570    5.858740
  H     -0.492300  -13.849670    6.370450
  H     -3.297340  -12.952010    4.254080
  H     -0.174400   -9.656510    3.529100
  H     -4.033530   -8.652560    7.291940
  H     -1.695550   -6.693010    7.045970
  H     -5.388400   -5.385400   11.087800
  H     -0.865020   -4.884740    7.961760
  H      0.727920   -3.257620    8.115850
  H     -1.648650   -2.029380   11.051660
  H     -3.737520   -3.197200   11.676460

 Total Charge           Charge          ....    0
 Multiplicity           Mult            ....    1
 Number of Electrons    NEL             ....  418
 Basis Dimension        Dim             ....  951

ORBITAL ENERGIES
----------------

  NO   OCC          E(Eh)            E(eV)
   0   2.0000     -88.960358     -2420.7344
   1   2.0000     -88.957886     -2420.6671
   2   2.0000     -88.955572     -2420.6042
   3   2.0000     -88.936624     -2420.0886
   4   2.0000     -88.919282     -2419.6167
   5   2.0000     -19.304896      -525.3129
   6   2.0000     -14.483961      -394.1286
   7   2.0000     -14.456218      -393.3737
   8   2.0000     -14.438646      -392.8955
   9   2.0000     -14.421636      -392.4327
  10   2.0000     -14.419088      -392.3633
  11   2.0000     -14.390715      -391.5913
  12   2.0000     -14.381801      -391.3487
  13   2.0000     -10.347702      -281.5753
  14   2.0000     -10.322057      -280.8774
  15   2.0000     -10.319111      -280.7973
  16   2.0000     -10.315206      -280.6910
  17   2.0000     -10.309882      -280.5461
  18   2.0000     -10.309685      -280.5408
  19   2.0000     -10.309012      -280.5225
  20   2.0000     -10.307931      -280.4931
  21   2.0000     -10.305064      -280.4150
  22   2.0000     -10.300536      -280.2918
  23   2.0000     -10.298071      -280.2248
  24   2.0000     -10.295217      -280.1471
  25   2.0000     -10.293526      -280.1011
  26   2.0000     -10.292757      -280.0802
  27   2.0000     -10.292646      -280.0771
  28   2.0000     -10.291081      -280.0346
  29   2.0000     -10.285108      -279.8720
  30   2.0000     -10.281663      -279.7783
  31   2.0000     -10.280643      -279.7505
  32   2.0000     -10.280221      -279.7390
  33   2.0000     -10.278106      -279.6815
  34   2.0000     -10.277182      -279.6563
  35   2.0000     -10.276552      -279.6392
  36   2.0000     -10.274886      -279.5939
  37   2.0000     -10.274509      -279.5836
  38   2.0000     -10.274505      -279.5835
  39   2.0000     -10.274174      -279.5745
  40   2.0000     -10.271448      -279.5003
  41   2.0000     -10.270587      -279.4769
  42   2.0000     -10.269237      -279.4402
  43   2.0000     -10.265065      -279.3266
  44   2.0000     -10.261857      -279.2393
  45   2.0000     -10.259922      -279.1867
  46   2.0000     -10.255440      -279.0647
  47   2.0000     -10.253474      -279.0112
  48   2.0000     -10.252544      -278.9859
  49   2.0000     -10.252243      -278.9777
  50   2.0000     -10.249268      -278.8968
  51   2.0000     -10.244392      -278.7641
  52   2.0000     -10.244211      -278.7591
  53   2.0000     -10.234405      -278.4923
  54   2.0000      -8.055525      -219.2020
  55   2.0000      -8.050982      -219.0784
  56   2.0000      -8.049512      -219.0384
  57   2.0000      -8.032340      -218.5711
  58   2.0000      -8.015078      -218.1014
  59   2.0000      -6.024414      -163.9326
  60   2.0000      -6.022579      -163.8827
  61   2.0000      -6.020253      -163.8194
  62   2.0000      -6.020045      -163.8137
  63   2.0000      -6.018644      -163.7756
  64   2.0000      -6.016392      -163.7143
  65   2.0000      -6.016258      -163.7107
  66   2.0000      -6.013203      -163.6276
  67   2.0000      -6.006494      -163.4450
  68   2.0000      -6.001619      -163.3124
  69   2.0000      -5.997669      -163.2049
  70   2.0000      -5.994292      -163.1130
  71   2.0000      -5.985369      -162.8702
  72   2.0000      -5.981221      -162.7573
  73   2.0000      -5.975218      -162.5940
  74   2.0000      -1.212553       -32.9952
  75   2.0000      -1.151089       -31.3227
  76   2.0000      -1.060255       -28.8510
  77   2.0000      -1.019539       -27.7431
  78   2.0000      -0.989544       -26.9269
  79   2.0000      -0.982996       -26.7487
  80   2.0000      -0.978941       -26.6383
  81   2.0000      -0.962866       -26.2009
  82   2.0000      -0.961454       -26.1625
  83   2.0000      -0.959024       -26.0964
  84   2.0000      -0.957937       -26.0668
  85   2.0000      -0.955487       -26.0001
  86   2.0000      -0.935403       -25.4536
  87   2.0000      -0.911280       -24.7972
  88   2.0000      -0.900587       -24.5062
  89   2.0000      -0.894137       -24.3307
  90   2.0000      -0.874693       -23.8016
  91   2.0000      -0.864722       -23.5303
  92   2.0000      -0.857562       -23.3355
  93   2.0000      -0.849206       -23.1081
  94   2.0000      -0.848719       -23.0948
  95   2.0000      -0.844983       -22.9932
  96   2.0000      -0.841661       -22.9027
  97   2.0000      -0.827020       -22.5044
  98   2.0000      -0.823821       -22.4173
  99   2.0000      -0.810480       -22.0543
 100   2.0000      -0.796145       -21.6642
 101   2.0000      -0.791900       -21.5487
 102   2.0000      -0.788516       -21.4566
 103   2.0000      -0.777696       -21.1622
 104   2.0000      -0.767506       -20.8849
 105   2.0000      -0.754837       -20.5402
 106   2.0000      -0.742668       -20.2090
 107   2.0000      -0.727806       -19.8046
 108   2.0000      -0.719294       -19.5730
 109   2.0000      -0.716756       -19.5039
 110   2.0000      -0.709433       -19.3047
 111   2.0000      -0.700822       -19.0703
 112   2.0000      -0.698887       -19.0177
 113   2.0000      -0.697004       -18.9665
 114   2.0000      -0.673452       -18.3256
 115   2.0000      -0.668207       -18.1828
 116   2.0000      -0.663663       -18.0592
 117   2.0000      -0.655680       -17.8419
 118   2.0000      -0.652219       -17.7478
 119   2.0000      -0.647510       -17.6196
 120   2.0000      -0.637991       -17.3606
 121   2.0000      -0.633668       -17.2430
 122   2.0000      -0.626087       -17.0367
 123   2.0000      -0.619950       -16.8697
 124   2.0000      -0.608652       -16.5623
 125   2.0000      -0.600994       -16.3539
 126   2.0000      -0.595257       -16.1978
 127   2.0000      -0.592776       -16.1303
 128   2.0000      -0.591156       -16.0862
 129   2.0000      -0.584866       -15.9150
 130   2.0000      -0.580805       -15.8045
 131   2.0000      -0.569310       -15.4917
 132   2.0000      -0.568261       -15.4632
 133   2.0000      -0.567344       -15.4382
 134   2.0000      -0.556881       -15.1535
 135   2.0000      -0.555578       -15.1181
 136   2.0000      -0.551212       -14.9992
 137   2.0000      -0.546633       -14.8746
 138   2.0000      -0.540899       -14.7186
 139   2.0000      -0.533112       -14.5067
 140   2.0000      -0.529660       -14.4128
 141   2.0000      -0.527149       -14.3444
 142   2.0000      -0.522749       -14.2247
 143   2.0000      -0.520001       -14.1499
 144   2.0000      -0.513091       -13.9619
 145   2.0000      -0.507667       -13.8143
 146   2.0000      -0.500289       -13.6136
 147   2.0000      -0.496811       -13.5189
 148   2.0000      -0.495024       -13.4703
 149   2.0000      -0.491989       -13.3877
 150   2.0000      -0.491304       -13.3690
 151   2.0000      -0.489709       -13.3257
 152   2.0000      -0.488811       -13.3012
 153   2.0000      -0.487522       -13.2662
 154   2.0000      -0.484131       -13.1739
 155   2.0000      -0.482523       -13.1301
 156   2.0000      -0.479010       -13.0345
 157   2.0000      -0.476105       -12.9555
 158   2.0000      -0.469898       -12.7866
 159   2.0000      -0.469630       -12.7793
 160   2.0000      -0.466312       -12.6890
 161   2.0000      -0.464223       -12.6322
 162   2.0000      -0.462952       -12.5976
 163   2.0000      -0.454775       -12.3751
 164   2.0000      -0.449629       -12.2350
 165   2.0000      -0.447751       -12.1839
 166   2.0000      -0.441941       -12.0258
 167   2.0000      -0.440144       -11.9769
 168   2.0000      -0.437159       -11.8957
 169   2.0000      -0.433523       -11.7968
 170   2.0000      -0.431800       -11.7499
 171   2.0000      -0.431063       -11.7298
 172   2.0000      -0.428658       -11.6644
 173   2.0000      -0.427158       -11.6236
 174   2.0000      -0.423400       -11.5213
 175   2.0000      -0.420158       -11.4331
 176   2.0000      -0.417230       -11.3534
 177   2.0000      -0.416646       -11.3375
 178   2.0000      -0.415944       -11.3184
 179   2.0000      -0.414404       -11.2765
 180   2.0000      -0.414090       -11.2680
 181   2.0000      -0.412751       -11.2315
 182   2.0000      -0.408897       -11.1266
 183   2.0000      -0.404605       -11.0099
 184   2.0000      -0.398771       -10.8511
 185   2.0000      -0.397811       -10.8250
 186   2.0000      -0.396879       -10.7996
 187   2.0000      -0.392479       -10.6799
 188   2.0000      -0.389593       -10.6014
 189   2.0000      -0.386961       -10.5298
 190   2.0000      -0.384316       -10.4578
 191   2.0000      -0.378710       -10.3052
 192   2.0000      -0.375735       -10.2243
 193   2.0000      -0.362283        -9.8582
 194   2.0000      -0.355853        -9.6832
 195   2.0000      -0.340917        -9.2768
 196   2.0000      -0.336646        -9.1606
 197   2.0000      -0.334243        -9.0952
 198   2.0000      -0.321845        -8.7578
 199   2.0000      -0.318044        -8.6544
 200   2.0000      -0.305674        -8.3178
 201   2.0000      -0.299789        -8.1577
 202   2.0000      -0.293183        -7.9779
 203   2.0000      -0.286655        -7.8003
 204   2.0000      -0.276927        -7.5356
 205   2.0000      -0.271036        -7.3753
 206   2.0000      -0.246500        -6.7076
 207   2.0000      -0.228625        -6.2212
 208   2.0000      -0.204771        -5.5721
 209   0.0000      -0.053509        -1.4560
 210   0.0000      -0.030934        -0.8418
 211   0.0000      -0.010792        -0.2937
 212   0.0000      -0.001454        -0.0396
 213   0.0000       0.025907         0.7050

MULLIKEN ATOMIC CHARGES
-----------------------
   0 C :   -0.086440
   1 C :   -0.095986
   2 C :    0.117274
   3 C :    0.030196
   4 C :    0.060183
   5 C :    0.076846
   6 C :    0.030327
   7 C :   -0.050586
   8 C :    0.175232
   9 O :   -0.161505
  10 C :   -0.042410
  11 C :    0.013842
  12 C :   -0.028388
  13 S :    0.086909
  14 C :   -0.037090
  15 C :   -0.091062
  16 C :   -0.002361
  17 C :   -0.180929
  18 N :    0.078684
  19 C :   -0.020042
  20 C :    0.093335
  21 N :   -0.104402
  22 N :   -0.048121
  23 C :    0.046825
  24 C :   -0.006855
  25 C :    0.011537
  26 C :    0.091780
  27 C :   -0.065649
  28 N :   -0.291300
  29 S :    0.218173
  30 N :   -0.326362
  31 C :    0.106587
  32 C :    0.088960
  33 C :    0.064243
  34 N :   -0.182951
  35 C :   -0.093342
  36 S :    0.116009
  37 C :   -0.037130
  38 C :   -0.063685
  39 C :    0.087882
  40 C :   -0.182471
  41 N :    0.101530
  42 C :    0.022636
  43 C :    0.011472
  44 C :   -0.136413
  45 S :    0.148634
  46 C :   -0.117520
  47 C :    0.088870
  48 C :    0.129315
  49 C :   -0.044883
  50 C :   -0.064421
  51 S :    0.020944
  52 C :    0.032998
  53 C :    0.002918
  54 H :   -0.053223
  55 H :    0.005100
  56 H :    0.028064
  57 H :    0.027640
  58 H :   -0.011861
  59 H :    0.006394
  60 H :    0.025032
  61 H :   -0.033550
  62 H :   -0.019614
  63 H :   -0.021242
  64 H :   -0.027329
  65 H :    0.039192
  66 H :    0.111493
  67 H :   -0.003719
  68 H :    0.002939
  69 H :    0.033325
  70 H :    0.009819
  71 H :    0.033770
  72 H :   -0.003357
  73 H :   -0.003393
  74 H :    0.127034
  75 H :    0.129332
  76 H :   -0.021038
  77 H :   -0.010624
  78 H :    0.029162
  79 H :    0.017675
  80 H :   -0.008943
  81 H :   -0.008980
  82 H :   -0.024704
  83 H :    0.003045
  84 H :    0.018403
  85 H :   -0.018604
  86 H :    0.071127
  87 H :   -0.015549
  88 H :   -0.024656
Sum of atomic charges:    0.0000000

LOEWDIN ATOMIC CHARGES
----------------------
   0 C :   -0.100525
   1 C :    0.007055
   2 C :   -0.049875
   3 C :   -0.105207
   4 C :    0.046015
   5 C :   -0.025862
   6 C :    0.023689
   7 C :   -0.089323
   8 C :    0.079729
   9 O :    0.046392
  10 C :   -0.032471
  11 C :   -0.056561
  12 C :   -0.169679
  13 S :    0.419875
  14 C :   -0.115869
  15 C :   -0.147890
  16 C :   -0.038601
  17 C :   -0.024613
  18 N :   -0.095377
  19 C :   -0.145846
  20 C :    0.032263
  21 N :    0.059471
  22 N :   -0.023494
  23 C :    0.019545
  24 C :   -0.037971
  25 C :   -0.067541
  26 C :   -0.002185
  27 C :   -0.005823
  28 N :   -0.214611
  29 S :    0.363548
  30 N :   -0.228890
  31 C :   -0.035706
  32 C :   -0.050961
  33 C :    0.022240
  34 N :   -0.042012
  35 C :   -0.175216
  36 S :    0.421524
  37 C :   -0.114911
  38 C :   -0.117284
  39 C :   -0.013025
  40 C :   -0.017638
  41 N :   -0.081649
  42 C :   -0.074189
  43 C :   -0.000123
  44 C :   -0.196924
  45 S :    0.478908
  46 C :   -0.181427
  47 C :   -0.059562
  48 C :   -0.028097
  49 C :   -0.055155
  50 C :   -0.143682
  51 S :    0.226451
  52 C :   -0.042970
  53 C :   -0.003225
  54 H :    0.015632
  55 H :    0.031899
  56 H :    0.037120
  57 H :    0.036555
  58 H :    0.034593
  59 H :    0.038215
  60 H :    0.031640
  61 H :    0.015923
  62 H :    0.027663
  63 H :    0.032689
  64 H :    0.022174
  65 H :    0.039014
  66 H :    0.054799
  67 H :    0.020496
  68 H :    0.027756
  69 H :    0.018868
  70 H :    0.022231
  71 H :    0.025563
  72 H :    0.020606
  73 H :    0.020459
  74 H :    0.047825
  75 H :    0.047606
  76 H :    0.027376
  77 H :    0.014673
  78 H :    0.025599
  79 H :    0.024928
  80 H :    0.003305
  81 H :    0.041525
  82 H :    0.019876
  83 H :    0.042637
  84 H :    0.024407
  85 H :    0.030281
  86 H :   -0.018024
  87 H :    0.028352
  88 H :    0.031008

  Mayer bond orders larger than 0.100000
B(  0-C ,  1-C ) :   1.5521 B(  0-C ,  5-C ) :   1.1412 B(  0-C , 54-H ) :   1.0178
B(  1-C ,  2-C ) :   1.0999 B(  1-C ,  3-C ) :   1.1646 B(  2-C , 55-H ) :   0.9498
B(  2-C , 56-H ) :   0.9404 B(  2-C , 57-H ) :   0.9389 B(  3-C ,  4-C ) :   1.4701
B(  3-C , 10-C ) :   1.1142 B(  4-C ,  5-C ) :   1.0800 B(  4-C ,  9-O ) :   1.1030
B(  5-C ,  6-C ) :   1.5020 B(  6-C ,  7-C ) :   1.2028 B(  6-C , 58-H ) :   0.9862
B(  7-C ,  8-C ) :   1.5906 B(  7-C , 59-H ) :   0.9690 B(  8-C ,  9-O ) :   1.1778
B(  8-C , 60-H ) :   0.9808 B( 10-C , 11-C ) :   1.6630 B( 10-C , 61-H ) :   0.9559
B( 11-C , 12-C ) :   1.1280 B( 11-C , 62-H ) :   0.9806 B( 12-C , 13-S ) :   1.0684
B( 12-C , 16-C ) :   1.5186 B( 13-S , 14-C ) :   1.1236 B( 14-C , 15-C ) :   1.4615
B( 14-C , 19-C ) :   1.1686 B( 15-C , 16-C ) :   1.2206 B( 15-C , 17-C ) :   1.1263
B( 16-C , 63-H ) :   1.0086 B( 17-C , 18-N ) :   2.9496 B( 19-C , 20-C ) :   1.6000
B( 19-C , 64-H ) :   0.9492 B( 20-C , 21-N ) :   1.1977 B( 20-C , 65-H ) :   0.9419
B( 21-N , 22-N ) :   1.0533 B( 21-N , 34-N ) :   0.8659 B( 22-N , 23-C ) :   1.0882
B( 22-N , 66-H ) :   0.9190 B( 23-C , 24-C ) :   1.0558 B( 23-C , 33-C ) :   0.9971
B( 23-C , 67-H ) :   0.9013 B( 24-C , 25-C ) :   1.0296 B( 24-C , 26-C ) :   1.0338
B( 24-C , 68-H ) :   0.9184 B( 25-C , 69-H ) :   0.9624 B( 25-C , 70-H ) :   0.9538
B( 25-C , 71-H ) :   0.9457 B( 26-C , 27-C ) :   0.9675 B( 26-C , 30-N ) :   1.0432
B( 26-C , 72-H ) :   0.9196 B( 27-C , 28-N ) :   1.0758 B( 27-C , 31-C ) :   1.0372
B( 27-C , 73-H ) :   0.9094 B( 28-N , 29-S ) :   0.9853 B( 28-N , 74-H ) :   0.9445
B( 29-S , 30-N ) :   0.9673 B( 30-N , 75-H ) :   0.9427 B( 31-C , 32-C ) :   1.0652
B( 31-C , 33-C ) :   1.0366 B( 31-C , 76-H ) :   0.8365 B( 32-C , 77-H ) :   0.9595
B( 32-C , 78-H ) :   0.9602 B( 32-C , 79-H ) :   0.9494 B( 33-C , 34-N ) :   0.9246
B( 33-C , 80-H ) :   0.8932 B( 34-N , 35-C ) :   1.0800 B( 35-C , 36-S ) :   1.0568
B( 35-C , 39-C ) :   1.5594 B( 36-S , 37-C ) :   1.1358 B( 37-C , 38-C ) :   1.4649
B( 37-C , 42-C ) :   1.1665 B( 38-C , 39-C ) :   1.2329 B( 38-C , 40-C ) :   1.1370
B( 39-C , 81-H ) :   1.0074 B( 40-C , 41-N ) :   2.9796 B( 42-C , 43-C ) :   1.6458
B( 42-C , 82-H ) :   0.9475 B( 43-C , 44-C ) :   1.2090 B( 43-C , 83-H ) :   0.9512
B( 44-C , 45-S ) :   1.1304 B( 44-C , 46-C ) :   0.1045 B( 44-C , 48-C ) :   1.3291
B( 45-S , 46-C ) :   1.2127 B( 46-C , 47-C ) :   1.4187 B( 46-C , 84-H ) :   0.9690
B( 47-C , 48-C ) :   1.2000 B( 47-C , 53-C ) :   1.1583 B( 48-C , 49-C ) :   1.2400
B( 49-C , 50-C ) :   1.5313 B( 49-C , 85-H ) :   0.9794 B( 50-C , 51-S ) :   1.0477
B( 50-C , 52-C ) :   1.1920 B( 51-S , 86-H ) :   0.9562 B( 52-C , 53-C ) :   1.6025
B( 52-C , 87-H ) :   0.9831 B( 53-C , 88-H ) :   0.9999

-----------------------------------------------------------------------------
         ABSORPTION SPECTRUM VIA TRANSITION ELECTRIC DIPOLE MOMENTS
-----------------------------------------------------------------------------
State   Energy  Wavelength   fosc         T2         TX        TY        TZ
        (cm-1)    (nm)                  (au**2)     (au)      (au)      (au)
-----------------------------------------------------------------------------
   0   19470.4    513.6   0.100767484   1.70381  -0.08339   0.40804  -1.23707
   1   19879.1    503.0   0.223646157   3.70374  -0.02233  -0.88275  -1.70997
   2   22319.6    448.0   0.669889044   9.88081   0.28274  -1.80505  -2.55787
   3   25193.7    396.9   1.171591569  15.30943   0.94483  -3.04203   2.27218
   4   29788.0    335.7   0.010774763   0.11908  -0.14156   0.28913  -0.12427
   5   30370.9    329.3   0.031985601   0.34672  -0.09351   0.43395  -0.38685
   6   30611.8    326.7   0.016097185   0.17312   0.00453   0.39047   0.14363
   7   32219.6    310.4   0.196978263   2.01267   1.27893   0.15335  -0.59456
   8   32937.2    303.6   0.136031166   1.35965   0.17026   0.43686  -1.06762
   9   33116.4    302.0   0.020206792   0.20088   0.44260   0.06980  -0.01056
  10   33993.5    294.2   0.091749384   0.88855   0.13965   0.13709   0.92209
  11   34883.4    286.7   0.019211550   0.18131   0.20241  -0.30396   0.21897
  12   35648.0    280.5   0.200154829   1.84845   0.14961   1.32039  -0.28746
  13   36691.5    272.5   0.099589688   0.89356  -0.14288  -0.75710  -0.54768
  14   36847.7    271.4   0.035931881   0.32103  -0.02168  -0.53533  -0.18433
  15   37197.6    268.8   0.003633706   0.03216  -0.10130   0.08514  -0.12104
  16   38084.0    262.6   0.004007172   0.03464  -0.09215   0.13896  -0.08269
  17   38713.2    258.3   0.003933907   0.03345  -0.15435   0.04764   0.08579

FINAL SINGLE POINT ENERGY     -4029.474693829475

DIPOLE MOMENT
-------------
                                X             Y             Z
Electronic contribution:     -2.10220      30.74032      25.16964
Nuclear contribution   :      0.69417     -32.57770     -25.61986
                        -----------------------------------------
Total Dipole Moment    :     -1.40803      -1.83738      -0.45022
                        -----------------------------------------
Magnitude (a.u.)       :      2.35822
Magnitude (Debye)      :      5.99412

Rotational constants in cm-1:     0.001086     0.000673     0.000442
Rotational constants in MHz :    32.562946    20.177429    13.252802

                             ****ORCA TERMINATED NORMALLY****
TOTAL RUN TIME: 0 days 0 hours 6 minutes 25 seconds 370 msec
