                         Program Version 4.2.0 -  RELEASE  -
|  1> # ORCA input file
|  2> # SCF done       -202.145272744730          0.000568752110
|  3> ! CAM-B3LYP def2-SVP def2/J RIJCOSX Grid4 TightSCF
|  4> %maxcore 5000
|  5> %tddft
|  6>     Mode sTDDFT
|  7>     Ethresh 5.0
|  8>     maxcore 5000
|  9> end
| 10>
| 11> %pal
| 12>   nprocs 6
| 13>   end
| 14> * xyz 0 1
| 15>    C       -0.49179         0.05201         3.73122
| 16>    C       -1.60342        -0.74127         4.40453
| 17>    O       -2.26029        -0.41547         5.34505
| 18>    O       -1.76169        -1.91760         3.76885
| 19>    C       -0.78007        -2.09535         2.75668
| 20>    C       -0.33357        -0.66697         2.39399
| 21>    C        1.03710        -0.59085         1.73422
| 22>    C        2.10582        -1.33945         2.51882
| 23>    C        1.74728        -2.80342         2.74923
| 24>    C        0.32857        -3.02638         3.30734
| 25>    O        0.00477        -4.36541         2.94890
| 26>    C        0.71238        -4.77697         1.89183
| 27>    O        0.54712        -5.82761         1.35128
| 28>    C        1.75364        -3.70791         1.51614
| 29>    C        3.03330        -4.38374         1.14500
| 30>    C        4.24643        -4.09104         1.60772
| 31>    C        5.46940        -4.81076         1.28640
| 32>    C        6.69493        -4.25266         1.63352
| 33>    C        7.88419        -4.92588         1.38996
| 34>    N        9.10441        -4.23573         1.67634
| 35>    O        9.05525        -3.27522         2.41759
| 36>    O       10.12654        -4.61784         1.13290
| 37>    C        7.89749        -6.21061         0.81925
| 38>    C        6.65840        -6.74078         0.43958
| 39>    C        5.48060        -6.06572         0.66176
| 40>    C        9.09994        -7.00478         0.72059
| 41>    C        9.39027        -7.81334        -0.31747
| 42>    C       10.58135        -8.59566        -0.34816
| 43>    N       11.03569        -9.25082        -1.46270
| 44>    C       10.38892        -9.31249        -2.75014
| 45>    C        9.25090       -10.33019        -2.76361
| 46>    C       12.29307        -9.82904        -1.25233
| 47>    O       12.91770       -10.41906        -2.11607
| 48>    C       12.59752        -9.54669         0.13138
| 49>    C       11.51090        -8.79858         0.66574
| 50>    C       11.82743        -8.47894         2.03454
| 51>    O       11.23036        -7.85136         2.89119
| 52>    N       13.09746        -9.04922         2.24295
| 53>    C       13.74916        -8.98371         3.52706
| 54>    C       13.75012       -10.33749         4.23185
| 55>    C       13.58005        -9.65576         1.10486
| 56>    C       14.94247       -10.05945         0.94142
| 57>    C       15.40694       -10.35715        -0.28244
| 58>    C       16.80197       -10.37790        -0.69085
| 59>    C       17.78399       -11.25319        -0.35435
| 60>    S       19.26337       -10.93106        -1.17919
| 61>    C       18.57224        -9.59139        -1.98360
| 62>    C       17.26671        -9.39774        -1.63524
| 63>    C       16.45037        -8.26161        -2.09897
| 64>    O       16.58965        -7.65249        -3.12641
| 65>    O       15.53247        -7.94440        -1.15332
| 66>    C       14.54031        -7.03344        -1.41422
| 67>    C       13.90349        -6.47660        -0.39223
| 68>    C       12.74854        -5.52990        -0.46946
| 69>    C       12.08086        -5.53886        -1.83977
| 70>    O       11.40959        -6.41564        -2.30297
| 71>    O       12.31966        -4.39547        -2.48792
| 72>    C       13.16844        -3.53035        -1.74070
| 73>    C       13.05841        -4.02969        -0.29044
| 74>    C       14.22543        -3.62855         0.60253
| 75>    C       15.59327        -3.86611        -0.02502
| 76>    C       15.73606        -3.23127        -1.40302
| 77>    C       14.58098        -3.54391        -2.36889
| 78>    O       14.64194        -2.50893        -3.34541
| 79>    C       15.23361        -1.41044        -2.85420
| 80>    O       15.30534        -0.38009        -3.45232
| 81>    C       15.78141        -1.70340        -1.45076
| 82>    C       17.10855        -1.03335        -1.26336
| 83>    C       18.23096        -1.60535        -0.87267
| 84>    H        0.40320        -0.01521         4.35159
| 85>    H       -0.76926         1.09978         3.64219
| 86>    H       -1.26918        -2.60610         1.92121
| 87>    H       -1.07599        -0.25796         1.69959
| 88>    H        1.32441         0.45708         1.63711
| 89>    H        0.96310        -1.00207         0.72554
| 90>    H        2.25594        -0.85940         3.48754
| 91>    H        3.05070        -1.28537         1.97693
| 92>    H        2.44954        -3.22869         3.47509
| 93>    H        0.29990        -2.97445         4.40019
| 94>    H        1.35897        -3.18681         0.63467
| 95>    H        2.88493        -5.19674         0.44801
| 96>    H        4.38714        -3.25531         2.27986
| 97>    H        6.74653        -3.27249         2.08539
| 98>    H        6.63493        -7.72703         0.00246
| 99>    H        4.54911        -6.52871         0.37761
|100>    H        9.78877        -6.94828         1.55434
|101>    H        8.75924        -7.82359        -1.19354
|102>    H       11.16222        -9.61848        -3.45952
|103>    H       10.04189        -8.31442        -3.02338
|104>    H        9.63344       -11.32161        -2.53198
|105>    H        8.79466       -10.35670        -3.74929
|106>    H        8.48694       -10.07740        -2.03150
|107>    H       13.17809        -8.25931         4.11519
|108>    H       14.77171        -8.61108         3.40718
|109>    H       12.72899       -10.68099         4.37778
|110>    H       14.22925       -10.24815         5.20292
|111>    H       14.28397       -11.08068         3.64365
|112>    H       15.61533        -9.95979         1.78127
|113>    H       14.70499       -10.44895        -1.10366
|114>    H       17.71610       -12.09632         0.30356
|115>    H       19.15887        -8.99573        -2.65438
|116>    H       14.33342        -6.85319        -2.46092
|117>    H       14.21191        -6.75154         0.60732
|118>    H       12.01156        -5.84088         0.27621
|119>    H       12.76317        -2.51886        -1.85503
|120>    H       12.14798        -3.59485         0.13559
|121>    H       14.15252        -4.17833         1.54147
|122>    H       14.11766        -2.56843         0.84278
|123>    H       15.77331        -4.93703        -0.11869
|124>    H       16.36036        -3.45315         0.63218
|125>    H       16.65433        -3.60582        -1.86881
|126>    H       14.72187        -4.49123        -2.89536
|127>    H       15.06850        -1.26470        -0.74091
|128>    H       17.08602         0.02138        -1.50293
|129>    H       18.30546        -2.65133        -0.62800
|130>    H       19.13871        -1.03552        -0.77770
|131> *
|132>
|133>                          ****END OF INPUT****

CARTESIAN COORDINATES (ANGSTROEM)
---------------------------------
  C     -0.491790    0.052010    3.731220
  C     -1.603420   -0.741270    4.404530
  O     -2.260290   -0.415470    5.345050
  O     -1.761690   -1.917600    3.768850
  C     -0.780070   -2.095350    2.756680
  C     -0.333570   -0.666970    2.393990
  C      1.037100   -0.590850    1.734220
  C      2.105820   -1.339450    2.518820
  C      1.747280   -2.803420    2.749230
  C      0.328570   -3.026380    3.307340
  O      0.004770   -4.365410    2.948900
  C      0.712380   -4.776970    1.891830
  O      0.547120   -5.827610    1.351280
  C      1.753640   -3.707910    1.516140
  C      3.033300   -4.383740    1.145000
  C      4.246430   -4.091040    1.607720
  C      5.469400   -4.810760    1.286400
  C      6.694930   -4.252660    1.633520
  C      7.884190   -4.925880    1.389960
  N      9.104410   -4.235730    1.676340
  O      9.055250   -3.275220    2.417590
  O     10.126540   -4.617840    1.132900
  C      7.897490   -6.210610    0.819250
  C      6.658400   -6.740780    0.439580
  C      5.480600   -6.065720    0.661760
  C      9.099940   -7.004780    0.720590
  C      9.390270   -7.813340   -0.317470
  C     10.581350   -8.595660   -0.348160
  N     11.035690   -9.250820   -1.462700
  C     10.388920   -9.312490   -2.750140
  C      9.250900  -10.330190   -2.763610
  C     12.293070   -9.829040   -1.252330
  O     12.917700  -10.419060   -2.116070
  C     12.597520   -9.546690    0.131380
  C     11.510900   -8.798580    0.665740
  C     11.827430   -8.478940    2.034540
  O     11.230360   -7.851360    2.891190
  N     13.097460   -9.049220    2.242950
  C     13.749160   -8.983710    3.527060
  C     13.750120  -10.337490    4.231850
  C     13.580050   -9.655760    1.104860
  C     14.942470  -10.059450    0.941420
  C     15.406940  -10.357150   -0.282440
  C     16.801970  -10.377900   -0.690850
  C     17.783990  -11.253190   -0.354350
  S     19.263370  -10.931060   -1.179190
  C     18.572240   -9.591390   -1.983600
  C     17.266710   -9.397740   -1.635240
  C     16.450370   -8.261610   -2.098970
  O     16.589650   -7.652490   -3.126410
  O     15.532470   -7.944400   -1.153320
  C     14.540310   -7.033440   -1.414220
  C     13.903490   -6.476600   -0.392230
  C     12.748540   -5.529900   -0.469460
  C     12.080860   -5.538860   -1.839770
  O     11.409590   -6.415640   -2.302970
  O     12.319660   -4.395470   -2.487920
  C     13.168440   -3.530350   -1.740700
  C     13.058410   -4.029690   -0.290440
  C     14.225430   -3.628550    0.602530
  C     15.593270   -3.866110   -0.025020
  C     15.736060   -3.231270   -1.403020
  C     14.580980   -3.543910   -2.368890
  O     14.641940   -2.508930   -3.345410
  C     15.233610   -1.410440   -2.854200
  O     15.305340   -0.380090   -3.452320
  C     15.781410   -1.703400   -1.450760
  C     17.108550   -1.033350   -1.263360
  C     18.230960   -1.605350   -0.872670
  H      0.403200   -0.015210    4.351590
  H     -0.769260    1.099780    3.642190
  H     -1.269180   -2.606100    1.921210
  H     -1.075990   -0.257960    1.699590
  H      1.324410    0.457080    1.637110
  H      0.963100   -1.002070    0.725540
  H      2.255940   -0.859400    3.487540
  H      3.050700   -1.285370    1.976930
  H      2.449540   -3.228690    3.475090
  H      0.299900   -2.974450    4.400190
  H      1.358970   -3.186810    0.634670
  H      2.884930   -5.196740    0.448010
  H      4.387140   -3.255310    2.279860
  H      6.746530   -3.272490    2.085390
  H      6.634930   -7.727030    0.002460
  H      4.549110   -6.528710    0.377610
  H      9.788770   -6.948280    1.554340
  H      8.759240   -7.823590   -1.193540
  H     11.162220   -9.618480   -3.459520
  H     10.041890   -8.314420   -3.023380
  H      9.633440  -11.321610   -2.531980
  H      8.794660  -10.356700   -3.749290
  H      8.486940  -10.077400   -2.031500
  H     13.178090   -8.259310    4.115190
  H     14.771710   -8.611080    3.407180
  H     12.728990  -10.680990    4.377780
  H     14.229250  -10.248150    5.202920
  H     14.283970  -11.080680    3.643650
  H     15.615330   -9.959790    1.781270
  H     14.704990  -10.448950   -1.103660
  H     17.716100  -12.096320    0.303560
  H     19.158870   -8.995730   -2.654380
  H     14.333420   -6.853190   -2.460920
  H     14.211910   -6.751540    0.607320
  H     12.011560   -5.840880    0.276210
  H     12.763170   -2.518860   -1.855030
  H     12.147980   -3.594850    0.135590
  H     14.152520   -4.178330    1.541470
  H     14.117660   -2.568430    0.842780
  H     15.773310   -4.937030   -0.118690
  H     16.360360   -3.453150    0.632180
  H     16.654330   -3.605820   -1.868810
  H     14.721870   -4.491230   -2.895360
  H     15.068500   -1.264700   -0.740910
  H     17.086020    0.021380   -1.502930
  H     18.305460   -2.651330   -0.628000
  H     19.138710   -1.035520   -0.777700

 Total Charge           Charge          ....    0
 Multiplicity           Mult            ....    1
 Number of Electrons    NEL             ....  502
 Basis Dimension        Dim             .... 1205

ORBITAL ENERGIES
----------------

  NO   OCC          E(Eh)            E(eV)
   0   2.0000     -88.968518     -2420.9565
   1   2.0000     -19.277559      -524.5691
   2   2.0000     -19.272101      -524.4205
   3   2.0000     -19.264378      -524.2104
   4   2.0000     -19.260586      -524.1072
   5   2.0000     -19.255515      -523.9692
   6   2.0000     -19.253799      -523.9225
   7   2.0000     -19.253512      -523.9147
   8   2.0000     -19.212989      -522.8120
   9   2.0000     -19.211424      -522.7694
  10   2.0000     -19.201692      -522.5046
  11   2.0000     -19.201287      -522.4936
  12   2.0000     -19.193823      -522.2905
  13   2.0000     -19.186043      -522.0788
  14   2.0000     -19.182417      -521.9801
  15   2.0000     -14.659186      -398.8967
  16   2.0000     -14.449677      -393.1957
  17   2.0000     -14.443296      -393.0221
  18   2.0000     -10.412883      -283.3489
  19   2.0000     -10.407941      -283.2145
  20   2.0000     -10.400688      -283.0171
  21   2.0000     -10.396468      -282.9023
  22   2.0000     -10.390119      -282.7295
  23   2.0000     -10.368889      -282.1518
  24   2.0000     -10.364043      -282.0199
  25   2.0000     -10.352242      -281.6988
  26   2.0000     -10.349568      -281.6261
  27   2.0000     -10.337622      -281.3010
  28   2.0000     -10.336259      -281.2639
  29   2.0000     -10.334487      -281.2157
  30   2.0000     -10.334262      -281.2096
  31   2.0000     -10.331345      -281.1302
  32   2.0000     -10.330822      -281.1160
  33   2.0000     -10.314753      -280.6787
  34   2.0000     -10.311189      -280.5817
  35   2.0000     -10.309653      -280.5399
  36   2.0000     -10.307558      -280.4829
  37   2.0000     -10.305898      -280.4378
  38   2.0000     -10.305731      -280.4332
  39   2.0000     -10.303650      -280.3766
  40   2.0000     -10.303369      -280.3689
  41   2.0000     -10.301889      -280.3286
  42   2.0000     -10.300185      -280.2823
  43   2.0000     -10.297474      -280.2085
  44   2.0000     -10.296548      -280.1833
  45   2.0000     -10.294834      -280.1367
  46   2.0000     -10.294740      -280.1341
  47   2.0000     -10.293726      -280.1065
  48   2.0000     -10.293576      -280.1024
  49   2.0000     -10.293479      -280.0998
  50   2.0000     -10.291246      -280.0390
  51   2.0000     -10.291228      -280.0385
  52   2.0000     -10.289408      -279.9890
  53   2.0000     -10.289239      -279.9844
  54   2.0000     -10.289008      -279.9781
  55   2.0000     -10.286474      -279.9092
  56   2.0000     -10.286417      -279.9076
  57   2.0000     -10.285418      -279.8805
  58   2.0000     -10.284223      -279.8479
  59   2.0000     -10.282425      -279.7990
  60   2.0000     -10.281421      -279.7717
  61   2.0000     -10.275242      -279.6036
  62   2.0000     -10.274333      -279.5788
  63   2.0000     -10.270661      -279.4789
  64   2.0000     -10.264320      -279.3063
  65   2.0000     -10.262472      -279.2561
  66   2.0000     -10.255742      -279.0729
  67   2.0000     -10.251798      -278.9656
  68   2.0000     -10.250180      -278.9216
  69   2.0000      -8.064832      -219.4552
  70   2.0000      -6.034045      -164.1947
  71   2.0000      -6.029562      -164.0727
  72   2.0000      -6.027327      -164.0119
  73   2.0000      -1.333236       -36.2792
  74   2.0000      -1.211148       -32.9570
  75   2.0000      -1.206701       -32.8360
  76   2.0000      -1.199546       -32.6413
  77   2.0000      -1.199279       -32.6340
  78   2.0000      -1.189042       -32.3555
  79   2.0000      -1.150524       -31.3073
  80   2.0000      -1.127054       -30.6687
  81   2.0000      -1.120817       -30.4990
  82   2.0000      -1.119389       -30.4601
  83   2.0000      -1.112107       -30.2620
  84   2.0000      -1.110237       -30.2111
  85   2.0000      -1.108186       -30.1553
  86   2.0000      -1.100738       -29.9526
  87   2.0000      -1.056970       -28.7616
  88   2.0000      -1.048242       -28.5241
  89   2.0000      -0.997351       -27.1393
  90   2.0000      -0.995480       -27.0884
  91   2.0000      -0.963433       -26.2164
  92   2.0000      -0.946869       -25.7656
  93   2.0000      -0.936203       -25.4754
  94   2.0000      -0.922729       -25.1087
  95   2.0000      -0.918959       -25.0061
  96   2.0000      -0.916546       -24.9405
  97   2.0000      -0.910297       -24.7704
  98   2.0000      -0.904172       -24.6038
  99   2.0000      -0.889709       -24.2102
 100   2.0000      -0.884426       -24.0665
 101   2.0000      -0.871827       -23.7236
 102   2.0000      -0.866771       -23.5860
 103   2.0000      -0.862782       -23.4775
 104   2.0000      -0.857418       -23.3315
 105   2.0000      -0.844496       -22.9799
 106   2.0000      -0.843467       -22.9519
 107   2.0000      -0.836079       -22.7509
 108   2.0000      -0.833402       -22.6780
 109   2.0000      -0.817797       -22.2534
 110   2.0000      -0.814544       -22.1649
 111   2.0000      -0.812917       -22.1206
 112   2.0000      -0.806479       -21.9454
 113   2.0000      -0.793652       -21.5964
 114   2.0000      -0.777053       -21.1447
 115   2.0000      -0.762518       -20.7492
 116   2.0000      -0.755351       -20.5542
 117   2.0000      -0.752358       -20.4727
 118   2.0000      -0.747181       -20.3318
 119   2.0000      -0.736549       -20.0425
 120   2.0000      -0.735345       -20.0098
 121   2.0000      -0.722951       -19.6725
 122   2.0000      -0.705660       -19.2020
 123   2.0000      -0.705025       -19.1847
 124   2.0000      -0.704214       -19.1626
 125   2.0000      -0.701275       -19.0827
 126   2.0000      -0.680647       -18.5213
 127   2.0000      -0.677085       -18.4244
 128   2.0000      -0.673565       -18.3286
 129   2.0000      -0.670851       -18.2548
 130   2.0000      -0.666216       -18.1287
 131   2.0000      -0.662048       -18.0152
 132   2.0000      -0.655339       -17.8327
 133   2.0000      -0.653776       -17.7901
 134   2.0000      -0.651598       -17.7309
 135   2.0000      -0.648332       -17.6420
 136   2.0000      -0.642621       -17.4866
 137   2.0000      -0.641854       -17.4657
 138   2.0000      -0.639048       -17.3894
 139   2.0000      -0.635314       -17.2878
 140   2.0000      -0.622972       -16.9519
 141   2.0000      -0.621431       -16.9100
 142   2.0000      -0.619057       -16.8454
 143   2.0000      -0.617657       -16.8073
 144   2.0000      -0.611063       -16.6279
 145   2.0000      -0.607218       -16.5232
 146   2.0000      -0.603136       -16.4122
 147   2.0000      -0.599965       -16.3259
 148   2.0000      -0.594764       -16.1843
 149   2.0000      -0.587614       -15.9898
 150   2.0000      -0.584494       -15.9049
 151   2.0000      -0.581121       -15.8131
 152   2.0000      -0.578187       -15.7333
 153   2.0000      -0.576755       -15.6943
 154   2.0000      -0.574624       -15.6363
 155   2.0000      -0.569745       -15.5035
 156   2.0000      -0.563613       -15.3367
 157   2.0000      -0.561535       -15.2801
 158   2.0000      -0.560268       -15.2457
 159   2.0000      -0.555798       -15.1240
 160   2.0000      -0.553327       -15.0568
 161   2.0000      -0.550585       -14.9822
 162   2.0000      -0.546665       -14.8755
 163   2.0000      -0.544181       -14.8079
 164   2.0000      -0.543199       -14.7812
 165   2.0000      -0.542767       -14.7694
 166   2.0000      -0.539420       -14.6784
 167   2.0000      -0.537257       -14.6195
 168   2.0000      -0.535409       -14.5692
 169   2.0000      -0.533103       -14.5065
 170   2.0000      -0.532110       -14.4794
 171   2.0000      -0.531473       -14.4621
 172   2.0000      -0.526963       -14.3394
 173   2.0000      -0.525782       -14.3073
 174   2.0000      -0.524221       -14.2648
 175   2.0000      -0.520003       -14.1500
 176   2.0000      -0.517396       -14.0791
 177   2.0000      -0.514463       -13.9992
 178   2.0000      -0.513109       -13.9624
 179   2.0000      -0.507675       -13.8145
 180   2.0000      -0.504662       -13.7325
 181   2.0000      -0.503208       -13.6930
 182   2.0000      -0.501670       -13.6511
 183   2.0000      -0.499102       -13.5813
 184   2.0000      -0.496955       -13.5228
 185   2.0000      -0.493848       -13.4383
 186   2.0000      -0.493195       -13.4205
 187   2.0000      -0.491040       -13.3619
 188   2.0000      -0.487364       -13.2618
 189   2.0000      -0.485983       -13.2243
 190   2.0000      -0.482180       -13.1208
 191   2.0000      -0.478067       -13.0089
 192   2.0000      -0.475474       -12.9383
 193   2.0000      -0.472561       -12.8590
 194   2.0000      -0.471869       -12.8402
 195   2.0000      -0.471096       -12.8192
 196   2.0000      -0.467853       -12.7309
 197   2.0000      -0.464555       -12.6412
 198   2.0000      -0.460989       -12.5442
 199   2.0000      -0.458726       -12.4826
 200   2.0000      -0.457209       -12.4413
 201   2.0000      -0.455344       -12.3906
 202   2.0000      -0.454897       -12.3784
 203   2.0000      -0.454708       -12.3732
 204   2.0000      -0.451819       -12.2946
 205   2.0000      -0.448499       -12.2043
 206   2.0000      -0.447702       -12.1826
 207   2.0000      -0.446560       -12.1515
 208   2.0000      -0.446363       -12.1462
 209   2.0000      -0.444655       -12.0997
 210   2.0000      -0.439678       -11.9643
 211   2.0000      -0.438517       -11.9326
 212   2.0000      -0.436405       -11.8752
 213   2.0000      -0.433527       -11.7969
 214   2.0000      -0.431874       -11.7519
 215   2.0000      -0.430734       -11.7209
 216   2.0000      -0.428447       -11.6586
 217   2.0000      -0.427242       -11.6258
 218   2.0000      -0.423789       -11.5319
 219   2.0000      -0.416839       -11.3428
 220   2.0000      -0.412827       -11.2336
 221   2.0000      -0.410871       -11.1804
 222   2.0000      -0.410694       -11.1756
 223   2.0000      -0.408729       -11.1221
 224   2.0000      -0.404866       -11.0170
 225   2.0000      -0.397750       -10.8233
 226   2.0000      -0.395863       -10.7720
 227   2.0000      -0.395380       -10.7588
 228   2.0000      -0.391948       -10.6655
 229   2.0000      -0.389853       -10.6084
 230   2.0000      -0.385155       -10.4806
 231   2.0000      -0.378962       -10.3121
 232   2.0000      -0.365988        -9.9590
 233   2.0000      -0.365563        -9.9475
 234   2.0000      -0.359151        -9.7730
 235   2.0000      -0.355001        -9.6601
 236   2.0000      -0.353667        -9.6238
 237   2.0000      -0.351976        -9.5778
 238   2.0000      -0.349262        -9.5039
 239   2.0000      -0.346506        -9.4289
 240   2.0000      -0.344976        -9.3873
 241   2.0000      -0.342890        -9.3305
 242   2.0000      -0.337352        -9.1798
 243   2.0000      -0.328088        -8.9277
 244   2.0000      -0.326941        -8.8965
 245   2.0000      -0.324622        -8.8334
 246   2.0000      -0.314497        -8.5579
 247   2.0000      -0.312919        -8.5150
 248   2.0000      -0.303522        -8.2592
 249   2.0000      -0.301590        -8.2067
 250   2.0000      -0.234842        -6.3904
 251   0.0000      -0.076210        -2.0738
 252   0.0000      -0.052654        -1.4328
 253   0.0000      -0.023744        -0.6461
 254   0.0000      -0.012266        -0.3338
 255   0.0000       0.010324         0.2809

MULLIKEN ATOMIC CHARGES
-----------------------
   0 C :    0.022099
   1 C :    0.137691
   2 O :   -0.154177
   3 O :   -0.261350
   4 C :    0.153782
   5 C :   -0.130723
   6 C :    0.091530
   7 C :    0.092439
   8 C :   -0.078906
   9 C :    0.159319
  10 O :   -0.248505
  11 C :    0.181248
  12 O :   -0.154865
  13 C :   -0.053796
  14 C :   -0.035962
  15 C :    0.014901
  16 C :    0.117002
  17 C :   -0.080944
  18 C :    0.152972
  19 N :    0.259542
  20 O :   -0.229779
  21 O :   -0.240225
  22 C :    0.046670
  23 C :   -0.019123
  24 C :    0.014984
  25 C :    0.002835
  26 C :   -0.009554
  27 C :    0.131558
  28 N :   -0.236008
  29 C :    0.101377
  30 C :    0.008418
  31 C :    0.164829
  32 O :   -0.222225
  33 C :   -0.050993
  34 C :   -0.080156
  35 C :    0.145452
  36 O :   -0.217382
  37 N :   -0.267938
  38 C :    0.101342
  39 C :    0.006745
  40 C :    0.095840
  41 C :   -0.004519
  42 C :    0.021062
  43 C :    0.084004
  44 C :   -0.135064
  45 S :    0.132557
  46 C :   -0.098389
  47 C :    0.015485
  48 C :    0.190348
  49 O :   -0.181491
  50 O :   -0.268564
  51 C :    0.176353
  52 C :   -0.073760
  53 C :   -0.002481
  54 C :    0.167731
  55 O :   -0.175491
  56 O :   -0.251101
  57 C :    0.162783
  58 C :   -0.083278
  59 C :    0.081398
  60 C :    0.119645
  61 C :   -0.097928
  62 C :    0.166602
  63 O :   -0.255740
  64 C :    0.180868
  65 O :   -0.157857
  66 C :   -0.065045
  67 C :   -0.027932
  68 C :   -0.020426
  69 H :    0.043858
  70 H :    0.047186
  71 H :    0.021093
  72 H :    0.023083
  73 H :    0.014276
  74 H :    0.007586
  75 H :    0.009775
  76 H :    0.010571
  77 H :    0.018367
  78 H :    0.024175
  79 H :    0.047108
  80 H :    0.022830
  81 H :   -0.011437
  82 H :   -0.003055
  83 H :   -0.008794
  84 H :   -0.004314
  85 H :    0.039163
  86 H :   -0.018169
  87 H :    0.038414
  88 H :    0.042085
  89 H :    0.023086
  90 H :    0.020476
  91 H :    0.003789
  92 H :    0.043005
  93 H :    0.017690
  94 H :    0.027984
  95 H :    0.020933
  96 H :    0.015444
  97 H :   -0.028731
  98 H :    0.055028
  99 H :    0.024799
 100 H :    0.041765
 101 H :    0.051406
 102 H :    0.020510
 103 H :    0.056673
 104 H :    0.016420
 105 H :    0.020002
 106 H :    0.008384
 107 H :    0.006052
 108 H :    0.018775
 109 H :    0.001117
 110 H :    0.018898
 111 H :    0.014326
 112 H :    0.042633
 113 H :    0.022530
 114 H :    0.017350
 115 H :    0.026125
Sum of atomic charges:   -0.0000000

LOEWDIN ATOMIC CHARGES
----------------------
   0 C :   -0.058422
   1 C :    0.075031
   2 O :   -0.144431
   3 O :   -0.075184
   4 C :    0.066477
   5 C :   -0.040435
   6 C :   -0.026767
   7 C :   -0.026834
   8 C :   -0.034308
   9 C :    0.070939
  10 O :   -0.061850
  11 C :    0.081226
  12 O :   -0.145716
  13 C :   -0.063226
  14 C :    0.001492
  15 C :   -0.033301
  16 C :   -0.020991
  17 C :    0.005723
  18 C :   -0.029129
  19 N :    0.295112
  20 O :   -0.197486
  21 O :   -0.195576
  22 C :   -0.000513
  23 C :   -0.002508
  24 C :    0.016637
  25 C :    0.023120
  26 C :   -0.032270
  27 C :    0.082920
  28 N :    0.019529
  29 C :    0.036870
  30 C :   -0.062622
  31 C :    0.080365
  32 O :   -0.206060
  33 C :   -0.125412
  34 C :   -0.130762
  35 C :    0.074085
  36 O :   -0.211281
  37 N :   -0.002261
  38 C :    0.034431
  39 C :   -0.060591
  40 C :    0.074015
  41 C :   -0.053189
  42 C :    0.042045
  43 C :   -0.048659
  44 C :   -0.184073
  45 S :    0.461237
  46 C :   -0.144021
  47 C :   -0.105230
  48 C :    0.101440
  49 O :   -0.159802
  50 O :   -0.042082
  51 C :    0.057478
  52 C :   -0.043702
  53 C :   -0.053844
  54 C :    0.090442
  55 O :   -0.157574
  56 O :   -0.060803
  57 C :    0.069130
  58 C :   -0.031291
  59 C :   -0.025685
  60 C :   -0.030314
  61 C :   -0.031318
  62 C :    0.069626
  63 O :   -0.068237
  64 C :    0.081558
  65 O :   -0.149039
  66 C :   -0.066913
  67 C :   -0.007343
  68 C :   -0.056160
  69 H :    0.041089
  70 H :    0.047039
  71 H :    0.029895
  72 H :    0.036010
  73 H :    0.033487
  74 H :    0.024136
  75 H :    0.025419
  76 H :    0.030971
  77 H :    0.034443
  78 H :    0.032162
  79 H :    0.048755
  80 H :    0.031724
  81 H :    0.025888
  82 H :    0.037960
  83 H :    0.036321
  84 H :    0.036563
  85 H :    0.034735
  86 H :    0.030744
  87 H :    0.036959
  88 H :    0.025971
  89 H :    0.029511
  90 H :    0.029650
  91 H :    0.017009
  92 H :    0.036119
  93 H :    0.019657
  94 H :    0.031791
  95 H :    0.029684
  96 H :    0.022517
  97 H :    0.025901
  98 H :    0.038269
  99 H :    0.026285
 100 H :    0.034212
 101 H :    0.024402
 102 H :    0.031359
 103 H :    0.052449
 104 H :    0.029422
 105 H :    0.033914
 106 H :    0.032323
 107 H :    0.025000
 108 H :    0.027330
 109 H :    0.028574
 110 H :    0.035401
 111 H :    0.028908
 112 H :    0.046344
 113 H :    0.033733
 114 H :    0.018123
 115 H :    0.028133

  Mayer bond orders larger than 0.100000
B(  0-C ,  1-C ) :   0.9619 B(  0-C ,  5-C ) :   1.0251 B(  0-C , 69-H ) :   0.9273
B(  0-C , 70-H ) :   0.9303 B(  1-C ,  2-O ) :   2.2393 B(  1-C ,  3-O ) :   1.1173
B(  3-O ,  4-C ) :   0.9660 B(  4-C ,  5-C ) :   1.0180 B(  4-C ,  9-C ) :   0.9605
B(  4-C , 71-H ) :   0.9223 B(  5-C ,  6-C ) :   1.0584 B(  5-C , 72-H ) :   0.9158
B(  6-C ,  7-C ) :   1.0730 B(  6-C , 73-H ) :   0.9261 B(  6-C , 74-H ) :   0.9381
B(  7-C ,  8-C ) :   1.0548 B(  7-C , 75-H ) :   0.9383 B(  7-C , 76-H ) :   0.9250
B(  8-C ,  9-C ) :   1.0209 B(  8-C , 13-C ) :   1.0054 B(  8-C , 77-H ) :   0.9003
B(  9-C , 10-O ) :   0.9545 B(  9-C , 78-H ) :   0.9214 B( 10-O , 11-C ) :   1.1548
B( 11-C , 12-O ) :   2.2222 B( 11-C , 13-C ) :   0.8964 B( 13-C , 14-C ) :   1.0018
B( 13-C , 79-H ) :   0.8655 B( 14-C , 15-C ) :   1.8535 B( 14-C , 80-H ) :   0.9592
B( 15-C , 16-C ) :   1.0534 B( 15-C , 81-H ) :   0.9644 B( 16-C , 17-C ) :   1.3072
B( 16-C , 24-C ) :   1.3300 B( 17-C , 18-C ) :   1.3533 B( 17-C , 82-H ) :   0.9976
B( 18-C , 19-N ) :   0.8931 B( 18-C , 22-C ) :   1.3449 B( 19-N , 20-O ) :   1.5634
B( 19-N , 21-O ) :   1.4944 B( 20-O , 21-O ) :   0.2561 B( 22-C , 23-C ) :   1.3515
B( 22-C , 25-C ) :   1.0380 B( 23-C , 24-C ) :   1.4061 B( 23-C , 83-H ) :   0.9890
B( 24-C , 84-H ) :   0.9914 B( 25-C , 26-C ) :   1.7074 B( 25-C , 85-H ) :   0.9134
B( 26-C , 27-C ) :   1.1375 B( 26-C , 86-H ) :   0.9604 B( 27-C , 28-N ) :   1.1748
B( 27-C , 34-C ) :   1.3487 B( 28-N , 29-C ) :   0.9409 B( 28-N , 31-C ) :   1.0753
B( 29-C , 30-C ) :   1.1169 B( 29-C , 87-H ) :   0.9277 B( 29-C , 88-H ) :   0.9420
B( 30-C , 89-H ) :   0.9626 B( 30-C , 90-H ) :   0.9686 B( 30-C , 91-H ) :   0.9688
B( 31-C , 32-O ) :   1.9994 B( 31-C , 33-C ) :   0.9882 B( 32-O , 98-H ) :   0.1268
B( 33-C , 34-C ) :   1.2302 B( 33-C , 40-C ) :   1.3765 B( 34-C , 35-C ) :   0.9925
B( 35-C , 36-O ) :   2.0260 B( 35-C , 37-N ) :   1.0571 B( 36-O , 85-H ) :   0.1083
B( 37-N , 38-C ) :   0.9500 B( 37-N , 40-C ) :   1.1468 B( 38-C , 39-C ) :   1.1216
B( 38-C , 92-H ) :   0.9279 B( 38-C , 93-H ) :   0.9477 B( 39-C , 94-H ) :   0.9641
B( 39-C , 95-H ) :   0.9677 B( 39-C , 96-H ) :   0.9689 B( 40-C , 41-C ) :   1.1314
B( 41-C , 42-C ) :   1.7662 B( 41-C , 97-H ) :   0.9687 B( 42-C , 43-C ) :   1.0014
B( 42-C , 98-H ) :   0.9008 B( 43-C , 44-C ) :   1.5884 B( 43-C , 47-C ) :   1.2466
B( 44-C , 45-S ) :   1.1470 B( 44-C , 99-H ) :   0.9717 B( 45-S , 46-C ) :   1.2126
B( 46-C , 47-C ) :   1.5567 B( 46-C ,100-H ) :   0.9689 B( 47-C , 48-C ) :   0.9286
B( 48-C , 49-O ) :   2.1732 B( 48-C , 50-O ) :   1.1133 B( 50-O , 51-C ) :   0.9886
B( 51-C , 52-C ) :   1.8541 B( 51-C ,101-H ) :   0.9466 B( 52-C , 53-C ) :   1.0257
B( 52-C ,102-H ) :   0.9595 B( 53-C , 54-C ) :   0.9173 B( 53-C , 58-C ) :   1.0094
B( 53-C ,103-H ) :   0.8713 B( 54-C , 55-O ) :   2.1361 B( 54-C , 56-O ) :   1.1625
B( 56-O , 57-C ) :   0.9503 B( 57-C , 58-C ) :   1.0187 B( 57-C , 62-C ) :   0.9664
B( 57-C ,104-H ) :   0.9193 B( 58-C , 59-C ) :   1.0787 B( 58-C ,105-H ) :   0.8929
B( 59-C , 60-C ) :   1.0622 B( 59-C ,106-H ) :   0.9226 B( 59-C ,107-H ) :   0.9355
B( 60-C , 61-C ) :   1.0603 B( 60-C ,108-H ) :   0.9294 B( 60-C ,109-H ) :   0.9215
B( 61-C , 62-C ) :   1.0265 B( 61-C , 66-C ) :   0.9964 B( 61-C ,110-H ) :   0.9032
B( 62-C , 63-O ) :   0.9498 B( 62-C ,111-H ) :   0.9152 B( 63-O , 64-C ) :   1.1463
B( 64-C , 65-O ) :   2.2329 B( 64-C , 66-C ) :   0.9015 B( 66-C , 67-C ) :   1.0079
B( 66-C ,112-H ) :   0.8760 B( 67-C , 68-C ) :   2.0389 B( 67-C ,113-H ) :   0.9611
B( 68-C ,114-H ) :   0.9439 B( 68-C ,115-H ) :   0.9534

-----------------------------------------------------------------------------
         ABSORPTION SPECTRUM VIA TRANSITION ELECTRIC DIPOLE MOMENTS
-----------------------------------------------------------------------------
State   Energy  Wavelength   fosc         T2         TX        TY        TZ
        (cm-1)    (nm)                  (au**2)     (au)      (au)      (au)
-----------------------------------------------------------------------------
   0   17550.7    569.8   0.327778411   6.14841  -2.12376   1.20356  -0.43533
   1   22602.4    442.4   0.209449533   3.05070   1.52134  -0.07833   0.85446
   2   27632.7    361.9   0.002855135   0.03402   0.04128  -0.02860  -0.17747
   3   29881.1    334.7   0.002583655   0.02847   0.14400  -0.08791   0.00138
   4   30611.3    326.7   0.035423583   0.38097  -0.34212   0.46210   0.22447
   5   31217.8    320.3   0.022878318   0.24127   0.24130  -0.42252   0.06719
   6   31512.1    317.3   0.257990982   2.69527   0.89300  -1.21538  -0.64859
   7   32775.9    305.1   0.019606575   0.19693   0.20201  -0.00905  -0.39502
   8   33757.2    296.2   0.001449790   0.01414  -0.05416   0.10204  -0.02816
   9   34595.5    289.1   0.117840302   1.12137   1.03040  -0.20796  -0.12804
  10   35664.7    280.4   0.016227569   0.14979   0.31971  -0.18477   0.11593
  11   36237.2    276.0   0.459267314   4.17240  -1.66192   0.95408   0.70721
  12   36570.6    273.4   0.008641841   0.07779  -0.25710   0.03240   0.10319
  13   36792.5    271.8   0.118940243   1.06425   0.74287  -0.29976  -0.65004
  14   38352.8    260.7   0.002413301   0.02072   0.12885   0.05602  -0.03124
  15   39586.6    252.6   0.031675131   0.26342   0.50994   0.03911   0.04306
  16   39893.2    250.7   0.035349362   0.29171   0.44413  -0.06659  -0.30005
  17   39949.2    250.3   0.008808589   0.07259  -0.17771  -0.16980  -0.11035
  18   40167.6    249.0   0.023464968   0.19232   0.40963  -0.15442   0.02605

FINAL SINGLE POINT ENERGY     -3583.258167736014

DIPOLE MOMENT
-------------
                                X             Y             Z
Electronic contribution:     13.65881     -20.30488     -12.65839
Nuclear contribution   :    -12.65319      20.55997      14.08035
                        -----------------------------------------
Total Dipole Moment    :      1.00562       0.25509       1.42196
                        -----------------------------------------
Magnitude (a.u.)       :      1.76020
Magnitude (Debye)      :      4.47408

Rotational constants in cm-1:     0.001792     0.000381     0.000341
Rotational constants in MHz :    53.723950    11.420702    10.227738

                             ****ORCA TERMINATED NORMALLY****
TOTAL RUN TIME: 0 days 0 hours 10 minutes 57 seconds 222 msec
