                         Program Version 4.2.0 -  RELEASE  -
|  1> # ORCA input file
|  2> # SCF done       -156.618164497802          0.000478000276
|  3> ! CAM-B3LYP def2-SVP def2/J RIJCOSX Grid4 TightSCF
|  4> %maxcore 5000
|  5> %tddft
|  6>     Mode sTDDFT
|  7>     Ethresh 5.0
|  8>     maxcore 5000
|  9> end
| 10>
| 11> %pal
| 12>   nprocs 6
| 13>   end
| 14> * xyz 0 1
| 15>    C        1.64098        -0.07779         1.61002
| 16>    S        0.66650        -1.20774         0.77620
| 17>    C        0.74931        -2.35030         2.08737
| 18>    C        1.51372        -1.83446         3.11658
| 19>    C        2.01883        -0.54463         2.83840
| 20>    O        2.80485         0.20686         3.65948
| 21>    C        3.24616        -0.17219         4.86605
| 22>    O        3.94009         0.57243         5.49615
| 23>    C        2.89279        -1.53088         5.47467
| 24>    O        3.31579        -1.83836         6.55217
| 25>    S        1.84884        -2.68122         4.61699
| 26>    C        0.11604        -3.62557         2.04498
| 27>    C       -0.55134        -4.09009         0.97150
| 28>    C       -1.17295        -5.37993         0.85441
| 29>    C       -1.39411        -6.28127         1.91226
| 30>    N       -1.93143        -7.46189         1.73401
| 31>    C       -2.28450        -7.81175         0.49547
| 32>    N       -2.14455        -7.02728        -0.57831
| 33>    C       -1.60990        -5.84341        -0.39654
| 34>    C       -2.87769        -9.12043         0.34254
| 35>    N       -2.93396        -9.82506        -0.83118
| 36>    C       -2.32343        -9.47970        -2.09239
| 37>    C       -0.81178        -9.68506        -2.05721
| 38>    C       -3.59280       -11.06251        -0.66402
| 39>    O       -3.75387       -11.86258        -1.56062
| 40>    C       -3.97586       -11.06696         0.72872
| 41>    C       -3.51487        -9.86194         1.32392
| 42>    C       -3.98066        -9.85074         2.69794
| 43>    O       -3.86417        -9.06006         3.60332
| 44>    N       -4.71063       -11.06438         2.82852
| 45>    C       -5.23976       -11.44547         4.11636
| 46>    C       -4.51169       -12.65010         4.70444
| 47>    C       -4.70982       -11.78570         1.66183
| 48>    C       -5.35065       -13.02435         1.34977
| 49>    C       -6.37769       -13.63891         1.96363
| 50>    C       -6.94952       -14.85663         1.41950
| 51>    N       -6.25888       -15.52013         0.48828
| 52>    C       -6.80880       -16.61503         0.00319
| 53>    C       -8.05952       -17.06352         0.39917
| 54>    C       -8.72270       -16.29826         1.36785
| 55>    N       -8.14074       -15.21511         1.88408
| 56>    C      -10.05387       -16.57640         1.87115
| 57>    C      -10.88562       -17.50274         1.36253
| 58>    C      -12.22141       -17.75633         1.79926
| 59>    S      -13.16070       -18.96688         0.98392
| 60>    C      -14.55265       -18.68457         1.97541
| 61>    C      -14.28258       -17.69200         2.89754
| 62>    C      -12.97907       -17.17019         2.80332
| 63>    O      -12.45842       -16.19193         3.59428
| 64>    C      -13.10287       -15.55292         4.58012
| 65>    O      -12.51958       -14.71648         5.20885
| 66>    C      -14.55816       -15.85443         4.93120
| 67>    O      -15.11363       -15.24482         5.79973
| 68>    S      -15.45742       -17.11956         4.07492
| 69>    C      -15.78407       -19.40165         1.81775
| 70>    C      -15.99389       -20.34789         0.90552
| 71>    H        1.89347         0.86585         1.17238
| 72>    H        0.22517        -4.22185         2.94033
| 73>    H       -0.60982        -3.46189         0.08956
| 74>    H       -1.13648        -6.03612         2.93392
| 75>    H       -1.50908        -5.22933        -1.28409
| 76>    H       -2.56066        -8.44280        -2.33352
| 77>    H       -2.77186       -10.14893        -2.83197
| 78>    H       -0.35590        -9.03321        -1.31550
| 79>    H       -0.38708        -9.45539        -3.03026
| 80>    H       -0.57750       -10.71743        -1.80824
| 81>    H       -6.31315       -11.63620         4.03949
| 82>    H       -5.09052       -10.57246         4.75960
| 83>    H       -4.62066       -13.52334         4.06578
| 84>    H       -4.92094       -12.88080         5.68404
| 85>    H       -3.45287       -12.42812         4.81371
| 86>    H       -4.98087       -13.47579         0.43645
| 87>    H       -6.88386       -13.25319         2.83370
| 88>    H       -6.22411       -17.14821        -0.73613
| 89>    H       -8.48638       -17.95907        -0.01908
| 90>    H      -10.36115       -15.93683         2.68401
| 91>    H      -10.57211       -18.12490         0.53467
| 92>    H      -16.56296       -19.11383         2.51186
| 93>    H      -15.22208       -20.63833         0.21156
| 94>    H      -16.93811       -20.85500         0.82766
| 95> *
| 96>
| 97>                          ****END OF INPUT****

CARTESIAN COORDINATES (ANGSTROEM)
---------------------------------
  C      1.640980   -0.077790    1.610020
  S      0.666500   -1.207740    0.776200
  C      0.749310   -2.350300    2.087370
  C      1.513720   -1.834460    3.116580
  C      2.018830   -0.544630    2.838400
  O      2.804850    0.206860    3.659480
  C      3.246160   -0.172190    4.866050
  O      3.940090    0.572430    5.496150
  C      2.892790   -1.530880    5.474670
  O      3.315790   -1.838360    6.552170
  S      1.848840   -2.681220    4.616990
  C      0.116040   -3.625570    2.044980
  C     -0.551340   -4.090090    0.971500
  C     -1.172950   -5.379930    0.854410
  C     -1.394110   -6.281270    1.912260
  N     -1.931430   -7.461890    1.734010
  C     -2.284500   -7.811750    0.495470
  N     -2.144550   -7.027280   -0.578310
  C     -1.609900   -5.843410   -0.396540
  C     -2.877690   -9.120430    0.342540
  N     -2.933960   -9.825060   -0.831180
  C     -2.323430   -9.479700   -2.092390
  C     -0.811780   -9.685060   -2.057210
  C     -3.592800  -11.062510   -0.664020
  O     -3.753870  -11.862580   -1.560620
  C     -3.975860  -11.066960    0.728720
  C     -3.514870   -9.861940    1.323920
  C     -3.980660   -9.850740    2.697940
  O     -3.864170   -9.060060    3.603320
  N     -4.710630  -11.064380    2.828520
  C     -5.239760  -11.445470    4.116360
  C     -4.511690  -12.650100    4.704440
  C     -4.709820  -11.785700    1.661830
  C     -5.350650  -13.024350    1.349770
  C     -6.377690  -13.638910    1.963630
  C     -6.949520  -14.856630    1.419500
  N     -6.258880  -15.520130    0.488280
  C     -6.808800  -16.615030    0.003190
  C     -8.059520  -17.063520    0.399170
  C     -8.722700  -16.298260    1.367850
  N     -8.140740  -15.215110    1.884080
  C    -10.053870  -16.576400    1.871150
  C    -10.885620  -17.502740    1.362530
  C    -12.221410  -17.756330    1.799260
  S    -13.160700  -18.966880    0.983920
  C    -14.552650  -18.684570    1.975410
  C    -14.282580  -17.692000    2.897540
  C    -12.979070  -17.170190    2.803320
  O    -12.458420  -16.191930    3.594280
  C    -13.102870  -15.552920    4.580120
  O    -12.519580  -14.716480    5.208850
  C    -14.558160  -15.854430    4.931200
  O    -15.113630  -15.244820    5.799730
  S    -15.457420  -17.119560    4.074920
  C    -15.784070  -19.401650    1.817750
  C    -15.993890  -20.347890    0.905520
  H      1.893470    0.865850    1.172380
  H      0.225170   -4.221850    2.940330
  H     -0.609820   -3.461890    0.089560
  H     -1.136480   -6.036120    2.933920
  H     -1.509080   -5.229330   -1.284090
  H     -2.560660   -8.442800   -2.333520
  H     -2.771860  -10.148930   -2.831970
  H     -0.355900   -9.033210   -1.315500
  H     -0.387080   -9.455390   -3.030260
  H     -0.577500  -10.717430   -1.808240
  H     -6.313150  -11.636200    4.039490
  H     -5.090520  -10.572460    4.759600
  H     -4.620660  -13.523340    4.065780
  H     -4.920940  -12.880800    5.684040
  H     -3.452870  -12.428120    4.813710
  H     -4.980870  -13.475790    0.436450
  H     -6.883860  -13.253190    2.833700
  H     -6.224110  -17.148210   -0.736130
  H     -8.486380  -17.959070   -0.019080
  H    -10.361150  -15.936830    2.684010
  H    -10.572110  -18.124900    0.534670
  H    -16.562960  -19.113830    2.511860
  H    -15.222080  -20.638330    0.211560
  H    -16.938110  -20.855000    0.827660

 Total Charge           Charge          ....    0
 Multiplicity           Mult            ....    1
 Number of Electrons    NEL             ....  422
 Basis Dimension        Dim             ....  920

ORBITAL ENERGIES
----------------

  NO   OCC          E(Eh)            E(eV)
   0   2.0000     -88.983872     -2421.3742
   1   2.0000     -88.982005     -2421.3235
   2   2.0000     -88.978739     -2421.2346
   3   2.0000     -88.978144     -2421.2184
   4   2.0000     -19.314739      -525.5808
   5   2.0000     -19.308612      -525.4140
   6   2.0000     -19.248875      -523.7885
   7   2.0000     -19.247389      -523.7481
   8   2.0000     -19.236219      -523.4441
   9   2.0000     -19.231996      -523.3292
  10   2.0000     -19.180918      -521.9393
  11   2.0000     -19.176590      -521.8215
  12   2.0000     -14.443110      -393.0170
  13   2.0000     -14.441383      -392.9700
  14   2.0000     -14.424328      -392.5059
  15   2.0000     -14.418990      -392.3607
  16   2.0000     -14.407788      -392.0558
  17   2.0000     -14.406633      -392.0244
  18   2.0000     -10.439310      -284.0681
  19   2.0000     -10.435625      -283.9678
  20   2.0000     -10.415986      -283.4334
  21   2.0000     -10.414236      -283.3858
  22   2.0000     -10.373398      -282.2745
  23   2.0000     -10.371081      -282.2114
  24   2.0000     -10.365584      -282.0619
  25   2.0000     -10.360973      -281.9364
  26   2.0000     -10.355838      -281.7967
  27   2.0000     -10.340861      -281.3891
  28   2.0000     -10.335638      -281.2470
  29   2.0000     -10.334949      -281.2283
  30   2.0000     -10.332546      -281.1629
  31   2.0000     -10.332461      -281.1605
  32   2.0000     -10.332006      -281.1482
  33   2.0000     -10.331333      -281.1299
  34   2.0000     -10.331173      -281.1255
  35   2.0000     -10.329915      -281.0913
  36   2.0000     -10.328620      -281.0560
  37   2.0000     -10.328195      -281.0445
  38   2.0000     -10.320535      -280.8360
  39   2.0000     -10.318891      -280.7913
  40   2.0000     -10.309491      -280.5355
  41   2.0000     -10.306262      -280.4477
  42   2.0000     -10.305527      -280.4276
  43   2.0000     -10.304154      -280.3903
  44   2.0000     -10.303216      -280.3648
  45   2.0000     -10.296036      -280.1694
  46   2.0000     -10.288767      -279.9716
  47   2.0000     -10.286581      -279.9121
  48   2.0000     -10.284861      -279.8653
  49   2.0000     -10.284729      -279.8617
  50   2.0000     -10.282865      -279.8110
  51   2.0000     -10.280260      -279.7401
  52   2.0000     -10.257475      -279.1201
  53   2.0000     -10.252938      -278.9966
  54   2.0000     -10.251806      -278.9658
  55   2.0000     -10.250071      -278.9186
  56   2.0000      -8.079296      -219.8488
  57   2.0000      -8.077696      -219.8053
  58   2.0000      -8.075371      -219.7420
  59   2.0000      -8.074664      -219.7228
  60   2.0000      -6.048555      -164.5895
  61   2.0000      -6.046926      -164.5452
  62   2.0000      -6.045094      -164.4954
  63   2.0000      -6.044505      -164.4793
  64   2.0000      -6.044392      -164.4763
  65   2.0000      -6.043076      -164.4405
  66   2.0000      -6.041390      -164.3946
  67   2.0000      -6.040845      -164.3797
  68   2.0000      -6.040156      -164.3610
  69   2.0000      -6.039548      -164.3444
  70   2.0000      -6.036167      -164.2524
  71   2.0000      -6.035482      -164.2338
  72   2.0000      -1.243068       -33.8256
  73   2.0000      -1.238053       -33.6891
  74   2.0000      -1.173814       -31.9411
  75   2.0000      -1.171862       -31.8880
  76   2.0000      -1.138744       -30.9868
  77   2.0000      -1.135359       -30.8947
  78   2.0000      -1.122997       -30.5583
  79   2.0000      -1.115386       -30.3512
  80   2.0000      -1.095761       -29.8172
  81   2.0000      -1.082076       -29.4448
  82   2.0000      -1.051906       -28.6238
  83   2.0000      -1.042024       -28.3549
  84   2.0000      -1.019666       -27.7465
  85   2.0000      -1.018418       -27.7126
  86   2.0000      -0.989815       -26.9342
  87   2.0000      -0.980739       -26.6873
  88   2.0000      -0.941916       -25.6308
  89   2.0000      -0.940003       -25.5788
  90   2.0000      -0.932288       -25.3688
  91   2.0000      -0.919919       -25.0323
  92   2.0000      -0.916780       -24.9469
  93   2.0000      -0.910595       -24.7786
  94   2.0000      -0.895458       -24.3667
  95   2.0000      -0.887808       -24.1585
  96   2.0000      -0.867235       -23.5987
  97   2.0000      -0.859929       -23.3999
  98   2.0000      -0.857816       -23.3424
  99   2.0000      -0.855262       -23.2729
 100   2.0000      -0.836490       -22.7621
 101   2.0000      -0.820137       -22.3171
 102   2.0000      -0.808832       -22.0094
 103   2.0000      -0.807425       -21.9711
 104   2.0000      -0.793448       -21.5908
 105   2.0000      -0.775750       -21.1092
 106   2.0000      -0.771600       -20.9963
 107   2.0000      -0.769130       -20.9291
 108   2.0000      -0.759295       -20.6615
 109   2.0000      -0.748917       -20.3791
 110   2.0000      -0.747870       -20.3506
 111   2.0000      -0.741189       -20.1688
 112   2.0000      -0.733239       -19.9525
 113   2.0000      -0.726481       -19.7686
 114   2.0000      -0.715553       -19.4712
 115   2.0000      -0.709667       -19.3110
 116   2.0000      -0.698397       -19.0044
 117   2.0000      -0.688985       -18.7482
 118   2.0000      -0.672543       -18.3008
 119   2.0000      -0.665384       -18.1060
 120   2.0000      -0.657974       -17.9044
 121   2.0000      -0.652260       -17.7489
 122   2.0000      -0.645282       -17.5590
 123   2.0000      -0.643145       -17.5009
 124   2.0000      -0.635561       -17.2945
 125   2.0000      -0.630556       -17.1583
 126   2.0000      -0.617373       -16.7996
 127   2.0000      -0.615780       -16.7562
 128   2.0000      -0.607832       -16.5400
 129   2.0000      -0.601207       -16.3597
 130   2.0000      -0.600950       -16.3527
 131   2.0000      -0.596614       -16.2347
 132   2.0000      -0.595407       -16.2019
 133   2.0000      -0.581490       -15.8232
 134   2.0000      -0.575929       -15.6718
 135   2.0000      -0.572337       -15.5741
 136   2.0000      -0.568628       -15.4731
 137   2.0000      -0.559755       -15.2317
 138   2.0000      -0.558385       -15.1944
 139   2.0000      -0.553952       -15.0738
 140   2.0000      -0.549804       -14.9609
 141   2.0000      -0.543737       -14.7958
 142   2.0000      -0.541163       -14.7258
 143   2.0000      -0.538844       -14.6627
 144   2.0000      -0.537066       -14.6143
 145   2.0000      -0.535067       -14.5599
 146   2.0000      -0.534434       -14.5427
 147   2.0000      -0.530645       -14.4396
 148   2.0000      -0.529112       -14.3979
 149   2.0000      -0.527287       -14.3482
 150   2.0000      -0.525582       -14.3018
 151   2.0000      -0.522451       -14.2166
 152   2.0000      -0.522020       -14.2049
 153   2.0000      -0.518098       -14.0982
 154   2.0000      -0.513927       -13.9847
 155   2.0000      -0.509226       -13.8567
 156   2.0000      -0.508304       -13.8316
 157   2.0000      -0.507374       -13.8063
 158   2.0000      -0.505798       -13.7635
 159   2.0000      -0.504826       -13.7370
 160   2.0000      -0.502216       -13.6660
 161   2.0000      -0.498818       -13.5735
 162   2.0000      -0.494045       -13.4437
 163   2.0000      -0.492799       -13.4097
 164   2.0000      -0.489925       -13.3315
 165   2.0000      -0.487699       -13.2710
 166   2.0000      -0.484577       -13.1860
 167   2.0000      -0.475738       -12.9455
 168   2.0000      -0.466127       -12.6840
 169   2.0000      -0.464144       -12.6300
 170   2.0000      -0.462351       -12.5812
 171   2.0000      -0.453633       -12.3440
 172   2.0000      -0.451451       -12.2846
 173   2.0000      -0.449287       -12.2257
 174   2.0000      -0.448407       -12.2018
 175   2.0000      -0.447144       -12.1674
 176   2.0000      -0.445650       -12.1268
 177   2.0000      -0.443153       -12.0588
 178   2.0000      -0.439027       -11.9465
 179   2.0000      -0.438134       -11.9222
 180   2.0000      -0.437346       -11.9008
 181   2.0000      -0.432740       -11.7754
 182   2.0000      -0.428621       -11.6634
 183   2.0000      -0.424487       -11.5509
 184   2.0000      -0.417842       -11.3701
 185   2.0000      -0.408287       -11.1101
 186   2.0000      -0.403386       -10.9767
 187   2.0000      -0.402516       -10.9530
 188   2.0000      -0.402096       -10.9416
 189   2.0000      -0.398267       -10.8374
 190   2.0000      -0.395489       -10.7618
 191   2.0000      -0.395310       -10.7569
 192   2.0000      -0.392551       -10.6819
 193   2.0000      -0.385106       -10.4793
 194   2.0000      -0.382746       -10.4151
 195   2.0000      -0.377082       -10.2609
 196   2.0000      -0.357321        -9.7232
 197   2.0000      -0.355285        -9.6678
 198   2.0000      -0.352972        -9.6049
 199   2.0000      -0.349270        -9.5041
 200   2.0000      -0.337018        -9.1707
 201   2.0000      -0.327828        -8.9207
 202   2.0000      -0.323860        -8.8127
 203   2.0000      -0.318716        -8.6727
 204   2.0000      -0.317081        -8.6282
 205   2.0000      -0.315175        -8.5763
 206   2.0000      -0.314671        -8.5626
 207   2.0000      -0.304593        -8.2884
 208   2.0000      -0.284950        -7.7539
 209   2.0000      -0.274866        -7.4795
 210   2.0000      -0.237170        -6.4537
 211   0.0000      -0.085086        -2.3153
 212   0.0000      -0.068143        -1.8543
 213   0.0000      -0.054465        -1.4821
 214   0.0000      -0.050207        -1.3662
 215   0.0000      -0.044397        -1.2081

MULLIKEN ATOMIC CHARGES
-----------------------
   0 C :   -0.112112
   1 S :    0.146063
   2 C :   -0.148128
   3 C :   -0.039236
   4 C :    0.202458
   5 O :   -0.186965
   6 C :    0.201708
   7 O :   -0.112287
   8 C :    0.001932
   9 O :   -0.115589
  10 S :    0.111759
  11 C :    0.022767
  12 C :   -0.005032
  13 C :    0.032411
  14 C :    0.036648
  15 N :   -0.001693
  16 C :   -0.188542
  17 N :   -0.046959
  18 C :    0.033134
  19 C :    0.196730
  20 N :   -0.267351
  21 C :    0.128560
  22 C :    0.000563
  23 C :    0.148144
  24 O :   -0.191897
  25 C :   -0.046067
  26 C :   -0.037520
  27 C :    0.146930
  28 O :   -0.163397
  29 N :   -0.277957
  30 C :    0.099192
  31 C :   -0.001345
  32 C :    0.128487
  33 C :   -0.009473
  34 C :    0.049419
  35 C :   -0.082567
  36 N :   -0.064446
  37 C :    0.079128
  38 C :   -0.056795
  39 C :    0.038784
  40 N :   -0.046163
  41 C :    0.024019
  42 C :    0.072213
  43 C :   -0.135621
  44 S :    0.154647
  45 C :   -0.144463
  46 C :   -0.042841
  47 C :    0.187268
  48 O :   -0.205525
  49 C :    0.214043
  50 O :   -0.112378
  51 C :    0.004444
  52 O :   -0.116315
  53 S :    0.113004
  54 C :   -0.001223
  55 C :   -0.016609
  56 H :    0.036678
  57 H :    0.007613
  58 H :   -0.002985
  59 H :    0.013340
  60 H :    0.003453
  61 H :    0.029626
  62 H :    0.032717
  63 H :    0.009492
  64 H :    0.014773
  65 H :    0.021249
  66 H :    0.027636
  67 H :    0.045027
  68 H :    0.024691
  69 H :    0.020992
  70 H :    0.022942
  71 H :    0.033975
  72 H :   -0.013257
  73 H :    0.009502
  74 H :   -0.007102
  75 H :    0.015103
  76 H :   -0.019622
  77 H :    0.009702
  78 H :    0.029005
  79 H :    0.037493
Sum of atomic charges:   -0.0000000

LOEWDIN ATOMIC CHARGES
----------------------
   0 C :   -0.192493
   1 S :    0.468168
   2 C :   -0.188599
   3 C :   -0.224439
   4 C :   -0.008946
   5 O :   -0.019208
   6 C :    0.046286
   7 O :   -0.090762
   8 C :   -0.105332
   9 O :   -0.092484
  10 S :    0.382496
  11 C :   -0.030652
  12 C :   -0.020725
  13 C :   -0.069280
  14 C :    0.061741
  15 N :   -0.042197
  16 C :    0.016443
  17 N :   -0.066637
  18 C :    0.048251
  19 C :    0.058413
  20 N :    0.004747
  21 C :    0.032144
  22 C :   -0.061076
  23 C :    0.076980
  24 O :   -0.194939
  25 C :   -0.116209
  26 C :   -0.100936
  27 C :    0.087135
  28 O :   -0.169112
  29 N :   -0.009850
  30 C :    0.035079
  31 C :   -0.062650
  32 C :    0.080181
  33 C :   -0.000446
  34 C :   -0.012737
  35 C :    0.026875
  36 N :   -0.082464
  37 C :    0.051250
  38 C :   -0.063343
  39 C :    0.033062
  40 N :   -0.085825
  41 C :   -0.013329
  42 C :   -0.028727
  43 C :   -0.184977
  44 S :    0.468849
  45 C :   -0.187227
  46 C :   -0.222290
  47 C :    0.000072
  48 O :   -0.012226
  49 C :    0.049098
  50 O :   -0.088804
  51 C :   -0.105626
  52 O :   -0.093392
  53 S :    0.383484
  54 C :   -0.044399
  55 C :   -0.029007
  56 H :    0.036646
  57 H :    0.031947
  58 H :    0.025611
  59 H :    0.028323
  60 H :    0.025686
  61 H :    0.021579
  62 H :    0.030915
  63 H :    0.017881
  64 H :    0.027919
  65 H :    0.027605
  66 H :    0.021136
  67 H :    0.036573
  68 H :    0.022998
  69 H :    0.030567
  70 H :    0.029616
  71 H :    0.050344
  72 H :    0.032447
  73 H :    0.027933
  74 H :    0.029974
  75 H :    0.039080
  76 H :    0.027820
  77 H :    0.033561
  78 H :    0.021522
  79 H :    0.032910

  Mayer bond orders larger than 0.100000
B(  0-C ,  1-S ) :   1.1486 B(  0-C ,  4-C ) :   1.5794 B(  0-C , 56-H ) :   0.9695
B(  1-S ,  2-C ) :   1.1441 B(  2-C ,  3-C ) :   1.5294 B(  2-C , 11-C ) :   1.1535
B(  3-C ,  4-C ) :   1.2406 B(  3-C , 10-S ) :   0.9675 B(  4-C ,  5-O ) :   1.0504
B(  5-O ,  6-C ) :   1.0999 B(  6-C ,  7-O ) :   2.2406 B(  6-C ,  8-C ) :   0.7975
B(  8-C ,  9-O ) :   2.1706 B(  8-C , 10-S ) :   1.0415 B(  9-O , 10-S ) :   0.1374
B( 11-C , 12-C ) :   1.7113 B( 11-C , 57-H ) :   0.9610 B( 12-C , 13-C ) :   1.0807
B( 12-C , 58-H ) :   0.9764 B( 13-C , 14-C ) :   1.2831 B( 13-C , 18-C ) :   1.3040
B( 14-C , 15-N ) :   1.5972 B( 14-C , 59-H ) :   0.9866 B( 15-N , 16-C ) :   1.5946
B( 15-N , 19-C ) :  -0.1014 B( 16-C , 17-N ) :   1.5125 B( 16-C , 19-C ) :   0.9685
B( 17-N , 18-C ) :   1.5594 B( 18-C , 60-H ) :   0.9893 B( 19-C , 20-N ) :   1.2104
B( 19-C , 26-C ) :   1.4278 B( 20-N , 21-C ) :   0.9417 B( 20-N , 23-C ) :   1.0313
B( 21-C , 22-C ) :   1.1223 B( 21-C , 61-H ) :   0.9334 B( 21-C , 62-H ) :   0.9260
B( 22-C , 63-H ) :   0.9680 B( 22-C , 64-H ) :   0.9684 B( 22-C , 65-H ) :   0.9668
B( 23-C , 24-O ) :   2.1354 B( 23-C , 25-C ) :   0.9789 B( 25-C , 26-C ) :   1.2131
B( 25-C , 32-C ) :   1.3776 B( 26-C , 27-C ) :   0.9523 B( 27-C , 28-O ) :   2.1794
B( 27-C , 29-N ) :   1.0108 B( 29-N , 30-C ) :   0.9435 B( 29-N , 32-C ) :   1.1881
B( 30-C , 31-C ) :   1.1181 B( 30-C , 66-H ) :   0.9511 B( 30-C , 67-H ) :   0.9243
B( 31-C , 68-H ) :   0.9665 B( 31-C , 69-H ) :   0.9668 B( 31-C , 70-H ) :   0.9632
B( 32-C , 33-C ) :   1.1101 B( 33-C , 34-C ) :   1.6573 B( 33-C , 71-H ) :   0.9445
B( 34-C , 35-C ) :   1.0196 B( 34-C , 72-H ) :   0.9748 B( 35-C , 36-N ) :   1.5292
B( 35-C , 40-N ) :   1.5455 B( 36-N , 37-C ) :   1.5517 B( 37-C , 38-C ) :   1.3770
B( 37-C , 73-H ) :   0.9804 B( 38-C , 39-C ) :   1.3501 B( 38-C , 74-H ) :   0.9681
B( 39-C , 40-N ) :   1.5024 B( 39-C , 41-C ) :   1.0547 B( 41-C , 42-C ) :   1.6882
B( 41-C , 75-H ) :   0.9835 B( 42-C , 43-C ) :   1.1207 B( 42-C , 76-H ) :   0.9454
B( 43-C , 44-S ) :   1.1289 B( 43-C , 45-C ) :   0.1090 B( 43-C , 47-C ) :   1.5098
B( 44-S , 45-C ) :   1.1250 B( 45-C , 46-C ) :   1.5561 B( 45-C , 54-C ) :   1.1253
B( 46-C , 47-C ) :   1.2598 B( 46-C , 53-S ) :   0.9573 B( 47-C , 48-O ) :   1.0690
B( 48-O , 49-C ) :   1.0766 B( 49-C , 50-O ) :   2.2354 B( 49-C , 51-C ) :   0.8025
B( 51-C , 52-O ) :   2.1699 B( 51-C , 53-S ) :   1.0468 B( 52-O , 53-S ) :   0.1400
B( 54-C , 55-C ) :   1.9238 B( 54-C , 77-H ) :   0.9576 B( 55-C , 78-H ) :   0.9590
B( 55-C , 79-H ) :   0.9488

-----------------------------------------------------------------------------
         ABSORPTION SPECTRUM VIA TRANSITION ELECTRIC DIPOLE MOMENTS
-----------------------------------------------------------------------------
State   Energy  Wavelength   fosc         T2         TX        TY        TZ
        (cm-1)    (nm)                  (au**2)     (au)      (au)      (au)
-----------------------------------------------------------------------------
   0   17261.2    579.3   0.840167462  16.02395   2.39329   3.06641  -0.94511
   1   24861.6    402.2   0.012954921   0.17155  -0.08916  -0.24824  -0.31933
   2   26234.1    381.2   0.016246524   0.20388   0.30968  -0.00853  -0.32849
   3   26979.3    370.7   0.096050677   1.17205  -0.76038  -0.06550   0.76784
   4   27476.5    363.9   0.032167688   0.38542   0.53466   0.10846  -0.29630
   5   27940.4    357.9   0.359243222   4.23284  -1.77909  -1.01715  -0.18194
   6   28791.2    347.3   0.862843878   9.86616   1.54428   2.47736   1.15933
   7   29638.9    337.4   0.002017155   0.02241  -0.12985   0.00356   0.07438
   8   29842.5    335.1   0.099812346   1.10109   0.36637   0.93395   0.30757
   9   30245.2    330.6   0.271822003   2.95872   1.61378   0.49118  -0.33643
  10   30481.8    328.1   0.021944498   0.23701  -0.39807  -0.19706  -0.19929
  11   30630.8    326.5   0.004352523   0.04678  -0.13687   0.15614  -0.06055
  12   31028.0    322.3   0.151970295   1.61243  -1.13990  -0.49953   0.25204
  13   31603.7    316.4   0.512681898   5.34054  -1.93906  -1.24976  -0.13677
  14   31779.5    314.7   0.024272467   0.25144   0.39365   0.29800   0.08761
  15   33701.7    296.7   0.009917344   0.09688   0.02938  -0.19220  -0.24305
  16   34117.4    293.1   0.002140389   0.02065   0.09244   0.02532   0.10709
  17   34369.9    291.0   0.045056254   0.43157   0.22530  -0.00583   0.61707
  18   34812.6    287.3   0.253723201   2.39938   0.24887  -0.91949  -1.22147
  19   35447.6    282.1   0.126941770   1.17894   0.32562  -0.45425   0.93090
  20   36268.4    275.7   0.408274106   3.70595  -0.77872  -1.66444  -0.57376
  21   37956.4    263.5   0.114938290   0.99691  -0.59924  -0.65534  -0.45645
  22   38452.7    260.1   0.005752099   0.04925   0.17184   0.05739  -0.12816
  23   38649.0    258.7   0.188467723   1.60537  -0.41645  -0.97050  -0.70005
  24   38829.3    257.5   0.030210103   0.25613   0.34665   0.34134  -0.13949
  25   39127.6    255.6   0.000168922   0.00142   0.03567  -0.00824   0.00902

FINAL SINGLE POINT ENERGY     -3982.114214071171

DIPOLE MOMENT
-------------
                                X             Y             Z
Electronic contribution:     -2.69382      29.21919      20.26738
Nuclear contribution   :      1.04392     -31.20004     -23.06518
                        -----------------------------------------
Total Dipole Moment    :     -1.64989      -1.98085      -2.79780
                        -----------------------------------------
Magnitude (a.u.)       :      3.80442
Magnitude (Debye)      :      9.67006

Rotational constants in cm-1:     0.003019     0.000269     0.000256
Rotational constants in MHz :    90.505338     8.053399     7.667252

                             ****ORCA TERMINATED NORMALLY****
TOTAL RUN TIME: 0 days 0 hours 5 minutes 10 seconds 837 msec
