                         Program Version 4.2.0 -  RELEASE  -
|  1> # ORCA input file
|  2> # SCF done       -102.241586790671          0.000695293287
|  3> ! CAM-B3LYP def2-SVP def2/J RIJCOSX Grid4 TightSCF
|  4> %maxcore 5000
|  5> %tddft
|  6>     Mode sTDDFT
|  7>     Ethresh 5.0
|  8>     maxcore 5000
|  9> end
| 10>
| 11> %pal
| 12>   nprocs 6
| 13>   end
| 14> * xyz 0 1
| 15>    C        2.76628        -1.06385        -0.03615
| 16>    O        2.23537         0.12231        -0.61341
| 17>    C        3.09119         1.16709        -0.71294
| 18>    C        2.97610         2.37242        -0.03144
| 19>    C        2.00959         2.82404         0.93550
| 20>    C        2.16640         4.03938         1.61870
| 21>    N        1.30895         4.46294         2.51704
| 22>    C        0.25304         3.68049         2.77714
| 23>    C       -0.67554         4.13765         3.77372
| 24>    O       -1.77136         3.39709         4.06276
| 25>    C       -2.44467         4.04375         5.01289
| 26>    C       -1.81243         5.20284         5.36161
| 27>    C       -0.65249         5.27905         4.55992
| 28>    C        0.36866         6.35455         4.55915
| 29>    N        0.00497         2.51166         2.17662
| 30>    C        0.85760         2.09573         1.27171
| 31>    O        3.98130         3.19411        -0.39292
| 32>    C        4.75377         2.56041        -1.28109
| 33>    C        5.93332         3.22010        -1.79831
| 34>    N        6.04422         4.53353        -1.59661
| 35>    C        7.11043         5.12866        -2.08023
| 36>    C        8.10807         4.43788        -2.78335
| 37>    C        9.26884         5.08251        -3.33778
| 38>    C        9.64596         6.40480        -3.37334
| 39>    C       10.88226         6.45697        -4.05974
| 40>    C       11.68754         7.67118        -4.35905
| 41>    C       11.16488         5.16073        -4.38922
| 42>    O       10.20458         4.32866        -3.96254
| 43>    C        7.89570         3.05562        -2.90597
| 44>    N        6.83157         2.45922        -2.42172
| 45>    C        4.24604         1.29665        -1.53326
| 46>    C        4.76415         0.32757        -2.53912
| 47>    F        3.87210        -0.63503        -2.83019
| 48>    F        5.05883         0.90791        -3.71053
| 49>    F        5.87207        -0.31712        -2.12984
| 50>    H        1.98165        -1.81012        -0.13205
| 51>    H        2.99782        -0.90197         1.02143
| 52>    H        3.66220        -1.41142        -0.55267
| 53>    H        3.01773         4.67849         1.42364
| 54>    H       -3.35321         3.59534         5.36592
| 55>    H       -2.13026         5.91346         6.09711
| 56>    H        0.16596         7.07020         5.35162
| 57>    H        0.36861         6.86897         3.60012
| 58>    H        1.36080         5.92954         4.69171
| 59>    H        0.62750         1.15772         0.78603
| 60>    H        7.17674         6.19365        -1.90334
| 61>    H        9.11138         7.23815        -2.96582
| 62>    H       11.88535         8.22943        -3.44555
| 63>    H       11.14510         8.32513        -5.04086
| 64>    H       12.63339         7.39535        -4.81726
| 65>    H       11.99504         4.72582        -4.91010
| 66>    H        8.61312         2.42176        -3.40864
| 67> *
| 68>
| 69>                          ****END OF INPUT****

CARTESIAN COORDINATES (ANGSTROEM)
---------------------------------
  C      2.766280   -1.063850   -0.036150
  O      2.235370    0.122310   -0.613410
  C      3.091190    1.167090   -0.712940
  C      2.976100    2.372420   -0.031440
  C      2.009590    2.824040    0.935500
  C      2.166400    4.039380    1.618700
  N      1.308950    4.462940    2.517040
  C      0.253040    3.680490    2.777140
  C     -0.675540    4.137650    3.773720
  O     -1.771360    3.397090    4.062760
  C     -2.444670    4.043750    5.012890
  C     -1.812430    5.202840    5.361610
  C     -0.652490    5.279050    4.559920
  C      0.368660    6.354550    4.559150
  N      0.004970    2.511660    2.176620
  C      0.857600    2.095730    1.271710
  O      3.981300    3.194110   -0.392920
  C      4.753770    2.560410   -1.281090
  C      5.933320    3.220100   -1.798310
  N      6.044220    4.533530   -1.596610
  C      7.110430    5.128660   -2.080230
  C      8.108070    4.437880   -2.783350
  C      9.268840    5.082510   -3.337780
  C      9.645960    6.404800   -3.373340
  C     10.882260    6.456970   -4.059740
  C     11.687540    7.671180   -4.359050
  C     11.164880    5.160730   -4.389220
  O     10.204580    4.328660   -3.962540
  C      7.895700    3.055620   -2.905970
  N      6.831570    2.459220   -2.421720
  C      4.246040    1.296650   -1.533260
  C      4.764150    0.327570   -2.539120
  F      3.872100   -0.635030   -2.830190
  F      5.058830    0.907910   -3.710530
  F      5.872070   -0.317120   -2.129840
  H      1.981650   -1.810120   -0.132050
  H      2.997820   -0.901970    1.021430
  H      3.662200   -1.411420   -0.552670
  H      3.017730    4.678490    1.423640
  H     -3.353210    3.595340    5.365920
  H     -2.130260    5.913460    6.097110
  H      0.165960    7.070200    5.351620
  H      0.368610    6.868970    3.600120
  H      1.360800    5.929540    4.691710
  H      0.627500    1.157720    0.786030
  H      7.176740    6.193650   -1.903340
  H      9.111380    7.238150   -2.965820
  H     11.885350    8.229430   -3.445550
  H     11.145100    8.325130   -5.040860
  H     12.633390    7.395350   -4.817260
  H     11.995040    4.725820   -4.910100
  H      8.613120    2.421760   -3.408640

 Total Charge           Charge          ....    0
 Multiplicity           Mult            ....    1
 Number of Electrons    NEL             ....  248
 Basis Dimension        Dim             ....  575

ORBITAL ENERGIES
----------------

  NO   OCC          E(Eh)            E(eV)
   0   2.0000     -24.788047      -674.5171
   1   2.0000     -24.780022      -674.2987
   2   2.0000     -24.779583      -674.2867
   3   2.0000     -19.303571      -525.2769
   4   2.0000     -19.291876      -524.9586
   5   2.0000     -19.273910      -524.4698
   6   2.0000     -19.246697      -523.7293
   7   2.0000     -14.415813      -392.2742
   8   2.0000     -14.414084      -392.2272
   9   2.0000     -14.402086      -391.9007
  10   2.0000     -14.397317      -391.7709
  11   2.0000     -10.510105      -285.9945
  12   2.0000     -10.350074      -281.6398
  13   2.0000     -10.343939      -281.4729
  14   2.0000     -10.339166      -281.3430
  15   2.0000     -10.337363      -281.2940
  16   2.0000     -10.336187      -281.2620
  17   2.0000     -10.332686      -281.1667
  18   2.0000     -10.325996      -280.9846
  19   2.0000     -10.322176      -280.8807
  20   2.0000     -10.319918      -280.8192
  21   2.0000     -10.319534      -280.8088
  22   2.0000     -10.313708      -280.6503
  23   2.0000     -10.312507      -280.6176
  24   2.0000     -10.311009      -280.5768
  25   2.0000     -10.301955      -280.3304
  26   2.0000     -10.301430      -280.3162
  27   2.0000     -10.293627      -280.1038
  28   2.0000     -10.289300      -279.9861
  29   2.0000     -10.275941      -279.6226
  30   2.0000     -10.272404      -279.5263
  31   2.0000     -10.272118      -279.5185
  32   2.0000     -10.266319      -279.3607
  33   2.0000     -10.253662      -279.0163
  34   2.0000     -10.248679      -278.8807
  35   2.0000      -1.373977       -37.3878
  36   2.0000      -1.276043       -34.7229
  37   2.0000      -1.272617       -34.6297
  38   2.0000      -1.227446       -33.4005
  39   2.0000      -1.210683       -32.9444
  40   2.0000      -1.195098       -32.5203
  41   2.0000      -1.148414       -31.2499
  42   2.0000      -1.088422       -29.6175
  43   2.0000      -1.072733       -29.1906
  44   2.0000      -0.983501       -26.7624
  45   2.0000      -0.968902       -26.3652
  46   2.0000      -0.929811       -25.3014
  47   2.0000      -0.915387       -24.9089
  48   2.0000      -0.910829       -24.7849
  49   2.0000      -0.906724       -24.6732
  50   2.0000      -0.891846       -24.2684
  51   2.0000      -0.865850       -23.5610
  52   2.0000      -0.838539       -22.8178
  53   2.0000      -0.818916       -22.2838
  54   2.0000      -0.802617       -21.8403
  55   2.0000      -0.790845       -21.5200
  56   2.0000      -0.780372       -21.2350
  57   2.0000      -0.778693       -21.1893
  58   2.0000      -0.758282       -20.6339
  59   2.0000      -0.749437       -20.3932
  60   2.0000      -0.738846       -20.1050
  61   2.0000      -0.725235       -19.7347
  62   2.0000      -0.703787       -19.1510
  63   2.0000      -0.682067       -18.5600
  64   2.0000      -0.674851       -18.3636
  65   2.0000      -0.663122       -18.0445
  66   2.0000      -0.657478       -17.8909
  67   2.0000      -0.653477       -17.7820
  68   2.0000      -0.651418       -17.7260
  69   2.0000      -0.646902       -17.6031
  70   2.0000      -0.646120       -17.5818
  71   2.0000      -0.623189       -16.9578
  72   2.0000      -0.613232       -16.6869
  73   2.0000      -0.598383       -16.2828
  74   2.0000      -0.597952       -16.2711
  75   2.0000      -0.583580       -15.8800
  76   2.0000      -0.580283       -15.7903
  77   2.0000      -0.574457       -15.6318
  78   2.0000      -0.568636       -15.4734
  79   2.0000      -0.558447       -15.1961
  80   2.0000      -0.552128       -15.0242
  81   2.0000      -0.545252       -14.8371
  82   2.0000      -0.542959       -14.7747
  83   2.0000      -0.540759       -14.7148
  84   2.0000      -0.539139       -14.6707
  85   2.0000      -0.530808       -14.4440
  86   2.0000      -0.527216       -14.3463
  87   2.0000      -0.517828       -14.0908
  88   2.0000      -0.512446       -13.9444
  89   2.0000      -0.505638       -13.7591
  90   2.0000      -0.504761       -13.7352
  91   2.0000      -0.502634       -13.6774
  92   2.0000      -0.501076       -13.6350
  93   2.0000      -0.495333       -13.4787
  94   2.0000      -0.491364       -13.3707
  95   2.0000      -0.489787       -13.3278
  96   2.0000      -0.487692       -13.2708
  97   2.0000      -0.480748       -13.0818
  98   2.0000      -0.478388       -13.0176
  99   2.0000      -0.472591       -12.8599
 100   2.0000      -0.470762       -12.8101
 101   2.0000      -0.466460       -12.6930
 102   2.0000      -0.465686       -12.6720
 103   2.0000      -0.463985       -12.6257
 104   2.0000      -0.458555       -12.4779
 105   2.0000      -0.448930       -12.2160
 106   2.0000      -0.438527       -11.9329
 107   2.0000      -0.437057       -11.8929
 108   2.0000      -0.419357       -11.4113
 109   2.0000      -0.403705       -10.9854
 110   2.0000      -0.395610       -10.7651
 111   2.0000      -0.387211       -10.5366
 112   2.0000      -0.384017       -10.4496
 113   2.0000      -0.380474       -10.3532
 114   2.0000      -0.374485       -10.1903
 115   2.0000      -0.368713       -10.0332
 116   2.0000      -0.349831        -9.5194
 117   2.0000      -0.343293        -9.3415
 118   2.0000      -0.333149        -9.0655
 119   2.0000      -0.324178        -8.8213
 120   2.0000      -0.309019        -8.4088
 121   2.0000      -0.305016        -8.2999
 122   2.0000      -0.277120        -7.5408
 123   2.0000      -0.247992        -6.7482
 124   0.0000      -0.048887        -1.3303
 125   0.0000      -0.012227        -0.3327
 126   0.0000      -0.000471        -0.0128
 127   0.0000       0.011020         0.2999
 128   0.0000       0.041380         1.1260

MULLIKEN ATOMIC CHARGES
-----------------------
   0 C :    0.192816
   1 O :   -0.323700
   2 C :    0.075031
   3 C :    0.173854
   4 C :   -0.063405
   5 C :    0.034910
   6 N :   -0.074296
   7 C :   -0.124989
   8 C :    0.165391
   9 O :   -0.161047
  10 C :    0.155406
  11 C :   -0.050391
  12 C :   -0.153848
  13 C :    0.178273
  14 N :   -0.041256
  15 C :    0.031331
  16 O :   -0.164615
  17 C :    0.216431
  18 C :   -0.158504
  19 N :   -0.037689
  20 C :    0.026807
  21 C :    0.016108
  22 C :    0.160760
  23 C :   -0.086769
  24 C :   -0.082402
  25 C :    0.124917
  26 C :    0.080740
  27 O :   -0.191399
  28 C :    0.042338
  29 N :   -0.041401
  30 C :   -0.182514
  31 C :    0.552691
  32 F :   -0.162366
  33 F :   -0.157710
  34 F :   -0.166684
  35 H :    0.043127
  36 H :    0.017593
  37 H :    0.030040
  38 H :    0.012806
  39 H :    0.005141
  40 H :   -0.022777
  41 H :   -0.005808
  42 H :    0.023077
  43 H :    0.023643
  44 H :    0.011504
  45 H :    0.001733
  46 H :   -0.022346
  47 H :    0.025252
  48 H :    0.029953
  49 H :    0.009937
  50 H :    0.000193
  51 H :    0.014112
Sum of atomic charges:   -0.0000000

LOEWDIN ATOMIC CHARGES
----------------------
   0 C :    0.084904
   1 O :   -0.113610
   2 C :    0.011628
   3 C :    0.013881
   4 C :   -0.094605
   5 C :    0.054142
   6 N :   -0.079414
   7 C :    0.020580
   8 C :   -0.015534
   9 O :    0.038881
  10 C :    0.047420
  11 C :   -0.083070
  12 C :   -0.032684
  13 C :   -0.045648
  14 N :   -0.079128
  15 C :    0.056356
  16 O :    0.052814
  17 C :    0.036663
  18 C :    0.001119
  19 N :   -0.070251
  20 C :    0.052658
  21 C :   -0.073328
  22 C :    0.019993
  23 C :   -0.060171
  24 C :   -0.071285
  25 C :   -0.043469
  26 C :    0.025227
  27 O :    0.018169
  28 C :    0.056810
  29 N :   -0.065688
  30 C :   -0.125921
  31 C :    0.167512
  32 F :   -0.058367
  33 F :   -0.053727
  34 F :   -0.063794
  35 H :    0.029907
  36 H :    0.014921
  37 H :    0.012584
  38 H :    0.027525
  39 H :    0.021780
  40 H :    0.027106
  41 H :    0.024270
  42 H :    0.039575
  43 H :    0.037614
  44 H :    0.025242
  45 H :    0.025235
  46 H :    0.027336
  47 H :    0.036171
  48 H :    0.037485
  49 H :    0.033187
  50 H :    0.021502
  51 H :    0.029500

  Mayer bond orders larger than 0.100000
B(  0-C ,  1-O ) :   0.9202 B(  0-C , 35-H ) :   0.9837 B(  0-C , 36-H ) :   0.9673
B(  0-C , 37-H ) :   0.9692 B(  1-O ,  2-C ) :   1.1763 B(  2-C ,  3-C ) :   1.4630
B(  2-C , 30-C ) :   1.2396 B(  3-C ,  4-C ) :   1.0358 B(  3-C , 16-O ) :   1.1533
B(  3-C , 17-C ) :   0.1310 B(  4-C ,  5-C ) :   1.3025 B(  4-C , 15-C ) :   1.3262
B(  5-C ,  6-N ) :   1.5706 B(  5-C , 38-H ) :   0.9883 B(  6-N ,  7-C ) :   1.5357
B(  7-C ,  8-C ) :   1.0256 B(  7-C , 14-N ) :   1.5352 B(  8-C ,  9-O ) :   1.1778
B(  8-C , 12-C ) :   1.5041 B(  9-O , 10-C ) :   1.1822 B( 10-C , 11-C ) :   1.5017
B( 10-C , 39-H ) :   1.0044 B( 11-C , 12-C ) :   1.2664 B( 11-C , 40-H ) :   1.0062
B( 12-C , 13-C ) :   1.1144 B( 13-C , 41-H ) :   0.9419 B( 13-C , 42-H ) :   0.9360
B( 13-C , 43-H ) :   0.9332 B( 14-N , 15-C ) :   1.5747 B( 15-C , 44-H ) :   0.9780
B( 16-O , 17-C ) :   1.2064 B( 17-C , 18-C ) :   0.9842 B( 17-C , 30-C ) :   1.5017
B( 18-C , 19-N ) :   1.5506 B( 18-C , 29-N ) :   1.5735 B( 19-N , 20-C ) :   1.5760
B( 20-C , 21-C ) :   1.3271 B( 20-C , 45-H ) :   0.9852 B( 21-C , 22-C ) :   1.0262
B( 21-C , 28-C ) :   1.3001 B( 22-C , 23-C ) :   1.5283 B( 22-C , 27-O ) :   1.1741
B( 23-C , 24-C ) :   1.2386 B( 23-C , 46-H ) :   1.0080 B( 24-C , 25-C ) :   1.0765
B( 24-C , 26-C ) :   1.5545 B( 25-C , 47-H ) :   0.9528 B( 25-C , 48-H ) :   0.9523
B( 25-C , 49-H ) :   0.9540 B( 26-C , 27-O ) :   1.1359 B( 26-C , 50-H ) :   1.0075
B( 28-C , 29-N ) :   1.5642 B( 28-C , 51-H ) :   0.9902 B( 30-C , 31-C ) :   0.9311
B( 31-C , 32-F ) :   1.1560 B( 31-C , 33-F ) :   1.1689 B( 31-C , 34-F ) :   1.1618

-----------------------------------------------------------------------------
         ABSORPTION SPECTRUM VIA TRANSITION ELECTRIC DIPOLE MOMENTS
-----------------------------------------------------------------------------
State   Energy  Wavelength   fosc         T2         TX        TY        TZ
        (cm-1)    (nm)                  (au**2)     (au)      (au)      (au)
-----------------------------------------------------------------------------
   0   27396.0    365.0   1.671165005  20.08205   3.62842   0.37841  -2.60259
   1   33391.7    299.5   0.007374715   0.07271  -0.11098   0.13227   0.20711
   2   33838.7    295.5   0.000144105   0.00140   0.00313   0.02942   0.02295
   3   34824.7    287.2   0.325018995   3.07254   0.79176   1.53730   0.28699
   4   35483.6    281.8   0.139160499   1.29111  -0.81885   0.12971   0.77703
   5   35935.7    278.3   0.018891591   0.17307   0.28990  -0.23994  -0.17737
   6   36585.8    273.3   0.377475097   3.39665   0.35451  -1.50530  -1.00253
   7   37957.1    263.5   0.013016398   0.11289   0.19430  -0.06119   0.26721
   8   38550.7    259.4   0.014795548   0.12635   0.15276   0.04639   0.31759

FINAL SINGLE POINT ENERGY     -1742.124014714648

DIPOLE MOMENT
-------------
                                X             Y             Z
Electronic contribution:     -4.94954     -27.80095     -15.43715
Nuclear contribution   :      6.51265      28.92855      15.50926
                        -----------------------------------------
Total Dipole Moment    :      1.56311       1.12759       0.07212
                        -----------------------------------------
Magnitude (a.u.)       :      1.92873
Magnitude (Debye)      :      4.90244

Rotational constants in cm-1:     0.006044     0.001489     0.001210
Rotational constants in MHz :   181.202793    44.649273    36.265515

                             ****ORCA TERMINATED NORMALLY****
TOTAL RUN TIME: 0 days 0 hours 2 minutes 1 seconds 836 msec
