                         Program Version 4.2.0 -  RELEASE  -
|  1> # ORCA input file
|  2> # SCF done       -134.797858134644          0.000460513421
|  3> ! CAM-B3LYP def2-SVP def2/J RIJCOSX Grid4 TightSCF
|  4> %maxcore 5000
|  5> %tddft
|  6>     Mode sTDDFT
|  7>     Ethresh 5.0
|  8>     maxcore 5000
|  9> end
| 10>
| 11> %pal
| 12>   nprocs 6
| 13>   end
| 14> * xyz 0 1
| 15>    C        1.17840         1.10964        -0.90858
| 16>    C        1.92991         1.91265        -0.15034
| 17>    C        2.07566         1.79277         1.26374
| 18>    S        2.94771         3.01967         2.13915
| 19>    C        2.65152         2.30468         3.71411
| 20>    C        2.99836         2.94497         4.91230
| 21>    C        3.39796         4.23818         5.14996
| 22>    C        3.47955         5.40284         4.27404
| 23>    C        4.63717         6.12827         4.17562
| 24>    S        4.51649         7.49664         3.16953
| 25>    C        2.82008         7.17386         2.90904
| 26>    C        2.14196         8.22845         2.20857
| 27>    O        2.67407         8.98531         1.42807
| 28>    C        0.66572         8.54846         2.59856
| 29>    F        0.19599         7.85225         3.64492
| 30>    F        0.57304         9.83837         2.93118
| 31>    F       -0.18494         8.34161         1.58129
| 32>    C        2.41019         5.99292         3.52059
| 33>    C        1.17273         5.29329         3.28643
| 34>    C        0.57464         4.43771         4.15682
| 35>    C       -0.36408         3.61715         3.45969
| 36>    C       -0.38575         4.03426         2.09289
| 37>    C       -1.14964         3.25045         1.29865
| 38>    S       -1.84890         1.94992         2.19781
| 39>    C       -1.09494         2.46393         3.69253
| 40>    C       -1.17312         1.61722         4.82899
| 41>    C       -0.63390         1.90469         6.03637
| 42>    C       -0.51641         1.02073         7.14331
| 43>    S        0.15768         1.65223         8.61946
| 44>    C        0.07076         0.13679         9.39687
| 45>    C       -0.44651        -0.82060         8.56791
| 46>    O       -0.59259        -2.10050         9.01342
| 47>    C       -1.05910        -3.12851         8.29382
| 48>    O       -1.14186        -4.20963         8.80292
| 49>    C       -1.49611        -2.96309         6.84055
| 50>    O       -1.90120        -3.90268         6.21605
| 51>    S       -1.43950        -1.38303         6.03928
| 52>    C       -0.78302        -0.33175         7.28438
| 53>    C        0.51889         5.20871         1.92078
| 54>    C        3.69918         4.37368         6.56731
| 55>    C        3.45836         3.22229         7.22438
| 56>    C        2.97112         2.23910         6.26214
| 57>    O        2.58841         1.10849         6.48364
| 58>    C        1.97305         1.10288         3.50850
| 59>    N        1.47367         0.09258         4.24769
| 60>    N        0.82638        -0.79542         3.48367
| 61>    C        0.88885        -0.39117         2.24107
| 62>    C        1.61598         0.82708         2.15404
| 63>    H        1.10298         1.25812        -1.97083
| 64>    H        0.61758         0.29434        -0.48877
| 65>    H        2.46976         2.73526        -0.60118
| 66>    H        5.57427         5.89100         4.64153
| 67>    H        0.79766         4.37985         5.20427
| 68>    H       -1.34381         3.32708         0.24765
| 69>    H       -1.65734         0.66583         4.66573
| 70>    H       -0.21890         2.88552         6.21055
| 71>    H        0.39740         0.00460        10.40741
| 72>    H       -0.06709         6.09996         1.69957
| 73>    H        1.24272         5.08168         1.11481
| 74>    H        4.03800         5.29957         6.99765
| 75>    H        3.55702         3.02208         8.27302
| 76>    H        1.58439        -0.02793         5.24555
| 77>    H        0.43104        -0.96965         1.46566
| 78> *
| 79>
| 80>                          ****END OF INPUT****

CARTESIAN COORDINATES (ANGSTROEM)
---------------------------------
  C      1.178400    1.109640   -0.908580
  C      1.929910    1.912650   -0.150340
  C      2.075660    1.792770    1.263740
  S      2.947710    3.019670    2.139150
  C      2.651520    2.304680    3.714110
  C      2.998360    2.944970    4.912300
  C      3.397960    4.238180    5.149960
  C      3.479550    5.402840    4.274040
  C      4.637170    6.128270    4.175620
  S      4.516490    7.496640    3.169530
  C      2.820080    7.173860    2.909040
  C      2.141960    8.228450    2.208570
  O      2.674070    8.985310    1.428070
  C      0.665720    8.548460    2.598560
  F      0.195990    7.852250    3.644920
  F      0.573040    9.838370    2.931180
  F     -0.184940    8.341610    1.581290
  C      2.410190    5.992920    3.520590
  C      1.172730    5.293290    3.286430
  C      0.574640    4.437710    4.156820
  C     -0.364080    3.617150    3.459690
  C     -0.385750    4.034260    2.092890
  C     -1.149640    3.250450    1.298650
  S     -1.848900    1.949920    2.197810
  C     -1.094940    2.463930    3.692530
  C     -1.173120    1.617220    4.828990
  C     -0.633900    1.904690    6.036370
  C     -0.516410    1.020730    7.143310
  S      0.157680    1.652230    8.619460
  C      0.070760    0.136790    9.396870
  C     -0.446510   -0.820600    8.567910
  O     -0.592590   -2.100500    9.013420
  C     -1.059100   -3.128510    8.293820
  O     -1.141860   -4.209630    8.802920
  C     -1.496110   -2.963090    6.840550
  O     -1.901200   -3.902680    6.216050
  S     -1.439500   -1.383030    6.039280
  C     -0.783020   -0.331750    7.284380
  C      0.518890    5.208710    1.920780
  C      3.699180    4.373680    6.567310
  C      3.458360    3.222290    7.224380
  C      2.971120    2.239100    6.262140
  O      2.588410    1.108490    6.483640
  C      1.973050    1.102880    3.508500
  N      1.473670    0.092580    4.247690
  N      0.826380   -0.795420    3.483670
  C      0.888850   -0.391170    2.241070
  C      1.615980    0.827080    2.154040
  H      1.102980    1.258120   -1.970830
  H      0.617580    0.294340   -0.488770
  H      2.469760    2.735260   -0.601180
  H      5.574270    5.891000    4.641530
  H      0.797660    4.379850    5.204270
  H     -1.343810    3.327080    0.247650
  H     -1.657340    0.665830    4.665730
  H     -0.218900    2.885520    6.210550
  H      0.397400    0.004600   10.407410
  H     -0.067090    6.099960    1.699570
  H      1.242720    5.081680    1.114810
  H      4.038000    5.299570    6.997650
  H      3.557020    3.022080    8.273020
  H      1.584390   -0.027930    5.245550
  H      0.431040   -0.969650    1.465660

 Total Charge           Charge          ....    0
 Multiplicity           Mult            ....    1
 Number of Electrons    NEL             ....  374
 Basis Dimension        Dim             ....  767

ORBITAL ENERGIES
----------------

  NO   OCC          E(Eh)            E(eV)
   0   2.0000     -88.979767     -2421.2626
   1   2.0000     -88.973896     -2421.1028
   2   2.0000     -88.972239     -2421.0577
   3   2.0000     -88.967643     -2420.9327
   4   2.0000     -88.958253     -2420.6771
   5   2.0000     -24.813438      -675.2080
   6   2.0000     -24.813141      -675.1999
   7   2.0000     -24.806451      -675.0179
   8   2.0000     -19.299010      -525.1528
   9   2.0000     -19.243602      -523.6450
  10   2.0000     -19.238001      -523.4926
  11   2.0000     -19.237373      -523.4755
  12   2.0000     -19.222695      -523.0761
  13   2.0000     -14.475395      -393.8955
  14   2.0000     -14.436553      -392.8386
  15   2.0000     -10.524678      -286.3910
  16   2.0000     -10.426198      -283.7113
  17   2.0000     -10.403325      -283.0889
  18   2.0000     -10.395378      -282.8726
  19   2.0000     -10.380574      -282.4698
  20   2.0000     -10.360421      -281.9214
  21   2.0000     -10.326715      -281.0042
  22   2.0000     -10.323127      -280.9066
  23   2.0000     -10.322162      -280.8803
  24   2.0000     -10.321987      -280.8756
  25   2.0000     -10.320194      -280.8268
  26   2.0000     -10.319425      -280.8058
  27   2.0000     -10.318596      -280.7833
  28   2.0000     -10.315467      -280.6981
  29   2.0000     -10.308012      -280.4953
  30   2.0000     -10.307150      -280.4718
  31   2.0000     -10.305818      -280.4356
  32   2.0000     -10.305614      -280.4300
  33   2.0000     -10.303477      -280.3719
  34   2.0000     -10.298338      -280.2320
  35   2.0000     -10.297777      -280.2168
  36   2.0000     -10.297624      -280.2126
  37   2.0000     -10.296022      -280.1690
  38   2.0000     -10.294963      -280.1402
  39   2.0000     -10.293690      -280.1056
  40   2.0000     -10.291490      -280.0457
  41   2.0000     -10.287881      -279.9475
  42   2.0000     -10.287239      -279.9300
  43   2.0000     -10.285539      -279.8837
  44   2.0000     -10.283700      -279.8337
  45   2.0000     -10.281241      -279.7668
  46   2.0000     -10.280783      -279.7543
  47   2.0000     -10.274624      -279.5867
  48   2.0000      -8.075367      -219.7419
  49   2.0000      -8.067775      -219.5353
  50   2.0000      -8.067469      -219.5270
  51   2.0000      -8.063748      -219.4257
  52   2.0000      -8.053269      -219.1406
  53   2.0000      -6.044584      -164.4815
  54   2.0000      -6.040250      -164.3636
  55   2.0000      -6.037725      -164.2949
  56   2.0000      -6.037071      -164.2771
  57   2.0000      -6.036963      -164.2741
  58   2.0000      -6.033531      -164.1807
  59   2.0000      -6.032955      -164.1651
  60   2.0000      -6.032610      -164.1557
  61   2.0000      -6.029836      -164.0802
  62   2.0000      -6.029735      -164.0774
  63   2.0000      -6.029083      -164.0597
  64   2.0000      -6.024639      -163.9388
  65   2.0000      -6.022706      -163.8862
  66   2.0000      -6.018282      -163.7658
  67   2.0000      -6.015497      -163.6900
  68   2.0000      -1.401320       -38.1319
  69   2.0000      -1.304786       -35.5050
  70   2.0000      -1.301669       -35.4202
  71   2.0000      -1.228484       -33.4287
  72   2.0000      -1.161454       -31.6048
  73   2.0000      -1.156065       -31.4581
  74   2.0000      -1.152887       -31.3716
  75   2.0000      -1.142911       -31.1002
  76   2.0000      -1.125767       -30.6337
  77   2.0000      -1.015190       -27.6247
  78   2.0000      -1.006396       -27.3854
  79   2.0000      -0.998356       -27.1666
  80   2.0000      -0.993496       -27.0344
  81   2.0000      -0.972399       -26.4603
  82   2.0000      -0.941726       -25.6257
  83   2.0000      -0.923306       -25.1244
  84   2.0000      -0.921339       -25.0709
  85   2.0000      -0.905809       -24.6483
  86   2.0000      -0.891012       -24.2457
  87   2.0000      -0.880514       -23.9600
  88   2.0000      -0.872986       -23.7552
  89   2.0000      -0.860836       -23.4245
  90   2.0000      -0.858354       -23.3570
  91   2.0000      -0.843597       -22.9554
  92   2.0000      -0.838060       -22.8048
  93   2.0000      -0.826775       -22.4977
  94   2.0000      -0.812387       -22.1062
  95   2.0000      -0.793985       -21.6054
  96   2.0000      -0.785355       -21.3706
  97   2.0000      -0.780745       -21.2452
  98   2.0000      -0.769536       -20.9401
  99   2.0000      -0.760083       -20.6829
 100   2.0000      -0.740214       -20.1423
 101   2.0000      -0.736415       -20.0389
 102   2.0000      -0.715779       -19.4773
 103   2.0000      -0.709472       -19.3057
 104   2.0000      -0.707150       -19.2425
 105   2.0000      -0.703028       -19.1304
 106   2.0000      -0.698588       -19.0095
 107   2.0000      -0.685876       -18.6636
 108   2.0000      -0.683449       -18.5976
 109   2.0000      -0.675542       -18.3824
 110   2.0000      -0.672172       -18.2907
 111   2.0000      -0.666475       -18.1357
 112   2.0000      -0.663022       -18.0418
 113   2.0000      -0.651029       -17.7154
 114   2.0000      -0.643228       -17.5031
 115   2.0000      -0.630269       -17.1505
 116   2.0000      -0.617252       -16.7963
 117   2.0000      -0.613934       -16.7060
 118   2.0000      -0.599777       -16.3208
 119   2.0000      -0.593408       -16.1475
 120   2.0000      -0.587073       -15.9751
 121   2.0000      -0.581377       -15.8201
 122   2.0000      -0.579210       -15.7611
 123   2.0000      -0.573148       -15.5962
 124   2.0000      -0.569314       -15.4918
 125   2.0000      -0.565944       -15.4001
 126   2.0000      -0.561697       -15.2845
 127   2.0000      -0.557598       -15.1730
 128   2.0000      -0.556475       -15.1425
 129   2.0000      -0.552514       -15.0347
 130   2.0000      -0.542949       -14.7744
 131   2.0000      -0.541724       -14.7411
 132   2.0000      -0.538755       -14.6603
 133   2.0000      -0.537050       -14.6139
 134   2.0000      -0.534111       -14.5339
 135   2.0000      -0.526719       -14.3328
 136   2.0000      -0.525815       -14.3082
 137   2.0000      -0.524330       -14.2677
 138   2.0000      -0.522849       -14.2274
 139   2.0000      -0.519441       -14.1347
 140   2.0000      -0.516440       -14.0531
 141   2.0000      -0.512827       -13.9547
 142   2.0000      -0.511167       -13.9096
 143   2.0000      -0.507465       -13.8088
 144   2.0000      -0.500595       -13.6219
 145   2.0000      -0.498620       -13.5681
 146   2.0000      -0.495994       -13.4967
 147   2.0000      -0.494914       -13.4673
 148   2.0000      -0.489720       -13.3260
 149   2.0000      -0.488795       -13.3008
 150   2.0000      -0.482694       -13.1348
 151   2.0000      -0.482187       -13.1210
 152   2.0000      -0.478934       -13.0325
 153   2.0000      -0.473390       -12.8816
 154   2.0000      -0.468695       -12.7538
 155   2.0000      -0.465754       -12.6738
 156   2.0000      -0.464168       -12.6307
 157   2.0000      -0.461514       -12.5584
 158   2.0000      -0.455874       -12.4050
 159   2.0000      -0.451992       -12.2993
 160   2.0000      -0.448218       -12.1966
 161   2.0000      -0.446803       -12.1581
 162   2.0000      -0.440651       -11.9907
 163   2.0000      -0.437539       -11.9060
 164   2.0000      -0.433812       -11.8046
 165   2.0000      -0.429021       -11.6742
 166   2.0000      -0.427129       -11.6228
 167   2.0000      -0.412572       -11.2267
 168   2.0000      -0.403701       -10.9853
 169   2.0000      -0.394449       -10.7335
 170   2.0000      -0.386445       -10.5157
 171   2.0000      -0.385756       -10.4970
 172   2.0000      -0.378288       -10.2937
 173   2.0000      -0.364106        -9.9078
 174   2.0000      -0.363231        -9.8840
 175   2.0000      -0.356511        -9.7011
 176   2.0000      -0.351502        -9.5649
 177   2.0000      -0.343950        -9.3594
 178   2.0000      -0.342475        -9.3192
 179   2.0000      -0.337273        -9.1777
 180   2.0000      -0.325480        -8.8568
 181   2.0000      -0.322038        -8.7631
 182   2.0000      -0.318441        -8.6652
 183   2.0000      -0.302231        -8.2241
 184   2.0000      -0.285377        -7.7655
 185   2.0000      -0.252018        -6.8578
 186   2.0000      -0.241263        -6.5651
 187   0.0000      -0.097110        -2.6425
 188   0.0000      -0.074780        -2.0349
 189   0.0000      -0.048167        -1.3107
 190   0.0000      -0.036579        -0.9954
 191   0.0000      -0.033632        -0.9152

MULLIKEN ATOMIC CHARGES
-----------------------
   0 C :   -0.012810
   1 C :    0.036960
   2 C :   -0.109994
   3 S :    0.141031
   4 C :   -0.236312
   5 C :    0.014060
   6 C :   -0.086038
   7 C :   -0.007086
   8 C :   -0.097026
   9 S :    0.197228
  10 C :   -0.273912
  11 C :    0.020905
  12 O :   -0.157098
  13 C :    0.495247
  14 F :   -0.150809
  15 F :   -0.147288
  16 F :   -0.157811
  17 C :    0.244290
  18 C :   -0.219835
  19 C :    0.010207
  20 C :    0.094345
  21 C :   -0.082619
  22 C :   -0.142250
  23 S :    0.116658
  24 C :   -0.164392
  25 C :    0.065496
  26 C :    0.014801
  27 C :   -0.164990
  28 S :    0.149645
  29 C :   -0.112763
  30 C :    0.193806
  31 O :   -0.191059
  32 C :    0.200107
  33 O :   -0.118424
  34 C :    0.011724
  35 O :   -0.120686
  36 S :    0.114967
  37 C :   -0.050339
  38 C :    0.316877
  39 C :    0.075656
  40 C :   -0.056827
  41 C :    0.163631
  42 O :   -0.172634
  43 C :    0.167328
  44 N :   -0.029625
  45 N :   -0.048810
  46 C :   -0.029173
  47 C :    0.029833
  48 H :    0.036093
  49 H :    0.020991
  50 H :   -0.009399
  51 H :    0.031236
  52 H :   -0.007312
  53 H :    0.012687
  54 H :   -0.000801
  55 H :   -0.034119
  56 H :    0.029353
  57 H :    0.034331
  58 H :    0.017998
  59 H :   -0.004265
  60 H :   -0.016494
  61 H :    0.155460
  62 H :    0.000049
Sum of atomic charges:   -0.0000000

LOEWDIN ATOMIC CHARGES
----------------------
   0 C :   -0.021614
   1 C :   -0.044192
   2 C :   -0.140879
   3 S :    0.490758
   4 C :   -0.206921
   5 C :   -0.059039
   6 C :   -0.073358
   7 C :   -0.067584
   8 C :   -0.159196
   9 S :    0.498939
  10 C :   -0.234547
  11 C :    0.006263
  12 O :   -0.116196
  13 C :    0.144042
  14 F :   -0.048637
  15 F :   -0.042813
  16 F :   -0.050243
  17 C :   -0.016076
  18 C :   -0.037647
  19 C :    0.004775
  20 C :   -0.054133
  21 C :   -0.046440
  22 C :   -0.180654
  23 S :    0.442791
  24 C :   -0.179182
  25 C :   -0.031869
  26 C :   -0.064552
  27 C :   -0.184268
  28 S :    0.473605
  29 C :   -0.203049
  30 C :   -0.006549
  31 O :   -0.020115
  32 C :    0.045108
  33 O :   -0.096764
  34 C :   -0.107274
  35 O :   -0.097346
  36 S :    0.407490
  37 C :   -0.235028
  38 C :   -0.020421
  39 C :    0.052120
  40 C :   -0.097359
  41 C :    0.109600
  42 O :   -0.120212
  43 C :   -0.000310
  44 N :    0.110128
  45 N :   -0.051597
  46 C :   -0.041048
  47 C :   -0.094750
  48 H :    0.030871
  49 H :    0.026118
  50 H :    0.030591
  51 H :    0.029713
  52 H :    0.024323
  53 H :    0.023402
  54 H :    0.017059
  55 H :    0.024256
  56 H :    0.033826
  57 H :    0.042591
  58 H :    0.030998
  59 H :    0.032010
  60 H :    0.028495
  61 H :    0.071610
  62 H :    0.020383

  Mayer bond orders larger than 0.100000
B(  0-C ,  1-C ) :   1.9024 B(  0-C , 48-H ) :   0.9480 B(  0-C , 49-H ) :   0.9547
B(  1-C ,  2-C ) :   1.1288 B(  1-C , 50-H ) :   0.9509 B(  2-C ,  3-S ) :   1.1554
B(  2-C ,  4-C ) :   0.1063 B(  2-C , 47-C ) :   1.3375 B(  3-S ,  4-C ) :   1.1005
B(  4-C ,  5-C ) :   1.2268 B(  4-C , 43-C ) :   1.3408 B(  5-C ,  6-C ) :   1.5986
B(  5-C , 41-C ) :   0.8854 B(  6-C ,  7-C ) :   0.9498 B(  6-C , 39-C ) :   1.0783
B(  7-C ,  8-C ) :   1.5338 B(  7-C , 17-C ) :   1.3039 B(  8-C ,  9-S ) :   1.1968
B(  8-C , 51-H ) :   0.9705 B(  9-S , 10-C ) :   1.1349 B( 10-C , 11-C ) :   1.0123
B( 10-C , 17-C ) :   1.4025 B( 11-C , 12-O ) :   2.1797 B( 11-C , 13-C ) :   0.8822
B( 13-C , 14-F ) :   1.1380 B( 13-C , 15-F ) :   1.1789 B( 13-C , 16-F ) :   1.1096
B( 17-C , 18-C ) :   1.0555 B( 18-C , 19-C ) :   1.7032 B( 18-C , 38-C ) :   1.0338
B( 19-C , 20-C ) :   1.0488 B( 19-C , 52-H ) :   0.9933 B( 20-C , 21-C ) :   1.2955
B( 20-C , 24-C ) :   1.4097 B( 21-C , 22-C ) :   1.5777 B( 21-C , 38-C ) :   0.9978
B( 22-C , 23-S ) :   1.1362 B( 22-C , 53-H ) :   0.9742 B( 23-S , 24-C ) :   1.1290
B( 24-C , 25-C ) :   1.1550 B( 25-C , 26-C ) :   1.6714 B( 25-C , 54-H ) :   0.9453
B( 26-C , 27-C ) :   1.1495 B( 26-C , 55-H ) :   0.9523 B( 27-C , 28-S ) :   1.1655
B( 27-C , 37-C ) :   1.5065 B( 28-S , 29-C ) :   1.1467 B( 29-C , 30-C ) :   1.5761
B( 29-C , 56-H ) :   0.9687 B( 30-C , 31-O ) :   1.0433 B( 30-C , 37-C ) :   1.2371
B( 31-O , 32-C ) :   1.1032 B( 32-C , 33-O ) :   2.2352 B( 32-C , 34-C ) :   0.8002
B( 34-C , 35-O ) :   2.1655 B( 34-C , 36-S ) :   1.0510 B( 35-O , 36-S ) :   0.1365
B( 36-S , 37-C ) :   0.9800 B( 38-C , 57-H ) :   0.8384 B( 38-C , 58-H ) :   0.8920
B( 39-C , 40-C ) :   1.6344 B( 39-C , 59-H ) :   1.0056 B( 40-C , 41-C ) :   1.0448
B( 40-C , 60-H ) :   1.0222 B( 41-C , 42-O ) :   2.0711 B( 43-C , 44-N ) :   1.2051
B( 43-C , 47-C ) :   1.2444 B( 44-N , 45-N ) :   1.1269 B( 44-N , 61-H ) :   0.9110
B( 45-N , 46-C ) :   1.7352 B( 46-C , 47-C ) :   1.1317 B( 46-C , 62-H ) :   1.0012

-----------------------------------------------------------------------------
         ABSORPTION SPECTRUM VIA TRANSITION ELECTRIC DIPOLE MOMENTS
-----------------------------------------------------------------------------
State   Energy  Wavelength   fosc         T2         TX        TY        TZ
        (cm-1)    (nm)                  (au**2)     (au)      (au)      (au)
-----------------------------------------------------------------------------
   0   12531.8    798.0   0.111010394   2.91625  -0.60228  -0.92307  -1.30440
   1   14925.9    670.0   0.080875370   1.78382  -0.20310  -0.61489  -1.16811
   2   18039.4    554.3   0.034651984   0.63238  -0.41909  -0.31010   0.60049
   3   21973.9    455.1   0.495590697   7.42492   1.09666   2.02385  -1.45818
   4   22243.8    449.6   0.016078330   0.23796   0.31684  -0.27483   0.24908
   5   25055.0    399.1   0.040114111   0.52708   0.12322  -0.27632   0.65996
   6   26024.7    384.3   0.020268658   0.25640   0.22775   0.43651   0.11828
   7   26436.7    378.3   0.099322940   1.23685   0.38699   0.85595   0.59535
   8   27344.8    365.7   0.076549153   0.92160  -0.22331   0.34852  -0.86618
   9   27881.7    358.7   0.006706567   0.07919  -0.11326  -0.24470   0.08052
  10   28263.2    353.8   0.013823084   0.16101  -0.29248  -0.18043  -0.20716
  11   28514.0    350.7   0.049432349   0.57073   0.69642   0.28535  -0.06557
  12   29184.1    342.7   0.158462822   1.78754   0.76411   0.67113   0.86791
  13   29658.6    337.2   0.287298306   3.18903  -0.07854   0.57320  -1.68947
  14   29767.2    335.9   0.060739730   0.67176  -0.06460  -0.79178   0.20168
  15   31100.7    321.5   0.069575413   0.73648   0.09836  -0.18650   0.83188
  16   31689.2    315.6   0.029110553   0.30242  -0.02914  -0.48558   0.25649
  17   32643.9    306.3   0.084006444   0.84720   0.22031   0.83870  -0.30863
  18   33268.9    300.6   0.000984607   0.00974   0.01605  -0.01072  -0.09680
  19   34267.6    291.8   0.167860654   1.61265   0.36069   1.21760   0.00414
  20   34476.6    290.1   0.100897849   0.96346  -0.11712  -0.23580  -0.94559
  21   34652.9    288.6   0.017779470   0.16891   0.10789   0.39517  -0.03334
  22   35251.0    283.7   0.227907506   2.12844  -0.14152   0.85948  -1.17035
  23   35719.2    280.0   0.110744365   1.02069   0.30544   0.93005   0.24980
  24   35788.3    279.4   0.018486257   0.17005  -0.05426  -0.39752  -0.09532
  25   36108.3    276.9   0.046916506   0.42775  -0.08310  -0.62805   0.16248
  26   36842.4    271.4   0.132795407   1.18662   0.21922  -0.30438   1.02270
  27   36916.4    270.9   0.004709162   0.04200  -0.06281  -0.06613   0.18352
  28   37066.3    269.8   0.046700354   0.41478  -0.05538   0.29764  -0.56844
  29   37213.6    268.7   0.062884278   0.55631  -0.11436  -0.51044  -0.53168
  30   37462.9    266.9   0.071211199   0.62578  -0.38072  -0.58900  -0.36595
  31   37892.6    263.9   0.025315229   0.21994  -0.06799  -0.45956  -0.06418
  32   39435.6    253.6   0.049372621   0.41217  -0.36212   0.44215  -0.29248
  33   39706.5    251.8   0.109137813   0.90488  -0.65580   0.35982  -0.58765
  34   40289.1    248.2   0.000681144   0.00557   0.02815  -0.05530   0.04142

FINAL SINGLE POINT ENERGY     -4039.447689307811

DIPOLE MOMENT
-------------
                                X             Y             Z
Electronic contribution:     -4.93306      19.93163       6.47914
Nuclear contribution   :      6.29002     -18.22725      -6.93565
                        -----------------------------------------
Total Dipole Moment    :      1.35696       1.70438      -0.45651
                        -----------------------------------------
Magnitude (a.u.)       :      2.22590
Magnitude (Debye)      :      5.65780

Rotational constants in cm-1:     0.003558     0.001226     0.001122
Rotational constants in MHz :   106.680652    36.755659    33.645027

                             ****ORCA TERMINATED NORMALLY****
TOTAL RUN TIME: 0 days 0 hours 5 minutes 41 seconds 673 msec
