                         Program Version 4.2.0 -  RELEASE  -
|  1> # ORCA input file
|  2> # SCF done       -143.817692738360          0.000746326435
|  3> ! CAM-B3LYP def2-SVP def2/J RIJCOSX Grid4 TightSCF
|  4> %maxcore 5000
|  5> %tddft
|  6>     Mode sTDDFT
|  7>     Ethresh 5.0
|  8>     maxcore 5000
|  9> end
| 10>
| 11> %pal
| 12>   nprocs 6
| 13>   end
| 14> * xyz 0 1
| 15>    C        3.91877        -3.04424        -0.70402
| 16>    S        3.17553        -4.20789         0.29598
| 17>    C        1.96421        -4.58540        -0.89019
| 18>    C        2.15557        -3.80478        -2.03903
| 19>    C        3.28341        -2.91908        -1.92072
| 20>    C        3.61735        -2.05421        -2.98585
| 21>    C        2.85715        -2.06709        -4.12582
| 22>    C        3.17321        -1.20484        -5.20135
| 23>    N        3.44420        -0.50113        -6.06403
| 24>    C        1.73302        -2.94936        -4.24491
| 25>    C        0.96780        -2.93972        -5.43187
| 26>    N        0.33094        -2.94987        -6.38511
| 27>    C        1.39414        -3.79954        -3.21893
| 28>    C        0.95480        -5.54694        -0.66053
| 29>    C        0.79275        -6.23982         0.49515
| 30>    C       -0.23573        -7.18954         0.71004
| 31>    O       -1.11921        -7.49701        -0.26764
| 32>    C       -1.98938        -8.40949         0.22750
| 33>    C       -1.65570        -8.69369         1.54845
| 34>    C       -0.53940        -7.92054         1.85283
| 35>    C       -3.01392        -8.89725        -0.61738
| 36>    C       -3.98566        -9.76257        -0.22252
| 37>    C       -4.99950       -10.26841        -1.05829
| 38>    S       -5.07795        -9.89764        -2.75754
| 39>    C       -6.49344       -10.86264        -3.00166
| 40>    C       -6.90785       -11.45400        -1.79874
| 41>    C       -6.05889       -11.11827        -0.69609
| 42>    C       -6.34861       -11.63191         0.57877
| 43>    C       -7.44070       -12.45016         0.75816
| 44>    C       -7.73357       -12.96079         2.04284
| 45>    N       -7.94736       -13.36453         3.09385
| 46>    C       -8.28376       -12.78416        -0.34484
| 47>    C       -9.40828       -13.62343        -0.17829
| 48>    N      -10.33487       -14.29505        -0.11616
| 49>    C       -8.01594       -12.29111        -1.60018
| 50>    C       -7.07297       -10.98528        -4.28469
| 51>    O       -8.17123       -11.75762        -4.46329
| 52>    C       -8.50447       -11.70987        -5.77670
| 53>    C       -7.60518       -10.89076        -6.44867
| 54>    C       -6.69480       -10.42904        -5.50124
| 55>    C       -9.61839       -12.43708        -6.25930
| 56>    C      -10.42720       -13.20127        -5.47762
| 57>    C      -11.53041       -13.94266        -5.94966
| 58>    S      -11.96144       -13.96440        -7.62937
| 59>    C      -13.32706       -14.99254        -7.37796
| 60>    C      -13.43034       -15.35083        -6.03123
| 61>    C      -12.41766       -14.74410        -5.21197
| 62>    C      -12.39721       -14.99132        -3.82728
| 63>    C      -13.32968       -15.83391        -3.27156
| 64>    C      -13.34869       -16.09539        -1.88129
| 65>    N      -13.39337       -16.31597        -0.75819
| 66>    C      -14.29883       -16.48689        -4.09708
| 67>    C      -15.21735       -17.39070        -3.51466
| 68>    N      -15.97534       -18.12855        -3.07399
| 69>    C      -14.34262       -16.25182        -5.44858
| 70>    C      -14.14282       -15.31962        -8.51377
| 71>    C      -15.43467       -15.64737        -8.49839
| 72>    H        4.77932        -2.50938        -0.35533
| 73>    H        4.46360        -1.38997        -2.89566
| 74>    H        0.54386        -4.45553        -3.32787
| 75>    H        0.26316        -5.72762        -1.47141
| 76>    H        1.46190        -6.07614         1.32811
| 77>    H       -2.15964        -9.37934         2.19795
| 78>    H       -0.00802        -7.88283         2.78194
| 79>    H       -2.99973        -8.53529        -1.63667
| 80>    H       -4.00266       -10.09809         0.80420
| 81>    H       -5.72310       -11.38801         1.42377
| 82>    H       -8.65699       -12.54545        -2.42747
| 83>    H       -7.62120       -10.66656        -7.49550
| 84>    H       -5.86071        -9.77547        -5.65748
| 85>    H       -9.80573       -12.35849        -7.32076
| 86>    H      -10.22600       -13.25958        -4.41717
| 87>    H      -11.65494       -14.53090        -3.19295
| 88>    H      -15.05603       -16.77942        -6.06068
| 89>    H      -13.63436       -15.23113        -9.46645
| 90>    H      -16.02046       -15.67502        -7.59708
| 91>    H      -15.95633       -15.86653        -9.41327
| 92> *
| 93>
| 94>                          ****END OF INPUT****

CARTESIAN COORDINATES (ANGSTROEM)
---------------------------------
  C      3.918770   -3.044240   -0.704020
  S      3.175530   -4.207890    0.295980
  C      1.964210   -4.585400   -0.890190
  C      2.155570   -3.804780   -2.039030
  C      3.283410   -2.919080   -1.920720
  C      3.617350   -2.054210   -2.985850
  C      2.857150   -2.067090   -4.125820
  C      3.173210   -1.204840   -5.201350
  N      3.444200   -0.501130   -6.064030
  C      1.733020   -2.949360   -4.244910
  C      0.967800   -2.939720   -5.431870
  N      0.330940   -2.949870   -6.385110
  C      1.394140   -3.799540   -3.218930
  C      0.954800   -5.546940   -0.660530
  C      0.792750   -6.239820    0.495150
  C     -0.235730   -7.189540    0.710040
  O     -1.119210   -7.497010   -0.267640
  C     -1.989380   -8.409490    0.227500
  C     -1.655700   -8.693690    1.548450
  C     -0.539400   -7.920540    1.852830
  C     -3.013920   -8.897250   -0.617380
  C     -3.985660   -9.762570   -0.222520
  C     -4.999500  -10.268410   -1.058290
  S     -5.077950   -9.897640   -2.757540
  C     -6.493440  -10.862640   -3.001660
  C     -6.907850  -11.454000   -1.798740
  C     -6.058890  -11.118270   -0.696090
  C     -6.348610  -11.631910    0.578770
  C     -7.440700  -12.450160    0.758160
  C     -7.733570  -12.960790    2.042840
  N     -7.947360  -13.364530    3.093850
  C     -8.283760  -12.784160   -0.344840
  C     -9.408280  -13.623430   -0.178290
  N    -10.334870  -14.295050   -0.116160
  C     -8.015940  -12.291110   -1.600180
  C     -7.072970  -10.985280   -4.284690
  O     -8.171230  -11.757620   -4.463290
  C     -8.504470  -11.709870   -5.776700
  C     -7.605180  -10.890760   -6.448670
  C     -6.694800  -10.429040   -5.501240
  C     -9.618390  -12.437080   -6.259300
  C    -10.427200  -13.201270   -5.477620
  C    -11.530410  -13.942660   -5.949660
  S    -11.961440  -13.964400   -7.629370
  C    -13.327060  -14.992540   -7.377960
  C    -13.430340  -15.350830   -6.031230
  C    -12.417660  -14.744100   -5.211970
  C    -12.397210  -14.991320   -3.827280
  C    -13.329680  -15.833910   -3.271560
  C    -13.348690  -16.095390   -1.881290
  N    -13.393370  -16.315970   -0.758190
  C    -14.298830  -16.486890   -4.097080
  C    -15.217350  -17.390700   -3.514660
  N    -15.975340  -18.128550   -3.073990
  C    -14.342620  -16.251820   -5.448580
  C    -14.142820  -15.319620   -8.513770
  C    -15.434670  -15.647370   -8.498390
  H      4.779320   -2.509380   -0.355330
  H      4.463600   -1.389970   -2.895660
  H      0.543860   -4.455530   -3.327870
  H      0.263160   -5.727620   -1.471410
  H      1.461900   -6.076140    1.328110
  H     -2.159640   -9.379340    2.197950
  H     -0.008020   -7.882830    2.781940
  H     -2.999730   -8.535290   -1.636670
  H     -4.002660  -10.098090    0.804200
  H     -5.723100  -11.388010    1.423770
  H     -8.656990  -12.545450   -2.427470
  H     -7.621200  -10.666560   -7.495500
  H     -5.860710   -9.775470   -5.657480
  H     -9.805730  -12.358490   -7.320760
  H    -10.226000  -13.259580   -4.417170
  H    -11.654940  -14.530900   -3.192950
  H    -15.056030  -16.779420   -6.060680
  H    -13.634360  -15.231130   -9.466450
  H    -16.020460  -15.675020   -7.597080
  H    -15.956330  -15.866530   -9.413270

 Total Charge           Charge          ....    0
 Multiplicity           Mult            ....    1
 Number of Electrons    NEL             ....  402
 Basis Dimension        Dim             ....  910

ORBITAL ENERGIES
----------------

  NO   OCC          E(Eh)            E(eV)
   0   2.0000     -88.995292     -2421.6850
   1   2.0000     -88.994106     -2421.6527
   2   2.0000     -88.987203     -2421.4649
   3   2.0000     -19.315633      -525.6051
   4   2.0000     -19.308913      -525.4222
   5   2.0000     -14.411598      -392.1595
   6   2.0000     -14.411340      -392.1525
   7   2.0000     -14.411212      -392.1490
   8   2.0000     -14.411151      -392.1474
   9   2.0000     -14.403688      -391.9443
  10   2.0000     -14.397867      -391.7859
  11   2.0000     -10.361735      -281.9571
  12   2.0000     -10.354041      -281.7478
  13   2.0000     -10.351342      -281.6743
  14   2.0000     -10.349037      -281.6116
  15   2.0000     -10.339742      -281.3587
  16   2.0000     -10.335760      -281.2503
  17   2.0000     -10.334552      -281.2175
  18   2.0000     -10.334423      -281.2140
  19   2.0000     -10.333698      -281.1942
  20   2.0000     -10.333358      -281.1850
  21   2.0000     -10.331806      -281.1427
  22   2.0000     -10.327985      -281.0388
  23   2.0000     -10.327006      -281.0121
  24   2.0000     -10.326907      -281.0094
  25   2.0000     -10.326603      -281.0012
  26   2.0000     -10.323302      -280.9113
  27   2.0000     -10.319850      -280.8174
  28   2.0000     -10.319302      -280.8025
  29   2.0000     -10.318301      -280.7752
  30   2.0000     -10.315192      -280.6906
  31   2.0000     -10.315009      -280.6857
  32   2.0000     -10.314634      -280.6755
  33   2.0000     -10.311701      -280.5956
  34   2.0000     -10.311240      -280.5831
  35   2.0000     -10.310621      -280.5663
  36   2.0000     -10.310280      -280.5570
  37   2.0000     -10.310185      -280.5544
  38   2.0000     -10.310055      -280.5508
  39   2.0000     -10.309988      -280.5490
  40   2.0000     -10.309854      -280.5454
  41   2.0000     -10.309677      -280.5406
  42   2.0000     -10.308670      -280.5132
  43   2.0000     -10.307327      -280.4766
  44   2.0000     -10.307279      -280.4753
  45   2.0000     -10.306974      -280.4670
  46   2.0000     -10.306433      -280.4523
  47   2.0000     -10.305506      -280.4271
  48   2.0000     -10.304615      -280.4028
  49   2.0000     -10.302241      -280.3382
  50   2.0000     -10.301948      -280.3303
  51   2.0000     -10.298037      -280.2238
  52   2.0000     -10.295611      -280.1578
  53   2.0000     -10.295079      -280.1433
  54   2.0000     -10.292784      -280.0809
  55   2.0000     -10.291953      -280.0583
  56   2.0000     -10.287252      -279.9303
  57   2.0000      -8.090133      -220.1437
  58   2.0000      -8.089359      -220.1226
  59   2.0000      -8.082587      -219.9384
  60   2.0000      -6.059240      -164.8803
  61   2.0000      -6.058191      -164.8518
  62   2.0000      -6.055143      -164.7688
  63   2.0000      -6.053959      -164.7366
  64   2.0000      -6.052681      -164.7018
  65   2.0000      -6.052579      -164.6991
  66   2.0000      -6.051383      -164.6665
  67   2.0000      -6.047388      -164.5578
  68   2.0000      -6.045585      -164.5087
  69   2.0000      -1.233703       -33.5708
  70   2.0000      -1.226965       -33.3874
  71   2.0000      -1.030419       -28.0391
  72   2.0000      -1.027279       -27.9537
  73   2.0000      -1.022822       -27.8324
  74   2.0000      -1.005104       -27.3503
  75   2.0000      -1.004062       -27.3219
  76   2.0000      -0.996312       -27.1110
  77   2.0000      -0.992391       -27.0043
  78   2.0000      -0.991684       -26.9851
  79   2.0000      -0.980391       -26.6778
  80   2.0000      -0.966976       -26.3127
  81   2.0000      -0.964995       -26.2589
  82   2.0000      -0.958055       -26.0700
  83   2.0000      -0.944847       -25.7106
  84   2.0000      -0.935630       -25.4598
  85   2.0000      -0.928129       -25.2557
  86   2.0000      -0.920100       -25.0372
  87   2.0000      -0.915481       -24.9115
  88   2.0000      -0.908125       -24.7113
  89   2.0000      -0.900282       -24.4979
  90   2.0000      -0.891736       -24.2654
  91   2.0000      -0.879188       -23.9239
  92   2.0000      -0.876964       -23.8634
  93   2.0000      -0.876235       -23.8436
  94   2.0000      -0.873204       -23.7611
  95   2.0000      -0.866732       -23.5850
  96   2.0000      -0.855689       -23.2845
  97   2.0000      -0.834262       -22.7014
  98   2.0000      -0.814085       -22.1524
  99   2.0000      -0.796578       -21.6760
 100   2.0000      -0.769364       -20.9355
 101   2.0000      -0.763992       -20.7893
 102   2.0000      -0.761765       -20.7287
 103   2.0000      -0.759032       -20.6543
 104   2.0000      -0.756113       -20.5749
 105   2.0000      -0.741449       -20.1759
 106   2.0000      -0.734071       -19.9751
 107   2.0000      -0.727021       -19.7832
 108   2.0000      -0.721460       -19.6319
 109   2.0000      -0.720083       -19.5944
 110   2.0000      -0.708922       -19.2908
 111   2.0000      -0.687707       -18.7134
 112   2.0000      -0.683092       -18.5879
 113   2.0000      -0.678776       -18.4704
 114   2.0000      -0.671044       -18.2600
 115   2.0000      -0.661919       -18.0117
 116   2.0000      -0.660089       -17.9619
 117   2.0000      -0.650033       -17.6883
 118   2.0000      -0.639321       -17.3968
 119   2.0000      -0.630674       -17.1615
 120   2.0000      -0.625549       -17.0220
 121   2.0000      -0.623839       -16.9755
 122   2.0000      -0.618300       -16.8248
 123   2.0000      -0.614742       -16.7280
 124   2.0000      -0.613044       -16.6818
 125   2.0000      -0.605741       -16.4830
 126   2.0000      -0.603404       -16.4195
 127   2.0000      -0.586662       -15.9639
 128   2.0000      -0.582673       -15.8553
 129   2.0000      -0.577714       -15.7204
 130   2.0000      -0.574314       -15.6279
 131   2.0000      -0.566019       -15.4022
 132   2.0000      -0.562370       -15.3029
 133   2.0000      -0.557683       -15.1753
 134   2.0000      -0.556466       -15.1422
 135   2.0000      -0.553611       -15.0645
 136   2.0000      -0.549766       -14.9599
 137   2.0000      -0.545138       -14.8340
 138   2.0000      -0.540743       -14.7144
 139   2.0000      -0.533951       -14.5295
 140   2.0000      -0.533007       -14.5038
 141   2.0000      -0.532773       -14.4975
 142   2.0000      -0.529317       -14.4034
 143   2.0000      -0.527559       -14.3556
 144   2.0000      -0.524459       -14.2713
 145   2.0000      -0.513794       -13.9810
 146   2.0000      -0.510123       -13.8812
 147   2.0000      -0.509727       -13.8704
 148   2.0000      -0.503056       -13.6888
 149   2.0000      -0.502912       -13.6849
 150   2.0000      -0.497910       -13.5488
 151   2.0000      -0.493380       -13.4255
 152   2.0000      -0.490968       -13.3599
 153   2.0000      -0.489559       -13.3216
 154   2.0000      -0.486537       -13.2394
 155   2.0000      -0.484315       -13.1789
 156   2.0000      -0.483684       -13.1617
 157   2.0000      -0.474751       -12.9186
 158   2.0000      -0.473285       -12.8787
 159   2.0000      -0.471960       -12.8427
 160   2.0000      -0.462160       -12.5760
 161   2.0000      -0.458563       -12.4781
 162   2.0000      -0.450959       -12.2712
 163   2.0000      -0.447949       -12.1893
 164   2.0000      -0.446858       -12.1596
 165   2.0000      -0.446131       -12.1398
 166   2.0000      -0.445741       -12.1292
 167   2.0000      -0.442600       -12.0438
 168   2.0000      -0.439944       -11.9715
 169   2.0000      -0.438751       -11.9390
 170   2.0000      -0.438291       -11.9265
 171   2.0000      -0.437600       -11.9077
 172   2.0000      -0.437364       -11.9013
 173   2.0000      -0.437152       -11.8955
 174   2.0000      -0.431605       -11.7446
 175   2.0000      -0.430428       -11.7125
 176   2.0000      -0.423698       -11.5294
 177   2.0000      -0.423046       -11.5117
 178   2.0000      -0.418392       -11.3850
 179   2.0000      -0.417103       -11.3500
 180   2.0000      -0.414732       -11.2854
 181   2.0000      -0.413461       -11.2508
 182   2.0000      -0.413113       -11.2414
 183   2.0000      -0.409347       -11.1389
 184   2.0000      -0.406239       -11.0543
 185   2.0000      -0.405566       -11.0360
 186   2.0000      -0.398942       -10.8558
 187   2.0000      -0.392037       -10.6679
 188   2.0000      -0.388933       -10.5834
 189   2.0000      -0.385040       -10.4775
 190   2.0000      -0.374258       -10.1841
 191   2.0000      -0.361067        -9.8251
 192   2.0000      -0.355462        -9.6726
 193   2.0000      -0.339017        -9.2251
 194   2.0000      -0.336520        -9.1572
 195   2.0000      -0.332256        -9.0411
 196   2.0000      -0.329807        -8.9745
 197   2.0000      -0.313730        -8.5370
 198   2.0000      -0.280920        -7.6442
 199   2.0000      -0.256215        -6.9720
 200   2.0000      -0.229616        -6.2482
 201   0.0000      -0.105553        -2.8722
 202   0.0000      -0.083446        -2.2707
 203   0.0000      -0.072739        -1.9793
 204   0.0000      -0.041601        -1.1320
 205   0.0000      -0.031970        -0.8700

MULLIKEN ATOMIC CHARGES
-----------------------
   0 C :   -0.116566
   1 S :    0.168240
   2 C :   -0.112830
   3 C :    0.141921
   4 C :    0.104910
   5 C :   -0.018807
   6 C :   -0.073507
   7 C :   -0.173747
   8 N :    0.167864
   9 C :   -0.067448
  10 C :   -0.178956
  11 N :    0.165770
  12 C :   -0.047088
  13 C :   -0.003999
  14 C :   -0.019281
  15 C :    0.169486
  16 O :   -0.205944
  17 C :    0.181359
  18 C :   -0.048833
  19 C :   -0.018271
  20 C :    0.005791
  21 C :   -0.012862
  22 C :   -0.081212
  23 S :    0.171777
  24 C :   -0.112040
  25 C :    0.118890
  26 C :    0.118963
  27 C :   -0.052695
  28 C :   -0.067467
  29 C :   -0.178933
  30 N :    0.175518
  31 C :   -0.050716
  32 C :   -0.174347
  33 N :    0.174818
  34 C :   -0.053687
  35 C :    0.159800
  36 O :   -0.226742
  37 C :    0.189878
  38 C :   -0.020733
  39 C :   -0.048944
  40 C :   -0.027152
  41 C :    0.013726
  42 C :   -0.102640
  43 S :    0.163322
  44 C :   -0.138953
  45 C :    0.130251
  46 C :    0.129673
  47 C :   -0.047216
  48 C :   -0.072443
  49 C :   -0.173577
  50 N :    0.188819
  51 C :   -0.073181
  52 C :   -0.178705
  53 N :    0.170253
  54 C :   -0.059229
  55 C :    0.019509
  56 C :   -0.023502
  57 H :    0.029831
  58 H :   -0.004527
  59 H :   -0.005642
  60 H :    0.002501
  61 H :   -0.000520
  62 H :   -0.004695
  63 H :   -0.007769
  64 H :   -0.000443
  65 H :   -0.009402
  66 H :   -0.008859
  67 H :   -0.017349
  68 H :   -0.005037
  69 H :   -0.001592
  70 H :    0.000570
  71 H :   -0.003773
  72 H :   -0.005335
  73 H :   -0.005116
  74 H :    0.004638
  75 H :    0.036569
  76 H :    0.037664
Sum of atomic charges:    0.0000000

LOEWDIN ATOMIC CHARGES
----------------------
   0 C :   -0.184349
   1 S :    0.503726
   2 C :   -0.167323
   3 C :   -0.048745
   4 C :   -0.051301
   5 C :    0.035924
   6 C :   -0.056425
   7 C :   -0.032122
   8 N :   -0.036881
   9 C :   -0.058880
  10 C :   -0.033103
  11 N :   -0.040986
  12 C :    0.034371
  13 C :   -0.039892
  14 C :   -0.036441
  15 C :    0.029295
  16 O :    0.011617
  17 C :    0.031662
  18 C :   -0.052133
  19 C :   -0.046980
  20 C :   -0.036139
  21 C :   -0.036665
  22 C :   -0.164212
  23 S :    0.491877
  24 C :   -0.177896
  25 C :   -0.044214
  26 C :   -0.041965
  27 C :    0.030571
  28 C :   -0.052825
  29 C :   -0.033674
  30 N :   -0.034179
  31 C :   -0.056788
  32 C :   -0.033182
  33 N :   -0.034616
  34 C :    0.034049
  35 C :    0.014303
  36 O :    0.011581
  37 C :    0.037614
  38 C :   -0.048596
  39 C :   -0.052493
  40 C :   -0.046030
  41 C :   -0.032550
  42 C :   -0.172260
  43 S :    0.496108
  44 C :   -0.165114
  45 C :   -0.045605
  46 C :   -0.039874
  47 C :    0.031489
  48 C :   -0.049348
  49 C :   -0.035523
  50 N :   -0.020449
  51 C :   -0.053826
  52 C :   -0.031538
  53 N :   -0.037514
  54 C :    0.031874
  55 C :   -0.046616
  56 C :   -0.026691
  57 H :    0.029536
  58 H :    0.045155
  59 H :    0.042078
  60 H :    0.036455
  61 H :    0.032417
  62 H :    0.031639
  63 H :    0.033843
  64 H :    0.031371
  65 H :    0.034906
  66 H :    0.041004
  67 H :    0.037883
  68 H :    0.035532
  69 H :    0.031928
  70 H :    0.032335
  71 H :    0.036376
  72 H :    0.043542
  73 H :    0.042448
  74 H :    0.033018
  75 H :    0.026232
  76 H :    0.032185

  Mayer bond orders larger than 0.100000
B(  0-C ,  1-S ) :   1.1977 B(  0-C ,  4-C ) :   1.4216 B(  0-C , 57-H ) :   0.9701
B(  1-S ,  2-C ) :   1.1687 B(  2-C ,  3-C ) :   1.3209 B(  2-C , 13-C ) :   1.1738
B(  3-C ,  4-C ) :   1.1856 B(  3-C , 12-C ) :   1.1985 B(  4-C ,  5-C ) :   1.1509
B(  5-C ,  6-C ) :   1.5815 B(  5-C , 58-H ) :   1.0076 B(  6-C ,  7-C ) :   1.0777
B(  6-C ,  9-C ) :   1.2193 B(  7-C ,  8-N ) :   3.0456 B(  9-C , 10-C ) :   1.0818
B(  9-C , 12-C ) :   1.5738 B( 10-C , 11-N ) :   3.0417 B( 12-C , 59-H ) :   0.9965
B( 13-C , 14-C ) :   1.6237 B( 13-C , 60-H ) :   0.9710 B( 14-C , 15-C ) :   1.1768
B( 14-C , 61-H ) :   0.9616 B( 15-C , 16-O ) :   1.1424 B( 15-C , 17-C ) :   0.1016
B( 15-C , 19-C ) :   1.4055 B( 16-O , 17-C ) :   1.1251 B( 17-C , 18-C ) :   1.4376
B( 17-C , 20-C ) :   1.1510 B( 18-C , 19-C ) :   1.2651 B( 18-C , 62-H ) :   1.0053
B( 19-C , 63-H ) :   1.0101 B( 20-C , 21-C ) :   1.6060 B( 20-C , 64-H ) :   0.9628
B( 21-C , 22-C ) :   1.2175 B( 21-C , 65-H ) :   0.9657 B( 22-C , 23-S ) :   1.1219
B( 22-C , 24-C ) :   0.1048 B( 22-C , 26-C ) :   1.3099 B( 23-S , 24-C ) :   1.1621
B( 24-C , 25-C ) :   1.3240 B( 24-C , 35-C ) :   1.1538 B( 25-C , 26-C ) :   1.1798
B( 25-C , 34-C ) :   1.2150 B( 26-C , 27-C ) :   1.1976 B( 27-C , 28-C ) :   1.5675
B( 27-C , 66-H ) :   0.9947 B( 28-C , 29-C ) :   1.0785 B( 28-C , 31-C ) :   1.2346
B( 29-C , 30-N ) :   3.0430 B( 31-C , 32-C ) :   1.0751 B( 31-C , 34-C ) :   1.5505
B( 32-C , 33-N ) :   3.0259 B( 34-C , 67-H ) :   1.0002 B( 35-C , 36-O ) :   1.1361
B( 35-C , 37-C ) :   0.1058 B( 35-C , 39-C ) :   1.4401 B( 36-O , 37-C ) :   1.1240
B( 37-C , 38-C ) :   1.4099 B( 37-C , 40-C ) :   1.1760 B( 38-C , 39-C ) :   1.2619
B( 38-C , 68-H ) :   1.0092 B( 39-C , 69-H ) :   1.0056 B( 40-C , 41-C ) :   1.6031
B( 40-C , 70-H ) :   0.9587 B( 41-C , 42-C ) :   1.1937 B( 41-C , 71-H ) :   0.9777
B( 42-C , 43-S ) :   1.1436 B( 42-C , 44-C ) :   0.1017 B( 42-C , 46-C ) :   1.3138
B( 43-S , 44-C ) :   1.1692 B( 44-C , 45-C ) :   1.3653 B( 44-C , 55-C ) :   1.0971
B( 45-C , 46-C ) :   1.1925 B( 45-C , 54-C ) :   1.1803 B( 46-C , 47-C ) :   1.1871
B( 47-C , 48-C ) :   1.5725 B( 47-C , 72-H ) :   0.9954 B( 48-C , 49-C ) :   1.0858
B( 48-C , 51-C ) :   1.2319 B( 49-C , 50-N ) :   3.0261 B( 51-C , 52-C ) :   1.0758
B( 51-C , 54-C ) :   1.5769 B( 52-C , 53-N ) :   3.0484 B( 54-C , 73-H ) :   0.9961
B( 55-C , 56-C ) :   1.9244 B( 55-C , 74-H ) :   0.9483 B( 56-C , 75-H ) :   0.9618
B( 56-C , 76-H ) :   0.9481

-----------------------------------------------------------------------------
         ABSORPTION SPECTRUM VIA TRANSITION ELECTRIC DIPOLE MOMENTS
-----------------------------------------------------------------------------
State   Energy  Wavelength   fosc         T2         TX        TY        TZ
        (cm-1)    (nm)                  (au**2)     (au)      (au)      (au)
-----------------------------------------------------------------------------
   0   12967.8    771.1   1.572088512  39.91041  -4.95001  -3.36926  -2.01392
   1   18924.9    528.4   0.214258587   3.72717  -0.35926  -0.99505   1.61492
   2   19891.6    502.7   0.097704860   1.61705  -0.73016  -0.84538   0.60766
   3   20618.7    485.0   0.208860333   3.33480   1.28213   1.22168  -0.44546
   4   24839.6    402.6   0.229838717   3.04617  -0.94342  -1.12486   0.94382
   5   25955.5    385.3   0.185758659   2.35611   1.18878   0.92642  -0.29097
   6   26616.3    375.7   0.007646641   0.09458   0.22400   0.17357   0.11948
   7   28079.5    356.1   0.044353281   0.52001  -0.36914  -0.52666   0.32615
   8   28183.1    354.8   0.227789458   2.66085  -1.30701  -0.93972  -0.26363
   9   30608.5    326.7   0.005415818   0.05825  -0.23858   0.00594   0.03595
  10   31414.7    318.3   0.026135322   0.27389   0.42673   0.29850  -0.05183
  11   31703.7    315.4   0.204391909   2.12241   0.49651  -0.20906   1.35358
  12   32557.5    307.1   0.053483422   0.54081  -0.27720  -0.37244   0.57031
  13   32836.1    304.5   0.101593741   1.01857  -0.53543  -0.59957   0.61025
  14   33207.7    301.1   0.007957205   0.07889   0.02224  -0.09090   0.26482
  15   34147.5    292.8   0.002121490   0.02045  -0.05935  -0.01948  -0.12865
  16   35057.6    285.2   0.109558459   1.02882  -0.80490  -0.59489  -0.16450
  17   35447.6    282.1   0.054749963   0.50848   0.47688   0.43293  -0.30600
  18   35793.8    279.4   0.324336723   2.98307  -0.52452  -0.91633   1.36685
  19   36173.5    276.4   0.123625712   1.12511   0.85464   0.57235  -0.25906
  20   36591.3    273.3   0.561468413   5.05154   0.84270   0.98921  -1.83381
  21   37651.2    265.6   0.051781171   0.45276  -0.27586   0.14926  -0.59530
  22   38036.4    262.9   0.044030970   0.38110   0.27423  -0.05450   0.55038
  23   38853.9    257.4   0.203266538   1.72229   1.17150   0.54056   0.24016
  24   39265.6    254.7   0.122324879   1.02560  -0.40855  -0.51577   0.76985
  25   39523.9    253.0   0.005857868   0.04879  -0.05945  -0.01144  -0.21243
  26   39916.6    250.5   0.399477405   3.29469  -0.10164   0.64936  -1.69195

FINAL SINGLE POINT ENERGY     -3435.093996627854

DIPOLE MOMENT
-------------
                                X             Y             Z
Electronic contribution:      5.08420       3.26828       6.03476
Nuclear contribution   :     -1.62843      -1.41188      -7.24882
                        -----------------------------------------
Total Dipole Moment    :      3.45576       1.85640      -1.21406
                        -----------------------------------------
Magnitude (a.u.)       :      4.10640
Magnitude (Debye)      :     10.43763

Rotational constants in cm-1:     0.002567     0.000348     0.000307
Rotational constants in MHz :    76.951505    10.426407     9.205720

                             ****ORCA TERMINATED NORMALLY****
TOTAL RUN TIME: 0 days 0 hours 5 minutes 46 seconds 909 msec
