                         Program Version 4.2.0 -  RELEASE  -
|  1> # ORCA input file
|  2> # SCF done       -155.103426460789          0.000372262292
|  3> ! CAM-B3LYP def2-SVP def2/J RIJCOSX Grid4 TightSCF
|  4> %maxcore 5000
|  5> %tddft
|  6>     Mode sTDDFT
|  7>     Ethresh 5.0
|  8>     maxcore 5000
|  9> end
| 10>
| 11> %pal
| 12>   nprocs 6
| 13>   end
| 14> * xyz 0 1
| 15>    C        4.80695       -15.56911         3.95530
| 16>    S        4.14082       -14.03326         4.24248
| 17>    C        3.11611       -14.10924         2.84003
| 18>    C        3.33566       -15.30868         2.14650
| 19>    C        4.30210       -16.14731         2.80838
| 20>    C        4.64927       -17.40339         2.26652
| 21>    C        4.08060       -17.80822         1.08753
| 22>    C        4.41156       -19.06464         0.52815
| 23>    N        4.69091       -20.08550         0.08977
| 24>    C        3.16204       -16.95340         0.39658
| 25>    C        2.62642       -17.37284        -0.84222
| 26>    N        2.17782       -17.69543        -1.84625
| 27>    C        2.80400       -15.73147         0.91524
| 28>    C        2.24483       -13.01472         2.60976
| 29>    C        1.13801       -13.00135         1.82461
| 30>    C        0.31790       -11.86605         1.61034
| 31>    S       -1.21870       -12.09571         0.77038
| 32>    C       -1.61623       -10.41979         0.87400
| 33>    C       -0.64052        -9.72431         1.50148
| 34>    C        0.47053       -10.52852         1.92558
| 35>    C        1.43689        -9.66947         2.52990
| 36>    C        0.98322        -8.37307         2.51954
| 37>    C       -0.36621        -8.32063         1.86904
| 38>    O       -1.05142        -7.34180         1.69155
| 39>    C        1.60078        -7.18800         2.99282
| 40>    C        2.79443        -7.12264         3.63560
| 41>    C        3.38372        -5.91044         4.06790
| 42>    O        2.80929        -4.71574         3.83945
| 43>    C        3.61388        -3.74746         4.34941
| 44>    C        4.73128        -4.32519         4.92669
| 45>    C        4.59221        -5.71426         4.75017
| 46>    C        5.46686        -6.72782         5.16039
| 47>    N        6.17389        -7.56948         5.48894
| 48>    C        3.20007        -2.39789         4.19474
| 49>    C        3.90975        -1.32284         4.61416
| 50>    C        3.52072         0.02804         4.44210
| 51>    S        4.64313         1.28964         4.96544
| 52>    C        3.59123         2.55296         4.44354
| 53>    C        2.45450         2.05110         3.90874
| 54>    C        2.39210         0.61734         3.90318
| 55>    C        1.14133         0.23751         3.33387
| 56>    C        0.42313         1.35362         2.97070
| 57>    C        1.21524         2.58191         3.30716
| 58>    O        0.91411         3.73983         3.13013
| 59>    C       -0.86222         1.35042         2.37762
| 60>    C       -1.53284         2.47121         1.99719
| 61>    C       -2.81313         2.47800         1.41117
| 62>    S       -3.72665         1.02589         1.14557
| 63>    C       -5.06598         1.87041         0.45283
| 64>    C       -4.81719         3.24725         0.42011
| 65>    C       -3.53799         3.59613         0.96547
| 66>    C       -3.13376         4.94038         1.00280
| 67>    C       -3.97112         5.91499         0.51301
| 68>    C       -3.57641         7.27170         0.53941
| 69>    N       -3.24505         8.36856         0.56605
| 70>    C       -5.24851         5.56939        -0.03065
| 71>    C       -6.09102         6.58967        -0.52854
| 72>    N       -6.79163         7.39855        -0.93856
| 73>    C       -5.66078         4.25992        -0.07380
| 74>    C       -6.23608         1.18596        -0.00069
| 75>    C       -6.41887        -0.13455         0.05984
| 76>    H        5.53186       -15.98023         4.62910
| 77>    H        5.36354       -18.03055         2.77819
| 78>    H        2.13842       -15.09783         0.35196
| 79>    H        2.47953       -12.12616         3.17845
| 80>    H        0.79955       -13.90884         1.34758
| 81>    H       -2.54034       -10.06624         0.46054
| 82>    H        2.38941        -9.98332         2.91629
| 83>    H        1.04795        -6.27483         2.81262
| 84>    H        3.36610        -8.01391         3.85103
| 85>    H        5.54323        -3.82382         5.41152
| 86>    H        2.25726        -2.26892         3.68742
| 87>    H        4.85947        -1.47681         5.10737
| 88>    H        3.88494         3.57678         4.56810
| 89>    H        0.79008        -0.77029         3.20407
| 90>    H       -1.32103         0.37972         2.22172
| 91>    H       -1.06210         3.43170         2.14754
| 92>    H       -2.17264         5.21374         1.41050
| 93>    H       -6.62760         4.01747        -0.48776
| 94>    H       -7.01066         1.81593        -0.41666
| 95>    H       -5.66781        -0.79062         0.46787
| 96>    H       -7.32293        -0.59328        -0.29726
| 97> *
| 98>
| 99>                          ****END OF INPUT****

CARTESIAN COORDINATES (ANGSTROEM)
---------------------------------
  C      4.806950  -15.569110    3.955300
  S      4.140820  -14.033260    4.242480
  C      3.116110  -14.109240    2.840030
  C      3.335660  -15.308680    2.146500
  C      4.302100  -16.147310    2.808380
  C      4.649270  -17.403390    2.266520
  C      4.080600  -17.808220    1.087530
  C      4.411560  -19.064640    0.528150
  N      4.690910  -20.085500    0.089770
  C      3.162040  -16.953400    0.396580
  C      2.626420  -17.372840   -0.842220
  N      2.177820  -17.695430   -1.846250
  C      2.804000  -15.731470    0.915240
  C      2.244830  -13.014720    2.609760
  C      1.138010  -13.001350    1.824610
  C      0.317900  -11.866050    1.610340
  S     -1.218700  -12.095710    0.770380
  C     -1.616230  -10.419790    0.874000
  C     -0.640520   -9.724310    1.501480
  C      0.470530  -10.528520    1.925580
  C      1.436890   -9.669470    2.529900
  C      0.983220   -8.373070    2.519540
  C     -0.366210   -8.320630    1.869040
  O     -1.051420   -7.341800    1.691550
  C      1.600780   -7.188000    2.992820
  C      2.794430   -7.122640    3.635600
  C      3.383720   -5.910440    4.067900
  O      2.809290   -4.715740    3.839450
  C      3.613880   -3.747460    4.349410
  C      4.731280   -4.325190    4.926690
  C      4.592210   -5.714260    4.750170
  C      5.466860   -6.727820    5.160390
  N      6.173890   -7.569480    5.488940
  C      3.200070   -2.397890    4.194740
  C      3.909750   -1.322840    4.614160
  C      3.520720    0.028040    4.442100
  S      4.643130    1.289640    4.965440
  C      3.591230    2.552960    4.443540
  C      2.454500    2.051100    3.908740
  C      2.392100    0.617340    3.903180
  C      1.141330    0.237510    3.333870
  C      0.423130    1.353620    2.970700
  C      1.215240    2.581910    3.307160
  O      0.914110    3.739830    3.130130
  C     -0.862220    1.350420    2.377620
  C     -1.532840    2.471210    1.997190
  C     -2.813130    2.478000    1.411170
  S     -3.726650    1.025890    1.145570
  C     -5.065980    1.870410    0.452830
  C     -4.817190    3.247250    0.420110
  C     -3.537990    3.596130    0.965470
  C     -3.133760    4.940380    1.002800
  C     -3.971120    5.914990    0.513010
  C     -3.576410    7.271700    0.539410
  N     -3.245050    8.368560    0.566050
  C     -5.248510    5.569390   -0.030650
  C     -6.091020    6.589670   -0.528540
  N     -6.791630    7.398550   -0.938560
  C     -5.660780    4.259920   -0.073800
  C     -6.236080    1.185960   -0.000690
  C     -6.418870   -0.134550    0.059840
  H      5.531860  -15.980230    4.629100
  H      5.363540  -18.030550    2.778190
  H      2.138420  -15.097830    0.351960
  H      2.479530  -12.126160    3.178450
  H      0.799550  -13.908840    1.347580
  H     -2.540340  -10.066240    0.460540
  H      2.389410   -9.983320    2.916290
  H      1.047950   -6.274830    2.812620
  H      3.366100   -8.013910    3.851030
  H      5.543230   -3.823820    5.411520
  H      2.257260   -2.268920    3.687420
  H      4.859470   -1.476810    5.107370
  H      3.884940    3.576780    4.568100
  H      0.790080   -0.770290    3.204070
  H     -1.321030    0.379720    2.221720
  H     -1.062100    3.431700    2.147540
  H     -2.172640    5.213740    1.410500
  H     -6.627600    4.017470   -0.487760
  H     -7.010660    1.815930   -0.416660
  H     -5.667810   -0.790620    0.467870
  H     -7.322930   -0.593280   -0.297260

 Total Charge           Charge          ....    0
 Multiplicity           Mult            ....    1
 Number of Electrons    NEL             ....  438
 Basis Dimension        Dim             ....  975

ORBITAL ENERGIES
----------------

  NO   OCC          E(Eh)            E(eV)
   0   2.0000     -89.000457     -2421.8255
   1   2.0000     -88.985587     -2421.4209
   2   2.0000     -88.977498     -2421.2008
   3   2.0000     -88.974323     -2421.1144
   4   2.0000     -19.320245      -525.7306
   5   2.0000     -19.229511      -523.2616
   6   2.0000     -19.228643      -523.2380
   7   2.0000     -14.417450      -392.3188
   8   2.0000     -14.414561      -392.2401
   9   2.0000     -14.414290      -392.2328
  10   2.0000     -14.407032      -392.0353
  11   2.0000     -14.405661      -391.9980
  12   2.0000     -10.377258      -282.3795
  13   2.0000     -10.375307      -282.3265
  14   2.0000     -10.367694      -282.1193
  15   2.0000     -10.359488      -281.8960
  16   2.0000     -10.338726      -281.3310
  17   2.0000     -10.338441      -281.3233
  18   2.0000     -10.337515      -281.2981
  19   2.0000     -10.332128      -281.1515
  20   2.0000     -10.330035      -281.0946
  21   2.0000     -10.329052      -281.0678
  22   2.0000     -10.328689      -281.0579
  23   2.0000     -10.328568      -281.0546
  24   2.0000     -10.328350      -281.0487
  25   2.0000     -10.326867      -281.0083
  26   2.0000     -10.325986      -280.9844
  27   2.0000     -10.325680      -280.9760
  28   2.0000     -10.324262      -280.9374
  29   2.0000     -10.322698      -280.8949
  30   2.0000     -10.322533      -280.8904
  31   2.0000     -10.319400      -280.8051
  32   2.0000     -10.318089      -280.7695
  33   2.0000     -10.317211      -280.7456
  34   2.0000     -10.316832      -280.7353
  35   2.0000     -10.316197      -280.7180
  36   2.0000     -10.314425      -280.6698
  37   2.0000     -10.313333      -280.6401
  38   2.0000     -10.312906      -280.6284
  39   2.0000     -10.312879      -280.6277
  40   2.0000     -10.312620      -280.6207
  41   2.0000     -10.311140      -280.5804
  42   2.0000     -10.310363      -280.5592
  43   2.0000     -10.308168      -280.4995
  44   2.0000     -10.308026      -280.4957
  45   2.0000     -10.307489      -280.4810
  46   2.0000     -10.305692      -280.4321
  47   2.0000     -10.305587      -280.4293
  48   2.0000     -10.304793      -280.4077
  49   2.0000     -10.304167      -280.3906
  50   2.0000     -10.303461      -280.3714
  51   2.0000     -10.300818      -280.2995
  52   2.0000     -10.300532      -280.2917
  53   2.0000     -10.300491      -280.2906
  54   2.0000     -10.300088      -280.2796
  55   2.0000     -10.299912      -280.2748
  56   2.0000     -10.296453      -280.1807
  57   2.0000     -10.295732      -280.1611
  58   2.0000     -10.291112      -280.0354
  59   2.0000     -10.288498      -279.9643
  60   2.0000     -10.286365      -279.9062
  61   2.0000      -8.095861      -220.2996
  62   2.0000      -8.080712      -219.8874
  63   2.0000      -8.073434      -219.6893
  64   2.0000      -8.070295      -219.6039
  65   2.0000      -6.064620      -165.0267
  66   2.0000      -6.060362      -164.9108
  67   2.0000      -6.059220      -164.8798
  68   2.0000      -6.049515      -164.6157
  69   2.0000      -6.045547      -164.5077
  70   2.0000      -6.043692      -164.4572
  71   2.0000      -6.042940      -164.4367
  72   2.0000      -6.039837      -164.3523
  73   2.0000      -6.038493      -164.3157
  74   2.0000      -6.035359      -164.2305
  75   2.0000      -6.035304      -164.2290
  76   2.0000      -6.032129      -164.1426
  77   2.0000      -1.239355       -33.7246
  78   2.0000      -1.141949       -31.0740
  79   2.0000      -1.140866       -31.0445
  80   2.0000      -1.032453       -28.0945
  81   2.0000      -1.023429       -27.8489
  82   2.0000      -1.016770       -27.6677
  83   2.0000      -1.013732       -27.5850
  84   2.0000      -1.007976       -27.4284
  85   2.0000      -1.003113       -27.2961
  86   2.0000      -0.999560       -27.1994
  87   2.0000      -0.994886       -27.0722
  88   2.0000      -0.986723       -26.8501
  89   2.0000      -0.969241       -26.3744
  90   2.0000      -0.961199       -26.1556
  91   2.0000      -0.959029       -26.0965
  92   2.0000      -0.954335       -25.9688
  93   2.0000      -0.939302       -25.5597
  94   2.0000      -0.936634       -25.4871
  95   2.0000      -0.929087       -25.2818
  96   2.0000      -0.924239       -25.1498
  97   2.0000      -0.908550       -24.7229
  98   2.0000      -0.898360       -24.4456
  99   2.0000      -0.890192       -24.2233
 100   2.0000      -0.882451       -24.0127
 101   2.0000      -0.881506       -23.9870
 102   2.0000      -0.870752       -23.6944
 103   2.0000      -0.866442       -23.5771
 104   2.0000      -0.860166       -23.4063
 105   2.0000      -0.835965       -22.7478
 106   2.0000      -0.832759       -22.6605
 107   2.0000      -0.816557       -22.2196
 108   2.0000      -0.804477       -21.8909
 109   2.0000      -0.798079       -21.7168
 110   2.0000      -0.776739       -21.1361
 111   2.0000      -0.773263       -21.0416
 112   2.0000      -0.767555       -20.8862
 113   2.0000      -0.760450       -20.6929
 114   2.0000      -0.759565       -20.6688
 115   2.0000      -0.750370       -20.4186
 116   2.0000      -0.745474       -20.2854
 117   2.0000      -0.743909       -20.2428
 118   2.0000      -0.734376       -19.9834
 119   2.0000      -0.720713       -19.6116
 120   2.0000      -0.707240       -19.2450
 121   2.0000      -0.699791       -19.0423
 122   2.0000      -0.694362       -18.8946
 123   2.0000      -0.685302       -18.6480
 124   2.0000      -0.670064       -18.2334
 125   2.0000      -0.661485       -17.9999
 126   2.0000      -0.654765       -17.8171
 127   2.0000      -0.649386       -17.6707
 128   2.0000      -0.647109       -17.6087
 129   2.0000      -0.640579       -17.4310
 130   2.0000      -0.635207       -17.2849
 131   2.0000      -0.632798       -17.2193
 132   2.0000      -0.623712       -16.9721
 133   2.0000      -0.621156       -16.9025
 134   2.0000      -0.619199       -16.8493
 135   2.0000      -0.614431       -16.7195
 136   2.0000      -0.609207       -16.5774
 137   2.0000      -0.603417       -16.4198
 138   2.0000      -0.590679       -16.0732
 139   2.0000      -0.586665       -15.9640
 140   2.0000      -0.583858       -15.8876
 141   2.0000      -0.576859       -15.6971
 142   2.0000      -0.573259       -15.5992
 143   2.0000      -0.566819       -15.4239
 144   2.0000      -0.564152       -15.3514
 145   2.0000      -0.557777       -15.1779
 146   2.0000      -0.555791       -15.1238
 147   2.0000      -0.552616       -15.0374
 148   2.0000      -0.547735       -14.9046
 149   2.0000      -0.546854       -14.8807
 150   2.0000      -0.540035       -14.6951
 151   2.0000      -0.538838       -14.6625
 152   2.0000      -0.536528       -14.5997
 153   2.0000      -0.534842       -14.5538
 154   2.0000      -0.534378       -14.5412
 155   2.0000      -0.529654       -14.4126
 156   2.0000      -0.527212       -14.3462
 157   2.0000      -0.523439       -14.2435
 158   2.0000      -0.520766       -14.1708
 159   2.0000      -0.512516       -13.9463
 160   2.0000      -0.510652       -13.8955
 161   2.0000      -0.506913       -13.7938
 162   2.0000      -0.501803       -13.6548
 163   2.0000      -0.499251       -13.5853
 164   2.0000      -0.497817       -13.5463
 165   2.0000      -0.497087       -13.5264
 166   2.0000      -0.489268       -13.3136
 167   2.0000      -0.488925       -13.3043
 168   2.0000      -0.488522       -13.2933
 169   2.0000      -0.486841       -13.2476
 170   2.0000      -0.485985       -13.2243
 171   2.0000      -0.482308       -13.1243
 172   2.0000      -0.481274       -13.0961
 173   2.0000      -0.476189       -12.9578
 174   2.0000      -0.469284       -12.7699
 175   2.0000      -0.467773       -12.7287
 176   2.0000      -0.465336       -12.6624
 177   2.0000      -0.459363       -12.4999
 178   2.0000      -0.459085       -12.4923
 179   2.0000      -0.455609       -12.3977
 180   2.0000      -0.453975       -12.3533
 181   2.0000      -0.450711       -12.2645
 182   2.0000      -0.447190       -12.1687
 183   2.0000      -0.445548       -12.1240
 184   2.0000      -0.441561       -12.0155
 185   2.0000      -0.440875       -11.9968
 186   2.0000      -0.440140       -11.9768
 187   2.0000      -0.439603       -11.9622
 188   2.0000      -0.437901       -11.9159
 189   2.0000      -0.436249       -11.8709
 190   2.0000      -0.435413       -11.8482
 191   2.0000      -0.433234       -11.7889
 192   2.0000      -0.428452       -11.6588
 193   2.0000      -0.426169       -11.5967
 194   2.0000      -0.421500       -11.4696
 195   2.0000      -0.420849       -11.4519
 196   2.0000      -0.419446       -11.4137
 197   2.0000      -0.416185       -11.3250
 198   2.0000      -0.414732       -11.2854
 199   2.0000      -0.413442       -11.2503
 200   2.0000      -0.410139       -11.1604
 201   2.0000      -0.407942       -11.1007
 202   2.0000      -0.405010       -11.0209
 203   2.0000      -0.389259       -10.5923
 204   2.0000      -0.381848       -10.3906
 205   2.0000      -0.374045       -10.1783
 206   2.0000      -0.364098        -9.9076
 207   2.0000      -0.355970        -9.6864
 208   2.0000      -0.345275        -9.3954
 209   2.0000      -0.342643        -9.3238
 210   2.0000      -0.341817        -9.3013
 211   2.0000      -0.340747        -9.2722
 212   2.0000      -0.332497        -9.0477
 213   2.0000      -0.331993        -9.0340
 214   2.0000      -0.314427        -8.5560
 215   2.0000      -0.302717        -8.2373
 216   2.0000      -0.276730        -7.5302
 217   2.0000      -0.257513        -7.0073
 218   2.0000      -0.241600        -6.5743
 219   0.0000      -0.107053        -2.9131
 220   0.0000      -0.095545        -2.5999
 221   0.0000      -0.073125        -1.9898
 222   0.0000      -0.064108        -1.7445
 223   0.0000      -0.045288        -1.2323

MULLIKEN ATOMIC CHARGES
-----------------------
   0 C :   -0.120305
   1 S :    0.195197
   2 C :   -0.158820
   3 C :    0.145758
   4 C :    0.097984
   5 C :   -0.017000
   6 C :   -0.071948
   7 C :   -0.176133
   8 N :    0.175198
   9 C :   -0.071234
  10 C :   -0.176782
  11 N :    0.178158
  12 C :   -0.055873
  13 C :    0.052547
  14 C :    0.040434
  15 C :   -0.148400
  16 S :    0.129707
  17 C :   -0.116637
  18 C :    0.013538
  19 C :    0.099275
  20 C :   -0.015153
  21 C :   -0.050803
  22 C :    0.158100
  23 O :   -0.127532
  24 C :    0.020088
  25 C :   -0.044782
  26 C :    0.165307
  27 O :   -0.187818
  28 C :    0.193637
  29 C :   -0.056697
  30 C :   -0.086993
  31 C :   -0.187502
  32 N :    0.144243
  33 C :    0.012551
  34 C :    0.058569
  35 C :   -0.146967
  36 S :    0.124474
  37 C :   -0.111840
  38 C :    0.010234
  39 C :    0.116605
  40 C :   -0.041470
  41 C :    0.002556
  42 C :    0.167500
  43 O :   -0.135005
  44 C :   -0.043677
  45 C :   -0.011902
  46 C :   -0.076978
  47 S :    0.157455
  48 C :   -0.110493
  49 C :    0.130307
  50 C :    0.123924
  51 C :   -0.049619
  52 C :   -0.075185
  53 C :   -0.174160
  54 N :    0.173059
  55 C :   -0.068383
  56 C :   -0.177751
  57 N :    0.168723
  58 C :   -0.050429
  59 C :   -0.003341
  60 C :   -0.016941
  61 H :    0.035876
  62 H :   -0.002275
  63 H :   -0.004583
  64 H :   -0.024104
  65 H :   -0.010000
  66 H :    0.039660
  67 H :   -0.001629
  68 H :    0.007962
  69 H :    0.008110
  70 H :   -0.002897
  71 H :   -0.019036
  72 H :   -0.017342
  73 H :    0.040291
  74 H :   -0.006205
  75 H :   -0.018851
  76 H :    0.021529
  77 H :    0.006142
  78 H :   -0.006288
  79 H :    0.000818
  80 H :    0.027545
  81 H :    0.034701
Sum of atomic charges:   -0.0000000

LOEWDIN ATOMIC CHARGES
----------------------
   0 C :   -0.183106
   1 S :    0.521710
   2 C :   -0.171768
   3 C :   -0.045335
   4 C :   -0.049392
   5 C :    0.037797
   6 C :   -0.055372
   7 C :   -0.032679
   8 N :   -0.033047
   9 C :   -0.053083
  10 C :   -0.033683
  11 N :   -0.034698
  12 C :    0.029337
  13 C :   -0.036727
  14 C :   -0.039742
  15 C :   -0.156133
  16 S :    0.436656
  17 C :   -0.123237
  18 C :   -0.097637
  19 C :   -0.055901
  20 C :    0.029545
  21 C :   -0.063885
  22 C :    0.087567
  23 O :   -0.123585
  24 C :    0.003141
  25 C :   -0.033654
  26 C :    0.063716
  27 O :    0.026258
  28 C :    0.037570
  29 C :   -0.030492
  30 C :   -0.106834
  31 C :   -0.033812
  32 N :   -0.055977
  33 C :   -0.030082
  34 C :   -0.027632
  35 C :   -0.158990
  36 S :    0.431607
  37 C :   -0.122277
  38 C :   -0.096850
  39 C :   -0.053647
  40 C :    0.016652
  41 C :   -0.054094
  42 C :    0.095756
  43 O :   -0.123268
  44 C :   -0.028233
  45 C :   -0.026175
  46 C :   -0.163488
  47 S :    0.497927
  48 C :   -0.165078
  49 C :   -0.045359
  50 C :   -0.041643
  51 C :    0.037491
  52 C :   -0.056283
  53 C :   -0.032594
  54 N :   -0.036976
  55 C :   -0.054766
  56 C :   -0.032212
  57 N :   -0.037991
  58 C :    0.032615
  59 C :   -0.042254
  60 C :   -0.032670
  61 H :    0.031689
  62 H :    0.046229
  63 H :    0.041331
  64 H :    0.028975
  65 H :    0.029752
  66 H :    0.036235
  67 H :    0.026842
  68 H :    0.038128
  69 H :    0.039533
  70 H :    0.038456
  71 H :    0.036519
  72 H :    0.030567
  73 H :    0.036600
  74 H :    0.027976
  75 H :    0.022445
  76 H :    0.038220
  77 H :    0.047388
  78 H :    0.041759
  79 H :    0.037026
  80 H :    0.019760
  81 H :    0.031565

  Mayer bond orders larger than 0.100000
B(  0-C ,  1-S ) :   1.2180 B(  0-C ,  4-C ) :   1.3986 B(  0-C , 61-H ) :   0.9715
B(  1-S ,  2-C ) :   1.1900 B(  2-C ,  3-C ) :   1.3182 B(  2-C , 13-C ) :   1.1634
B(  3-C ,  4-C ) :   1.1988 B(  3-C , 12-C ) :   1.1926 B(  4-C ,  5-C ) :   1.1596
B(  5-C ,  6-C ) :   1.5765 B(  5-C , 62-H ) :   1.0080 B(  6-C ,  7-C ) :   1.0772
B(  6-C ,  9-C ) :   1.2281 B(  7-C ,  8-N ) :   3.0485 B(  9-C , 10-C ) :   1.0821
B(  9-C , 12-C ) :   1.5723 B( 10-C , 11-N ) :   3.0444 B( 12-C , 63-H ) :   0.9946
B( 13-C , 14-C ) :   1.6645 B( 13-C , 64-H ) :   0.9453 B( 14-C , 15-C ) :   1.1520
B( 14-C , 65-H ) :   0.9523 B( 15-C , 16-S ) :   1.0989 B( 15-C , 19-C ) :   1.4420
B( 16-S , 17-C ) :   1.1489 B( 17-C , 18-C ) :   1.5973 B( 17-C , 66-H ) :   0.9695
B( 18-C , 19-C ) :   1.2107 B( 18-C , 22-C ) :   0.9082 B( 19-C , 20-C ) :   1.0670
B( 20-C , 21-C ) :   1.6073 B( 20-C , 67-H ) :   0.9963 B( 21-C , 22-C ) :   0.9386
B( 21-C , 24-C ) :   1.1054 B( 22-C , 23-O ) :   2.2643 B( 24-C , 25-C ) :   1.5951
B( 24-C , 68-H ) :   0.9865 B( 25-C , 26-C ) :   1.2052 B( 25-C , 69-H ) :   0.9515
B( 26-C , 27-O ) :   1.1791 B( 26-C , 30-C ) :   1.3854 B( 27-O , 28-C ) :   1.1115
B( 28-C , 29-C ) :   1.4570 B( 28-C , 33-C ) :   1.1349 B( 29-C , 30-C ) :   1.2517
B( 29-C , 70-H ) :   1.0140 B( 30-C , 31-C ) :   1.1052 B( 31-C , 32-N ) :   3.0288
B( 33-C , 34-C ) :   1.6657 B( 33-C , 71-H ) :   0.9552 B( 34-C , 35-C ) :   1.1496
B( 34-C , 72-H ) :   0.9553 B( 35-C , 36-S ) :   1.0942 B( 35-C , 39-C ) :   1.4446
B( 36-S , 37-C ) :   1.1474 B( 37-C , 38-C ) :   1.5957 B( 37-C , 73-H ) :   0.9699
B( 38-C , 39-C ) :   1.2138 B( 38-C , 42-C ) :   0.9295 B( 39-C , 40-C ) :   1.0493
B( 40-C , 41-C ) :   1.5668 B( 40-C , 74-H ) :   1.0141 B( 41-C , 42-C ) :   0.9381
B( 41-C , 44-C ) :   1.1530 B( 42-C , 43-O ) :   2.1998 B( 44-C , 45-C ) :   1.6021
B( 44-C , 75-H ) :   0.9786 B( 45-C , 46-C ) :   1.1753 B( 45-C , 76-H ) :   0.9570
B( 46-C , 47-S ) :   1.1414 B( 46-C , 50-C ) :   1.3122 B( 47-S , 48-C ) :   1.1514
B( 48-C , 49-C ) :   1.3443 B( 48-C , 59-C ) :   1.1453 B( 49-C , 50-C ) :   1.1882
B( 49-C , 58-C ) :   1.1827 B( 50-C , 51-C ) :   1.2034 B( 51-C , 52-C ) :   1.5648
B( 51-C , 77-H ) :   0.9971 B( 52-C , 53-C ) :   1.0809 B( 52-C , 55-C ) :   1.2291
B( 53-C , 54-N ) :   3.0421 B( 55-C , 56-C ) :   1.0779 B( 55-C , 58-C ) :   1.5806
B( 56-C , 57-N ) :   3.0446 B( 58-C , 78-H ) :   0.9949 B( 59-C , 60-C ) :   1.9021
B( 59-C , 79-H ) :   0.9578 B( 60-C , 80-H ) :   0.9581 B( 60-C , 81-H ) :   0.9482

-----------------------------------------------------------------------------
         ABSORPTION SPECTRUM VIA TRANSITION ELECTRIC DIPOLE MOMENTS
-----------------------------------------------------------------------------
State   Energy  Wavelength   fosc         T2         TX        TY        TZ
        (cm-1)    (nm)                  (au**2)     (au)      (au)      (au)
-----------------------------------------------------------------------------
   0   15284.9    654.2   1.395312464  30.05279  -2.33243   4.92734  -0.57784
   1   17997.4    555.6   0.652557026  11.93668  -2.16403  -2.19838  -1.55589
   2   20586.8    485.7   0.092804266   1.48407   0.47613  -1.11953   0.06346
   3   22163.4    451.2   0.129229533   1.91956  -1.21522   0.56287  -0.35492
   4   22425.0    445.9   0.265285643   3.89455  -1.67472  -0.80850  -0.66045
   5   23725.7    421.5   0.031205022   0.43299  -0.58026  -0.15810  -0.26700
   6   24359.4    410.5   0.171510690   2.31793   1.14266  -0.90396   0.44170
   7   26571.0    376.3   0.170812826   2.11635  -0.08093  -1.44869  -0.10539
   8   27778.7    360.0   0.244841667   2.90167   0.17869  -1.69264  -0.06873
   9   27926.2    358.1   0.000827329   0.00975   0.05279  -0.07742   0.03118
  10   28104.2    355.8   0.000441234   0.00517   0.00435   0.07121   0.00887
  11   28384.1    352.3   0.122316763   1.41869  -0.95724  -0.22443  -0.67232
  12   28699.7    348.4   0.018668682   0.21415   0.36987  -0.23311   0.15169
  13   29660.3    337.2   0.132124402   1.46651   1.05071   0.07944   0.59683
  14   29884.1    334.6   0.118046630   1.30044   0.77218  -0.75749   0.36109
  15   30625.5    326.5   0.008791606   0.09451  -0.00590   0.18685   0.24405
  16   31601.4    316.4   0.082869496   0.86330   0.80228  -0.27150   0.38203
  17   31912.4    313.4   0.085645074   0.88352   0.81692   0.29351   0.36058
  18   32121.7    311.3   0.133050700   1.36362   1.09237   0.05256   0.40937
  19   33035.7    302.7   0.125317084   1.24883   0.85720   0.44250   0.56412
  20   33598.1    297.6   0.105455604   1.03331   0.85923  -0.33846   0.42483
  21   33809.0    295.8   0.063814257   0.62138  -0.67073   0.38702  -0.14739
  22   34245.1    292.0   0.071626165   0.68857   0.12722  -0.81052   0.12428
  23   35105.0    284.9   0.075024176   0.70357   0.19504   0.76185   0.29175
  24   35725.1    279.9   0.025366459   0.23376  -0.39751  -0.10892   0.25274
  25   35841.3    279.0   0.036670628   0.33683   0.42234  -0.27882   0.28412
  26   36136.1    276.7   0.155082710   1.41286  -0.63961   1.00182  -0.01044
  27   36806.6    271.7   0.672574278   6.01575  -0.34654   2.41965  -0.20242
  28   37067.0    269.8   0.074563568   0.66224   0.67931  -0.40012  -0.20169
  29   37523.1    266.5   0.007150656   0.06274  -0.20283  -0.14461   0.02614
  30   37744.0    264.9   0.040545797   0.35365  -0.52687   0.26268   0.08403
  31   38195.6    261.8   0.008857399   0.07634   0.04069   0.04330   0.26984
  32   38687.5    258.5   0.001136999   0.00968  -0.08411  -0.01760  -0.04787
  33   38770.8    257.9   0.124760935   1.05937  -0.74169  -0.09310  -0.70753
  34   39379.9    253.9   0.248021935   2.07344   0.91164   0.08775   1.11115
  35   39742.4    251.6   0.076401499   0.63288   0.39999   0.67748   0.11795
  36   39895.1    250.7   0.002434215   0.02009  -0.04535   0.13100  -0.02947
  37   40221.0    248.6   0.030251139   0.24761  -0.38333  -0.31060   0.06478
  38   40268.8    248.3   0.058817892   0.48086  -0.18281  -0.66224  -0.09418

FINAL SINGLE POINT ENERGY     -3968.365954299330

DIPOLE MOMENT
-------------
                                X             Y             Z
Electronic contribution:      7.97879      -7.84513      -0.12146
Nuclear contribution   :     -7.04097       5.82851       2.88311
                        -----------------------------------------
Total Dipole Moment    :      0.93782      -2.01662       2.76165
                        -----------------------------------------
Magnitude (a.u.)       :      3.54584
Magnitude (Debye)      :      9.01281

Rotational constants in cm-1:     0.001789     0.000276     0.000242
Rotational constants in MHz :    53.621833     8.270648     7.265094

                             ****ORCA TERMINATED NORMALLY****
TOTAL RUN TIME: 0 days 0 hours 6 minutes 15 seconds 707 msec
