                         Program Version 4.2.0 -  RELEASE  -
|  1> # ORCA input file
|  2> # SCF done       -171.419904613101          0.000795545707
|  3> ! CAM-B3LYP def2-SVP def2/J RIJCOSX Grid4 TightSCF
|  4> %maxcore 5000
|  5> %tddft
|  6>     Mode sTDDFT
|  7>     Ethresh 5.0
|  8>     maxcore 5000
|  9> end
| 10>
| 11> %pal
| 12>   nprocs 6
| 13>   end
| 14> * xyz 0 1
| 15>    C        5.17368        -8.08140        -0.00455
| 16>    S        3.70419        -7.46022         0.58761
| 17>    C        2.75125        -8.53297        -0.39581
| 18>    C        3.59116        -9.35472        -1.16542
| 19>    C        4.98375        -9.08771        -0.92984
| 20>    C        5.97201        -9.83135        -1.60988
| 21>    C        5.58824       -10.81221        -2.48739
| 22>    C        6.56381       -11.57574        -3.17117
| 23>    N        7.36835       -12.18609        -3.71167
| 24>    C        4.20055       -11.08106        -2.72069
| 25>    C        3.83665       -12.10658        -3.62231
| 26>    N        3.51761       -12.93712        -4.34468
| 27>    C        3.22412       -10.36098        -2.07221
| 28>    C        1.34361        -8.53179        -0.36335
| 29>    C        0.59133        -7.76504         0.47484
| 30>    C       -0.81357        -7.77028         0.52319
| 31>    S       -1.78093        -8.71606        -0.55947
| 32>    C       -3.27606        -8.24533         0.19167
| 33>    C       -3.03465        -7.32396         1.22761
| 34>    C       -1.63944        -7.06215         1.41863
| 35>    C       -1.22291        -6.16717         2.41523
| 36>    C       -2.16086        -5.51642         3.18333
| 37>    C       -1.74666        -4.61218         4.18802
| 38>    N       -1.38620        -3.88490         4.99655
| 39>    C       -3.55294        -5.72911         2.95360
| 40>    C       -4.49993        -5.00296         3.71277
| 41>    N       -5.27941        -4.41818         4.31515
| 42>    C       -3.97810        -6.61667         1.99178
| 43>    C       -4.46837        -8.82423        -0.29084
| 44>    C       -5.64558        -8.95388         0.38159
| 45>    C       -6.79349        -9.54713        -0.18916
| 46>    O       -6.85258        -9.87739        -1.49576
| 47>    C       -8.06951       -10.43346        -1.73781
| 48>    C       -8.80938       -10.47068        -0.56702
| 49>    C       -8.00239        -9.89684         0.42976
| 50>    C       -8.31068        -9.70866         1.78347
| 51>    N       -8.55392        -9.55087         2.89296
| 52>    C       -8.42229       -10.84780        -3.04428
| 53>    C       -7.62998       -10.64124        -4.13069
| 54>    C       -7.94505       -11.02047        -5.44777
| 55>    S       -9.37505       -11.92249        -5.83965
| 56>    C       -9.01574       -11.95268        -7.53933
| 57>    C       -7.81110       -11.26912        -7.79765
| 58>    C       -7.20568       -10.74447        -6.61266
| 59>    C       -6.00509       -10.02378        -6.70221
| 60>    C       -5.42169        -9.82092        -7.93164
| 61>    C       -4.21734        -9.08586        -8.02051
| 62>    N       -3.24315        -8.48391        -8.05567
| 63>    C       -6.02669       -10.34107        -9.11509
| 64>    C       -5.41440       -10.10428       -10.36742
| 65>    N       -4.93430        -9.91256       -11.38971
| 66>    C       -7.20047       -11.05654        -9.04329
| 67>    C       -9.85196       -12.59471        -8.46965
| 68>    C      -11.04551       -13.16821        -8.14128
| 69>    C      -11.94648       -13.84455        -8.98737
| 70>    S      -13.56866       -14.06569        -8.40110
| 71>    C      -14.11016       -14.82218        -9.85308
| 72>    C      -13.05490       -14.93585       -10.76669
| 73>    C      -11.81744       -14.39764       -10.27510
| 74>    C      -10.65640       -14.53315       -11.05305
| 75>    C      -10.72400       -15.11702       -12.29727
| 76>    C       -9.55006       -15.25497       -13.07225
| 77>    N       -8.58411       -15.35410       -13.68050
| 78>    C      -11.96796       -15.59681       -12.80910
| 79>    C      -12.01560       -16.17801       -14.09741
| 80>    N      -12.07830       -16.65076       -15.13903
| 81>    C      -13.10764       -15.51749       -12.04695
| 82>    C      -15.46396       -15.24788       -10.02565
| 83>    C      -16.42541       -15.11284        -9.11010
| 84>    H        6.10442        -7.68669         0.35113
| 85>    H        7.01732        -9.62846        -1.43283
| 86>    H        2.18446       -10.57927        -2.26340
| 87>    H        0.84201        -9.20160        -1.04939
| 88>    H        1.09785        -7.11139         1.17234
| 89>    H       -0.17379        -5.97475         2.57912
| 90>    H       -5.03442        -6.73595         1.81384
| 91>    H       -4.40671        -9.26483        -1.27843
| 92>    H       -5.74648        -8.66204         1.41540
| 93>    H       -9.80201       -10.85425        -0.44855
| 94>    H       -9.38405       -11.32868        -3.14795
| 95>    H       -6.68620       -10.13438        -3.98527
| 96>    H       -5.53686        -9.62116        -5.81725
| 97>    H       -7.64347       -11.44037        -9.94952
| 98>    H       -9.51591       -12.58248        -9.49452
| 99>    H      -11.38256       -13.05675        -7.11666
|100>    H       -9.69765       -14.21547       -10.67715
|101>    H      -14.03576       -15.90994       -12.43287
|102>    H      -15.69095       -15.70799       -10.97752
|103>    H      -16.23313       -14.65921        -8.15164
|104>    H      -17.42791       -15.45352        -9.29425
|105> *
|106>
|107>                          ****END OF INPUT****

CARTESIAN COORDINATES (ANGSTROEM)
---------------------------------
  C      5.173680   -8.081400   -0.004550
  S      3.704190   -7.460220    0.587610
  C      2.751250   -8.532970   -0.395810
  C      3.591160   -9.354720   -1.165420
  C      4.983750   -9.087710   -0.929840
  C      5.972010   -9.831350   -1.609880
  C      5.588240  -10.812210   -2.487390
  C      6.563810  -11.575740   -3.171170
  N      7.368350  -12.186090   -3.711670
  C      4.200550  -11.081060   -2.720690
  C      3.836650  -12.106580   -3.622310
  N      3.517610  -12.937120   -4.344680
  C      3.224120  -10.360980   -2.072210
  C      1.343610   -8.531790   -0.363350
  C      0.591330   -7.765040    0.474840
  C     -0.813570   -7.770280    0.523190
  S     -1.780930   -8.716060   -0.559470
  C     -3.276060   -8.245330    0.191670
  C     -3.034650   -7.323960    1.227610
  C     -1.639440   -7.062150    1.418630
  C     -1.222910   -6.167170    2.415230
  C     -2.160860   -5.516420    3.183330
  C     -1.746660   -4.612180    4.188020
  N     -1.386200   -3.884900    4.996550
  C     -3.552940   -5.729110    2.953600
  C     -4.499930   -5.002960    3.712770
  N     -5.279410   -4.418180    4.315150
  C     -3.978100   -6.616670    1.991780
  C     -4.468370   -8.824230   -0.290840
  C     -5.645580   -8.953880    0.381590
  C     -6.793490   -9.547130   -0.189160
  O     -6.852580   -9.877390   -1.495760
  C     -8.069510  -10.433460   -1.737810
  C     -8.809380  -10.470680   -0.567020
  C     -8.002390   -9.896840    0.429760
  C     -8.310680   -9.708660    1.783470
  N     -8.553920   -9.550870    2.892960
  C     -8.422290  -10.847800   -3.044280
  C     -7.629980  -10.641240   -4.130690
  C     -7.945050  -11.020470   -5.447770
  S     -9.375050  -11.922490   -5.839650
  C     -9.015740  -11.952680   -7.539330
  C     -7.811100  -11.269120   -7.797650
  C     -7.205680  -10.744470   -6.612660
  C     -6.005090  -10.023780   -6.702210
  C     -5.421690   -9.820920   -7.931640
  C     -4.217340   -9.085860   -8.020510
  N     -3.243150   -8.483910   -8.055670
  C     -6.026690  -10.341070   -9.115090
  C     -5.414400  -10.104280  -10.367420
  N     -4.934300   -9.912560  -11.389710
  C     -7.200470  -11.056540   -9.043290
  C     -9.851960  -12.594710   -8.469650
  C    -11.045510  -13.168210   -8.141280
  C    -11.946480  -13.844550   -8.987370
  S    -13.568660  -14.065690   -8.401100
  C    -14.110160  -14.822180   -9.853080
  C    -13.054900  -14.935850  -10.766690
  C    -11.817440  -14.397640  -10.275100
  C    -10.656400  -14.533150  -11.053050
  C    -10.724000  -15.117020  -12.297270
  C     -9.550060  -15.254970  -13.072250
  N     -8.584110  -15.354100  -13.680500
  C    -11.967960  -15.596810  -12.809100
  C    -12.015600  -16.178010  -14.097410
  N    -12.078300  -16.650760  -15.139030
  C    -13.107640  -15.517490  -12.046950
  C    -15.463960  -15.247880  -10.025650
  C    -16.425410  -15.112840   -9.110100
  H      6.104420   -7.686690    0.351130
  H      7.017320   -9.628460   -1.432830
  H      2.184460  -10.579270   -2.263400
  H      0.842010   -9.201600   -1.049390
  H      1.097850   -7.111390    1.172340
  H     -0.173790   -5.974750    2.579120
  H     -5.034420   -6.735950    1.813840
  H     -4.406710   -9.264830   -1.278430
  H     -5.746480   -8.662040    1.415400
  H     -9.802010  -10.854250   -0.448550
  H     -9.384050  -11.328680   -3.147950
  H     -6.686200  -10.134380   -3.985270
  H     -5.536860   -9.621160   -5.817250
  H     -7.643470  -11.440370   -9.949520
  H     -9.515910  -12.582480   -9.494520
  H    -11.382560  -13.056750   -7.116660
  H     -9.697650  -14.215470  -10.677150
  H    -14.035760  -15.909940  -12.432870
  H    -15.690950  -15.707990  -10.977520
  H    -16.233130  -14.659210   -8.151640
  H    -17.427910  -15.453520   -9.294250

 Total Charge           Charge          ....    0
 Multiplicity           Mult            ....    1
 Number of Electrons    NEL             ....  486
 Basis Dimension        Dim             .... 1087

ORBITAL ENERGIES
----------------

  NO   OCC          E(Eh)            E(eV)
   0   2.0000     -89.005784     -2421.9705
   1   2.0000     -89.004177     -2421.9268
   2   2.0000     -89.002141     -2421.8714
   3   2.0000     -89.001227     -2421.8465
   4   2.0000     -19.331356      -526.0329
   5   2.0000     -14.423081      -392.4720
   6   2.0000     -14.420119      -392.3914
   7   2.0000     -14.420067      -392.3900
   8   2.0000     -14.418743      -392.3540
   9   2.0000     -14.418488      -392.3470
  10   2.0000     -14.418245      -392.3404
  11   2.0000     -14.417837      -392.3293
  12   2.0000     -14.417408      -392.3176
  13   2.0000     -14.416471      -392.2921
  14   2.0000     -10.379891      -282.4512
  15   2.0000     -10.370014      -282.1824
  16   2.0000     -10.347450      -281.5684
  17   2.0000     -10.345657      -281.5196
  18   2.0000     -10.345511      -281.5157
  19   2.0000     -10.345374      -281.5119
  20   2.0000     -10.345232      -281.5081
  21   2.0000     -10.345011      -281.5021
  22   2.0000     -10.344469      -281.4873
  23   2.0000     -10.344278      -281.4821
  24   2.0000     -10.343990      -281.4743
  25   2.0000     -10.343810      -281.4694
  26   2.0000     -10.343370      -281.4574
  27   2.0000     -10.342998      -281.4473
  28   2.0000     -10.342291      -281.4281
  29   2.0000     -10.342119      -281.4234
  30   2.0000     -10.341499      -281.4065
  31   2.0000     -10.335737      -281.2497
  32   2.0000     -10.334183      -281.2074
  33   2.0000     -10.330058      -281.0952
  34   2.0000     -10.329131      -281.0699
  35   2.0000     -10.328891      -281.0634
  36   2.0000     -10.327918      -281.0369
  37   2.0000     -10.327870      -281.0356
  38   2.0000     -10.327565      -281.0273
  39   2.0000     -10.327415      -281.0233
  40   2.0000     -10.326801      -281.0066
  41   2.0000     -10.326381      -280.9951
  42   2.0000     -10.326251      -280.9916
  43   2.0000     -10.325753      -280.9780
  44   2.0000     -10.325099      -280.9602
  45   2.0000     -10.324874      -280.9541
  46   2.0000     -10.324778      -280.9515
  47   2.0000     -10.324468      -280.9430
  48   2.0000     -10.324138      -280.9341
  49   2.0000     -10.324079      -280.9325
  50   2.0000     -10.323138      -280.9069
  51   2.0000     -10.322884      -280.9000
  52   2.0000     -10.322082      -280.8781
  53   2.0000     -10.321803      -280.8705
  54   2.0000     -10.321416      -280.8600
  55   2.0000     -10.320766      -280.8423
  56   2.0000     -10.320044      -280.8227
  57   2.0000     -10.319842      -280.8172
  58   2.0000     -10.318389      -280.7776
  59   2.0000     -10.318162      -280.7715
  60   2.0000     -10.316512      -280.7266
  61   2.0000     -10.316421      -280.7241
  62   2.0000     -10.316308      -280.7210
  63   2.0000     -10.315656      -280.7033
  64   2.0000     -10.315541      -280.7001
  65   2.0000     -10.315498      -280.6990
  66   2.0000     -10.314647      -280.6758
  67   2.0000     -10.312541      -280.6185
  68   2.0000     -10.298892      -280.2471
  69   2.0000      -8.100805      -220.4341
  70   2.0000      -8.099270      -220.3923
  71   2.0000      -8.097139      -220.3344
  72   2.0000      -8.096583      -220.3192
  73   2.0000      -6.069649      -165.1635
  74   2.0000      -6.068148      -165.1227
  75   2.0000      -6.066052      -165.0657
  76   2.0000      -6.065410      -165.0482
  77   2.0000      -6.065370      -165.0471
  78   2.0000      -6.064140      -165.0136
  79   2.0000      -6.064112      -165.0129
  80   2.0000      -6.062170      -164.9600
  81   2.0000      -6.062123      -164.9588
  82   2.0000      -6.061362      -164.9380
  83   2.0000      -6.059889      -164.8980
  84   2.0000      -6.059564      -164.8891
  85   2.0000      -1.249319       -33.9957
  86   2.0000      -1.041149       -28.3311
  87   2.0000      -1.040429       -28.3115
  88   2.0000      -1.037719       -28.2378
  89   2.0000      -1.036975       -28.2175
  90   2.0000      -1.014189       -27.5975
  91   2.0000      -1.013780       -27.5864
  92   2.0000      -1.012305       -27.5462
  93   2.0000      -1.011085       -27.5130
  94   2.0000      -1.008848       -27.4522
  95   2.0000      -0.999667       -27.2023
  96   2.0000      -0.999363       -27.1941
  97   2.0000      -0.998777       -27.1781
  98   2.0000      -0.997270       -27.1371
  99   2.0000      -0.976947       -26.5841
 100   2.0000      -0.976552       -26.5733
 101   2.0000      -0.974298       -26.5120
 102   2.0000      -0.972956       -26.4755
 103   2.0000      -0.961670       -26.1684
 104   2.0000      -0.952955       -25.9312
 105   2.0000      -0.945186       -25.7198
 106   2.0000      -0.941445       -25.6180
 107   2.0000      -0.929784       -25.3007
 108   2.0000      -0.918932       -25.0054
 109   2.0000      -0.906695       -24.6724
 110   2.0000      -0.900802       -24.5121
 111   2.0000      -0.899166       -24.4676
 112   2.0000      -0.895213       -24.3600
 113   2.0000      -0.889979       -24.2176
 114   2.0000      -0.887102       -24.1393
 115   2.0000      -0.885312       -24.0906
 116   2.0000      -0.883543       -24.0424
 117   2.0000      -0.872891       -23.7526
 118   2.0000      -0.857833       -23.3428
 119   2.0000      -0.842424       -22.9235
 120   2.0000      -0.824139       -22.4260
 121   2.0000      -0.812221       -22.1016
 122   2.0000      -0.788667       -21.4607
 123   2.0000      -0.778162       -21.1749
 124   2.0000      -0.775234       -21.0952
 125   2.0000      -0.772719       -21.0268
 126   2.0000      -0.772595       -21.0234
 127   2.0000      -0.772137       -21.0109
 128   2.0000      -0.768954       -20.9243
 129   2.0000      -0.766113       -20.8470
 130   2.0000      -0.747172       -20.3316
 131   2.0000      -0.744034       -20.2462
 132   2.0000      -0.739137       -20.1129
 133   2.0000      -0.719840       -19.5878
 134   2.0000      -0.716257       -19.4903
 135   2.0000      -0.708847       -19.2887
 136   2.0000      -0.701432       -19.0869
 137   2.0000      -0.695417       -18.9233
 138   2.0000      -0.693145       -18.8614
 139   2.0000      -0.681418       -18.5423
 140   2.0000      -0.676910       -18.4197
 141   2.0000      -0.659542       -17.9470
 142   2.0000      -0.653599       -17.7853
 143   2.0000      -0.648782       -17.6543
 144   2.0000      -0.646884       -17.6026
 145   2.0000      -0.638272       -17.3683
 146   2.0000      -0.629972       -17.1424
 147   2.0000      -0.626979       -17.0610
 148   2.0000      -0.624843       -17.0028
 149   2.0000      -0.624693       -16.9988
 150   2.0000      -0.624255       -16.9868
 151   2.0000      -0.622904       -16.9501
 152   2.0000      -0.618667       -16.8348
 153   2.0000      -0.611666       -16.6443
 154   2.0000      -0.597725       -16.2649
 155   2.0000      -0.594311       -16.1720
 156   2.0000      -0.590876       -16.0785
 157   2.0000      -0.583033       -15.8651
 158   2.0000      -0.578559       -15.7434
 159   2.0000      -0.574398       -15.6302
 160   2.0000      -0.566072       -15.4036
 161   2.0000      -0.565036       -15.3754
 162   2.0000      -0.563218       -15.3259
 163   2.0000      -0.562351       -15.3023
 164   2.0000      -0.560231       -15.2447
 165   2.0000      -0.552536       -15.0353
 166   2.0000      -0.550175       -14.9710
 167   2.0000      -0.547106       -14.8875
 168   2.0000      -0.546603       -14.8738
 169   2.0000      -0.545424       -14.8417
 170   2.0000      -0.544085       -14.8053
 171   2.0000      -0.542213       -14.7544
 172   2.0000      -0.541301       -14.7296
 173   2.0000      -0.537591       -14.6286
 174   2.0000      -0.531544       -14.4640
 175   2.0000      -0.528968       -14.3940
 176   2.0000      -0.525416       -14.2973
 177   2.0000      -0.516093       -14.0436
 178   2.0000      -0.510174       -13.8825
 179   2.0000      -0.506693       -13.7878
 180   2.0000      -0.506041       -13.7701
 181   2.0000      -0.505767       -13.7626
 182   2.0000      -0.501553       -13.6480
 183   2.0000      -0.500799       -13.6274
 184   2.0000      -0.498729       -13.5711
 185   2.0000      -0.498321       -13.5600
 186   2.0000      -0.490818       -13.3558
 187   2.0000      -0.486438       -13.2366
 188   2.0000      -0.482149       -13.1200
 189   2.0000      -0.476653       -12.9704
 190   2.0000      -0.475497       -12.9389
 191   2.0000      -0.474430       -12.9099
 192   2.0000      -0.470038       -12.7904
 193   2.0000      -0.468795       -12.7565
 194   2.0000      -0.466796       -12.7022
 195   2.0000      -0.464388       -12.6366
 196   2.0000      -0.460258       -12.5243
 197   2.0000      -0.455726       -12.4009
 198   2.0000      -0.453802       -12.3486
 199   2.0000      -0.452316       -12.3081
 200   2.0000      -0.451852       -12.2955
 201   2.0000      -0.451323       -12.2811
 202   2.0000      -0.451096       -12.2750
 203   2.0000      -0.450605       -12.2616
 204   2.0000      -0.448418       -12.2021
 205   2.0000      -0.445872       -12.1328
 206   2.0000      -0.445607       -12.1256
 207   2.0000      -0.444635       -12.0991
 208   2.0000      -0.444232       -12.0882
 209   2.0000      -0.443440       -12.0666
 210   2.0000      -0.443206       -12.0602
 211   2.0000      -0.442549       -12.0424
 212   2.0000      -0.442459       -12.0399
 213   2.0000      -0.439376       -11.9560
 214   2.0000      -0.429733       -11.6936
 215   2.0000      -0.426402       -11.6030
 216   2.0000      -0.426349       -11.6015
 217   2.0000      -0.425412       -11.5760
 218   2.0000      -0.425158       -11.5691
 219   2.0000      -0.424715       -11.5571
 220   2.0000      -0.424282       -11.5453
 221   2.0000      -0.420800       -11.4505
 222   2.0000      -0.420573       -11.4444
 223   2.0000      -0.420209       -11.4345
 224   2.0000      -0.418488       -11.3876
 225   2.0000      -0.417300       -11.3553
 226   2.0000      -0.416711       -11.3393
 227   2.0000      -0.411371       -11.1940
 228   2.0000      -0.403795       -10.9878
 229   2.0000      -0.389456       -10.5976
 230   2.0000      -0.372710       -10.1419
 231   2.0000      -0.370313       -10.0767
 232   2.0000      -0.369057       -10.0426
 233   2.0000      -0.368126       -10.0172
 234   2.0000      -0.348140        -9.4734
 235   2.0000      -0.347759        -9.4630
 236   2.0000      -0.345796        -9.4096
 237   2.0000      -0.344987        -9.3876
 238   2.0000      -0.333096        -9.0640
 239   2.0000      -0.311704        -8.4819
 240   2.0000      -0.293139        -7.9767
 241   2.0000      -0.261691        -7.1210
 242   2.0000      -0.241751        -6.5784
 243   0.0000      -0.125332        -3.4104
 244   0.0000      -0.110954        -3.0192
 245   0.0000      -0.082867        -2.2549
 246   0.0000      -0.075680        -2.0594
 247   0.0000      -0.056133        -1.5275

MULLIKEN ATOMIC CHARGES
-----------------------
   0 C :   -0.103817
   1 S :    0.175269
   2 C :   -0.122345
   3 C :    0.145726
   4 C :    0.098225
   5 C :   -0.010276
   6 C :   -0.076009
   7 C :   -0.176075
   8 N :    0.177277
   9 C :   -0.065660
  10 C :   -0.177677
  11 N :    0.175041
  12 C :   -0.043677
  13 C :    0.000674
  14 C :   -0.013010
  15 C :   -0.086705
  16 S :    0.174798
  17 C :   -0.119170
  18 C :    0.137478
  19 C :    0.121239
  20 C :   -0.052069
  21 C :   -0.064951
  22 C :   -0.180135
  23 N :    0.178086
  24 C :   -0.070172
  25 C :   -0.178314
  26 N :    0.184954
  27 C :   -0.054461
  28 C :    0.045389
  29 C :   -0.065240
  30 C :    0.154062
  31 O :   -0.204559
  32 C :    0.195987
  33 C :   -0.031158
  34 C :   -0.078336
  35 C :   -0.192177
  36 N :    0.160782
  37 C :   -0.027231
  38 C :   -0.007505
  39 C :   -0.076756
  40 S :    0.146063
  41 C :   -0.084321
  42 C :    0.124711
  43 C :    0.137548
  44 C :   -0.055114
  45 C :   -0.066844
  46 C :   -0.176672
  47 N :    0.175046
  48 C :   -0.069058
  49 C :   -0.176427
  50 N :    0.184639
  51 C :   -0.052983
  52 C :   -0.020357
  53 C :    0.041781
  54 C :   -0.129761
  55 S :    0.177950
  56 C :   -0.114460
  57 C :    0.121210
  58 C :    0.140857
  59 C :   -0.067254
  60 C :   -0.066825
  61 C :   -0.178010
  62 N :    0.183489
  63 C :   -0.066669
  64 C :   -0.177338
  65 N :    0.179117
  66 C :   -0.051006
  67 C :    0.002186
  68 C :   -0.014120
  69 H :    0.036671
  70 H :   -0.000353
  71 H :   -0.004495
  72 H :    0.001401
  73 H :    0.000225
  74 H :   -0.003649
  75 H :   -0.001983
  76 H :    0.003213
  77 H :    0.027898
  78 H :   -0.002021
  79 H :    0.003275
  80 H :    0.004051
  81 H :   -0.007283
  82 H :   -0.001571
  83 H :   -0.002650
  84 H :   -0.006673
  85 H :   -0.009883
  86 H :   -0.002482
  87 H :    0.004002
  88 H :    0.027979
  89 H :    0.039447
Sum of atomic charges:   -0.0000000

LOEWDIN ATOMIC CHARGES
----------------------
   0 C :   -0.172076
   1 S :    0.512015
   2 C :   -0.173381
   3 C :   -0.041543
   4 C :   -0.051292
   5 C :    0.038738
   6 C :   -0.053692
   7 C :   -0.033055
   8 N :   -0.030456
   9 C :   -0.050632
  10 C :   -0.033734
  11 N :   -0.031187
  12 C :    0.030884
  13 C :   -0.031337
  14 C :   -0.047322
  15 C :   -0.160715
  16 S :    0.498260
  17 C :   -0.167788
  18 C :   -0.038168
  19 C :   -0.041242
  20 C :    0.032920
  21 C :   -0.051052
  22 C :   -0.033412
  23 N :   -0.030375
  24 C :   -0.047548
  25 C :   -0.033585
  26 N :   -0.026666
  27 C :    0.030991
  28 C :   -0.025720
  29 C :   -0.042778
  30 C :    0.065836
  31 O :    0.016449
  32 C :    0.039545
  33 C :   -0.024020
  34 C :   -0.103131
  35 C :   -0.037569
  36 N :   -0.041462
  37 C :   -0.039893
  38 C :   -0.033877
  39 C :   -0.163401
  40 S :    0.485323
  41 C :   -0.158591
  42 C :   -0.042258
  43 C :   -0.040312
  44 C :    0.032511
  45 C :   -0.050935
  46 C :   -0.032643
  47 N :   -0.032766
  48 C :   -0.050310
  49 C :   -0.034748
  50 N :   -0.026446
  51 C :    0.033171
  52 C :   -0.043506
  53 C :   -0.044573
  54 C :   -0.167250
  55 S :    0.506716
  56 C :   -0.164575
  57 C :   -0.042716
  58 C :   -0.041960
  59 C :    0.027371
  60 C :   -0.049582
  61 C :   -0.034956
  62 N :   -0.028543
  63 C :   -0.052549
  64 C :   -0.033354
  65 N :   -0.030083
  66 C :    0.035875
  67 C :   -0.042845
  68 C :   -0.025572
  69 H :    0.032748
  70 H :    0.046881
  71 H :    0.042168
  72 H :    0.029797
  73 H :    0.028377
  74 H :    0.042675
  75 H :    0.044051
  76 H :    0.034402
  77 H :    0.044703
  78 H :    0.041916
  79 H :    0.034354
  80 H :    0.036808
  81 H :    0.041755
  82 H :    0.043195
  83 H :    0.034059
  84 H :    0.023065
  85 H :    0.039904
  86 H :    0.043612
  87 H :    0.038124
  88 H :    0.020209
  89 H :    0.033772

  Mayer bond orders larger than 0.100000
B(  0-C ,  1-S ) :   1.2127 B(  0-C ,  4-C ) :   1.4085 B(  0-C , 69-H ) :   0.9700
B(  1-S ,  2-C ) :   1.1605 B(  2-C ,  3-C ) :   1.3021 B(  2-C , 13-C ) :   1.2127
B(  3-C ,  4-C ) :   1.1940 B(  3-C , 12-C ) :   1.2044 B(  4-C ,  5-C ) :   1.1544
B(  5-C ,  6-C ) :   1.5825 B(  5-C , 70-H ) :   1.0064 B(  6-C ,  7-C ) :   1.0780
B(  6-C ,  9-C ) :   1.2260 B(  7-C ,  8-N ) :   3.0485 B(  9-C , 10-C ) :   1.0816
B(  9-C , 12-C ) :   1.5744 B( 10-C , 11-N ) :   3.0415 B( 12-C , 71-H ) :   0.9943
B( 13-C , 14-C ) :   1.6016 B( 13-C , 72-H ) :   0.9656 B( 14-C , 15-C ) :   1.2189
B( 14-C , 73-H ) :   0.9652 B( 15-C , 16-S ) :   1.1514 B( 15-C , 19-C ) :   1.2840
B( 16-S , 17-C ) :   1.1466 B( 17-C , 18-C ) :   1.3137 B( 17-C , 28-C ) :   1.1572
B( 18-C , 19-C ) :   1.2061 B( 18-C , 27-C ) :   1.1952 B( 19-C , 20-C ) :   1.2097
B( 20-C , 21-C ) :   1.5597 B( 20-C , 74-H ) :   0.9953 B( 21-C , 22-C ) :   1.0789
B( 21-C , 24-C ) :   1.2472 B( 22-C , 23-N ) :   3.0442 B( 24-C , 25-C ) :   1.0799
B( 24-C , 27-C ) :   1.5608 B( 25-C , 26-N ) :   3.0446 B( 27-C , 75-H ) :   0.9941
B( 28-C , 29-C ) :   1.5998 B( 28-C , 76-H ) :   0.9568 B( 29-C , 30-C ) :   1.2379
B( 29-C , 77-H ) :   0.9436 B( 30-C , 31-O ) :   1.1677 B( 30-C , 34-C ) :   1.3778
B( 31-O , 32-C ) :   1.1098 B( 32-C , 33-C ) :   1.4111 B( 32-C , 37-C ) :   1.1775
B( 33-C , 34-C ) :   1.2519 B( 33-C , 78-H ) :   1.0240 B( 34-C , 35-C ) :   1.1056
B( 35-C , 36-N ) :   3.0339 B( 37-C , 38-C ) :   1.5940 B( 37-C , 79-H ) :   0.9622
B( 38-C , 39-C ) :   1.2022 B( 38-C , 80-H ) :   0.9689 B( 39-C , 40-S ) :   1.1321
B( 39-C , 43-C ) :   1.3036 B( 40-S , 41-C ) :   1.1342 B( 41-C , 42-C ) :   1.2936
B( 41-C , 52-C ) :   1.2326 B( 42-C , 43-C ) :   1.1993 B( 42-C , 51-C ) :   1.2010
B( 43-C , 44-C ) :   1.2002 B( 44-C , 45-C ) :   1.5637 B( 44-C , 81-H ) :   0.9962
B( 45-C , 46-C ) :   1.0771 B( 45-C , 48-C ) :   1.2435 B( 46-C , 47-N ) :   3.0453
B( 48-C , 49-C ) :   1.0798 B( 48-C , 51-C ) :   1.5611 B( 49-C , 50-N ) :   3.0430
B( 51-C , 82-H ) :   0.9961 B( 52-C , 53-C ) :   1.5913 B( 52-C , 83-H ) :   0.9615
B( 53-C , 54-C ) :   1.1922 B( 53-C , 84-H ) :   0.9434 B( 54-C , 55-S ) :   1.1610
B( 54-C , 58-C ) :   1.3068 B( 55-S , 56-C ) :   1.1601 B( 56-C , 57-C ) :   1.3319
B( 56-C , 67-C ) :   1.1416 B( 57-C , 58-C ) :   1.1994 B( 57-C , 66-C ) :   1.1888
B( 58-C , 59-C ) :   1.1979 B( 59-C , 60-C ) :   1.5612 B( 59-C , 85-H ) :   0.9937
B( 60-C , 61-C ) :   1.0782 B( 60-C , 63-C ) :   1.2416 B( 61-C , 62-N ) :   3.0441
B( 63-C , 64-C ) :   1.0764 B( 63-C , 66-C ) :   1.5714 B( 64-C , 65-N ) :   3.0454
B( 66-C , 86-H ) :   0.9972 B( 67-C , 68-C ) :   1.9034 B( 67-C , 87-H ) :   0.9580
B( 68-C , 88-H ) :   0.9591 B( 68-C , 89-H ) :   0.9483

-----------------------------------------------------------------------------
         ABSORPTION SPECTRUM VIA TRANSITION ELECTRIC DIPOLE MOMENTS
-----------------------------------------------------------------------------
State   Energy  Wavelength   fosc         T2         TX        TY        TZ
        (cm-1)    (nm)                  (au**2)     (au)      (au)      (au)
-----------------------------------------------------------------------------
   0   11942.7    837.3   1.557169979  42.92482  -5.15647  -2.02742  -3.49645
   1   15846.1    631.1   0.412315141   8.56610   1.38727  -1.46995  -2.11679
   2   17893.7    558.9   0.051827019   0.95352   0.59903  -0.46381  -0.61609
   3   20638.6    484.5   0.297131954   4.73964   1.75416  -0.04163  -1.28873
   4   21298.9    469.5   0.300868101   4.65044  -1.74346   0.38263   1.21011
   5   22323.5    448.0   0.042045828   0.62006  -0.09697  -0.71243  -0.32110
   6   24290.6    411.7   0.090413777   1.22539   0.99043   0.04245  -0.49258
   7   25498.2    392.2   0.141044931   1.82105   0.25039   0.48370   1.23466
   8   26347.8    379.5   0.125244567   1.56491   0.40326   1.12788   0.36080
   9   27983.4    357.4   0.029311968   0.34484   0.10750  -0.08556  -0.57093
  10   28251.7    354.0   0.170388891   1.98551  -0.88125  -1.07596  -0.22627
  11   29380.7    340.4   0.020377561   0.22833  -0.28580   0.16699  -0.34462
  12   29490.3    339.1   0.025468935   0.28432  -0.02735   0.26213  -0.46353
  13   29652.7    337.2   0.074454209   0.82661   0.59080   0.25822  -0.64100
  14   30284.5    330.2   0.172871899   1.87923  -1.17523   0.27598   0.64954
  15   30432.9    328.6   0.069270825   0.74935  -0.31550   0.04436   0.80489
  16   31617.9    316.3   0.072011855   0.74980  -0.51242  -0.43213  -0.54817
  17   32553.3    307.2   0.108179793   1.09402  -0.61334  -0.84675   0.02895
  18   33193.5    301.3   0.030003185   0.29757  -0.40483   0.07398   0.35806
  19   33394.7    299.4   0.001536189   0.01514  -0.10482   0.02728  -0.05841
  20   34167.5    292.7   0.240148807   2.31389   0.94185  -0.11609  -1.18883
  21   34337.8    291.2   0.310871206   2.98046   0.75983   1.49501   0.40997
  22   34399.2    290.7   0.190557948   1.82371   0.47751  -1.00737  -0.76217
  23   35045.9    285.3   0.247702534   2.32685   1.13886  -0.11056  -1.00877
  24   35469.3    281.9   0.338462642   3.14148   1.35277  -0.14470  -1.13603
  25   36244.8    275.9   0.033915966   0.30806   0.32402   0.28753  -0.34698
  26   36494.2    274.0   0.124468012   1.12282   0.78891   0.19464  -0.68011
  27   37041.9    270.0   0.085864749   0.76313  -0.61927  -0.60146  -0.13373
  28   37082.7    269.7   0.093170435   0.82715   0.62523  -0.11831  -0.64979
  29   37281.3    268.2   0.137041857   1.21015  -0.56417   0.51136   0.79396
  30   38194.3    261.8   0.025600286   0.22066   0.04132  -0.33682  -0.32482
  31   38306.2    261.1   0.100440554   0.86321  -0.23253  -0.60188  -0.66850
  32   38725.0    258.2   0.108259172   0.92034   0.82643  -0.38472  -0.29890
  33   38881.4    257.2   0.059794363   0.50628   0.01474   0.47970   0.52532
  34   39172.3    255.3   0.021182466   0.17802   0.34569  -0.00554  -0.24184
  35   39613.3    252.4   0.018876577   0.15688  -0.31385  -0.23369  -0.06138
  36   39624.5    252.4   0.187313276   1.55625  -0.86509  -0.13485   0.88865
  37   39871.2    250.8   0.116337313   0.96058   0.66409  -0.37847  -0.61346
  38   40084.7    249.5   0.011505037   0.09449  -0.22678  -0.20314   0.04238

FINAL SINGLE POINT ENERGY     -4265.142833500183

DIPOLE MOMENT
-------------
                                X             Y             Z
Electronic contribution:     20.92638       7.37471       4.68331
Nuclear contribution   :    -24.25660      -7.76772      -2.12223
                        -----------------------------------------
Total Dipole Moment    :     -3.33022      -0.39301       2.56108
                        -----------------------------------------
Magnitude (a.u.)       :      4.21947
Magnitude (Debye)      :     10.72505

Rotational constants in cm-1:     0.001088     0.000295     0.000243
Rotational constants in MHz :    32.617711     8.856884     7.294871

                             ****ORCA TERMINATED NORMALLY****
TOTAL RUN TIME: 0 days 0 hours 8 minutes 13 seconds 187 msec
