                         Program Version 4.2.0 -  RELEASE  -
|  1> # ORCA input file
|  2> # SCF done       -164.861412494545          0.000535492118
|  3> ! CAM-B3LYP def2-SVP def2/J RIJCOSX Grid4 TightSCF
|  4> %maxcore 5000
|  5> %tddft
|  6>     Mode sTDDFT
|  7>     Ethresh 5.0
|  8>     maxcore 5000
|  9> end
| 10>
| 11> %pal
| 12>   nprocs 6
| 13>   end
| 14> * xyz 0 1
| 15>    C        6.06997        -4.41637         0.26181
| 16>    S        4.68789        -4.98250         1.07246
| 17>    C        3.65011        -4.67845        -0.29022
| 18>    C        4.38449        -4.10013        -1.33800
| 19>    C        5.78051        -3.96901        -1.01169
| 20>    C        6.68189        -3.41282        -1.94434
| 21>    C        6.21043        -2.96550        -3.15104
| 22>    C        7.09678        -2.40340        -4.10005
| 23>    N        7.82858        -1.95068        -4.85600
| 24>    C        4.81290        -3.03669        -3.45400
| 25>    C        4.34210        -2.51452        -4.68016
| 26>    N        3.93562        -2.09774        -5.66720
| 27>    C        3.92263        -3.59023        -2.56316
| 28>    C        2.28494        -5.03083        -0.17792
| 29>    C        1.43171        -5.26762        -1.21290
| 30>    C        0.05759        -5.57161        -1.10442
| 31>    S       -0.69683        -6.41063        -2.42074
| 32>    C       -2.24813        -6.50946        -1.63507
| 33>    C       -2.18398        -5.84758        -0.38481
| 34>    C       -0.88514        -5.31178        -0.09481
| 35>    C       -0.68797        -4.54587         1.06543
| 36>    C       -1.72155        -4.36225         1.95459
| 37>    C       -1.51611        -3.60161         3.12849
| 38>    N       -1.32238        -2.98697         4.07574
| 39>    C       -3.00443        -4.91807         1.68408
| 40>    C       -4.06476        -4.71460         2.59630
| 41>    N       -4.93647        -4.56622         3.32495
| 42>    C       -3.22832        -5.62795         0.52509
| 43>    C       -3.31671        -7.21881        -2.21230
| 44>    S       -4.69826        -7.69434        -1.26559
| 45>    C       -5.44551        -8.57817        -2.55969
| 46>    C       -4.66596        -8.46508        -3.72872
| 47>    C       -3.46310        -7.70891        -3.53314
| 48>    C       -2.61239        -7.48594        -4.62592
| 49>    C       -2.92404        -7.99636        -5.86661
| 50>    C       -2.05329        -7.77283        -6.95820
| 51>    N       -1.33420        -7.58528        -7.82995
| 52>    C       -4.12987        -8.72519        -6.06373
| 53>    C       -4.46102        -9.21038        -7.34991
| 54>    N       -4.75054        -9.62111        -8.37943
| 55>    C       -4.98837        -8.93851        -5.00877
| 56>    C       -6.66037        -9.22163        -2.27330
| 57>    C       -7.28728       -10.20542        -2.98671
| 58>    C       -8.53929       -10.73575        -2.63868
| 59>    S       -9.48032       -10.10844        -1.32244
| 60>    C      -10.78446       -11.22466        -1.57269
| 61>    C      -10.51550       -12.05075        -2.68085
| 62>    C       -9.23708       -11.78419        -3.27255
| 63>    C       -8.80070       -12.53577        -4.37337
| 64>    C       -9.61248       -13.51400        -4.90080
| 65>    C       -9.17353       -14.29014        -5.99787
| 66>    N       -8.80104       -14.91752        -6.88109
| 67>    C      -10.90855       -13.74183        -4.35180
| 68>    C      -11.75367       -14.71826        -4.92778
| 69>    N      -12.45942       -15.50588        -5.36862
| 70>    C      -11.34832       -13.01818        -3.26700
| 71>    C      -11.87238       -11.14307        -0.67162
| 72>    C      -12.87340       -12.03585        -0.47432
| 73>    C      -13.93339       -11.84074         0.45228
| 74>    S      -14.06835       -10.40348         1.44322
| 75>    C      -15.49990       -10.98302         2.15411
| 76>    C      -15.88246       -12.21352         1.67381
| 77>    C      -14.97975       -12.69761         0.70088
| 78>    C      -17.10671       -12.88295         2.16189
| 79>    O      -17.79918       -12.38578         3.01987
| 80>    C      -17.42904       -14.20862         1.52186
| 81>    H        7.02565        -4.43265         0.74649
| 82>    H        7.72989        -3.33352        -1.69824
| 83>    H        2.87184        -3.59552        -2.80480
| 84>    H        1.94242        -5.20119         0.83347
| 85>    H        1.83081        -5.31852        -2.21679
| 86>    H        0.25999        -4.06828         1.25179
| 87>    H       -4.22496        -5.98613         0.32833
| 88>    H       -1.71669        -6.89618        -4.52461
| 89>    H       -5.92305        -9.44240        -5.18988
| 90>    H       -7.12674        -8.91555        -1.34317
| 91>    H       -6.80963       -10.64153        -3.84995
| 92>    H       -7.83215       -12.35697        -4.81471
| 93>    H      -12.34509       -13.18901        -2.89639
| 94>    H      -11.86746       -10.25959        -0.04282
| 95>    H      -12.90361       -12.97499        -1.00524
| 96>    H      -16.01355       -10.40432         2.89670
| 97>    H      -15.08417       -13.63913         0.19334
| 98>    H      -16.62101       -14.91431         1.70342
| 99>    H      -17.54585       -14.08432         0.44731
|100>    H      -18.35108       -14.59943         1.94353
|101> *
|102>
|103>                          ****END OF INPUT****

CARTESIAN COORDINATES (ANGSTROEM)
---------------------------------
  C      6.069970   -4.416370    0.261810
  S      4.687890   -4.982500    1.072460
  C      3.650110   -4.678450   -0.290220
  C      4.384490   -4.100130   -1.338000
  C      5.780510   -3.969010   -1.011690
  C      6.681890   -3.412820   -1.944340
  C      6.210430   -2.965500   -3.151040
  C      7.096780   -2.403400   -4.100050
  N      7.828580   -1.950680   -4.856000
  C      4.812900   -3.036690   -3.454000
  C      4.342100   -2.514520   -4.680160
  N      3.935620   -2.097740   -5.667200
  C      3.922630   -3.590230   -2.563160
  C      2.284940   -5.030830   -0.177920
  C      1.431710   -5.267620   -1.212900
  C      0.057590   -5.571610   -1.104420
  S     -0.696830   -6.410630   -2.420740
  C     -2.248130   -6.509460   -1.635070
  C     -2.183980   -5.847580   -0.384810
  C     -0.885140   -5.311780   -0.094810
  C     -0.687970   -4.545870    1.065430
  C     -1.721550   -4.362250    1.954590
  C     -1.516110   -3.601610    3.128490
  N     -1.322380   -2.986970    4.075740
  C     -3.004430   -4.918070    1.684080
  C     -4.064760   -4.714600    2.596300
  N     -4.936470   -4.566220    3.324950
  C     -3.228320   -5.627950    0.525090
  C     -3.316710   -7.218810   -2.212300
  S     -4.698260   -7.694340   -1.265590
  C     -5.445510   -8.578170   -2.559690
  C     -4.665960   -8.465080   -3.728720
  C     -3.463100   -7.708910   -3.533140
  C     -2.612390   -7.485940   -4.625920
  C     -2.924040   -7.996360   -5.866610
  C     -2.053290   -7.772830   -6.958200
  N     -1.334200   -7.585280   -7.829950
  C     -4.129870   -8.725190   -6.063730
  C     -4.461020   -9.210380   -7.349910
  N     -4.750540   -9.621110   -8.379430
  C     -4.988370   -8.938510   -5.008770
  C     -6.660370   -9.221630   -2.273300
  C     -7.287280  -10.205420   -2.986710
  C     -8.539290  -10.735750   -2.638680
  S     -9.480320  -10.108440   -1.322440
  C    -10.784460  -11.224660   -1.572690
  C    -10.515500  -12.050750   -2.680850
  C     -9.237080  -11.784190   -3.272550
  C     -8.800700  -12.535770   -4.373370
  C     -9.612480  -13.514000   -4.900800
  C     -9.173530  -14.290140   -5.997870
  N     -8.801040  -14.917520   -6.881090
  C    -10.908550  -13.741830   -4.351800
  C    -11.753670  -14.718260   -4.927780
  N    -12.459420  -15.505880   -5.368620
  C    -11.348320  -13.018180   -3.267000
  C    -11.872380  -11.143070   -0.671620
  C    -12.873400  -12.035850   -0.474320
  C    -13.933390  -11.840740    0.452280
  S    -14.068350  -10.403480    1.443220
  C    -15.499900  -10.983020    2.154110
  C    -15.882460  -12.213520    1.673810
  C    -14.979750  -12.697610    0.700880
  C    -17.106710  -12.882950    2.161890
  O    -17.799180  -12.385780    3.019870
  C    -17.429040  -14.208620    1.521860
  H      7.025650   -4.432650    0.746490
  H      7.729890   -3.333520   -1.698240
  H      2.871840   -3.595520   -2.804800
  H      1.942420   -5.201190    0.833470
  H      1.830810   -5.318520   -2.216790
  H      0.259990   -4.068280    1.251790
  H     -4.224960   -5.986130    0.328330
  H     -1.716690   -6.896180   -4.524610
  H     -5.923050   -9.442400   -5.189880
  H     -7.126740   -8.915550   -1.343170
  H     -6.809630  -10.641530   -3.849950
  H     -7.832150  -12.356970   -4.814710
  H    -12.345090  -13.189010   -2.896390
  H    -11.867460  -10.259590   -0.042820
  H    -12.903610  -12.974990   -1.005240
  H    -16.013550  -10.404320    2.896700
  H    -15.084170  -13.639130    0.193340
  H    -16.621010  -14.914310    1.703420
  H    -17.545850  -14.084320    0.447310
  H    -18.351080  -14.599430    1.943530

 Total Charge           Charge          ....    0
 Multiplicity           Mult            ....    1
 Number of Electrons    NEL             ....  476
 Basis Dimension        Dim             .... 1044

ORBITAL ENERGIES
----------------

  NO   OCC          E(Eh)            E(eV)
   0   2.0000     -89.011644     -2422.1300
   1   2.0000     -89.010935     -2422.1107
   2   2.0000     -89.007613     -2422.0203
   3   2.0000     -89.003132     -2421.8984
   4   2.0000     -88.983650     -2421.3682
   5   2.0000     -19.209855      -522.7267
   6   2.0000     -14.426747      -392.5717
   7   2.0000     -14.426194      -392.5567
   8   2.0000     -14.424318      -392.5056
   9   2.0000     -14.423805      -392.4917
  10   2.0000     -14.420569      -392.4036
  11   2.0000     -14.420389      -392.3987
  12   2.0000     -14.418999      -392.3609
  13   2.0000     -14.418452      -392.3460
  14   2.0000     -10.366662      -282.0912
  15   2.0000     -10.360286      -281.9177
  16   2.0000     -10.358851      -281.8787
  17   2.0000     -10.352737      -281.7123
  18   2.0000     -10.352007      -281.6924
  19   2.0000     -10.351373      -281.6752
  20   2.0000     -10.351246      -281.6717
  21   2.0000     -10.351169      -281.6696
  22   2.0000     -10.350144      -281.6417
  23   2.0000     -10.349693      -281.6295
  24   2.0000     -10.346848      -281.5520
  25   2.0000     -10.345314      -281.5103
  26   2.0000     -10.344839      -281.4974
  27   2.0000     -10.344529      -281.4889
  28   2.0000     -10.344146      -281.4785
  29   2.0000     -10.343167      -281.4519
  30   2.0000     -10.336662      -281.2749
  31   2.0000     -10.335391      -281.2403
  32   2.0000     -10.335169      -281.2343
  33   2.0000     -10.334577      -281.2181
  34   2.0000     -10.334324      -281.2112
  35   2.0000     -10.334082      -281.2047
  36   2.0000     -10.333010      -281.1755
  37   2.0000     -10.332774      -281.1691
  38   2.0000     -10.332523      -281.1622
  39   2.0000     -10.330030      -281.0944
  40   2.0000     -10.329802      -281.0882
  41   2.0000     -10.328412      -281.0504
  42   2.0000     -10.328237      -281.0456
  43   2.0000     -10.328138      -281.0429
  44   2.0000     -10.327809      -281.0340
  45   2.0000     -10.327496      -281.0255
  46   2.0000     -10.326390      -280.9953
  47   2.0000     -10.326315      -280.9933
  48   2.0000     -10.325978      -280.9841
  49   2.0000     -10.325553      -280.9726
  50   2.0000     -10.325065      -280.9593
  51   2.0000     -10.324706      -280.9495
  52   2.0000     -10.324163      -280.9348
  53   2.0000     -10.323905      -280.9277
  54   2.0000     -10.322295      -280.8839
  55   2.0000     -10.321816      -280.8709
  56   2.0000     -10.321495      -280.8622
  57   2.0000     -10.320782      -280.8428
  58   2.0000     -10.318805      -280.7890
  59   2.0000     -10.318038      -280.7681
  60   2.0000     -10.316968      -280.7390
  61   2.0000     -10.316800      -280.7344
  62   2.0000     -10.316523      -280.7269
  63   2.0000     -10.303514      -280.3729
  64   2.0000     -10.294152      -280.1181
  65   2.0000     -10.276619      -279.6410
  66   2.0000      -8.106402      -220.5864
  67   2.0000      -8.105692      -220.5671
  68   2.0000      -8.103026      -220.4945
  69   2.0000      -8.098393      -220.3685
  70   2.0000      -8.079619      -219.8576
  71   2.0000      -6.075510      -165.3230
  72   2.0000      -6.074809      -165.3040
  73   2.0000      -6.071848      -165.2234
  74   2.0000      -6.071223      -165.2064
  75   2.0000      -6.070529      -165.1875
  76   2.0000      -6.069084      -165.1482
  77   2.0000      -6.068359      -165.1284
  78   2.0000      -6.067509      -165.1053
  79   2.0000      -6.067277      -165.0990
  80   2.0000      -6.066322      -165.0730
  81   2.0000      -6.063243      -164.9892
  82   2.0000      -6.061238      -164.9347
  83   2.0000      -6.048672      -164.5927
  84   2.0000      -6.044474      -164.4785
  85   2.0000      -6.042205      -164.4168
  86   2.0000      -1.128028       -30.6952
  87   2.0000      -1.053975       -28.6801
  88   2.0000      -1.041402       -28.3380
  89   2.0000      -1.039942       -28.2982
  90   2.0000      -1.038630       -28.2626
  91   2.0000      -1.021523       -27.7970
  92   2.0000      -1.017026       -27.6747
  93   2.0000      -1.014809       -27.6143
  94   2.0000      -1.012998       -27.5651
  95   2.0000      -1.008925       -27.4542
  96   2.0000      -1.006847       -27.3977
  97   2.0000      -1.004325       -27.3291
  98   2.0000      -1.000805       -27.2333
  99   2.0000      -0.999063       -27.1859
 100   2.0000      -0.982796       -26.7432
 101   2.0000      -0.981700       -26.7134
 102   2.0000      -0.977111       -26.5885
 103   2.0000      -0.974750       -26.5243
 104   2.0000      -0.957724       -26.0610
 105   2.0000      -0.946158       -25.7463
 106   2.0000      -0.930803       -25.3284
 107   2.0000      -0.917614       -24.9695
 108   2.0000      -0.911187       -24.7947
 109   2.0000      -0.902084       -24.5470
 110   2.0000      -0.900254       -24.4972
 111   2.0000      -0.898813       -24.4579
 112   2.0000      -0.891915       -24.2702
 113   2.0000      -0.889455       -24.2033
 114   2.0000      -0.888636       -24.1810
 115   2.0000      -0.880368       -23.9560
 116   2.0000      -0.874435       -23.7946
 117   2.0000      -0.862827       -23.4787
 118   2.0000      -0.846648       -23.0385
 119   2.0000      -0.830164       -22.5899
 120   2.0000      -0.822891       -22.3920
 121   2.0000      -0.810737       -22.0613
 122   2.0000      -0.784014       -21.3341
 123   2.0000      -0.783193       -21.3118
 124   2.0000      -0.778088       -21.1728
 125   2.0000      -0.776412       -21.1272
 126   2.0000      -0.773811       -21.0565
 127   2.0000      -0.772486       -21.0204
 128   2.0000      -0.769896       -20.9499
 129   2.0000      -0.764916       -20.8144
 130   2.0000      -0.741125       -20.1670
 131   2.0000      -0.718894       -19.5621
 132   2.0000      -0.712932       -19.3999
 133   2.0000      -0.707967       -19.2648
 134   2.0000      -0.705524       -19.1983
 135   2.0000      -0.702058       -19.1040
 136   2.0000      -0.695785       -18.9333
 137   2.0000      -0.693020       -18.8580
 138   2.0000      -0.670369       -18.2417
 139   2.0000      -0.657577       -17.8936
 140   2.0000      -0.655936       -17.8489
 141   2.0000      -0.652114       -17.7449
 142   2.0000      -0.647842       -17.6287
 143   2.0000      -0.644323       -17.5329
 144   2.0000      -0.637936       -17.3591
 145   2.0000      -0.635780       -17.3004
 146   2.0000      -0.631851       -17.1935
 147   2.0000      -0.626096       -17.0369
 148   2.0000      -0.625280       -17.0147
 149   2.0000      -0.623201       -16.9582
 150   2.0000      -0.619288       -16.8517
 151   2.0000      -0.607284       -16.5250
 152   2.0000      -0.591688       -16.1007
 153   2.0000      -0.585673       -15.9370
 154   2.0000      -0.580781       -15.8039
 155   2.0000      -0.576354       -15.6834
 156   2.0000      -0.571939       -15.5633
 157   2.0000      -0.570493       -15.5239
 158   2.0000      -0.566903       -15.4262
 159   2.0000      -0.565531       -15.3889
 160   2.0000      -0.561887       -15.2897
 161   2.0000      -0.559915       -15.2360
 162   2.0000      -0.557085       -15.1590
 163   2.0000      -0.550205       -14.9718
 164   2.0000      -0.547190       -14.8898
 165   2.0000      -0.546565       -14.8728
 166   2.0000      -0.544885       -14.8271
 167   2.0000      -0.542464       -14.7612
 168   2.0000      -0.541171       -14.7260
 169   2.0000      -0.539483       -14.6801
 170   2.0000      -0.535710       -14.5774
 171   2.0000      -0.527817       -14.3626
 172   2.0000      -0.525697       -14.3050
 173   2.0000      -0.519406       -14.1338
 174   2.0000      -0.514152       -13.9908
 175   2.0000      -0.511753       -13.9255
 176   2.0000      -0.510051       -13.8792
 177   2.0000      -0.506670       -13.7872
 178   2.0000      -0.504205       -13.7201
 179   2.0000      -0.502233       -13.6665
 180   2.0000      -0.497532       -13.5385
 181   2.0000      -0.496744       -13.5171
 182   2.0000      -0.495714       -13.4891
 183   2.0000      -0.492734       -13.4080
 184   2.0000      -0.488898       -13.3036
 185   2.0000      -0.484140       -13.1741
 186   2.0000      -0.480345       -13.0709
 187   2.0000      -0.476616       -12.9694
 188   2.0000      -0.468070       -12.7368
 189   2.0000      -0.467346       -12.7171
 190   2.0000      -0.466461       -12.6931
 191   2.0000      -0.463465       -12.6115
 192   2.0000      -0.462594       -12.5878
 193   2.0000      -0.461134       -12.5481
 194   2.0000      -0.460332       -12.5263
 195   2.0000      -0.458822       -12.4852
 196   2.0000      -0.455333       -12.3902
 197   2.0000      -0.454779       -12.3752
 198   2.0000      -0.452793       -12.3211
 199   2.0000      -0.452158       -12.3038
 200   2.0000      -0.451934       -12.2978
 201   2.0000      -0.449676       -12.2363
 202   2.0000      -0.448928       -12.2159
 203   2.0000      -0.447377       -12.1737
 204   2.0000      -0.446619       -12.1531
 205   2.0000      -0.445588       -12.1251
 206   2.0000      -0.445494       -12.1225
 207   2.0000      -0.444579       -12.0976
 208   2.0000      -0.441462       -12.0128
 209   2.0000      -0.437099       -11.8941
 210   2.0000      -0.433333       -11.7916
 211   2.0000      -0.431305       -11.7364
 212   2.0000      -0.429382       -11.6841
 213   2.0000      -0.428422       -11.6579
 214   2.0000      -0.427429       -11.6309
 215   2.0000      -0.426838       -11.6148
 216   2.0000      -0.425847       -11.5879
 217   2.0000      -0.425752       -11.5853
 218   2.0000      -0.422476       -11.4962
 219   2.0000      -0.422101       -11.4860
 220   2.0000      -0.420372       -11.4389
 221   2.0000      -0.418989       -11.4013
 222   2.0000      -0.411342       -11.1932
 223   2.0000      -0.396514       -10.7897
 224   2.0000      -0.389721       -10.6049
 225   2.0000      -0.373622       -10.1668
 226   2.0000      -0.371997       -10.1226
 227   2.0000      -0.355370        -9.6701
 228   2.0000      -0.353608        -9.6222
 229   2.0000      -0.348996        -9.4967
 230   2.0000      -0.348555        -9.4847
 231   2.0000      -0.346668        -9.4333
 232   2.0000      -0.339622        -9.2416
 233   2.0000      -0.334817        -9.1108
 234   2.0000      -0.326276        -8.8784
 235   2.0000      -0.303934        -8.2705
 236   2.0000      -0.274926        -7.4811
 237   2.0000      -0.241531        -6.5724
 238   0.0000      -0.133521        -3.6333
 239   0.0000      -0.102918        -2.8005
 240   0.0000      -0.085151        -2.3171
 241   0.0000      -0.070080        -1.9070
 242   0.0000      -0.052650        -1.4327

MULLIKEN ATOMIC CHARGES
-----------------------
   0 C :   -0.117723
   1 S :    0.199347
   2 C :   -0.168087
   3 C :    0.149490
   4 C :    0.098411
   5 C :   -0.014825
   6 C :   -0.068825
   7 C :   -0.173736
   8 N :    0.176366
   9 C :   -0.069776
  10 C :   -0.177862
  11 N :    0.182869
  12 C :   -0.054640
  13 C :    0.029754
  14 C :    0.026071
  15 C :   -0.116815
  16 S :    0.166190
  17 C :   -0.099676
  18 C :    0.110288
  19 C :    0.121899
  20 C :   -0.059812
  21 C :   -0.066400
  22 C :   -0.176946
  23 N :    0.183323
  24 C :   -0.068369
  25 C :   -0.179312
  26 N :    0.179245
  27 C :   -0.069519
  28 C :   -0.098757
  29 S :    0.158564
  30 C :   -0.101806
  31 C :    0.124612
  32 C :    0.108683
  33 C :   -0.067889
  34 C :   -0.067240
  35 C :   -0.180392
  36 N :    0.186692
  37 C :   -0.066504
  38 C :   -0.179853
  39 N :    0.190686
  40 C :   -0.059600
  41 C :    0.032241
  42 C :   -0.011038
  43 C :   -0.101904
  44 S :    0.170024
  45 C :   -0.111474
  46 C :    0.126127
  47 C :    0.127291
  48 C :   -0.055104
  49 C :   -0.063028
  50 C :   -0.178727
  51 N :    0.183619
  52 C :   -0.071076
  53 C :   -0.178038
  54 N :    0.178903
  55 C :   -0.057614
  56 C :    0.037290
  57 C :    0.021896
  58 C :   -0.079323
  59 S :    0.138497
  60 C :   -0.079092
  61 C :    0.029203
  62 C :   -0.000153
  63 C :    0.004218
  64 O :   -0.173776
  65 C :    0.039920
  66 H :    0.038067
  67 H :   -0.000379
  68 H :   -0.004591
  69 H :    0.002947
  70 H :    0.004893
  71 H :   -0.003157
  72 H :    0.006584
  73 H :    0.007677
  74 H :   -0.010999
  75 H :   -0.003089
  76 H :    0.001685
  77 H :   -0.003957
  78 H :   -0.009037
  79 H :   -0.002288
  80 H :   -0.000596
  81 H :    0.049790
  82 H :   -0.008059
  83 H :    0.039870
  84 H :    0.040779
  85 H :    0.036848
Sum of atomic charges:   -0.0000000

LOEWDIN ATOMIC CHARGES
----------------------
   0 C :   -0.177248
   1 S :    0.521619
   2 C :   -0.176023
   3 C :   -0.042771
   4 C :   -0.049340
   5 C :    0.038739
   6 C :   -0.053265
   7 C :   -0.033018
   8 N :   -0.029173
   9 C :   -0.049988
  10 C :   -0.034655
  11 N :   -0.029359
  12 C :    0.026858
  13 C :   -0.037566
  14 C :   -0.049511
  15 C :   -0.164159
  16 S :    0.515349
  17 C :   -0.183576
  18 C :   -0.045181
  19 C :   -0.040815
  20 C :    0.032005
  21 C :   -0.051088
  22 C :   -0.033728
  23 N :   -0.028870
  24 C :   -0.048289
  25 C :   -0.033292
  26 N :   -0.029933
  27 C :    0.017184
  28 C :   -0.188179
  29 S :    0.511623
  30 C :   -0.157875
  31 C :   -0.042009
  32 C :   -0.041766
  33 C :    0.016155
  34 C :   -0.044270
  35 C :   -0.034127
  36 N :   -0.023399
  37 C :   -0.049042
  38 C :   -0.035360
  39 N :   -0.024320
  40 C :    0.031582
  41 C :   -0.058337
  42 C :   -0.031765
  43 C :   -0.175719
  44 S :    0.499243
  45 C :   -0.148441
  46 C :   -0.047559
  47 C :   -0.034494
  48 C :    0.030022
  49 C :   -0.047322
  50 C :   -0.034230
  51 N :   -0.025274
  52 C :   -0.052286
  53 C :   -0.033592
  54 N :   -0.031995
  55 C :    0.032998
  56 C :   -0.064344
  57 C :   -0.014586
  58 C :   -0.175190
  59 S :    0.463637
  60 C :   -0.126419
  61 C :   -0.114519
  62 C :   -0.036262
  63 C :    0.080051
  64 O :   -0.144749
  65 C :   -0.077020
  66 H :    0.032802
  67 H :    0.047103
  68 H :    0.041388
  69 H :    0.032028
  70 H :    0.033698
  71 H :    0.042938
  72 H :    0.024251
  73 H :    0.024979
  74 H :    0.040976
  75 H :    0.024509
  76 H :    0.034013
  77 H :    0.042450
  78 H :    0.040816
  79 H :    0.024652
  80 H :    0.035821
  81 H :    0.036286
  82 H :    0.032154
  83 H :    0.042799
  84 H :    0.042817
  85 H :    0.041754

  Mayer bond orders larger than 0.100000
B(  0-C ,  1-S ) :   1.2221 B(  0-C ,  4-C ) :   1.3950 B(  0-C , 66-H ) :   0.9712
B(  1-S ,  2-C ) :   1.1807 B(  2-C ,  3-C ) :   1.3123 B(  2-C , 13-C ) :   1.1753
B(  3-C ,  4-C ) :   1.2020 B(  3-C , 12-C ) :   1.1940 B(  4-C ,  5-C ) :   1.1595
B(  5-C ,  6-C ) :   1.5722 B(  5-C , 67-H ) :   1.0084 B(  6-C ,  7-C ) :   1.0765
B(  6-C ,  9-C ) :   1.2315 B(  7-C ,  8-N ) :   3.0471 B(  9-C , 10-C ) :   1.0817
B(  9-C , 12-C ) :   1.5664 B( 10-C , 11-N ) :   3.0447 B( 12-C , 68-H ) :   0.9949
B( 13-C , 14-C ) :   1.6318 B( 13-C , 69-H ) :   0.9487 B( 14-C , 15-C ) :   1.1808
B( 14-C , 70-H ) :   0.9445 B( 15-C , 16-S ) :   1.1518 B( 15-C , 19-C ) :   1.3047
B( 16-S , 17-C ) :   1.1537 B( 17-C , 18-C ) :   1.2937 B( 17-C , 28-C ) :   1.2351
B( 18-C , 19-C ) :   1.2061 B( 18-C , 27-C ) :   1.1950 B( 19-C , 20-C ) :   1.2062
B( 20-C , 21-C ) :   1.5468 B( 20-C , 71-H ) :   0.9946 B( 21-C , 22-C ) :   1.0735
B( 21-C , 24-C ) :   1.2592 B( 22-C , 23-N ) :   3.0462 B( 24-C , 25-C ) :   1.0799
B( 24-C , 27-C ) :   1.5695 B( 25-C , 26-N ) :   3.0417 B( 27-C , 72-H ) :   0.9744
B( 28-C , 29-S ) :   1.1451 B( 28-C , 32-C ) :   1.2927 B( 29-S , 30-C ) :   1.1548
B( 30-C , 31-C ) :   1.2843 B( 30-C , 41-C ) :   1.2048 B( 31-C , 32-C ) :   1.2081
B( 31-C , 40-C ) :   1.2135 B( 32-C , 33-C ) :   1.1967 B( 33-C , 34-C ) :   1.5671
B( 33-C , 73-H ) :   0.9751 B( 34-C , 35-C ) :   1.0800 B( 34-C , 37-C ) :   1.2659
B( 35-C , 36-N ) :   3.0425 B( 37-C , 38-C ) :   1.0728 B( 37-C , 40-C ) :   1.5467
B( 38-C , 39-N ) :   3.0474 B( 40-C , 74-H ) :   0.9929 B( 41-C , 42-C ) :   1.5750
B( 41-C , 75-H ) :   0.9420 B( 42-C , 43-C ) :   1.2402 B( 42-C , 76-H ) :   0.9609
B( 43-C , 44-S ) :   1.1268 B( 43-C , 47-C ) :   1.2832 B( 44-S , 45-C ) :   1.1749
B( 45-C , 46-C ) :   1.3067 B( 45-C , 56-C ) :   1.1729 B( 46-C , 47-C ) :   1.2040
B( 46-C , 55-C ) :   1.1983 B( 47-C , 48-C ) :   1.2078 B( 48-C , 49-C ) :   1.5608
B( 48-C , 77-H ) :   0.9955 B( 49-C , 50-C ) :   1.0770 B( 49-C , 52-C ) :   1.2480
B( 50-C , 51-N ) :   3.0431 B( 52-C , 53-C ) :   1.0780 B( 52-C , 55-C ) :   1.5607
B( 53-C , 54-N ) :   3.0455 B( 55-C , 78-H ) :   0.9947 B( 56-C , 57-C ) :   1.6351
B( 56-C , 79-H ) :   0.9419 B( 57-C , 58-C ) :   1.1674 B( 57-C , 80-H ) :   0.9733
B( 58-C , 59-S ) :   1.1136 B( 58-C , 62-C ) :   1.4876 B( 59-S , 60-C ) :   1.2062
B( 60-C , 61-C ) :   1.5266 B( 60-C , 81-H ) :   0.9674 B( 61-C , 62-C ) :   1.2309
B( 61-C , 63-C ) :   0.9141 B( 62-C , 82-H ) :   0.9942 B( 63-C , 64-O ) :   2.2188
B( 63-C , 65-C ) :   1.0729 B( 65-C , 83-H ) :   0.9427 B( 65-C , 84-H ) :   0.9442
B( 65-C , 85-H ) :   0.9479

-----------------------------------------------------------------------------
         ABSORPTION SPECTRUM VIA TRANSITION ELECTRIC DIPOLE MOMENTS
-----------------------------------------------------------------------------
State   Energy  Wavelength   fosc         T2         TX        TY        TZ
        (cm-1)    (nm)                  (au**2)     (au)      (au)      (au)
-----------------------------------------------------------------------------
   0   10227.9    977.7   1.474186379  47.45039  -6.03675  -3.26872  -0.56882
   1   16726.0    597.9   0.086465972   1.70188  -0.47757  -0.20218   1.19705
   2   17729.3    564.0   0.057132119   1.06087  -0.09653  -0.02599  -1.02512
   3   19918.4    502.0   0.254426183   4.20517   1.70218  -0.07897  -1.14084
   4   22247.8    449.5   0.029354074   0.43437  -0.59739  -0.27799   0.01450
   5   23340.8    428.4   0.465622225   6.56740  -1.82069   0.33544   1.77200
   6   25665.6    389.6   0.038543907   0.49440  -0.30344  -0.61143  -0.16875
   7   26580.4    376.2   0.038116470   0.47209  -0.28981  -0.62246   0.02556
   8   27180.0    367.9   0.308276322   3.73393  -1.14986   0.05121   1.55214
   9   27821.6    359.4   0.027437907   0.32467   0.24653   0.38201   0.34346
  10   28167.7    355.0   0.126689177   1.48069   0.35530  -0.68424  -0.94142
  11   29545.0    338.5   0.035377511   0.39420  -0.41216  -0.43449  -0.18853
  12   29692.4    336.8   0.266638874   2.95633   1.57862   0.68128  -0.01152
  13   30151.1    331.7   0.045056897   0.49196  -0.02775  -0.37508  -0.59204
  14   31242.0    320.1   0.028305115   0.29826  -0.41740  -0.27009  -0.22603
  15   31415.9    318.3   0.037464029   0.39259   0.13171  -0.04297  -0.61106
  16   32413.1    308.5   0.017917628   0.18198   0.07945   0.02309  -0.41850
  17   32835.7    304.5   0.234485702   2.35096   0.02100  -1.11489  -1.05240
  18   33280.1    300.5   0.076896151   0.76067  -0.29819   0.33581   0.74765
  19   33638.3    297.3   0.351381802   3.43891  -0.94843  -0.04051   1.59303
  20   33985.5    294.2   0.000045456   0.00044  -0.01010   0.00649   0.01721
  21   34548.5    289.4   0.020622371   0.19651   0.07357  -0.22459  -0.37504
  22   34979.3    285.9   0.045522354   0.42844   0.10953  -0.31613  -0.56259
  23   35243.7    283.7   0.376069814   3.51288   0.35916  -0.18780  -1.82992
  24   35486.8    281.8   0.058434323   0.54210  -0.59301   0.34678   0.26491
  25   35876.6    278.7   0.045541094   0.41790  -0.56873   0.03703  -0.30508
  26   36096.6    277.0   0.074900568   0.68312   0.10881   0.62657   0.52791
  27   36434.3    274.5   0.067248479   0.60764   0.47554   0.46238   0.40953
  28   36639.7    272.9   0.032879899   0.29543  -0.08441  -0.17632   0.50717
  29   37208.6    268.8   0.043918018   0.38857  -0.40608  -0.45183   0.13974
  30   37501.9    266.7   0.100664167   0.88368   0.44574   0.41367   0.71685
  31   37644.9    265.6   0.091444073   0.79970  -0.60502   0.09760   0.65124
  32   37684.5    265.4   0.008691741   0.07593   0.04109   0.01265   0.27218
  33   38104.2    262.4   0.019927536   0.17217  -0.34980  -0.20347  -0.09171
  34   38600.2    259.1   0.015877069   0.13541  -0.29253   0.08099   0.20804
  35   39141.6    255.5   0.017059870   0.14349  -0.10711   0.24902   0.26458
  36   39480.6    253.3   0.011174224   0.09318   0.02470   0.07396   0.29512
  37   39714.3    251.8   0.063637201   0.52752   0.19480  -0.29705  -0.63351
  38   40153.7    249.0   0.203802938   1.67094  -0.04202   0.36010   1.24077
  39   40293.7    248.2   0.024037692   0.19640  -0.12656  -0.42410  -0.02280

FINAL SINGLE POINT ENERGY     -4493.797341274579

DIPOLE MOMENT
-------------
                                X             Y             Z
Electronic contribution:     37.85862      19.93927     -10.40900
Nuclear contribution   :    -37.59687     -20.69108      14.96804
                        -----------------------------------------
Total Dipole Moment    :      0.26175      -0.75181       4.55904
                        -----------------------------------------
Magnitude (a.u.)       :      4.62802
Magnitude (Debye)      :     11.76350

Rotational constants in cm-1:     0.001625     0.000300     0.000260
Rotational constants in MHz :    48.708956     8.995573     7.807078

                             ****ORCA TERMINATED NORMALLY****
TOTAL RUN TIME: 0 days 0 hours 7 minutes 43 seconds 225 msec
