                         Program Version 4.2.0 -  RELEASE  -
|  1> # ORCA input file
|  2> # SCF done       -196.909128595264          0.000262646040
|  3> ! CAM-B3LYP def2-SVP def2/J RIJCOSX Grid4 TightSCF
|  4> %maxcore 5000
|  5> %tddft
|  6>     Mode sTDDFT
|  7>     Ethresh 5.0
|  8>     maxcore 5000
|  9> end
| 10>
| 11> %pal
| 12>   nprocs 6
| 13>   end
| 14> * xyz 0 1
| 15>    C       -1.92046         0.36982         6.51999
| 16>    C       -1.52870         1.64897         6.27234
| 17>    C       -2.44844         2.23599         5.35154
| 18>    O       -2.41044         3.45863         4.83350
| 19>    C       -1.40395         4.35359         5.25708
| 20>    C       -3.45913         1.29812         5.04763
| 21>    C       -3.12793         0.07271         5.78484
| 22>    C       -3.72409        -1.16438         5.80757
| 23>    C       -3.18855        -2.30945         6.49688
| 24>    C       -4.00403        -3.37327         6.26327
| 25>    O       -3.93325        -4.64180         6.66209
| 26>    C       -2.82669        -5.00879         7.45549
| 27>    C       -5.12558        -2.93242         5.42396
| 28>    C       -4.96099        -1.63038         5.15876
| 29>    C       -4.53092         1.49590         4.17536
| 30>    C       -4.80492         2.64544         3.46109
| 31>    C       -5.81405         2.73896         2.50329
| 32>    C       -6.44329         3.91731         2.04888
| 33>    N       -6.08176         5.23606         2.30508
| 34>    O       -6.79701         6.12098         1.85067
| 35>    O       -5.06693         5.46483         2.95796
| 36>    C       -7.59358         3.55679         1.30114
| 37>    C       -7.70151         2.18742         1.26719
| 38>    C       -6.58433         1.62082         1.92555
| 39>    C       -6.17902         0.28774         1.88855
| 40>    C       -4.82934        -0.17284         1.81585
| 41>    C       -4.83920        -1.52171         1.64214
| 42>    C       -6.19318        -1.98785         1.62417
| 43>    N       -6.45038        -3.35238         1.53141
| 44>    O       -7.57928        -3.75684         1.26595
| 45>    O       -5.50717        -4.11416         1.71673
| 46>    C       -7.05429        -0.88315         1.77377
| 47>    C       -8.43427        -0.75815         2.03187
| 48>    C       -9.42818        -1.67528         1.84415
| 49>    C      -10.77611        -1.43048         2.15967
| 50>    S      -11.29501         0.07259         2.93794
| 51>    C      -12.92633        -0.47586         2.93135
| 52>    C      -13.04771        -1.76195         2.34246
| 53>    C      -11.83726        -2.29318         1.91610
| 54>    N      -14.36110        -2.15470         2.36356
| 55>    C      -14.89188        -3.37384         1.82150
| 56>    C      -15.07840        -1.13984         2.93917
| 57>    C      -14.20565        -0.08912         3.31153
| 58>    S      -15.05593         1.20297         4.07427
| 59>    C      -16.57469         0.33305         3.88145
| 60>    C      -16.41315        -0.88968         3.25620
| 61>    C      -17.79960         0.88005         4.34897
| 62>    C      -17.90242         2.02351         5.05992
| 63>    C      -19.11546         2.59331         5.57511
| 64>    C      -19.05130         3.61611         6.53735
| 65>    N      -20.09246         4.17064         7.10261
| 66>    C      -21.32480         3.77949         6.74308
| 67>    C      -21.50396         2.78274         5.76801
| 68>    C      -20.40479         2.19041         5.19421
| 69>    C      -22.39841         4.43611         7.44027
| 70>    C      -23.71644         4.29883         7.17751
| 71>    C      -24.75572         4.95034         7.90548
| 72>    C      -24.63121         6.04147         8.71950
| 73>    C      -25.93465         6.47508         9.14382
| 74>    O      -25.99020         7.49405        10.01971
| 75>    C      -27.23319         7.97788        10.47008
| 76>    C      -26.89825         5.67315         8.56077
| 77>    C      -26.20138         4.68472         7.76446
| 78>    C      -26.77501         3.72306         6.96801
| 79>    C      -26.20315         2.49980         6.49152
| 80>    C      -27.12359         1.87425         5.70062
| 81>    O      -26.92757         0.67419         5.12570
| 82>    C      -27.98364         0.12657         4.36886
| 83>    C      -28.30751         2.72387         5.59691
| 84>    C      -28.11782         3.79897         6.38093
| 85>    C      -28.33065         5.64919         8.83724
| 86>    C      -29.00025         4.55337         9.17335
| 87>    H       -1.41541        -0.31667         7.17061
| 88>    H       -0.66722         2.13736         6.68880
| 89>    H       -1.61441         5.29098         4.74538
| 90>    H       -0.41065         3.99422         4.97311
| 91>    H       -1.44141         4.51008         6.33852
| 92>    H       -2.28141        -2.31214         7.06618
| 93>    H       -2.94579        -6.06808         7.67429
| 94>    H       -2.80834        -4.43833         8.38892
| 95>    H       -1.88889        -4.84697         6.91641
| 96>    H       -5.91266        -3.58588         5.10218
| 97>    H       -5.63814        -1.03136         4.58724
| 98>    H       -5.21945         0.67738         4.06120
| 99>    H       -4.27044         3.55639         3.68875
|100>    H       -8.25247         4.26749         0.83825
|101>    H       -8.43248         1.63488         0.70842
|102>    H       -3.96762         0.46623         1.81226
|103>    H       -3.99317        -2.17007         1.51765
|104>    H       -8.73361         0.20938         2.41963
|105>    H       -9.20256        -2.64189         1.41860
|106>    H      -11.69860        -3.24963         1.44654
|107>    H      -14.13308        -4.15324         1.87501
|108>    H      -15.19260        -3.24484         0.77717
|109>    H      -15.76037        -3.68289         2.40242
|110>    H      -17.23518        -1.55248         3.05478
|111>    H      -18.67946         0.29363         4.12016
|112>    H      -16.99219         2.55734         5.30615
|113>    H      -18.08783         3.98360         6.87107
|114>    H      -22.49595         2.47628         5.47569
|115>    H      -20.53615         1.42578         4.44231
|116>    H      -22.06906         5.07691         8.24519
|117>    H      -24.03377         3.67299         6.35824
|118>    H      -23.72960         6.54848         9.00288
|119>    H      -27.00309         8.69078        11.26140
|120>    H      -27.85497         7.17313        10.87087
|121>    H      -27.76979         8.49375         9.66882
|122>    H      -25.27524         2.07050         6.81022
|123>    H      -27.62898        -0.84092         4.01699
|124>    H      -28.22651         0.75736         3.50818
|125>    H      -28.88047        -0.01615         4.97901
|126>    H      -29.16836         2.51561         4.98928
|127>    H      -28.77394         4.63955         6.48737
|128>    H      -28.85877         6.59291         8.77513
|129>    H      -28.51285         3.59717         9.26043
|130>    H      -30.05912         4.57492         9.36740
|131> *
|132>
|133>                          ****END OF INPUT****

CARTESIAN COORDINATES (ANGSTROEM)
---------------------------------
  C     -1.920460    0.369820    6.519990
  C     -1.528700    1.648970    6.272340
  C     -2.448440    2.235990    5.351540
  O     -2.410440    3.458630    4.833500
  C     -1.403950    4.353590    5.257080
  C     -3.459130    1.298120    5.047630
  C     -3.127930    0.072710    5.784840
  C     -3.724090   -1.164380    5.807570
  C     -3.188550   -2.309450    6.496880
  C     -4.004030   -3.373270    6.263270
  O     -3.933250   -4.641800    6.662090
  C     -2.826690   -5.008790    7.455490
  C     -5.125580   -2.932420    5.423960
  C     -4.960990   -1.630380    5.158760
  C     -4.530920    1.495900    4.175360
  C     -4.804920    2.645440    3.461090
  C     -5.814050    2.738960    2.503290
  C     -6.443290    3.917310    2.048880
  N     -6.081760    5.236060    2.305080
  O     -6.797010    6.120980    1.850670
  O     -5.066930    5.464830    2.957960
  C     -7.593580    3.556790    1.301140
  C     -7.701510    2.187420    1.267190
  C     -6.584330    1.620820    1.925550
  C     -6.179020    0.287740    1.888550
  C     -4.829340   -0.172840    1.815850
  C     -4.839200   -1.521710    1.642140
  C     -6.193180   -1.987850    1.624170
  N     -6.450380   -3.352380    1.531410
  O     -7.579280   -3.756840    1.265950
  O     -5.507170   -4.114160    1.716730
  C     -7.054290   -0.883150    1.773770
  C     -8.434270   -0.758150    2.031870
  C     -9.428180   -1.675280    1.844150
  C    -10.776110   -1.430480    2.159670
  S    -11.295010    0.072590    2.937940
  C    -12.926330   -0.475860    2.931350
  C    -13.047710   -1.761950    2.342460
  C    -11.837260   -2.293180    1.916100
  N    -14.361100   -2.154700    2.363560
  C    -14.891880   -3.373840    1.821500
  C    -15.078400   -1.139840    2.939170
  C    -14.205650   -0.089120    3.311530
  S    -15.055930    1.202970    4.074270
  C    -16.574690    0.333050    3.881450
  C    -16.413150   -0.889680    3.256200
  C    -17.799600    0.880050    4.348970
  C    -17.902420    2.023510    5.059920
  C    -19.115460    2.593310    5.575110
  C    -19.051300    3.616110    6.537350
  N    -20.092460    4.170640    7.102610
  C    -21.324800    3.779490    6.743080
  C    -21.503960    2.782740    5.768010
  C    -20.404790    2.190410    5.194210
  C    -22.398410    4.436110    7.440270
  C    -23.716440    4.298830    7.177510
  C    -24.755720    4.950340    7.905480
  C    -24.631210    6.041470    8.719500
  C    -25.934650    6.475080    9.143820
  O    -25.990200    7.494050   10.019710
  C    -27.233190    7.977880   10.470080
  C    -26.898250    5.673150    8.560770
  C    -26.201380    4.684720    7.764460
  C    -26.775010    3.723060    6.968010
  C    -26.203150    2.499800    6.491520
  C    -27.123590    1.874250    5.700620
  O    -26.927570    0.674190    5.125700
  C    -27.983640    0.126570    4.368860
  C    -28.307510    2.723870    5.596910
  C    -28.117820    3.798970    6.380930
  C    -28.330650    5.649190    8.837240
  C    -29.000250    4.553370    9.173350
  H     -1.415410   -0.316670    7.170610
  H     -0.667220    2.137360    6.688800
  H     -1.614410    5.290980    4.745380
  H     -0.410650    3.994220    4.973110
  H     -1.441410    4.510080    6.338520
  H     -2.281410   -2.312140    7.066180
  H     -2.945790   -6.068080    7.674290
  H     -2.808340   -4.438330    8.388920
  H     -1.888890   -4.846970    6.916410
  H     -5.912660   -3.585880    5.102180
  H     -5.638140   -1.031360    4.587240
  H     -5.219450    0.677380    4.061200
  H     -4.270440    3.556390    3.688750
  H     -8.252470    4.267490    0.838250
  H     -8.432480    1.634880    0.708420
  H     -3.967620    0.466230    1.812260
  H     -3.993170   -2.170070    1.517650
  H     -8.733610    0.209380    2.419630
  H     -9.202560   -2.641890    1.418600
  H    -11.698600   -3.249630    1.446540
  H    -14.133080   -4.153240    1.875010
  H    -15.192600   -3.244840    0.777170
  H    -15.760370   -3.682890    2.402420
  H    -17.235180   -1.552480    3.054780
  H    -18.679460    0.293630    4.120160
  H    -16.992190    2.557340    5.306150
  H    -18.087830    3.983600    6.871070
  H    -22.495950    2.476280    5.475690
  H    -20.536150    1.425780    4.442310
  H    -22.069060    5.076910    8.245190
  H    -24.033770    3.672990    6.358240
  H    -23.729600    6.548480    9.002880
  H    -27.003090    8.690780   11.261400
  H    -27.854970    7.173130   10.870870
  H    -27.769790    8.493750    9.668820
  H    -25.275240    2.070500    6.810220
  H    -27.628980   -0.840920    4.016990
  H    -28.226510    0.757360    3.508180
  H    -28.880470   -0.016150    4.979010
  H    -29.168360    2.515610    4.989280
  H    -28.773940    4.639550    6.487370
  H    -28.858770    6.592910    8.775130
  H    -28.512850    3.597170    9.260430
  H    -30.059120    4.574920    9.367400

 Total Charge           Charge          ....    0
 Multiplicity           Mult            ....    1
 Number of Electrons    NEL             ....  516
 Basis Dimension        Dim             .... 1236

ORBITAL ENERGIES
----------------

  NO   OCC          E(Eh)            E(eV)
   0   2.0000     -88.947270     -2420.3783
   1   2.0000     -88.946608     -2420.3603
   2   2.0000     -19.280906      -524.6601
   3   2.0000     -19.267325      -524.2906
   4   2.0000     -19.248121      -523.7680
   5   2.0000     -19.246184      -523.7153
   6   2.0000     -19.207954      -522.6750
   7   2.0000     -19.204148      -522.5714
   8   2.0000     -19.197000      -522.3769
   9   2.0000     -19.195789      -522.3440
  10   2.0000     -14.615109      -397.6973
  11   2.0000     -14.607153      -397.4808
  12   2.0000     -14.463014      -393.5586
  13   2.0000     -14.384967      -391.4348
  14   2.0000     -10.361036      -281.9381
  15   2.0000     -10.343912      -281.4721
  16   2.0000     -10.340080      -281.3679
  17   2.0000     -10.332280      -281.1556
  18   2.0000     -10.325115      -280.9607
  19   2.0000     -10.324607      -280.9468
  20   2.0000     -10.323288      -280.9110
  21   2.0000     -10.319449      -280.8065
  22   2.0000     -10.318237      -280.7735
  23   2.0000     -10.309953      -280.5481
  24   2.0000     -10.304286      -280.3939
  25   2.0000     -10.302693      -280.3505
  26   2.0000     -10.299317      -280.2587
  27   2.0000     -10.297486      -280.2088
  28   2.0000     -10.296448      -280.1806
  29   2.0000     -10.296020      -280.1690
  30   2.0000     -10.295583      -280.1571
  31   2.0000     -10.294462      -280.1265
  32   2.0000     -10.294182      -280.1189
  33   2.0000     -10.292595      -280.0757
  34   2.0000     -10.292394      -280.0703
  35   2.0000     -10.290951      -280.0310
  36   2.0000     -10.289826      -280.0004
  37   2.0000     -10.289731      -279.9978
  38   2.0000     -10.289565      -279.9933
  39   2.0000     -10.289181      -279.9829
  40   2.0000     -10.287481      -279.9366
  41   2.0000     -10.282173      -279.7921
  42   2.0000     -10.282115      -279.7906
  43   2.0000     -10.279198      -279.7112
  44   2.0000     -10.278827      -279.7011
  45   2.0000     -10.278614      -279.6953
  46   2.0000     -10.277920      -279.6764
  47   2.0000     -10.276532      -279.6386
  48   2.0000     -10.276454      -279.6365
  49   2.0000     -10.276414      -279.6354
  50   2.0000     -10.275886      -279.6211
  51   2.0000     -10.275829      -279.6195
  52   2.0000     -10.272325      -279.5242
  53   2.0000     -10.271550      -279.5031
  54   2.0000     -10.271322      -279.4969
  55   2.0000     -10.267225      -279.3854
  56   2.0000     -10.266506      -279.3658
  57   2.0000     -10.265435      -279.3367
  58   2.0000     -10.265018      -279.3253
  59   2.0000     -10.264865      -279.3212
  60   2.0000     -10.263953      -279.2964
  61   2.0000     -10.262338      -279.2524
  62   2.0000     -10.261469      -279.2288
  63   2.0000     -10.259478      -279.1746
  64   2.0000     -10.257006      -279.1073
  65   2.0000     -10.256773      -279.1010
  66   2.0000     -10.253634      -279.0156
  67   2.0000     -10.252362      -278.9810
  68   2.0000     -10.252350      -278.9806
  69   2.0000     -10.251372      -278.9540
  70   2.0000     -10.249833      -278.9121
  71   2.0000     -10.235603      -278.5249
  72   2.0000      -8.042094      -218.8365
  73   2.0000      -8.041217      -218.8127
  74   2.0000      -6.011751      -163.5881
  75   2.0000      -6.010849      -163.5635
  76   2.0000      -6.007750      -163.4792
  77   2.0000      -6.006859      -163.4549
  78   2.0000      -6.003431      -163.3616
  79   2.0000      -6.002644      -163.3403
  80   2.0000      -1.282094       -34.8876
  81   2.0000      -1.273109       -34.6431
  82   2.0000      -1.186132       -32.2763
  83   2.0000      -1.172252       -31.8986
  84   2.0000      -1.151588       -31.3363
  85   2.0000      -1.148750       -31.2591
  86   2.0000      -1.097133       -29.8545
  87   2.0000      -1.089153       -29.6373
  88   2.0000      -1.089056       -29.6347
  89   2.0000      -1.022584       -27.8259
  90   2.0000      -0.989732       -26.9320
  91   2.0000      -0.985135       -26.8069
  92   2.0000      -0.969193       -26.3731
  93   2.0000      -0.967811       -26.3355
  94   2.0000      -0.967326       -26.3223
  95   2.0000      -0.963988       -26.2314
  96   2.0000      -0.962346       -26.1868
  97   2.0000      -0.943016       -25.6608
  98   2.0000      -0.910592       -24.7785
  99   2.0000      -0.896021       -24.3820
 100   2.0000      -0.893204       -24.3053
 101   2.0000      -0.883926       -24.0529
 102   2.0000      -0.879435       -23.9307
 103   2.0000      -0.870960       -23.7000
 104   2.0000      -0.862400       -23.4671
 105   2.0000      -0.859732       -23.3945
 106   2.0000      -0.851205       -23.1625
 107   2.0000      -0.849680       -23.1210
 108   2.0000      -0.840447       -22.8697
 109   2.0000      -0.838041       -22.8043
 110   2.0000      -0.832072       -22.6418
 111   2.0000      -0.830271       -22.5928
 112   2.0000      -0.823776       -22.4161
 113   2.0000      -0.821687       -22.3592
 114   2.0000      -0.816591       -22.2206
 115   2.0000      -0.813282       -22.1305
 116   2.0000      -0.806037       -21.9334
 117   2.0000      -0.795377       -21.6433
 118   2.0000      -0.791014       -21.5246
 119   2.0000      -0.780043       -21.2260
 120   2.0000      -0.774027       -21.0623
 121   2.0000      -0.760630       -20.6978
 122   2.0000      -0.757142       -20.6029
 123   2.0000      -0.753305       -20.4985
 124   2.0000      -0.747951       -20.3528
 125   2.0000      -0.737203       -20.0603
 126   2.0000      -0.731257       -19.8985
 127   2.0000      -0.713672       -19.4200
 128   2.0000      -0.704569       -19.1723
 129   2.0000      -0.701346       -19.0846
 130   2.0000      -0.697057       -18.9679
 131   2.0000      -0.692320       -18.8390
 132   2.0000      -0.675637       -18.3850
 133   2.0000      -0.672447       -18.2982
 134   2.0000      -0.660066       -17.9613
 135   2.0000      -0.659214       -17.9381
 136   2.0000      -0.651877       -17.7385
 137   2.0000      -0.650134       -17.6910
 138   2.0000      -0.647520       -17.6199
 139   2.0000      -0.642433       -17.4815
 140   2.0000      -0.642157       -17.4740
 141   2.0000      -0.641426       -17.4541
 142   2.0000      -0.632993       -17.2246
 143   2.0000      -0.627518       -17.0756
 144   2.0000      -0.625531       -17.0216
 145   2.0000      -0.616800       -16.7840
 146   2.0000      -0.615051       -16.7364
 147   2.0000      -0.612725       -16.6731
 148   2.0000      -0.607207       -16.5229
 149   2.0000      -0.604623       -16.4526
 150   2.0000      -0.603154       -16.4127
 151   2.0000      -0.596174       -16.2227
 152   2.0000      -0.594646       -16.1811
 153   2.0000      -0.589247       -16.0342
 154   2.0000      -0.588408       -16.0114
 155   2.0000      -0.585303       -15.9269
 156   2.0000      -0.583566       -15.8796
 157   2.0000      -0.581982       -15.8365
 158   2.0000      -0.579908       -15.7801
 159   2.0000      -0.579233       -15.7617
 160   2.0000      -0.577558       -15.7161
 161   2.0000      -0.576092       -15.6763
 162   2.0000      -0.566892       -15.4259
 163   2.0000      -0.563308       -15.3284
 164   2.0000      -0.562197       -15.2982
 165   2.0000      -0.558615       -15.2007
 166   2.0000      -0.554558       -15.0903
 167   2.0000      -0.553996       -15.0750
 168   2.0000      -0.551739       -15.0136
 169   2.0000      -0.548881       -14.9358
 170   2.0000      -0.547423       -14.8961
 171   2.0000      -0.541055       -14.7229
 172   2.0000      -0.538634       -14.6570
 173   2.0000      -0.533976       -14.5302
 174   2.0000      -0.528187       -14.3727
 175   2.0000      -0.527348       -14.3499
 176   2.0000      -0.523018       -14.2320
 177   2.0000      -0.522091       -14.2068
 178   2.0000      -0.518520       -14.1097
 179   2.0000      -0.517498       -14.0818
 180   2.0000      -0.512683       -13.9508
 181   2.0000      -0.508692       -13.8422
 182   2.0000      -0.506014       -13.7693
 183   2.0000      -0.504340       -13.7238
 184   2.0000      -0.502129       -13.6636
 185   2.0000      -0.501289       -13.6408
 186   2.0000      -0.497257       -13.5310
 187   2.0000      -0.495914       -13.4945
 188   2.0000      -0.495086       -13.4720
 189   2.0000      -0.490858       -13.3569
 190   2.0000      -0.490241       -13.3401
 191   2.0000      -0.485881       -13.2215
 192   2.0000      -0.483289       -13.1510
 193   2.0000      -0.482125       -13.1193
 194   2.0000      -0.475420       -12.9368
 195   2.0000      -0.473377       -12.8813
 196   2.0000      -0.473075       -12.8730
 197   2.0000      -0.472035       -12.8447
 198   2.0000      -0.470363       -12.7992
 199   2.0000      -0.468353       -12.7445
 200   2.0000      -0.467578       -12.7234
 201   2.0000      -0.464312       -12.6346
 202   2.0000      -0.463518       -12.6130
 203   2.0000      -0.461934       -12.5699
 204   2.0000      -0.459598       -12.5063
 205   2.0000      -0.459102       -12.4928
 206   2.0000      -0.457701       -12.4547
 207   2.0000      -0.456989       -12.4353
 208   2.0000      -0.454961       -12.3801
 209   2.0000      -0.449606       -12.2344
 210   2.0000      -0.449347       -12.2274
 211   2.0000      -0.445800       -12.1308
 212   2.0000      -0.439688       -11.9645
 213   2.0000      -0.437894       -11.9157
 214   2.0000      -0.435943       -11.8626
 215   2.0000      -0.431962       -11.7543
 216   2.0000      -0.428928       -11.6717
 217   2.0000      -0.428156       -11.6507
 218   2.0000      -0.427211       -11.6250
 219   2.0000      -0.421466       -11.4687
 220   2.0000      -0.419523       -11.4158
 221   2.0000      -0.416985       -11.3467
 222   2.0000      -0.410212       -11.1624
 223   2.0000      -0.409221       -11.1355
 224   2.0000      -0.406125       -11.0512
 225   2.0000      -0.403241       -10.9727
 226   2.0000      -0.402192       -10.9442
 227   2.0000      -0.399170       -10.8620
 228   2.0000      -0.397986       -10.8297
 229   2.0000      -0.393023       -10.6947
 230   2.0000      -0.392839       -10.6897
 231   2.0000      -0.381555       -10.3826
 232   2.0000      -0.379215       -10.3190
 233   2.0000      -0.372142       -10.1265
 234   2.0000      -0.358386        -9.7522
 235   2.0000      -0.358091        -9.7442
 236   2.0000      -0.349573        -9.5124
 237   2.0000      -0.347560        -9.4576
 238   2.0000      -0.344992        -9.3877
 239   2.0000      -0.339649        -9.2423
 240   2.0000      -0.338258        -9.2045
 241   2.0000      -0.330306        -8.9881
 242   2.0000      -0.324743        -8.8367
 243   2.0000      -0.323035        -8.7902
 244   2.0000      -0.319980        -8.7071
 245   2.0000      -0.314312        -8.5529
 246   2.0000      -0.313092        -8.5197
 247   2.0000      -0.310169        -8.4401
 248   2.0000      -0.300455        -8.1758
 249   2.0000      -0.296486        -8.0678
 250   2.0000      -0.285796        -7.7769
 251   2.0000      -0.276336        -7.5195
 252   2.0000      -0.270847        -7.3701
 253   2.0000      -0.264671        -7.2021
 254   2.0000      -0.253818        -6.9067
 255   2.0000      -0.237401        -6.4600
 256   2.0000      -0.226967        -6.1761
 257   2.0000      -0.209019        -5.6877
 258   0.0000      -0.109474        -2.9789
 259   0.0000      -0.084852        -2.3089
 260   0.0000      -0.072086        -1.9616
 261   0.0000      -0.046398        -1.2625
 262   0.0000      -0.027033        -0.7356

MULLIKEN ATOMIC CHARGES
-----------------------
   0 C :    0.018705
   1 C :   -0.051301
   2 C :    0.159315
   3 O :   -0.258872
   4 C :    0.172989
   5 C :    0.036250
   6 C :    0.076965
   7 C :    0.058907
   8 C :   -0.188862
   9 C :    0.225984
  10 O :   -0.265841
  11 C :    0.177592
  12 C :    0.020059
  13 C :    0.032609
  14 C :    0.002870
  15 C :   -0.063938
  16 C :    0.061735
  17 C :    0.054875
  18 N :    0.283288
  19 O :   -0.282944
  20 O :   -0.287710
  21 C :    0.023022
  22 C :   -0.035288
  23 C :    0.037931
  24 C :   -0.033831
  25 C :   -0.020958
  26 C :    0.021302
  27 C :    0.028391
  28 N :    0.282275
  29 O :   -0.278569
  30 O :   -0.277366
  31 C :    0.109961
  32 C :   -0.121453
  33 C :    0.027347
  34 C :   -0.047591
  35 S :    0.119254
  36 C :   -0.108030
  37 C :    0.168308
  38 C :   -0.089355
  39 N :   -0.169851
  40 C :    0.125031
  41 C :    0.166872
  42 C :   -0.118580
  43 S :    0.126218
  44 C :   -0.042114
  45 C :   -0.100406
  46 C :    0.025012
  47 C :   -0.008680
  48 C :    0.056872
  49 C :   -0.016097
  50 N :   -0.053747
  51 C :   -0.000331
  52 C :   -0.007834
  53 C :    0.025732
  54 C :    0.035812
  55 C :   -0.000047
  56 C :    0.100643
  57 C :   -0.082069
  58 C :    0.163315
  59 O :   -0.286242
  60 C :    0.174362
  61 C :   -0.064658
  62 C :    0.091728
  63 C :   -0.046784
  64 C :   -0.125721
  65 C :    0.223020
  66 O :   -0.285099
  67 C :    0.178380
  68 C :   -0.076940
  69 C :    0.043514
  70 C :   -0.083614
  71 C :   -0.003913
  72 H :   -0.010345
  73 H :   -0.018714
  74 H :    0.066096
  75 H :    0.033649
  76 H :    0.035864
  77 H :   -0.039559
  78 H :    0.045915
  79 H :    0.028255
  80 H :    0.030595
  81 H :   -0.001516
  82 H :   -0.010039
  83 H :   -0.017186
  84 H :    0.024913
  85 H :   -0.002158
  86 H :   -0.012846
  87 H :   -0.012315
  88 H :   -0.014963
  89 H :    0.004963
  90 H :    0.015825
  91 H :   -0.018727
  92 H :    0.042444
  93 H :    0.042432
  94 H :    0.038724
  95 H :   -0.031256
  96 H :   -0.018885
  97 H :   -0.007274
  98 H :   -0.010382
  99 H :   -0.020849
 100 H :   -0.020810
 101 H :   -0.022229
 102 H :   -0.010126
 103 H :   -0.021587
 104 H :    0.034444
 105 H :    0.041527
 106 H :    0.026643
 107 H :   -0.027883
 108 H :    0.038507
 109 H :    0.025724
 110 H :    0.025912
 111 H :   -0.028648
 112 H :   -0.010890
 113 H :   -0.003820
 114 H :    0.026783
 115 H :    0.011983
Sum of atomic charges:   -0.0000000

LOEWDIN ATOMIC CHARGES
----------------------
   0 C :    0.027958
   1 C :   -0.063965
   2 C :    0.095322
   3 O :   -0.040516
   4 C :    0.086728
   5 C :   -0.094984
   6 C :   -0.010077
   7 C :    0.058375
   8 C :   -0.145540
   9 C :    0.072386
  10 O :   -0.063233
  11 C :    0.084282
  12 C :    0.006657
  13 C :   -0.014985
  14 C :    0.053215
  15 C :   -0.032922
  16 C :    0.031959
  17 C :   -0.106385
  18 N :    0.288971
  19 O :   -0.247131
  20 O :   -0.253113
  21 C :    0.043921
  22 C :   -0.079706
  23 C :    0.035663
  24 C :    0.005914
  25 C :   -0.059729
  26 C :   -0.012302
  27 C :   -0.077279
  28 N :    0.289060
  29 O :   -0.238130
  30 O :   -0.241692
  31 C :   -0.000368
  32 C :   -0.054470
  33 C :   -0.002966
  34 C :   -0.159822
  35 S :    0.409217
  36 C :   -0.209852
  37 C :   -0.020994
  38 C :   -0.056205
  39 N :    0.026977
  40 C :    0.040012
  41 C :   -0.012815
  42 C :   -0.222886
  43 S :    0.411321
  44 C :   -0.149440
  45 C :   -0.079978
  46 C :   -0.040210
  47 C :   -0.025583
  48 C :   -0.055465
  49 C :    0.020061
  50 N :   -0.073099
  51 C :    0.009637
  52 C :   -0.031333
  53 C :    0.009357
  54 C :   -0.022940
  55 C :   -0.012233
  56 C :   -0.026128
  57 C :   -0.015590
  58 C :    0.060840
  59 O :   -0.084377
  60 C :    0.080123
  61 C :   -0.123381
  62 C :    0.036395
  63 C :    0.011873
  64 C :   -0.123874
  65 C :    0.061816
  66 O :   -0.086882
  67 C :    0.078517
  68 C :   -0.064103
  69 C :   -0.000130
  70 C :   -0.031222
  71 C :   -0.048044
  72 H :    0.029341
  73 H :    0.028198
  74 H :    0.041260
  75 H :    0.021845
  76 H :    0.022842
  77 H :    0.016233
  78 H :    0.031838
  79 H :    0.019594
  80 H :    0.020785
  81 H :    0.036169
  82 H :    0.028041
  83 H :    0.032280
  84 H :    0.033017
  85 H :    0.036261
  86 H :    0.026474
  87 H :    0.026509
  88 H :    0.029901
  89 H :    0.023496
  90 H :    0.033944
  91 H :    0.034030
  92 H :    0.035613
  93 H :    0.029071
  94 H :    0.033619
  95 H :    0.028287
  96 H :    0.030401
  97 H :    0.023350
  98 H :    0.018726
  99 H :    0.029629
 100 H :    0.027812
 101 H :    0.030295
 102 H :    0.027999
 103 H :    0.027452
 104 H :    0.028035
 105 H :    0.022685
 106 H :    0.016572
 107 H :    0.021755
 108 H :    0.029019
 109 H :    0.016532
 110 H :    0.017042
 111 H :    0.021433
 112 H :    0.025690
 113 H :    0.023363
 114 H :    0.023817
 115 H :    0.019263

  Mayer bond orders larger than 0.100000
B(  0-C ,  1-C ) :   1.5393 B(  0-C ,  6-C ) :   1.1106 B(  0-C , 72-H ) :   1.0068
B(  1-C ,  2-C ) :   1.1216 B(  1-C , 73-H ) :   1.0147 B(  2-C ,  3-O ) :   1.2379
B(  2-C ,  5-C ) :   1.3453 B(  3-O ,  4-C ) :   0.9265 B(  4-C , 74-H ) :   0.9795
B(  4-C , 75-H ) :   0.9726 B(  4-C , 76-H ) :   0.9716 B(  5-C ,  6-C ) :   1.0568
B(  5-C , 14-C ) :   1.2853 B(  6-C ,  7-C ) :   1.5392 B(  7-C ,  8-C ) :   1.0955
B(  7-C , 13-C ) :   1.0247 B(  8-C ,  9-C ) :   1.5249 B(  8-C , 77-H ) :   1.0169
B(  9-C , 10-O ) :   1.2156 B(  9-C , 12-C ) :   1.0576 B( 10-O , 11-C ) :   0.9481
B( 11-C , 78-H ) :   0.9809 B( 11-C , 79-H ) :   0.9691 B( 11-C , 80-H ) :   0.9701
B( 12-C , 13-C ) :   1.7210 B( 12-C , 81-H ) :   1.0108 B( 13-C , 82-H ) :   1.0062
B( 14-C , 15-C ) :   1.3740 B( 14-C , 83-H ) :   0.9521 B( 15-C , 16-C ) :   1.3193
B( 15-C , 84-H ) :   0.9529 B( 16-C , 17-C ) :   1.3355 B( 16-C , 23-C ) :   1.0084
B( 17-C , 18-N ) :   0.9987 B( 17-C , 21-C ) :   1.2046 B( 18-N , 19-O ) :   1.5074
B( 18-N , 20-O ) :   1.4719 B( 19-O , 20-O ) :   0.2318 B( 21-C , 22-C ) :   1.4450
B( 21-C , 85-H ) :   1.0093 B( 22-C , 23-C ) :   1.2377 B( 22-C , 86-H ) :   1.0094
B( 23-C , 24-C ) :   1.3693 B( 24-C , 25-C ) :   1.1652 B( 24-C , 31-C ) :   1.0768
B( 25-C , 26-C ) :   1.5382 B( 25-C , 87-H ) :   0.9957 B( 26-C , 27-C ) :   1.1722
B( 26-C , 88-H ) :   1.0082 B( 27-C , 28-N ) :   0.9956 B( 27-C , 31-C ) :   1.3797
B( 28-N , 29-O ) :   1.4470 B( 28-N , 30-O ) :   1.5105 B( 29-O , 30-O ) :   0.2327
B( 31-C , 32-C ) :   1.2018 B( 32-C , 33-C ) :   1.5521 B( 32-C , 89-H ) :   0.9509
B( 33-C , 34-C ) :   1.1921 B( 33-C , 90-H ) :   0.9605 B( 34-C , 35-S ) :   1.0651
B( 34-C , 38-C ) :   1.4097 B( 35-S , 36-C ) :   1.0396 B( 36-C , 37-C ) :   1.3599
B( 36-C , 42-C ) :   1.4197 B( 37-C , 38-C ) :   1.2270 B( 37-C , 39-N ) :   1.1396
B( 38-C , 91-H ) :   1.0237 B( 39-N , 40-C ) :   0.9717 B( 39-N , 41-C ) :   1.1533
B( 40-C , 92-H ) :   0.9723 B( 40-C , 93-H ) :   0.9735 B( 40-C , 94-H ) :   0.9719
B( 41-C , 42-C ) :   1.3804 B( 41-C , 45-C ) :   1.2068 B( 42-C , 43-S ) :   1.0253
B( 43-S , 44-C ) :   1.0906 B( 44-C , 45-C ) :   1.4551 B( 44-C , 46-C ) :   1.1661
B( 45-C , 95-H ) :   1.0205 B( 46-C , 47-C ) :   1.6665 B( 46-C , 96-H ) :   0.9709
B( 47-C , 48-C ) :   1.0860 B( 47-C , 97-H ) :   0.9744 B( 48-C , 49-C ) :   1.2956
B( 48-C , 53-C ) :   1.3366 B( 49-C , 50-N ) :   1.5917 B( 49-C , 98-H ) :   0.9859
B( 50-N , 51-C ) :   1.4853 B( 51-C , 52-C ) :   1.3201 B( 51-C , 54-C ) :   1.0705
B( 52-C , 53-C ) :   1.4599 B( 52-C , 99-H ) :   0.9724 B( 53-C ,100-H ) :   0.9812
B( 54-C , 55-C ) :   1.6697 B( 54-C ,101-H ) :   0.9815 B( 55-C , 56-C ) :   1.1009
B( 55-C ,102-H ) :   0.9575 B( 56-C , 57-C ) :   1.5659 B( 56-C , 62-C ) :   1.0431
B( 57-C , 58-C ) :   1.1056 B( 57-C ,103-H ) :   1.0179 B( 58-C , 59-O ) :   1.1991
B( 58-C , 61-C ) :   1.5006 B( 59-O , 60-C ) :   0.9463 B( 60-C ,104-H ) :   0.9767
B( 60-C ,105-H ) :   0.9648 B( 60-C ,106-H ) :   0.9721 B( 61-C , 62-C ) :   1.1052
B( 61-C , 70-C ) :   1.0237 B( 62-C , 63-C ) :   1.5266 B( 63-C , 64-C ) :   1.0976
B( 63-C , 69-C ) :   1.0600 B( 64-C , 65-C ) :   1.5693 B( 64-C ,107-H ) :   1.0192
B( 65-C , 66-O ) :   1.1752 B( 65-C , 68-C ) :   1.0371 B( 66-O , 67-C ) :   0.9577
B( 67-C ,108-H ) :   0.9816 B( 67-C ,109-H ) :   0.9711 B( 67-C ,110-H ) :   0.9715
B( 68-C , 69-C ) :   1.6667 B( 68-C ,111-H ) :   1.0088 B( 69-C ,112-H ) :   0.9986
B( 70-C , 71-C ) :   1.9757 B( 70-C ,113-H ) :   0.9475 B( 71-C ,114-H ) :   0.9544
B( 71-C ,115-H ) :   0.9524

-----------------------------------------------------------------------------
         ABSORPTION SPECTRUM VIA TRANSITION ELECTRIC DIPOLE MOMENTS
-----------------------------------------------------------------------------
State   Energy  Wavelength   fosc         T2         TX        TY        TZ
        (cm-1)    (nm)                  (au**2)     (au)      (au)      (au)
-----------------------------------------------------------------------------
   0    6380.5   1567.3   0.273433287  14.10832   3.67930   0.42717   0.62338
   1   10673.2    936.9   0.077389815   2.38707  -0.77528   0.35526   1.28833
   2   12383.4    807.5   0.024840217   0.66038  -0.36889  -0.03118   0.72341
   3   14025.9    713.0   0.216705777   5.08644   2.25388  -0.03588  -0.07185
   4   16943.5    590.2   0.021972827   0.42693   0.61808  -0.08390  -0.19460
   5   17151.6    583.0   0.327693040   6.28981  -2.33177   0.65931   0.64651
   6   19007.4    526.1   0.111332238   1.92830   0.94787   0.94640  -0.36629
   7   20075.4    498.1   0.510274681   8.36790  -2.16359   1.03892   1.61475
   8   20413.7    489.9   0.518883742   8.36805   2.80437   0.04676  -0.70809
   9   20868.7    479.2   0.033871453   0.53433  -0.10473  -0.63488  -0.34684
  10   21266.3    470.2   0.047629555   0.73733   0.45687  -0.45373  -0.56809
  11   21378.6    467.8   0.143128286   2.20405  -0.95482   1.01653  -0.50894
  12   22681.3    440.9   0.033332935   0.48382   0.00599  -0.69013   0.08659
  13   23820.7    419.8   0.129833413   1.79435   1.12143  -0.72283  -0.11937
  14   24107.0    414.8   0.012616878   0.17230  -0.18445  -0.37185   0.00256
  15   24811.1    403.0   0.241999653   3.21103   1.47788  -0.20084   0.99326
  16   25404.1    393.6   0.781271213  10.12448  -2.40393   1.91615   0.82097
  17   25818.4    387.3   0.014646652   0.18676  -0.03426   0.42452   0.07325
  18   26422.6    378.5   0.085919952   1.07052  -0.12816   0.98600  -0.28617
  19   26641.0    375.4   0.150063137   1.85438   0.40652  -1.27823   0.23504
  20   26972.4    370.7   0.013747546   0.16780   0.14929  -0.31687   0.21237
  21   27071.1    369.4   0.022467564   0.27323   0.19964  -0.26190  -0.40593
  22   27513.5    363.5   0.018056551   0.21606  -0.25624   0.31874  -0.22091
  23   27779.6    360.0   0.128175221   1.51898   0.37562  -0.56855  -1.02696
  24   28346.5    352.8   0.137366187   1.59535  -0.30073   1.21022   0.20068
  25   28848.0    346.6   0.007784716   0.08884   0.20919  -0.19364  -0.08707
  26   29268.6    341.7   0.236137322   2.65606   0.25176  -1.60327   0.14901
  27   29529.0    338.6   0.010219197   0.11393   0.00020  -0.31609   0.11840
  28   29903.6    334.4   0.208083260   2.29081  -0.27191   1.40014   0.50644
  29   30249.7    330.6   0.546820627   5.95113   0.70272  -2.17870   0.84295
  30   30971.6    322.9   0.059879938   0.63649  -0.24255  -0.15803  -0.74343
  31   31303.1    319.5   0.138062313   1.45199  -0.13916  -1.04243  -0.58819
  32   31582.1    316.6   0.175424102   1.82862   0.64359   0.77364   0.90327
  33   31693.1    315.5   0.070790572   0.73534  -0.08722   0.85305   0.00547
  34   31990.4    312.6   0.003854810   0.03967  -0.14439  -0.07521  -0.11473
  35   32083.8    311.7   0.024372510   0.25009  -0.36938  -0.06028  -0.33167
  36   32122.4    311.3   0.107342329   1.10011  -0.11588   1.03841   0.09158
  37   32372.9    308.9   0.201786600   2.05204   0.02821   1.34405   0.49474
  38   32666.3    306.1   0.013817637   0.13925   0.09684   0.29678   0.20444
  39   33077.0    302.3   0.006857799   0.06825  -0.03055   0.15130  -0.21078
  40   33243.1    300.8   0.003613805   0.03579  -0.01359  -0.18759  -0.02031
  41   33260.3    300.7   0.027759137   0.27476  -0.04000   0.45590   0.25557
  42   33302.4    300.3   0.006559229   0.06484  -0.03407  -0.24347  -0.06636
  43   33738.5    296.4   0.386816874   3.77446   0.44736   1.89059  -0.00328
  44   33867.0    295.3   0.328550450   3.19375  -1.40366  -1.08595  -0.21025
  45   34375.3    290.9   0.045318148   0.43401  -0.08391  -0.53925  -0.36903
  46   34450.7    290.3   0.071493181   0.68319   0.19126  -0.63147  -0.49785
  47   34666.5    288.5   0.019700724   0.18709  -0.19630  -0.38213  -0.05033
  48   35301.3    283.3   0.111759734   1.04224   0.97275   0.03621  -0.30772
  49   35383.1    282.6   0.017556422   0.16335  -0.38912  -0.09368   0.05623
  50   35801.1    279.3   0.003459194   0.03181  -0.09879  -0.08870   0.11909
  51   35897.0    278.6   0.000574921   0.00527   0.06585  -0.01594   0.02611
  52   36016.1    277.7   0.017642922   0.16127  -0.17697   0.15706   0.32447
  53   36148.8    276.6   0.011417121   0.10398   0.01715  -0.26112  -0.18841
  54   36256.4    275.8   0.009008053   0.08179  -0.10037  -0.25624  -0.07784
  55   36464.6    274.2   0.004552087   0.04110  -0.14311  -0.11376  -0.08760
  56   36897.2    271.0   0.002267523   0.02023   0.09626   0.08261   0.06435
  57   37166.6    269.1   0.115136409   1.01985   0.93446   0.16007   0.34787
  58   37458.9    267.0   0.041277855   0.36278  -0.43225  -0.38071   0.17606
  59   38159.5    262.1   0.001473082   0.01271  -0.04098  -0.10458  -0.00958
  60   38321.8    260.9   0.027833117   0.23911   0.48057  -0.06252   0.06523
  61   38551.0    259.4   0.050237558   0.42901   0.64001  -0.01673   0.13826
  62   38685.3    258.5   0.012669607   0.10782   0.13231  -0.06635   0.29310
  63   39038.1    256.2   0.036779555   0.31017   0.25030   0.49061   0.08256
  64   39195.7    255.1   0.004398269   0.03694   0.11172   0.09026   0.12773
  65   39319.0    254.3   0.006611107   0.05535  -0.15886  -0.14532  -0.09486
  66   39623.9    252.4   0.086736287   0.72064   0.15610   0.81135   0.19490
  67   39708.7    251.8   0.001299234   0.01077   0.07491   0.06430   0.03203
  68   39900.4    250.6   0.035880262   0.29604  -0.32637  -0.36156  -0.24249
  69   40067.7    249.6   0.038210059   0.31395  -0.10117  -0.51467  -0.19704
  70   40197.8    248.8   0.013478987   0.11039  -0.17372  -0.27478  -0.06861
  71   40323.3    248.0   0.028120873   0.22959  -0.01643  -0.45901  -0.13648

FINAL SINGLE POINT ENERGY     -3849.243417103376

DIPOLE MOMENT
-------------
                                X             Y             Z
Electronic contribution:     60.88695      -2.06758     -26.34581
Nuclear contribution   :    -61.76735      -0.08453      28.19748
                        -----------------------------------------
Total Dipole Moment    :     -0.88040      -2.15212       1.85168
                        -----------------------------------------
Magnitude (a.u.)       :      2.97244
Magnitude (Debye)      :      7.55534

Rotational constants in cm-1:     0.001510     0.000190     0.000181
Rotational constants in MHz :    45.261763     5.707898     5.435119

                             ****ORCA TERMINATED NORMALLY****
TOTAL RUN TIME: 0 days 0 hours 12 minutes 30 seconds 446 msec
