                         Program Version 4.2.0 -  RELEASE  -
|  1> # ORCA input file
|  2> # SCF done       -183.869466714250          0.000895360048
|  3> ! CAM-B3LYP def2-SVP def2/J RIJCOSX Grid4 TightSCF
|  4> %maxcore 5000
|  5> %tddft
|  6>     Mode sTDDFT
|  7>     Ethresh 5.0
|  8>     maxcore 5000
|  9> end
| 10>
| 11> %pal
| 12>   nprocs 6
| 13>   end
| 14> * xyz 0 1
| 15>    C       -1.93476         0.06092        -2.66760
| 16>    S       -2.86027        -1.29827        -3.09111
| 17>    C       -1.61345        -1.95551        -4.11733
| 18>    C       -0.51855        -1.10394        -4.12519
| 19>    C       -0.69690         0.05073        -3.28260
| 20>    N        0.26492         0.98365        -3.14186
| 21>    C        1.35570         0.79036        -3.82222
| 22>    N        1.58843        -0.17460        -4.72513
| 23>    C        0.68041        -1.10186        -4.89325
| 24>    C        0.85715        -2.06510        -5.92394
| 25>    N        0.91964        -2.84112        -6.76401
| 26>    C       -1.80443        -3.22107        -4.75152
| 27>    C       -0.98027        -4.33468        -4.74234
| 28>    N        0.26016        -4.48681        -4.10200
| 29>    O        0.73988        -5.60379        -4.06574
| 30>    O        0.77005        -3.50198        -3.58580
| 31>    C       -1.66019        -5.43249        -5.38309
| 32>    C       -2.90285        -5.02650        -5.73817
| 33>    C       -3.05249        -3.63727        -5.39191
| 34>    C       -4.08351        -2.79187        -5.76121
| 35>    C       -3.96353        -1.40809        -6.08689
| 36>    C       -5.12334        -0.98728        -6.67302
| 37>    C       -6.05788        -2.06419        -6.67282
| 38>    N       -7.39170        -1.92137        -7.09511
| 39>    O       -8.18688        -2.80748        -6.82836
| 40>    O       -7.67809        -0.90062        -7.69666
| 41>    C       -5.46161        -3.19459        -6.10526
| 42>    C       -6.08017        -4.41961        -5.81938
| 43>    C       -5.69284        -5.26920        -4.81186
| 44>    C       -6.28439        -6.52112        -4.60333
| 45>    N       -6.05516        -7.31558        -3.50108
| 46>    C       -5.23405        -6.97920        -2.36148
| 47>    C       -5.91630        -5.96972        -1.44281
| 48>    C       -6.77073        -8.51347        -3.55792
| 49>    O       -6.74098        -9.36610        -2.68863
| 50>    C       -7.47539        -8.45611        -4.82493
| 51>    C       -7.16274        -7.23532        -5.43837
| 52>    C       -7.81156        -7.20125        -6.73814
| 53>    O       -7.79573        -6.38681        -7.63160
| 54>    N       -8.50364        -8.42577        -6.80826
| 55>    C       -9.33766        -8.74611        -7.94213
| 56>    C      -10.81443        -8.50547        -7.64114
| 57>    C       -8.31812        -9.19182        -5.68627
| 58>    C       -8.85388       -10.47213        -5.49283
| 59>    C       -8.61576       -11.17679        -4.33893
| 60>    C       -9.07692       -12.46336        -4.06548
| 61>    S      -10.02529       -13.40469        -5.18457
| 62>    C      -10.11033       -14.75249        -4.10201
| 63>    C       -9.43329       -14.48602        -2.89059
| 64>    C       -8.84236       -13.18772        -2.87321
| 65>    C       -8.12312       -12.75193        -1.75247
| 66>    C       -8.00142       -13.58838        -0.66312
| 67>    C       -7.28474       -13.16766         0.48255
| 68>    N       -6.71263       -12.82292         1.41263
| 69>    C       -8.59724       -14.88193        -0.67463
| 70>    C       -8.46741       -15.72284         0.45612
| 71>    N       -8.37800       -16.41990         1.36051
| 72>    C       -9.30044       -15.32413        -1.77504
| 73>    C      -10.79288       -15.90355        -4.52535
| 74>    S      -10.99167       -17.38638        -3.64551
| 75>    C      -11.87707       -18.13622        -4.90217
| 76>    C      -12.03509       -17.29942        -5.98152
| 77>    C      -11.41993       -16.01745        -5.77857
| 78>    N      -11.45032       -15.04781        -6.69717
| 79>    C      -12.07949       -15.32658        -7.81089
| 80>    N      -12.68633       -16.47479        -8.12193
| 81>    C      -12.67675       -17.45222        -7.24569
| 82>    C      -13.31295       -18.68169        -7.56222
| 83>    N      -13.80798       -19.69482        -7.76207
| 84>    H       -2.30665         0.78664        -1.97347
| 85>    H        2.15610         1.50524        -3.68917
| 86>    H       -1.20918        -6.39424        -5.53321
| 87>    H       -3.62664        -5.59195        -6.29108
| 88>    H       -3.05910        -0.83664        -6.00683
| 89>    H       -5.33575        -0.01374        -7.07306
| 90>    H       -6.96823        -4.65677        -6.39482
| 91>    H       -4.92648        -4.95095        -4.11885
| 92>    H       -4.26905        -6.60024        -2.71060
| 93>    H       -5.06851        -7.91509        -1.82097
| 94>    H       -6.12970        -5.04186        -1.96884
| 95>    H       -5.27103        -5.75232        -0.59657
| 96>    H       -6.85163        -6.37856        -1.06872
| 97>    H       -9.16282        -9.78295        -8.24209
| 98>    H       -9.01566        -8.08444        -8.75081
| 99>    H      -11.15208        -9.12741        -6.81489
|100>    H      -11.40985        -8.73629        -8.51972
|101>    H      -10.97393        -7.46251        -7.37924
|102>    H       -9.45844       -10.91365        -6.27252
|103>    H       -8.01450       -10.70777        -3.57165
|104>    H       -7.66520       -11.77474        -1.73363
|105>    H       -9.74167       -16.30799        -1.76034
|106>    H      -12.23076       -19.14076        -4.78331
|107>    H      -12.11727       -14.55381        -8.56542
|108> *
|109>
|110>                          ****END OF INPUT****

CARTESIAN COORDINATES (ANGSTROEM)
---------------------------------
  C     -1.934760    0.060920   -2.667600
  S     -2.860270   -1.298270   -3.091110
  C     -1.613450   -1.955510   -4.117330
  C     -0.518550   -1.103940   -4.125190
  C     -0.696900    0.050730   -3.282600
  N      0.264920    0.983650   -3.141860
  C      1.355700    0.790360   -3.822220
  N      1.588430   -0.174600   -4.725130
  C      0.680410   -1.101860   -4.893250
  C      0.857150   -2.065100   -5.923940
  N      0.919640   -2.841120   -6.764010
  C     -1.804430   -3.221070   -4.751520
  C     -0.980270   -4.334680   -4.742340
  N      0.260160   -4.486810   -4.102000
  O      0.739880   -5.603790   -4.065740
  O      0.770050   -3.501980   -3.585800
  C     -1.660190   -5.432490   -5.383090
  C     -2.902850   -5.026500   -5.738170
  C     -3.052490   -3.637270   -5.391910
  C     -4.083510   -2.791870   -5.761210
  C     -3.963530   -1.408090   -6.086890
  C     -5.123340   -0.987280   -6.673020
  C     -6.057880   -2.064190   -6.672820
  N     -7.391700   -1.921370   -7.095110
  O     -8.186880   -2.807480   -6.828360
  O     -7.678090   -0.900620   -7.696660
  C     -5.461610   -3.194590   -6.105260
  C     -6.080170   -4.419610   -5.819380
  C     -5.692840   -5.269200   -4.811860
  C     -6.284390   -6.521120   -4.603330
  N     -6.055160   -7.315580   -3.501080
  C     -5.234050   -6.979200   -2.361480
  C     -5.916300   -5.969720   -1.442810
  C     -6.770730   -8.513470   -3.557920
  O     -6.740980   -9.366100   -2.688630
  C     -7.475390   -8.456110   -4.824930
  C     -7.162740   -7.235320   -5.438370
  C     -7.811560   -7.201250   -6.738140
  O     -7.795730   -6.386810   -7.631600
  N     -8.503640   -8.425770   -6.808260
  C     -9.337660   -8.746110   -7.942130
  C    -10.814430   -8.505470   -7.641140
  C     -8.318120   -9.191820   -5.686270
  C     -8.853880  -10.472130   -5.492830
  C     -8.615760  -11.176790   -4.338930
  C     -9.076920  -12.463360   -4.065480
  S    -10.025290  -13.404690   -5.184570
  C    -10.110330  -14.752490   -4.102010
  C     -9.433290  -14.486020   -2.890590
  C     -8.842360  -13.187720   -2.873210
  C     -8.123120  -12.751930   -1.752470
  C     -8.001420  -13.588380   -0.663120
  C     -7.284740  -13.167660    0.482550
  N     -6.712630  -12.822920    1.412630
  C     -8.597240  -14.881930   -0.674630
  C     -8.467410  -15.722840    0.456120
  N     -8.378000  -16.419900    1.360510
  C     -9.300440  -15.324130   -1.775040
  C    -10.792880  -15.903550   -4.525350
  S    -10.991670  -17.386380   -3.645510
  C    -11.877070  -18.136220   -4.902170
  C    -12.035090  -17.299420   -5.981520
  C    -11.419930  -16.017450   -5.778570
  N    -11.450320  -15.047810   -6.697170
  C    -12.079490  -15.326580   -7.810890
  N    -12.686330  -16.474790   -8.121930
  C    -12.676750  -17.452220   -7.245690
  C    -13.312950  -18.681690   -7.562220
  N    -13.807980  -19.694820   -7.762070
  H     -2.306650    0.786640   -1.973470
  H      2.156100    1.505240   -3.689170
  H     -1.209180   -6.394240   -5.533210
  H     -3.626640   -5.591950   -6.291080
  H     -3.059100   -0.836640   -6.006830
  H     -5.335750   -0.013740   -7.073060
  H     -6.968230   -4.656770   -6.394820
  H     -4.926480   -4.950950   -4.118850
  H     -4.269050   -6.600240   -2.710600
  H     -5.068510   -7.915090   -1.820970
  H     -6.129700   -5.041860   -1.968840
  H     -5.271030   -5.752320   -0.596570
  H     -6.851630   -6.378560   -1.068720
  H     -9.162820   -9.782950   -8.242090
  H     -9.015660   -8.084440   -8.750810
  H    -11.152080   -9.127410   -6.814890
  H    -11.409850   -8.736290   -8.519720
  H    -10.973930   -7.462510   -7.379240
  H     -9.458440  -10.913650   -6.272520
  H     -8.014500  -10.707770   -3.571650
  H     -7.665200  -11.774740   -1.733630
  H     -9.741670  -16.307990   -1.760340
  H    -12.230760  -19.140760   -4.783310
  H    -12.117270  -14.553810   -8.565420

 Total Charge           Charge          ....    0
 Multiplicity           Mult            ....    1
 Number of Electrons    NEL             ....  492
 Basis Dimension        Dim             .... 1098

ORBITAL ENERGIES
----------------

  NO   OCC          E(Eh)            E(eV)
   0   2.0000     -89.026662     -2422.5386
   1   2.0000     -89.003871     -2421.9185
   2   2.0000     -89.003049     -2421.8961
   3   2.0000     -19.244016      -523.6563
   4   2.0000     -19.241343      -523.5836
   5   2.0000     -19.232707      -523.3486
   6   2.0000     -19.232633      -523.3466
   7   2.0000     -19.213494      -522.8257
   8   2.0000     -19.206396      -522.6326
   9   2.0000     -14.650652      -398.6645
  10   2.0000     -14.642263      -398.4362
  11   2.0000     -14.472617      -393.8199
  12   2.0000     -14.468186      -393.6994
  13   2.0000     -14.460136      -393.4803
  14   2.0000     -14.459763      -393.4702
  15   2.0000     -14.447961      -393.1490
  16   2.0000     -14.432806      -392.7366
  17   2.0000     -14.425513      -392.5382
  18   2.0000     -14.421938      -392.4409
  19   2.0000     -14.421727      -392.4351
  20   2.0000     -14.418116      -392.3369
  21   2.0000     -10.401995      -283.0527
  22   2.0000     -10.394708      -282.8544
  23   2.0000     -10.389755      -282.7196
  24   2.0000     -10.378687      -282.4184
  25   2.0000     -10.373194      -282.2690
  26   2.0000     -10.362913      -281.9892
  27   2.0000     -10.359718      -281.9022
  28   2.0000     -10.359469      -281.8955
  29   2.0000     -10.357396      -281.8391
  30   2.0000     -10.352220      -281.6982
  31   2.0000     -10.349305      -281.6189
  32   2.0000     -10.348031      -281.5842
  33   2.0000     -10.346514      -281.5429
  34   2.0000     -10.345569      -281.5173
  35   2.0000     -10.340225      -281.3718
  36   2.0000     -10.339905      -281.3631
  37   2.0000     -10.339868      -281.3621
  38   2.0000     -10.338114      -281.3144
  39   2.0000     -10.337558      -281.2992
  40   2.0000     -10.335231      -281.2359
  41   2.0000     -10.333989      -281.2021
  42   2.0000     -10.333100      -281.1780
  43   2.0000     -10.331584      -281.1367
  44   2.0000     -10.329594      -281.0825
  45   2.0000     -10.329181      -281.0713
  46   2.0000     -10.327241      -281.0185
  47   2.0000     -10.326575      -281.0004
  48   2.0000     -10.324886      -280.9544
  49   2.0000     -10.324069      -280.9322
  50   2.0000     -10.322693      -280.8948
  51   2.0000     -10.322043      -280.8771
  52   2.0000     -10.319632      -280.8115
  53   2.0000     -10.319597      -280.8105
  54   2.0000     -10.318850      -280.7902
  55   2.0000     -10.316585      -280.7285
  56   2.0000     -10.315864      -280.7089
  57   2.0000     -10.313814      -280.6532
  58   2.0000     -10.313105      -280.6338
  59   2.0000     -10.311673      -280.5949
  60   2.0000     -10.305258      -280.4203
  61   2.0000     -10.304755      -280.4066
  62   2.0000     -10.298062      -280.2245
  63   2.0000     -10.291979      -280.0590
  64   2.0000     -10.290241      -280.0117
  65   2.0000     -10.286638      -279.9137
  66   2.0000     -10.281395      -279.7710
  67   2.0000     -10.277333      -279.6605
  68   2.0000     -10.273897      -279.5670
  69   2.0000      -8.120619      -220.9733
  70   2.0000      -8.097391      -220.3412
  71   2.0000      -8.096998      -220.3305
  72   2.0000      -6.089636      -165.7074
  73   2.0000      -6.085154      -165.5855
  74   2.0000      -6.083881      -165.5508
  75   2.0000      -6.066184      -165.0693
  76   2.0000      -6.066092      -165.0668
  77   2.0000      -6.061832      -164.9508
  78   2.0000      -6.061699      -164.9472
  79   2.0000      -6.060914      -164.9258
  80   2.0000      -6.059936      -164.8992
  81   2.0000      -1.321518       -35.9603
  82   2.0000      -1.312268       -35.7086
  83   2.0000      -1.153959       -31.4008
  84   2.0000      -1.144670       -31.1481
  85   2.0000      -1.139458       -31.0062
  86   2.0000      -1.131688       -30.7948
  87   2.0000      -1.129693       -30.7405
  88   2.0000      -1.100847       -29.9556
  89   2.0000      -1.083403       -29.4809
  90   2.0000      -1.072880       -29.1945
  91   2.0000      -1.053805       -28.6755
  92   2.0000      -1.037538       -28.2328
  93   2.0000      -1.029672       -28.0188
  94   2.0000      -1.029288       -28.0083
  95   2.0000      -1.016596       -27.6630
  96   2.0000      -1.013606       -27.5816
  97   2.0000      -1.012910       -27.5627
  98   2.0000      -1.008826       -27.4516
  99   2.0000      -1.000020       -27.2119
 100   2.0000      -0.997616       -27.1465
 101   2.0000      -0.986076       -26.8325
 102   2.0000      -0.976010       -26.5586
 103   2.0000      -0.948696       -25.8153
 104   2.0000      -0.942159       -25.6375
 105   2.0000      -0.925611       -25.1872
 106   2.0000      -0.918331       -24.9891
 107   2.0000      -0.914614       -24.8879
 108   2.0000      -0.908027       -24.7087
 109   2.0000      -0.895862       -24.3777
 110   2.0000      -0.891195       -24.2506
 111   2.0000      -0.887660       -24.1544
 112   2.0000      -0.884802       -24.0767
 113   2.0000      -0.879078       -23.9209
 114   2.0000      -0.874940       -23.8083
 115   2.0000      -0.854196       -23.2439
 116   2.0000      -0.846767       -23.0417
 117   2.0000      -0.835597       -22.7377
 118   2.0000      -0.827392       -22.5145
 119   2.0000      -0.823152       -22.3991
 120   2.0000      -0.804504       -21.8917
 121   2.0000      -0.799689       -21.7606
 122   2.0000      -0.795780       -21.6543
 123   2.0000      -0.778322       -21.1792
 124   2.0000      -0.774905       -21.0862
 125   2.0000      -0.772195       -21.0125
 126   2.0000      -0.769692       -20.9444
 127   2.0000      -0.749491       -20.3947
 128   2.0000      -0.739167       -20.1138
 129   2.0000      -0.734980       -19.9998
 130   2.0000      -0.730800       -19.8861
 131   2.0000      -0.725089       -19.7307
 132   2.0000      -0.723789       -19.6953
 133   2.0000      -0.717927       -19.5358
 134   2.0000      -0.712320       -19.3832
 135   2.0000      -0.694275       -18.8922
 136   2.0000      -0.687066       -18.6960
 137   2.0000      -0.677246       -18.4288
 138   2.0000      -0.676743       -18.4151
 139   2.0000      -0.667194       -18.1553
 140   2.0000      -0.666490       -18.1361
 141   2.0000      -0.660490       -17.9729
 142   2.0000      -0.656997       -17.8778
 143   2.0000      -0.647192       -17.6110
 144   2.0000      -0.643053       -17.4984
 145   2.0000      -0.637861       -17.3571
 146   2.0000      -0.633021       -17.2254
 147   2.0000      -0.628917       -17.1137
 148   2.0000      -0.624247       -16.9866
 149   2.0000      -0.622440       -16.9374
 150   2.0000      -0.619540       -16.8585
 151   2.0000      -0.614562       -16.7231
 152   2.0000      -0.611410       -16.6373
 153   2.0000      -0.604395       -16.4464
 154   2.0000      -0.601734       -16.3740
 155   2.0000      -0.599790       -16.3211
 156   2.0000      -0.595170       -16.1954
 157   2.0000      -0.592762       -16.1299
 158   2.0000      -0.585551       -15.9337
 159   2.0000      -0.582471       -15.8498
 160   2.0000      -0.576121       -15.6770
 161   2.0000      -0.575694       -15.6654
 162   2.0000      -0.571180       -15.5426
 163   2.0000      -0.567263       -15.4360
 164   2.0000      -0.565746       -15.3947
 165   2.0000      -0.565611       -15.3911
 166   2.0000      -0.559507       -15.2250
 167   2.0000      -0.550840       -14.9891
 168   2.0000      -0.549993       -14.9661
 169   2.0000      -0.548771       -14.9328
 170   2.0000      -0.548143       -14.9157
 171   2.0000      -0.545383       -14.8406
 172   2.0000      -0.541085       -14.7237
 173   2.0000      -0.536827       -14.6078
 174   2.0000      -0.535482       -14.5712
 175   2.0000      -0.532317       -14.4851
 176   2.0000      -0.531308       -14.4576
 177   2.0000      -0.527422       -14.3519
 178   2.0000      -0.526396       -14.3240
 179   2.0000      -0.522668       -14.2225
 180   2.0000      -0.517036       -14.0693
 181   2.0000      -0.515947       -14.0396
 182   2.0000      -0.510951       -13.9037
 183   2.0000      -0.509351       -13.8602
 184   2.0000      -0.508521       -13.8376
 185   2.0000      -0.496581       -13.5126
 186   2.0000      -0.496464       -13.5095
 187   2.0000      -0.493697       -13.4342
 188   2.0000      -0.492501       -13.4016
 189   2.0000      -0.490033       -13.3345
 190   2.0000      -0.486413       -13.2360
 191   2.0000      -0.485750       -13.2179
 192   2.0000      -0.483926       -13.1683
 193   2.0000      -0.480698       -13.0804
 194   2.0000      -0.479143       -13.0381
 195   2.0000      -0.475471       -12.9382
 196   2.0000      -0.473440       -12.8830
 197   2.0000      -0.472656       -12.8616
 198   2.0000      -0.468840       -12.7578
 199   2.0000      -0.466621       -12.6974
 200   2.0000      -0.465783       -12.6746
 201   2.0000      -0.460696       -12.5362
 202   2.0000      -0.459884       -12.5141
 203   2.0000      -0.458804       -12.4847
 204   2.0000      -0.457263       -12.4428
 205   2.0000      -0.453999       -12.3540
 206   2.0000      -0.451095       -12.2749
 207   2.0000      -0.450594       -12.2613
 208   2.0000      -0.448085       -12.1930
 209   2.0000      -0.446455       -12.1487
 210   2.0000      -0.444382       -12.0923
 211   2.0000      -0.443672       -12.0729
 212   2.0000      -0.442308       -12.0358
 213   2.0000      -0.433766       -11.8034
 214   2.0000      -0.432386       -11.7658
 215   2.0000      -0.427794       -11.6409
 216   2.0000      -0.427542       -11.6340
 217   2.0000      -0.421962       -11.4822
 218   2.0000      -0.420840       -11.4516
 219   2.0000      -0.411863       -11.2074
 220   2.0000      -0.410707       -11.1759
 221   2.0000      -0.402214       -10.9448
 222   2.0000      -0.391288       -10.6475
 223   2.0000      -0.388351       -10.5676
 224   2.0000      -0.386738       -10.5237
 225   2.0000      -0.381703       -10.3867
 226   2.0000      -0.380075       -10.3424
 227   2.0000      -0.377428       -10.2703
 228   2.0000      -0.373117       -10.1530
 229   2.0000      -0.370167       -10.0728
 230   2.0000      -0.369866       -10.0646
 231   2.0000      -0.365939        -9.9577
 232   2.0000      -0.364458        -9.9174
 233   2.0000      -0.360000        -9.7961
 234   2.0000      -0.352821        -9.6008
 235   2.0000      -0.350465        -9.5366
 236   2.0000      -0.349031        -9.4976
 237   2.0000      -0.345686        -9.4066
 238   2.0000      -0.345144        -9.3918
 239   2.0000      -0.342459        -9.3188
 240   2.0000      -0.336463        -9.1556
 241   2.0000      -0.335001        -9.1159
 242   2.0000      -0.310853        -8.4587
 243   2.0000      -0.288367        -7.8469
 244   2.0000      -0.281056        -7.6479
 245   2.0000      -0.239275        -6.5110
 246   0.0000      -0.146970        -3.9992
 247   0.0000      -0.126925        -3.4538
 248   0.0000      -0.096708        -2.6316
 249   0.0000      -0.085632        -2.3302
 250   0.0000      -0.069732        -1.8975

MULLIKEN ATOMIC CHARGES
-----------------------
   0 C :   -0.124331
   1 S :    0.227476
   2 C :   -0.313091
   3 C :    0.280498
   4 C :    0.028093
   5 N :   -0.042293
   6 C :    0.085475
   7 N :   -0.041615
   8 C :   -0.168655
   9 C :   -0.198020
  10 N :    0.170642
  11 C :    0.061430
  12 C :    0.079186
  13 N :    0.277739
  14 O :   -0.231913
  15 O :   -0.260163
  16 C :    0.016527
  17 C :    0.001334
  18 C :   -0.004301
  19 C :    0.021975
  20 C :   -0.000891
  21 C :    0.022360
  22 C :    0.090969
  23 N :    0.272510
  24 O :   -0.249063
  25 O :   -0.254316
  26 C :    0.046316
  27 C :   -0.028064
  28 C :   -0.046092
  29 C :    0.122417
  30 N :   -0.246522
  31 C :    0.096802
  32 C :    0.001387
  33 C :    0.169578
  34 O :   -0.226459
  35 C :   -0.079519
  36 C :   -0.041385
  37 C :    0.156167
  38 O :   -0.170969
  39 N :   -0.258066
  40 C :    0.099159
  41 C :    0.000853
  42 C :    0.158113
  43 C :   -0.042886
  44 C :   -0.002639
  45 C :   -0.062443
  46 S :    0.210129
  47 C :   -0.106677
  48 C :    0.107802
  49 C :    0.126818
  50 C :   -0.050183
  51 C :   -0.072521
  52 C :   -0.172341
  53 N :    0.185547
  54 C :   -0.067433
  55 C :   -0.182811
  56 N :    0.183167
  57 C :   -0.061349
  58 C :   -0.122447
  59 S :    0.200285
  60 C :   -0.098729
  61 C :    0.126618
  62 C :    0.017416
  63 N :   -0.082542
  64 C :    0.100322
  65 N :   -0.043790
  66 C :   -0.146662
  67 C :   -0.155515
  68 N :    0.171814
  69 H :    0.030750
  70 H :    0.023588
  71 H :    0.004152
  72 H :    0.010694
  73 H :    0.002455
  74 H :    0.007510
  75 H :    0.048464
  76 H :    0.003741
  77 H :    0.027452
  78 H :    0.048271
  79 H :    0.016941
  80 H :    0.029934
  81 H :    0.029981
  82 H :    0.023698
  83 H :    0.050273
  84 H :    0.015353
  85 H :    0.027741
  86 H :    0.037148
  87 H :   -0.021340
  88 H :    0.020772
  89 H :    0.021428
  90 H :   -0.001367
  91 H :    0.053133
  92 H :    0.029005
Sum of atomic charges:   -0.0000000

LOEWDIN ATOMIC CHARGES
----------------------
   0 C :   -0.181162
   1 S :    0.545472
   2 C :   -0.175368
   3 C :   -0.061788
   4 C :   -0.030614
   5 N :   -0.064311
   6 C :    0.045574
   7 N :   -0.056056
   8 C :    0.014336
   9 C :   -0.027629
  10 N :   -0.031894
  11 C :   -0.029835
  12 C :   -0.027269
  13 N :    0.288384
  14 O :   -0.195189
  15 O :   -0.209784
  16 C :    0.003397
  17 C :   -0.035317
  18 C :    0.023633
  19 C :    0.042945
  20 C :   -0.059109
  21 C :    0.029693
  22 C :   -0.053140
  23 N :    0.283839
  24 O :   -0.212570
  25 O :   -0.218399
  26 C :    0.003982
  27 C :    0.023166
  28 C :   -0.016086
  29 C :    0.052249
  30 N :    0.006103
  31 C :    0.038168
  32 C :   -0.060140
  33 C :    0.077278
  34 O :   -0.215439
  35 C :   -0.121550
  36 C :   -0.090355
  37 C :    0.083815
  38 O :   -0.164828
  39 N :    0.000575
  40 C :    0.037780
  41 C :   -0.060028
  42 C :    0.087242
  43 C :   -0.059899
  44 C :    0.021596
  45 C :   -0.180420
  46 S :    0.543925
  47 C :   -0.164786
  48 C :   -0.047348
  49 C :   -0.025128
  50 C :    0.042554
  51 C :   -0.047149
  52 C :   -0.031614
  53 N :   -0.026210
  54 C :   -0.044817
  55 C :   -0.033219
  56 N :   -0.028580
  57 C :    0.016805
  58 C :   -0.205153
  59 S :    0.545771
  60 C :   -0.168631
  61 C :   -0.074800
  62 C :   -0.027693
  63 N :   -0.082225
  64 C :    0.056607
  65 N :   -0.056787
  66 C :    0.018319
  67 C :   -0.027753
  68 N :   -0.005780
  69 H :    0.036210
  70 H :    0.024390
  71 H :    0.039359
  72 H :    0.034452
  73 H :    0.029093
  74 H :    0.040799
  75 H :    0.045413
  76 H :    0.032647
  77 H :    0.024697
  78 H :    0.039890
  79 H :    0.022136
  80 H :    0.033568
  81 H :    0.032790
  82 H :    0.023405
  83 H :    0.040317
  84 H :    0.021664
  85 H :    0.032654
  86 H :    0.035361
  87 H :    0.024103
  88 H :    0.042144
  89 H :    0.053316
  90 H :    0.026597
  91 H :    0.040469
  92 H :    0.027172

  Mayer bond orders larger than 0.100000
B(  0-C ,  1-S ) :   1.2343 B(  0-C ,  2-C ) :   0.1271 B(  0-C ,  4-C ) :   1.3801
B(  0-C , 69-H ) :   0.9739 B(  1-S ,  2-C ) :   1.2052 B(  2-C ,  3-C ) :   1.3665
B(  2-C , 11-C ) :   1.0489 B(  3-C ,  4-C ) :   1.1716 B(  3-C ,  8-C ) :   1.1684
B(  4-C ,  5-N ) :   1.3747 B(  5-N ,  6-C ) :   1.6711 B(  6-C ,  7-N ) :   1.3083
B(  6-C , 70-H ) :   0.9724 B(  7-N ,  8-C ) :   1.7982 B(  8-C ,  9-C ) :   1.1229
B(  9-C , 10-N ) :   3.0509 B( 11-C , 12-C ) :   1.5720 B( 11-C , 18-C ) :   1.0873
B( 12-C , 13-N ) :   0.9465 B( 12-C , 16-C ) :   1.1226 B( 13-N , 14-O ) :   1.5461
B( 13-N , 15-O ) :   1.4735 B( 14-O , 15-O ) :   0.2587 B( 16-C , 17-C ) :   1.5868
B( 16-C , 71-H ) :   1.0128 B( 17-C , 18-C ) :   1.1256 B( 17-C , 72-H ) :   0.9957
B( 18-C , 19-C ) :   1.4451 B( 19-C , 20-C ) :   1.1694 B( 19-C , 26-C ) :   1.0021
B( 20-C , 21-C ) :   1.5232 B( 20-C , 73-H ) :   1.0056 B( 21-C , 22-C ) :   1.1554
B( 21-C , 74-H ) :   1.0138 B( 22-C , 23-N ) :   0.9520 B( 22-C , 26-C ) :   1.4510
B( 23-N , 24-O ) :   1.4966 B( 23-N , 25-O ) :   1.5215 B( 24-O , 25-O ) :   0.2584
B( 26-C , 27-C ) :   1.2384 B( 27-C , 28-C ) :   1.4672 B( 27-C , 75-H ) :   0.9331
B( 28-C , 29-C ) :   1.2274 B( 28-C , 76-H ) :   0.9456 B( 29-C , 30-N ) :   1.1466
B( 29-C , 36-C ) :   1.2964 B( 30-N , 31-C ) :   0.9417 B( 30-N , 33-C ) :   1.0905
B( 31-C , 32-C ) :   1.1194 B( 31-C , 77-H ) :   0.9489 B( 31-C , 78-H ) :   0.9286
B( 32-C , 79-H ) :   0.9687 B( 32-C , 80-H ) :   0.9678 B( 32-C , 81-H ) :   0.9636
B( 33-C , 34-O ) :   1.9773 B( 33-C , 35-C ) :   1.0021 B( 34-O , 88-H ) :   0.1148
B( 35-C , 36-C ) :   1.3148 B( 35-C , 42-C ) :   1.2466 B( 36-C , 37-C ) :   0.9619
B( 37-C , 38-O ) :   2.1023 B( 37-C , 39-N ) :   1.0391 B( 39-N , 40-C ) :   0.9409
B( 39-N , 42-C ) :   1.1753 B( 40-C , 41-C ) :   1.1202 B( 40-C , 82-H ) :   0.9499
B( 40-C , 83-H ) :   0.9281 B( 41-C , 84-H ) :   0.9684 B( 41-C , 85-H ) :   0.9683
B( 41-C , 86-H ) :   0.9643 B( 42-C , 43-C ) :   1.2273 B( 43-C , 44-C ) :   1.4799
B( 43-C , 87-H ) :   0.9688 B( 44-C , 45-C ) :   1.2608 B( 44-C , 88-H ) :   0.9421
B( 45-C , 46-S ) :   1.0787 B( 45-C , 49-C ) :   1.2569 B( 46-S , 47-C ) :   1.2037
B( 47-C , 48-C ) :   1.2671 B( 47-C , 58-C ) :   1.2541 B( 48-C , 49-C ) :   1.2181
B( 48-C , 57-C ) :   1.1984 B( 49-C , 50-C ) :   1.2289 B( 50-C , 51-C ) :   1.5264
B( 50-C , 89-H ) :   0.9927 B( 51-C , 52-C ) :   1.0835 B( 51-C , 54-C ) :   1.2640
B( 52-C , 53-N ) :   3.0431 B( 54-C , 55-C ) :   1.0775 B( 54-C , 57-C ) :   1.5701
B( 55-C , 56-N ) :   3.0465 B( 57-C , 90-H ) :   0.9817 B( 58-C , 59-S ) :   1.1832
B( 58-C , 60-C ) :   0.1074 B( 58-C , 62-C ) :   1.3075 B( 59-S , 60-C ) :   1.2101
B( 60-C , 61-C ) :   1.4135 B( 60-C , 91-H ) :   0.9539 B( 61-C , 62-C ) :   1.1790
B( 61-C , 66-C ) :   1.1745 B( 62-C , 63-N ) :   1.4008 B( 63-N , 64-C ) :   1.6023
B( 64-C , 65-N ) :   1.3460 B( 64-C , 92-H ) :   0.9739 B( 65-N , 66-C ) :   1.7687
B( 66-C , 67-C ) :   1.0866 B( 67-C , 68-N ) :   3.0685

-----------------------------------------------------------------------------
         ABSORPTION SPECTRUM VIA TRANSITION ELECTRIC DIPOLE MOMENTS
-----------------------------------------------------------------------------
State   Energy  Wavelength   fosc         T2         TX        TY        TZ
        (cm-1)    (nm)                  (au**2)     (au)      (au)      (au)
-----------------------------------------------------------------------------
   0    5489.9   1821.5   0.414443987  24.85301  -2.67000  -4.20896   0.09361
   1   11187.4    893.9   0.313432295   9.22337   1.12193   2.81592   0.18773
   2   12752.6    784.2   0.015072862   0.38911  -0.11460  -0.27548  -0.54780
   3   16306.8    613.2   0.260457432   5.25827  -0.69530  -2.18048   0.14253
   4   16790.5    595.6   0.041780766   0.81920   0.43813   0.07252   0.78866
   5   17902.7    558.6   0.065317266   1.20111  -0.30614  -0.97412   0.39811
   6   20082.8    497.9   0.015713929   0.25759  -0.08090  -0.47489   0.15978
   7   21379.7    467.7   0.046323463   0.71330  -0.11162  -0.03591  -0.83639
   8   21827.2    458.1   0.006253714   0.09432   0.07558   0.26143   0.14235
   9   22895.9    436.8   0.047977616   0.68985  -0.18549  -0.69275  -0.41898
  10   23258.2    430.0   0.017359007   0.24571  -0.26805   0.31281   0.27570
  11   23709.5    421.8   0.002756611   0.03828  -0.09192   0.15171   0.08252
  12   24691.3    405.0   0.064389188   0.85851   0.61151   0.67746   0.16004
  13   25151.4    397.6   0.017894820   0.23423   0.39257  -0.09705   0.26590
  14   25549.3    391.4   0.044717711   0.57620  -0.08219  -0.68290  -0.32108
  15   25758.7    388.2   0.007264497   0.09284   0.20894  -0.14872  -0.16454
  16   25989.8    384.8   0.058080963   0.73571   0.18768  -0.68463   0.48143
  17   26224.2    381.3   0.005995586   0.07527  -0.04791   0.11822   0.24289
  18   26541.1    376.8   0.000802314   0.00995   0.07334  -0.02233   0.06383
  19   27009.6    370.2   0.138027950   1.68238  -1.22956  -0.36829   0.18689
  20   27482.3    363.9   0.000978417   0.01172  -0.03284   0.07652  -0.06918
  21   28214.0    354.4   0.215183629   2.51085  -0.90871   1.16868  -0.56506
  22   28419.0    351.9   0.040986035   0.47479  -0.20959  -0.02640   0.65587
  23   28947.2    345.5   0.001780836   0.02025   0.07125  -0.11909   0.03153
  24   29330.0    340.9   0.119707168   1.34364   0.65170  -0.95861  -0.00035
  25   29546.2    338.5   0.011212778   0.12494   0.29847  -0.04773   0.18323
  26   29924.7    334.2   0.027626946   0.30393  -0.28592   0.09276  -0.46214
  27   30070.7    332.5   0.032816126   0.35927   0.41354  -0.34450   0.26377
  28   30243.9    330.6   0.058366689   0.63533   0.33422   0.29007   0.66294
  29   30280.0    330.3   0.080507539   0.87530   0.73899  -0.33295   0.46727
  30   30975.6    322.8   0.019410872   0.20630   0.34521   0.21319  -0.20415
  31   31284.5    319.6   0.433967377   4.56671  -0.87243   0.27270  -1.93164
  32   31431.3    318.2   0.076887672   0.80532  -0.42956  -0.24140  -0.75002
  33   31776.4    314.7   0.073353799   0.75996  -0.36083   0.38738  -0.69261
  34   31943.5    313.1   0.063493382   0.65437  -0.10153   0.63105  -0.49582
  35   32129.8    311.2   0.058443650   0.59883   0.00519  -0.65091   0.41847
  36   32311.5    309.5   0.001561152   0.01591   0.01934   0.09007   0.08614
  37   32654.6    306.2   0.180554705   1.82029   1.24741  -0.28307   0.42909
  38   33078.9    302.3   0.076566760   0.76202   0.39420  -0.66422   0.40673
  39   33620.6    297.4   0.049494797   0.48465   0.44357   0.41173  -0.34406
  40   33839.1    295.5   0.021844852   0.21252   0.26586  -0.11232  -0.35948
  41   34051.8    293.7   0.133464401   1.29033   0.84423  -0.73064   0.20921
  42   34254.9    291.9   0.097432326   0.93639  -0.36001   0.53617  -0.72063
  43   34773.7    287.6   0.044722288   0.42340   0.12650  -0.42731   0.47413
  44   34885.9    286.6   0.006497029   0.06131   0.11257   0.22043   0.00697
  45   35106.1    284.9   0.004532641   0.04251  -0.16652  -0.11124  -0.04901
  46   35186.2    284.2   0.088853818   0.83134   0.36358  -0.56264   0.61854
  47   35394.7    282.5   0.003662609   0.03407   0.17030  -0.00914  -0.07057
  48   35519.6    281.5   0.054065037   0.50110   0.50135  -0.29244   0.40525
  49   35891.5    278.6   0.010762436   0.09872  -0.05885   0.30755  -0.02585
  50   35963.3    278.1   0.037566397   0.34389   0.11204  -0.05405   0.57307
  51   36094.5    277.1   0.043898354   0.40039  -0.19169   0.15644  -0.58238
  52   36208.5    276.2   0.003595002   0.03269  -0.17562  -0.04274   0.00435
  53   36396.4    274.8   0.015108178   0.13666  -0.27913   0.05449  -0.23617
  54   36688.8    272.6   0.028419956   0.25501   0.42987   0.18145   0.19314
  55   36759.1    272.0   0.057216689   0.51243   0.10799   0.00434   0.70764
  56   36904.6    271.0   0.170397296   1.52005   1.17093  -0.26731   0.27841
  57   37536.0    266.4   0.091303488   0.80078  -0.25612  -0.85193   0.09695
  58   37775.2    264.7   0.063211427   0.55089  -0.30634  -0.42628  -0.52472
  59   37896.6    263.9   0.113571427   0.98661  -0.41564   0.80722  -0.40279
  60   38284.8    261.2   0.021097418   0.18142   0.42182   0.03878   0.04453
  61   38547.8    259.4   0.071517043   0.61078  -0.19737  -0.68823   0.31331
  62   38555.8    259.4   0.001157117   0.00988  -0.06860   0.07008   0.01622
  63   39161.5    255.4   0.002397947   0.02016   0.02788  -0.13399   0.03780
  64   39312.7    254.4   0.004889753   0.04095  -0.12352  -0.16018  -0.00566
  65   39425.5    253.6   0.024330776   0.20317  -0.22539   0.35964  -0.15175
  66   39563.7    252.8   0.027976777   0.23280   0.47121   0.01620  -0.10245
  67   39671.5    252.1   0.023358747   0.19384  -0.00531  -0.07196   0.43432
  68   39739.9    251.6   0.021652785   0.17938   0.34130  -0.03617   0.24816
  69   39844.1    251.0   0.009312487   0.07694   0.15941   0.11626  -0.19498
  70   40051.9    249.7   0.190732170   1.56775  -0.67515  -0.27503  -1.01798
  71   40095.8    249.4   0.064501187   0.52960   0.38634   0.01363   0.61657

FINAL SINGLE POINT ENERGY     -4142.122847732655

DIPOLE MOMENT
-------------
                                X             Y             Z
Electronic contribution:      6.17294     -21.68369       4.08078
Nuclear contribution   :     -9.10965      20.50465      -4.90029
                        -----------------------------------------
Total Dipole Moment    :     -2.93671      -1.17904      -0.81951
                        -----------------------------------------
Magnitude (a.u.)       :      3.26894
Magnitude (Debye)      :      8.30900

Rotational constants in cm-1:     0.001978     0.000337     0.000308
Rotational constants in MHz :    59.308771    10.112543     9.231162

                             ****ORCA TERMINATED NORMALLY****
TOTAL RUN TIME: 0 days 0 hours 11 minutes 33 seconds 513 msec
