                         Program Version 4.2.0 -  RELEASE  -
|  1> # ORCA input file
|  2> # SCF done       -132.879164264297          0.000346885402
|  3> ! CAM-B3LYP def2-SVP def2/J RIJCOSX Grid4 TightSCF
|  4> %maxcore 5000
|  5> %tddft
|  6>     Mode sTDDFT
|  7>     Ethresh 5.0
|  8>     maxcore 5000
|  9> end
| 10>
| 11> %pal
| 12>   nprocs 6
| 13>   end
| 14> * xyz 0 1
| 15>    C        1.24052        -4.75751         4.96525
| 16>    S        0.58985        -4.13528         3.52050
| 17>    C        0.09623        -5.70022         2.94706
| 18>    C        0.46233        -6.67946         3.86271
| 19>    C        1.09310        -6.12405         5.04289
| 20>    N        1.48039        -6.89514         6.07998
| 21>    C        1.28106        -8.17168         5.95070
| 22>    N        0.86027        -8.81190         4.85015
| 23>    C        0.48495        -8.10075         3.81279
| 24>    C        0.24251        -8.81898         2.60862
| 25>    N        0.11919        -9.40427         1.63190
| 26>    C       -0.64699        -5.79280         1.73244
| 27>    S       -1.93099        -6.94807         1.51021
| 28>    C       -2.28932        -6.33471        -0.07292
| 29>    C       -1.44617        -5.26201        -0.38301
| 30>    C       -0.53902        -4.95655         0.64524
| 31>    C       -1.47948        -4.52119        -1.57485
| 32>    N       -1.47568        -3.88355        -2.52986
| 33>    C       -3.32326        -6.94783        -0.81889
| 34>    C       -3.63567        -6.65053        -2.10887
| 35>    C       -4.68215        -7.29840        -2.80553
| 36>    N       -4.98335        -7.04945        -4.12610
| 37>    C       -4.34462        -6.08514        -4.99002
| 38>    C       -4.82429        -4.66265        -4.71426
| 39>    C       -6.05341        -7.83453        -4.57830
| 40>    O       -6.48960        -7.79188        -5.71407
| 41>    C       -6.42933        -8.62662        -3.42952
| 42>    C       -5.57130        -8.27560        -2.35850
| 43>    C       -5.95431        -9.06087        -1.20685
| 44>    O       -5.52646        -9.10337        -0.06926
| 45>    N       -7.03026        -9.84194        -1.65955
| 46>    C       -7.66184       -10.81079        -0.79725
| 47>    C       -7.15328       -12.22557        -1.06364
| 48>    C       -7.32314        -9.60108        -2.98357
| 49>    C       -8.36128       -10.24770        -3.69453
| 50>    C       -8.60799        -9.99058        -5.00868
| 51>    C       -9.60982       -10.60513        -5.72933
| 52>    C      -10.48677       -11.13095        -6.39971
| 53>    C      -11.43659       -11.69706        -7.14923
| 54>    C      -12.30784       -12.21796        -7.82897
| 55>    C      -13.27458       -12.78193        -8.62704
| 56>    S      -13.37856       -12.44410       -10.32955
| 57>    C      -14.73572       -13.45954       -10.54270
| 58>    C      -15.11908       -14.05038        -9.36267
| 59>    C      -14.28758       -13.67161        -8.24733
| 60>    N      -14.49841       -14.14032        -7.00883
| 61>    C      -15.50120       -14.96106        -6.86673
| 62>    N      -16.34531       -15.38979        -7.81697
| 63>    C      -16.17314       -14.95522        -9.04143
| 64>    C      -17.05092       -15.38991       -10.07010
| 65>    N      -17.72508       -15.70401       -10.94136
| 66>    H        1.67196        -4.10886         5.69932
| 67>    H        1.53194        -8.80440         6.79081
| 68>    H        0.18542        -4.16337         0.58037
| 69>    H       -3.88581        -7.71545        -0.30269
| 70>    H       -3.06639        -5.90519        -2.64230
| 71>    H       -4.61478        -6.37191        -6.01034
| 72>    H       -3.25917        -6.15434        -4.87880
| 73>    H       -5.90160        -4.60001        -4.84843
| 74>    H       -4.34546        -3.97654        -5.40674
| 75>    H       -4.57941        -4.35599        -3.70008
| 76>    H       -8.74749       -10.75687        -0.91801
| 77>    H       -7.40613       -10.51685         0.22473
| 78>    H       -7.35832       -12.52865        -2.08814
| 79>    H       -7.63855       -12.92437        -0.38791
| 80>    H       -6.07972       -12.27010        -0.89757
| 81>    H       -8.97359       -10.96785        -3.16984
| 82>    H       -7.99779        -9.27302        -5.54748
| 83>    H      -15.18016       -13.57212       -11.51168
| 84>    H      -15.68498       -15.34758        -5.87383
| 85> *
| 86>
| 87>                          ****END OF INPUT****

CARTESIAN COORDINATES (ANGSTROEM)
---------------------------------
  C      1.240520   -4.757510    4.965250
  S      0.589850   -4.135280    3.520500
  C      0.096230   -5.700220    2.947060
  C      0.462330   -6.679460    3.862710
  C      1.093100   -6.124050    5.042890
  N      1.480390   -6.895140    6.079980
  C      1.281060   -8.171680    5.950700
  N      0.860270   -8.811900    4.850150
  C      0.484950   -8.100750    3.812790
  C      0.242510   -8.818980    2.608620
  N      0.119190   -9.404270    1.631900
  C     -0.646990   -5.792800    1.732440
  S     -1.930990   -6.948070    1.510210
  C     -2.289320   -6.334710   -0.072920
  C     -1.446170   -5.262010   -0.383010
  C     -0.539020   -4.956550    0.645240
  C     -1.479480   -4.521190   -1.574850
  N     -1.475680   -3.883550   -2.529860
  C     -3.323260   -6.947830   -0.818890
  C     -3.635670   -6.650530   -2.108870
  C     -4.682150   -7.298400   -2.805530
  N     -4.983350   -7.049450   -4.126100
  C     -4.344620   -6.085140   -4.990020
  C     -4.824290   -4.662650   -4.714260
  C     -6.053410   -7.834530   -4.578300
  O     -6.489600   -7.791880   -5.714070
  C     -6.429330   -8.626620   -3.429520
  C     -5.571300   -8.275600   -2.358500
  C     -5.954310   -9.060870   -1.206850
  O     -5.526460   -9.103370   -0.069260
  N     -7.030260   -9.841940   -1.659550
  C     -7.661840  -10.810790   -0.797250
  C     -7.153280  -12.225570   -1.063640
  C     -7.323140   -9.601080   -2.983570
  C     -8.361280  -10.247700   -3.694530
  C     -8.607990   -9.990580   -5.008680
  C     -9.609820  -10.605130   -5.729330
  C    -10.486770  -11.130950   -6.399710
  C    -11.436590  -11.697060   -7.149230
  C    -12.307840  -12.217960   -7.828970
  C    -13.274580  -12.781930   -8.627040
  S    -13.378560  -12.444100  -10.329550
  C    -14.735720  -13.459540  -10.542700
  C    -15.119080  -14.050380   -9.362670
  C    -14.287580  -13.671610   -8.247330
  N    -14.498410  -14.140320   -7.008830
  C    -15.501200  -14.961060   -6.866730
  N    -16.345310  -15.389790   -7.816970
  C    -16.173140  -14.955220   -9.041430
  C    -17.050920  -15.389910  -10.070100
  N    -17.725080  -15.704010  -10.941360
  H      1.671960   -4.108860    5.699320
  H      1.531940   -8.804400    6.790810
  H      0.185420   -4.163370    0.580370
  H     -3.885810   -7.715450   -0.302690
  H     -3.066390   -5.905190   -2.642300
  H     -4.614780   -6.371910   -6.010340
  H     -3.259170   -6.154340   -4.878800
  H     -5.901600   -4.600010   -4.848430
  H     -4.345460   -3.976540   -5.406740
  H     -4.579410   -4.355990   -3.700080
  H     -8.747490  -10.756870   -0.918010
  H     -7.406130  -10.516850    0.224730
  H     -7.358320  -12.528650   -2.088140
  H     -7.638550  -12.924370   -0.387910
  H     -6.079720  -12.270100   -0.897570
  H     -8.973590  -10.967850   -3.169840
  H     -7.997790   -9.273020   -5.547480
  H    -15.180160  -13.572120  -11.511680
  H    -15.684980  -15.347580   -5.873830

 Total Charge           Charge          ....    0
 Multiplicity           Mult            ....    1
 Number of Electrons    NEL             ....  368
 Basis Dimension        Dim             ....  821

ORBITAL ENERGIES
----------------

  NO   OCC          E(Eh)            E(eV)
   0   2.0000     -89.003031     -2421.8956
   1   2.0000     -89.002890     -2421.8918
   2   2.0000     -88.986302     -2421.4404
   3   2.0000     -19.194612      -522.3119
   4   2.0000     -19.192044      -522.2421
   5   2.0000     -14.455912      -393.3654
   6   2.0000     -14.454163      -393.3178
   7   2.0000     -14.437778      -392.8719
   8   2.0000     -14.436730      -392.8434
   9   2.0000     -14.430193      -392.6655
  10   2.0000     -14.429959      -392.6592
  11   2.0000     -14.428484      -392.6190
  12   2.0000     -14.427520      -392.5928
  13   2.0000     -14.418669      -392.3519
  14   2.0000     -10.380061      -282.4558
  15   2.0000     -10.378951      -282.4256
  16   2.0000     -10.376905      -282.3699
  17   2.0000     -10.374641      -282.3083
  18   2.0000     -10.351081      -281.6672
  19   2.0000     -10.349927      -281.6358
  20   2.0000     -10.346974      -281.5555
  21   2.0000     -10.341302      -281.4011
  22   2.0000     -10.340379      -281.3760
  23   2.0000     -10.339004      -281.3386
  24   2.0000     -10.337950      -281.3099
  25   2.0000     -10.337826      -281.3065
  26   2.0000     -10.336897      -281.2813
  27   2.0000     -10.335868      -281.2533
  28   2.0000     -10.333259      -281.1823
  29   2.0000     -10.325945      -280.9832
  30   2.0000     -10.322862      -280.8993
  31   2.0000     -10.321068      -280.8505
  32   2.0000     -10.320288      -280.8293
  33   2.0000     -10.320005      -280.8216
  34   2.0000     -10.319548      -280.8092
  35   2.0000     -10.317917      -280.7648
  36   2.0000     -10.310053      -280.5508
  37   2.0000     -10.309889      -280.5463
  38   2.0000     -10.304772      -280.4071
  39   2.0000     -10.304380      -280.3964
  40   2.0000     -10.301963      -280.3307
  41   2.0000     -10.301793      -280.3260
  42   2.0000     -10.299512      -280.2640
  43   2.0000     -10.299444      -280.2621
  44   2.0000     -10.297656      -280.2135
  45   2.0000     -10.297516      -280.2097
  46   2.0000     -10.294522      -280.1282
  47   2.0000     -10.264645      -279.3152
  48   2.0000     -10.264417      -279.3090
  49   2.0000     -10.263855      -279.2937
  50   2.0000     -10.257792      -279.1287
  51   2.0000      -8.097871      -220.3543
  52   2.0000      -8.097589      -220.3466
  53   2.0000      -8.081380      -219.9055
  54   2.0000      -6.066711      -165.0836
  55   2.0000      -6.066431      -165.0760
  56   2.0000      -6.062335      -164.9645
  57   2.0000      -6.062041      -164.9565
  58   2.0000      -6.061271      -164.9356
  59   2.0000      -6.060944      -164.9267
  60   2.0000      -6.050608      -164.6454
  61   2.0000      -6.046336      -164.5292
  62   2.0000      -6.043659      -164.4563
  63   2.0000      -1.135694       -30.9038
  64   2.0000      -1.128539       -30.7091
  65   2.0000      -1.105296       -30.0766
  66   2.0000      -1.104958       -30.0674
  67   2.0000      -1.065633       -28.9973
  68   2.0000      -1.057168       -28.7670
  69   2.0000      -1.028752       -27.9938
  70   2.0000      -1.023307       -27.8456
  71   2.0000      -1.020536       -27.7702
  72   2.0000      -1.011282       -27.5184
  73   2.0000      -1.009530       -27.4707
  74   2.0000      -0.996143       -27.1064
  75   2.0000      -0.991096       -26.9691
  76   2.0000      -0.989274       -26.9195
  77   2.0000      -0.931929       -25.3591
  78   2.0000      -0.924195       -25.1486
  79   2.0000      -0.918878       -25.0039
  80   2.0000      -0.905272       -24.6337
  81   2.0000      -0.896218       -24.3873
  82   2.0000      -0.888771       -24.1847
  83   2.0000      -0.885883       -24.1061
  84   2.0000      -0.875375       -23.8202
  85   2.0000      -0.868495       -23.6329
  86   2.0000      -0.864354       -23.5203
  87   2.0000      -0.835173       -22.7262
  88   2.0000      -0.829285       -22.5660
  89   2.0000      -0.819901       -22.3106
  90   2.0000      -0.805053       -21.9066
  91   2.0000      -0.804318       -21.8866
  92   2.0000      -0.795952       -21.6590
  93   2.0000      -0.784647       -21.3513
  94   2.0000      -0.760086       -20.6830
  95   2.0000      -0.748398       -20.3650
  96   2.0000      -0.739461       -20.1218
  97   2.0000      -0.734975       -19.9997
  98   2.0000      -0.724713       -19.7205
  99   2.0000      -0.716937       -19.5089
 100   2.0000      -0.711117       -19.3505
 101   2.0000      -0.706162       -19.2156
 102   2.0000      -0.699683       -19.0394
 103   2.0000      -0.685234       -18.6462
 104   2.0000      -0.678967       -18.4756
 105   2.0000      -0.675235       -18.3741
 106   2.0000      -0.657881       -17.9019
 107   2.0000      -0.650854       -17.7106
 108   2.0000      -0.648914       -17.6579
 109   2.0000      -0.645482       -17.5645
 110   2.0000      -0.630427       -17.1548
 111   2.0000      -0.622931       -16.9508
 112   2.0000      -0.608352       -16.5541
 113   2.0000      -0.594986       -16.1904
 114   2.0000      -0.590164       -16.0592
 115   2.0000      -0.584113       -15.8945
 116   2.0000      -0.573784       -15.6135
 117   2.0000      -0.567117       -15.4320
 118   2.0000      -0.565983       -15.4012
 119   2.0000      -0.559941       -15.2368
 120   2.0000      -0.556474       -15.1424
 121   2.0000      -0.555130       -15.1058
 122   2.0000      -0.551445       -15.0056
 123   2.0000      -0.545784       -14.8515
 124   2.0000      -0.545530       -14.8446
 125   2.0000      -0.539462       -14.6795
 126   2.0000      -0.535463       -14.5707
 127   2.0000      -0.531684       -14.4679
 128   2.0000      -0.530211       -14.4278
 129   2.0000      -0.529422       -14.4063
 130   2.0000      -0.527619       -14.3572
 131   2.0000      -0.524612       -14.2754
 132   2.0000      -0.521007       -14.1773
 133   2.0000      -0.516392       -14.0518
 134   2.0000      -0.510564       -13.8931
 135   2.0000      -0.503886       -13.7114
 136   2.0000      -0.494092       -13.4449
 137   2.0000      -0.490084       -13.3359
 138   2.0000      -0.486672       -13.2430
 139   2.0000      -0.485277       -13.2051
 140   2.0000      -0.476528       -12.9670
 141   2.0000      -0.469351       -12.7717
 142   2.0000      -0.467324       -12.7165
 143   2.0000      -0.465966       -12.6796
 144   2.0000      -0.464577       -12.6418
 145   2.0000      -0.462794       -12.5933
 146   2.0000      -0.462117       -12.5748
 147   2.0000      -0.459400       -12.5009
 148   2.0000      -0.457805       -12.4575
 149   2.0000      -0.455933       -12.4066
 150   2.0000      -0.455067       -12.3830
 151   2.0000      -0.452931       -12.3249
 152   2.0000      -0.452297       -12.3076
 153   2.0000      -0.448481       -12.2038
 154   2.0000      -0.446728       -12.1561
 155   2.0000      -0.442957       -12.0535
 156   2.0000      -0.437894       -11.9157
 157   2.0000      -0.435699       -11.8560
 158   2.0000      -0.434386       -11.8202
 159   2.0000      -0.427724       -11.6390
 160   2.0000      -0.427342       -11.6286
 161   2.0000      -0.425397       -11.5756
 162   2.0000      -0.421810       -11.4780
 163   2.0000      -0.413464       -11.2509
 164   2.0000      -0.408230       -11.1085
 165   2.0000      -0.403745       -10.9865
 166   2.0000      -0.392388       -10.6774
 167   2.0000      -0.392103       -10.6697
 168   2.0000      -0.389986       -10.6121
 169   2.0000      -0.383865       -10.4455
 170   2.0000      -0.360750        -9.8165
 171   2.0000      -0.358491        -9.7550
 172   2.0000      -0.351840        -9.5740
 173   2.0000      -0.349092        -9.4993
 174   2.0000      -0.348891        -9.4938
 175   2.0000      -0.340746        -9.2722
 176   2.0000      -0.335431        -9.1276
 177   2.0000      -0.335014        -9.1162
 178   2.0000      -0.330617        -8.9966
 179   2.0000      -0.318223        -8.6593
 180   2.0000      -0.317000        -8.6260
 181   2.0000      -0.287621        -7.8266
 182   2.0000      -0.278244        -7.5714
 183   2.0000      -0.234734        -6.3874
 184   0.0000      -0.106101        -2.8872
 185   0.0000      -0.091913        -2.5011
 186   0.0000      -0.080302        -2.1851
 187   0.0000      -0.048466        -1.3188
 188   0.0000      -0.015060        -0.4098

MULLIKEN ATOMIC CHARGES
-----------------------
   0 C :   -0.118846
   1 S :    0.212410
   2 C :   -0.157317
   3 C :    0.169248
   4 C :    0.036583
   5 N :   -0.045015
   6 C :    0.081363
   7 N :   -0.061498
   8 C :   -0.161663
   9 C :   -0.191679
  10 N :    0.174293
  11 C :   -0.079851
  12 S :    0.218330
  13 C :   -0.071736
  14 C :   -0.062043
  15 C :    0.009471
  16 C :   -0.175967
  17 N :    0.120785
  18 C :    0.061278
  19 C :   -0.037615
  20 C :    0.138049
  21 N :   -0.256168
  22 C :    0.091511
  23 C :    0.009876
  24 C :    0.166331
  25 O :   -0.210971
  26 C :   -0.060596
  27 C :   -0.064546
  28 C :    0.166982
  29 O :   -0.211016
  30 N :   -0.257973
  31 C :    0.093628
  32 C :    0.003870
  33 C :    0.130976
  34 C :   -0.023497
  35 C :   -0.107152
  36 C :    0.054965
  37 C :   -0.009896
  38 C :   -0.051620
  39 C :    0.061450
  40 C :   -0.263488
  41 S :    0.250026
  42 C :   -0.116098
  43 C :    0.092407
  44 C :    0.098645
  45 N :   -0.022752
  46 C :    0.085721
  47 N :   -0.050101
  48 C :   -0.140180
  49 C :   -0.160399
  50 N :    0.157556
  51 H :    0.030185
  52 H :    0.023932
  53 H :    0.002003
  54 H :    0.007566
  55 H :   -0.011210
  56 H :    0.042692
  57 H :    0.035075
  58 H :    0.024197
  59 H :    0.028905
  60 H :    0.018224
  61 H :    0.026920
  62 H :    0.044170
  63 H :    0.017465
  64 H :    0.025214
  65 H :    0.031709
  66 H :   -0.006997
  67 H :    0.070524
  68 H :    0.049192
  69 H :    0.024166
Sum of atomic charges:    0.0000000

LOEWDIN ATOMIC CHARGES
----------------------
   0 C :   -0.189210
   1 S :    0.533494
   2 C :   -0.184605
   3 C :   -0.081130
   4 C :   -0.028554
   5 N :   -0.063756
   6 C :    0.042608
   7 N :   -0.061953
   8 C :    0.005826
   9 C :   -0.043912
  10 N :   -0.017892
  11 C :   -0.194318
  12 S :    0.519030
  13 C :   -0.135398
  14 C :   -0.104728
  15 C :   -0.024787
  16 C :   -0.026135
  17 N :   -0.059812
  18 C :   -0.003360
  19 C :   -0.027607
  20 C :    0.073535
  21 N :    0.003891
  22 C :    0.036350
  23 C :   -0.058964
  24 C :    0.080136
  25 O :   -0.199159
  26 C :   -0.116711
  27 C :   -0.115940
  28 C :    0.081029
  29 O :   -0.200856
  30 N :    0.000921
  31 C :    0.036141
  32 C :   -0.060647
  33 C :    0.072965
  34 C :   -0.024546
  35 C :    0.006092
  36 C :    0.010908
  37 C :   -0.038980
  38 C :   -0.023737
  39 C :   -0.020084
  40 C :   -0.206083
  41 S :    0.549747
  42 C :   -0.169390
  43 C :   -0.080574
  44 C :   -0.009721
  45 N :   -0.055228
  46 C :    0.046957
  47 N :   -0.061743
  48 C :    0.009142
  49 C :   -0.026192
  50 N :   -0.018241
  51 H :    0.035646
  52 H :    0.024354
  53 H :    0.037656
  54 H :    0.037751
  55 H :    0.036093
  56 H :    0.037596
  57 H :    0.027203
  58 H :    0.029792
  59 H :    0.033858
  60 H :    0.023360
  61 H :    0.024089
  62 H :    0.037791
  63 H :    0.022910
  64 H :    0.031394
  65 H :    0.033022
  66 H :    0.035765
  67 H :    0.054820
  68 H :    0.037330
  69 H :    0.024753

  Mayer bond orders larger than 0.100000
B(  0-C ,  1-S ) :   1.2019 B(  0-C ,  2-C ) :   0.1192 B(  0-C ,  4-C ) :   1.4244
B(  0-C , 51-H ) :   0.9723 B(  1-S ,  2-C ) :   1.2203 B(  2-C ,  3-C ) :   1.3628
B(  2-C , 11-C ) :   1.0925 B(  3-C ,  4-C ) :   1.1526 B(  3-C ,  8-C ) :   1.1828
B(  4-C ,  5-N ) :   1.3663 B(  5-N ,  6-C ) :   1.6727 B(  6-C ,  7-N ) :   1.3121
B(  6-C , 52-H ) :   0.9728 B(  7-N ,  8-C ) :   1.7716 B(  8-C ,  9-C ) :   1.1067
B(  9-C , 10-N ) :   3.0668 B( 11-C , 12-S ) :   1.1429 B( 11-C , 15-C ) :   1.4690
B( 12-S , 13-C ) :   1.1681 B( 13-C , 14-C ) :   1.4181 B( 13-C , 18-C ) :   1.1602
B( 14-C , 15-C ) :   1.2985 B( 14-C , 16-C ) :   1.1166 B( 15-C , 53-H ) :   1.0057
B( 16-C , 17-N ) :   2.9689 B( 18-C , 19-C ) :   1.6092 B( 18-C , 54-H ) :   0.9207
B( 19-C , 20-C ) :   1.1741 B( 19-C , 55-H ) :   0.9489 B( 20-C , 21-N ) :   1.1610
B( 20-C , 27-C ) :   1.3297 B( 21-N , 22-C ) :   0.9384 B( 21-N , 24-C ) :   1.0678
B( 22-C , 23-C ) :   1.1248 B( 22-C , 56-H ) :   0.9275 B( 22-C , 57-H ) :   0.9482
B( 23-C , 58-H ) :   0.9629 B( 23-C , 59-H ) :   0.9669 B( 23-C , 60-H ) :   0.9673
B( 24-C , 25-O ) :   2.0224 B( 24-C , 26-C ) :   0.9838 B( 25-O , 67-H ) :   0.1136
B( 26-C , 27-C ) :   1.2647 B( 26-C , 33-C ) :   1.3312 B( 27-C , 28-C ) :   0.9843
B( 28-C , 29-O ) :   2.0228 B( 28-C , 30-N ) :   1.0652 B( 29-O , 54-H ) :   0.1152
B( 30-N , 31-C ) :   0.9447 B( 30-N , 33-C ) :   1.1558 B( 31-C , 32-C ) :   1.1213
B( 31-C , 61-H ) :   0.9500 B( 31-C , 62-H ) :   0.9288 B( 32-C , 63-H ) :   0.9687
B( 32-C , 64-H ) :   0.9676 B( 32-C , 65-H ) :   0.9639 B( 33-C , 34-C ) :   1.1674
B( 34-C , 35-C ) :   1.6282 B( 34-C , 66-H ) :   0.9675 B( 35-C , 36-C ) :   1.0061
B( 35-C , 67-H ) :   0.9150 B( 36-C , 37-C ) :   2.0992 B( 36-C , 39-C ) :   0.1732
B( 37-C , 38-C ) :   0.9170 B( 38-C , 39-C ) :   2.1806 B( 39-C , 40-C ) :   1.0492
B( 40-C , 41-S ) :   1.1861 B( 40-C , 42-C ) :   0.1171 B( 40-C , 44-C ) :   1.3231
B( 41-S , 42-C ) :   1.2344 B( 42-C , 43-C ) :   1.4111 B( 42-C , 68-H ) :   0.9537
B( 43-C , 44-C ) :   1.1729 B( 43-C , 48-C ) :   1.1752 B( 44-C , 45-N ) :   1.4559
B( 45-N , 46-C ) :   1.6451 B( 46-C , 47-N ) :   1.3168 B( 46-C , 69-H ) :   0.9736
B( 47-N , 48-C ) :   1.7786 B( 48-C , 49-C ) :   1.0850 B( 49-C , 50-N ) :   3.0691

-----------------------------------------------------------------------------
         ABSORPTION SPECTRUM VIA TRANSITION ELECTRIC DIPOLE MOMENTS
-----------------------------------------------------------------------------
State   Energy  Wavelength   fosc         T2         TX        TY        TZ
        (cm-1)    (nm)                  (au**2)     (au)      (au)      (au)
-----------------------------------------------------------------------------
   0   13736.3    728.0   1.320113857  31.63855   4.21261   2.58527   2.68493
   1   18849.4    530.5   0.044978875   0.78557  -0.59559  -0.65342   0.06242
   2   20627.7    484.8   0.087830459   1.40175   0.30153  -0.16614   1.13279
   3   23269.4    429.7   0.071221416   1.00763  -0.72182  -0.45286  -0.53059
   4   24437.2    409.2   0.717792829   9.66991  -1.91686  -0.80341  -2.31303
   5   25487.0    392.4   0.014340600   0.18524  -0.07029  -0.24111   0.34952
   6   26492.0    377.5   0.002357526   0.02930   0.09827   0.14005  -0.00509
   7   26755.8    373.8   0.004932014   0.06069   0.12525   0.10760   0.18281
   8   27409.1    364.8   0.052077573   0.62551  -0.53471   0.00040  -0.58274
   9   28261.8    353.8   0.000744688   0.00867  -0.06754   0.02391  -0.05951
  10   28320.6    353.1   0.041319047   0.48031   0.36898   0.02866   0.58596
  11   28433.4    351.7   0.012623902   0.14616  -0.07499  -0.00097   0.37489
  12   28770.9    347.6   0.004661745   0.05334  -0.17833   0.14563  -0.01818
  13   31607.3    316.4   0.002287187   0.02382  -0.08679  -0.07326  -0.10451
  14   31927.9    313.2   0.003318559   0.03422   0.13256   0.05564   0.11640
  15   32765.3    305.2   0.213868928   2.14886  -0.79253  -0.11380  -1.22793
  16   33361.3    299.7   0.015007929   0.14810  -0.23788   0.02149   0.30174
  17   33734.8    296.4   0.076946534   0.75091  -0.54607  -0.01698  -0.67262
  18   33830.7    295.6   0.015620018   0.15200   0.17664   0.09806   0.33344
  19   34734.1    287.9   0.041436529   0.39274   0.28935  -0.17839   0.52649
  20   35050.5    285.3   0.098703543   0.92707   0.39623  -0.00882   0.87749
  21   35675.1    280.3   0.015507429   0.14310  -0.14609   0.15053  -0.31481
  22   36405.0    274.7   0.024369260   0.22037  -0.20583  -0.02033   0.42142
  23   36958.4    270.6   0.011765473   0.10480   0.13703   0.28553  -0.06707
  24   37639.3    265.7   0.044233308   0.38689  -0.21486  -0.57914  -0.07292
  25   37789.7    264.6   0.164845886   1.43609  -0.62967  -0.55175  -0.85743
  26   38541.3    259.5   0.116429221   0.99451   0.17232  -0.64230   0.74315
  27   39499.1    253.2   0.103065595   0.85902  -0.49822  -0.76297  -0.16934
  28   39560.0    252.8   0.089602454   0.74566  -0.36898  -0.78071   0.00240
  29   39709.9    251.8   0.017999933   0.14923  -0.21712  -0.31858  -0.02429
  30   39958.5    250.3   0.185867627   1.53133  -0.99946  -0.67508   0.27694
  31   40167.9    249.0   0.051548034   0.42248   0.60021   0.05829   0.24256
  32   40301.7    248.1   0.017976663   0.14685  -0.14284  -0.34686   0.07828

FINAL SINGLE POINT ENERGY     -3256.025418060854

DIPOLE MOMENT
-------------
                                X             Y             Z
Electronic contribution:     -4.80330      -6.48051      -1.75944
Nuclear contribution   :      5.65233       7.90987       3.03401
                        -----------------------------------------
Total Dipole Moment    :      0.84902       1.42937       1.27457
                        -----------------------------------------
Magnitude (a.u.)       :      2.09487
Magnitude (Debye)      :      5.32473

Rotational constants in cm-1:     0.004848     0.000358     0.000338
Rotational constants in MHz :   145.345145    10.727573    10.118469

                             ****ORCA TERMINATED NORMALLY****
TOTAL RUN TIME: 0 days 0 hours 4 minutes 22 seconds 491 msec
