                         Program Version 4.2.0 -  RELEASE  -
|  1> # ORCA input file
|  2> # SCF done       -179.861195452328          0.000799449302
|  3> ! CAM-B3LYP def2-SVP def2/J RIJCOSX Grid4 TightSCF
|  4> %maxcore 5000
|  5> %tddft
|  6>     Mode sTDDFT
|  7>     Ethresh 5.0
|  8>     maxcore 5000
|  9> end
| 10>
| 11> %pal
| 12>   nprocs 6
| 13>   end
| 14> * xyz 0 1
| 15>    C       -0.60054         1.68648        -1.29466
| 16>    S       -0.17590         0.49163        -0.16341
| 17>    C       -1.52022        -0.52135        -0.58153
| 18>    C       -2.29584         0.08910        -1.55914
| 19>    C       -1.74430         1.35145        -1.99128
| 20>    N       -2.31857         2.08636        -2.96454
| 21>    C       -3.41460         1.60682        -3.47156
| 22>    N       -4.10122         0.53699        -3.04345
| 23>    C       -3.58041        -0.20514        -2.09798
| 24>    C       -4.39447        -1.22842        -1.53825
| 25>    N       -5.05240        -2.02466        -1.04298
| 26>    C       -1.67786        -1.81992        -0.01917
| 27>    S       -1.28717        -2.18441         1.64535
| 28>    C       -2.12543        -2.96022        -0.64315
| 29>    C       -2.50712        -3.35464        -2.00838
| 30>    O       -2.53299        -2.70559        -3.02629
| 31>    N       -2.82340        -4.69996        -1.90857
| 32>    C       -3.26963        -5.49045        -3.03608
| 33>    C       -2.09024        -6.07681        -3.80372
| 34>    C       -2.64889        -5.22695        -0.63632
| 35>    O       -2.85578        -6.38104        -0.34244
| 36>    C       -2.17511        -4.10176         0.18671
| 37>    C       -1.75393        -3.86886         1.48350
| 38>    C       -1.64348        -4.71254         2.61425
| 39>    C       -1.98350        -6.02985         2.60746
| 40>    C       -1.86469        -6.84361         3.75763
| 41>    N       -2.17311        -8.18047         3.78039
| 42>    C       -2.58996        -8.98563         2.65667
| 43>    C       -1.41373        -9.35373         1.75659
| 44>    C       -1.97454        -8.74804         5.05581
| 45>    O       -2.17733        -9.91409         5.31732
| 46>    C       -1.51451        -7.63822         5.86388
| 47>    C       -1.45361        -6.49173         5.04939
| 48>    C       -0.99123        -5.39778         5.87478
| 49>    O       -0.76142        -4.23126         5.62143
| 50>    N       -0.81018        -5.96212         7.15100
| 51>    C       -0.36131        -5.12215         8.23612
| 52>    C       -1.52536        -4.62372         9.08969
| 53>    C       -1.12448        -7.30405         7.16654
| 54>    C       -1.08012        -8.24956         8.21217
| 55>    C       -0.81639        -8.07092         9.53903
| 56>    C       -0.78653        -9.11218        10.49223
| 57>    C       -0.56100        -8.93581        11.84801
| 58>    C       -0.58038       -10.19276        12.49857
| 59>    C       -0.83813       -11.19091        11.44291
| 60>    C       -0.96395       -10.53767        10.25787
| 61>    C       -0.94563       -12.57593        11.61112
| 62>    N       -1.03387       -13.71631        11.71934
| 63>    C       -0.39389       -10.44854        13.84417
| 64>    C       -0.36509       -11.70526        14.49587
| 65>    C       -0.13795       -11.51463        15.84828
| 66>    C       -0.02646       -10.08243        16.07815
| 67>    C       -0.17246        -9.43340        14.89393
| 68>    C       -0.12485        -8.04575        14.73106
| 69>    N       -0.08116        -6.90100        14.63671
| 70>    C       -0.00995       -12.47250        16.88010
| 71>    C       -0.07891       -13.82087        16.70437
| 72>    C        0.06618       -14.76785        17.73564
| 73>    S        0.34429       -14.37363        19.40389
| 74>    C        0.39734       -16.01051        19.88998
| 75>    C        0.21059       -16.86186        18.82618
| 76>    C        0.01801       -16.16304        17.58223
| 77>    N       -0.18001       -16.80811        16.42538
| 78>    C       -0.18979       -18.11185        16.48558
| 79>    N       -0.02178       -18.87624        17.57352
| 80>    C        0.17554       -18.28353        18.72626
| 81>    C        0.36116       -19.06800        19.89581
| 82>    N        0.51398       -19.64545        20.87305
| 83>    H        0.00539         2.55921        -1.42846
| 84>    H       -3.86506         2.15282        -4.28896
| 85>    H       -3.85624        -4.83334        -3.68208
| 86>    H       -3.90430        -6.28728        -2.64185
| 87>    H       -1.45627        -5.27906        -4.18367
| 88>    H       -2.45389        -6.66328        -4.64246
| 89>    H       -1.50045        -6.72102        -3.15541
| 90>    H       -1.26577        -4.25549         3.52009
| 91>    H       -2.36017        -6.47954         1.70055
| 92>    H       -3.35432        -8.45293         2.08593
| 93>    H       -3.02740        -9.89307         3.08202
| 94>    H       -0.96546        -8.46345         1.32238
| 95>    H       -1.75960        -9.99460         0.95099
| 96>    H       -0.65699        -9.88696         2.32734
| 97>    H        0.12983        -4.26425         7.76637
| 98>    H        0.37810        -5.66081         8.83284
| 99>    H       -2.17949        -3.99801         8.48753
|100>    H       -1.14749        -4.03329         9.91980
|101>    H       -2.11078        -5.45136         9.48413
|102>    H       -1.31457        -9.24801         7.86570
|103>    H       -0.62399        -7.08868         9.94232
|104>    H       -0.39284        -7.99451        12.33360
|105>    H       -1.15885       -10.99431         9.30576
|106>    H       -0.49369       -12.64743        14.00199
|107>    H        0.14553        -9.62944        17.03755
|108>    H        0.16412       -12.08786        17.87871
|109>    H       -0.24910       -14.24397        15.72415
|110>    H        0.56110       -16.26403        20.91858
|111>    H       -0.34950       -18.64684        15.55990
|112> *
|113>
|114>                          ****END OF INPUT****

CARTESIAN COORDINATES (ANGSTROEM)
---------------------------------
  C     -0.600540    1.686480   -1.294660
  S     -0.175900    0.491630   -0.163410
  C     -1.520220   -0.521350   -0.581530
  C     -2.295840    0.089100   -1.559140
  C     -1.744300    1.351450   -1.991280
  N     -2.318570    2.086360   -2.964540
  C     -3.414600    1.606820   -3.471560
  N     -4.101220    0.536990   -3.043450
  C     -3.580410   -0.205140   -2.097980
  C     -4.394470   -1.228420   -1.538250
  N     -5.052400   -2.024660   -1.042980
  C     -1.677860   -1.819920   -0.019170
  S     -1.287170   -2.184410    1.645350
  C     -2.125430   -2.960220   -0.643150
  C     -2.507120   -3.354640   -2.008380
  O     -2.532990   -2.705590   -3.026290
  N     -2.823400   -4.699960   -1.908570
  C     -3.269630   -5.490450   -3.036080
  C     -2.090240   -6.076810   -3.803720
  C     -2.648890   -5.226950   -0.636320
  O     -2.855780   -6.381040   -0.342440
  C     -2.175110   -4.101760    0.186710
  C     -1.753930   -3.868860    1.483500
  C     -1.643480   -4.712540    2.614250
  C     -1.983500   -6.029850    2.607460
  C     -1.864690   -6.843610    3.757630
  N     -2.173110   -8.180470    3.780390
  C     -2.589960   -8.985630    2.656670
  C     -1.413730   -9.353730    1.756590
  C     -1.974540   -8.748040    5.055810
  O     -2.177330   -9.914090    5.317320
  C     -1.514510   -7.638220    5.863880
  C     -1.453610   -6.491730    5.049390
  C     -0.991230   -5.397780    5.874780
  O     -0.761420   -4.231260    5.621430
  N     -0.810180   -5.962120    7.151000
  C     -0.361310   -5.122150    8.236120
  C     -1.525360   -4.623720    9.089690
  C     -1.124480   -7.304050    7.166540
  C     -1.080120   -8.249560    8.212170
  C     -0.816390   -8.070920    9.539030
  C     -0.786530   -9.112180   10.492230
  C     -0.561000   -8.935810   11.848010
  C     -0.580380  -10.192760   12.498570
  C     -0.838130  -11.190910   11.442910
  C     -0.963950  -10.537670   10.257870
  C     -0.945630  -12.575930   11.611120
  N     -1.033870  -13.716310   11.719340
  C     -0.393890  -10.448540   13.844170
  C     -0.365090  -11.705260   14.495870
  C     -0.137950  -11.514630   15.848280
  C     -0.026460  -10.082430   16.078150
  C     -0.172460   -9.433400   14.893930
  C     -0.124850   -8.045750   14.731060
  N     -0.081160   -6.901000   14.636710
  C     -0.009950  -12.472500   16.880100
  C     -0.078910  -13.820870   16.704370
  C      0.066180  -14.767850   17.735640
  S      0.344290  -14.373630   19.403890
  C      0.397340  -16.010510   19.889980
  C      0.210590  -16.861860   18.826180
  C      0.018010  -16.163040   17.582230
  N     -0.180010  -16.808110   16.425380
  C     -0.189790  -18.111850   16.485580
  N     -0.021780  -18.876240   17.573520
  C      0.175540  -18.283530   18.726260
  C      0.361160  -19.068000   19.895810
  N      0.513980  -19.645450   20.873050
  H      0.005390    2.559210   -1.428460
  H     -3.865060    2.152820   -4.288960
  H     -3.856240   -4.833340   -3.682080
  H     -3.904300   -6.287280   -2.641850
  H     -1.456270   -5.279060   -4.183670
  H     -2.453890   -6.663280   -4.642460
  H     -1.500450   -6.721020   -3.155410
  H     -1.265770   -4.255490    3.520090
  H     -2.360170   -6.479540    1.700550
  H     -3.354320   -8.452930    2.085930
  H     -3.027400   -9.893070    3.082020
  H     -0.965460   -8.463450    1.322380
  H     -1.759600   -9.994600    0.950990
  H     -0.656990   -9.886960    2.327340
  H      0.129830   -4.264250    7.766370
  H      0.378100   -5.660810    8.832840
  H     -2.179490   -3.998010    8.487530
  H     -1.147490   -4.033290    9.919800
  H     -2.110780   -5.451360    9.484130
  H     -1.314570   -9.248010    7.865700
  H     -0.623990   -7.088680    9.942320
  H     -0.392840   -7.994510   12.333600
  H     -1.158850  -10.994310    9.305760
  H     -0.493690  -12.647430   14.001990
  H      0.145530   -9.629440   17.037550
  H      0.164120  -12.087860   17.878710
  H     -0.249100  -14.243970   15.724150
  H      0.561100  -16.264030   20.918580
  H     -0.349500  -18.646840   15.559900

 Total Charge           Charge          ....    0
 Multiplicity           Mult            ....    1
 Number of Electrons    NEL             ....  486
 Basis Dimension        Dim             .... 1109

ORBITAL ENERGIES
----------------

  NO   OCC          E(Eh)            E(eV)
   0   2.0000     -89.002798     -2421.8893
   1   2.0000     -89.001495     -2421.8538
   2   2.0000     -88.988114     -2421.4897
   3   2.0000     -19.225030      -523.1397
   4   2.0000     -19.219995      -523.0027
   5   2.0000     -19.196240      -522.3562
   6   2.0000     -19.196188      -522.3548
   7   2.0000     -14.463701      -393.5773
   8   2.0000     -14.457974      -393.4215
   9   2.0000     -14.457009      -393.3952
  10   2.0000     -14.438585      -392.8939
  11   2.0000     -14.432836      -392.7374
  12   2.0000     -14.432415      -392.7260
  13   2.0000     -14.430661      -392.6782
  14   2.0000     -14.425258      -392.5312
  15   2.0000     -14.424193      -392.5022
  16   2.0000     -14.408278      -392.0692
  17   2.0000     -14.406821      -392.0295
  18   2.0000     -10.406697      -283.1806
  19   2.0000     -10.402932      -283.0782
  20   2.0000     -10.379515      -282.4410
  21   2.0000     -10.378877      -282.4236
  22   2.0000     -10.378525      -282.4140
  23   2.0000     -10.375327      -282.3270
  24   2.0000     -10.351778      -281.6862
  25   2.0000     -10.347298      -281.5643
  26   2.0000     -10.346757      -281.5496
  27   2.0000     -10.346393      -281.5397
  28   2.0000     -10.343185      -281.4524
  29   2.0000     -10.341690      -281.4117
  30   2.0000     -10.341013      -281.3933
  31   2.0000     -10.337126      -281.2875
  32   2.0000     -10.333626      -281.1923
  33   2.0000     -10.333297      -281.1833
  34   2.0000     -10.327929      -281.0372
  35   2.0000     -10.323352      -280.9127
  36   2.0000     -10.320850      -280.8446
  37   2.0000     -10.319739      -280.8144
  38   2.0000     -10.319600      -280.8106
  39   2.0000     -10.319120      -280.7975
  40   2.0000     -10.318213      -280.7728
  41   2.0000     -10.316407      -280.7237
  42   2.0000     -10.314513      -280.6722
  43   2.0000     -10.313868      -280.6546
  44   2.0000     -10.310837      -280.5721
  45   2.0000     -10.310338      -280.5586
  46   2.0000     -10.310046      -280.5506
  47   2.0000     -10.308747      -280.5153
  48   2.0000     -10.306613      -280.4572
  49   2.0000     -10.306574      -280.4561
  50   2.0000     -10.306036      -280.4415
  51   2.0000     -10.305742      -280.4335
  52   2.0000     -10.304920      -280.4111
  53   2.0000     -10.304765      -280.4069
  54   2.0000     -10.304655      -280.4039
  55   2.0000     -10.301286      -280.3122
  56   2.0000     -10.301199      -280.3099
  57   2.0000     -10.301086      -280.3068
  58   2.0000     -10.300536      -280.2918
  59   2.0000     -10.297520      -280.2098
  60   2.0000     -10.295223      -280.1473
  61   2.0000     -10.281722      -279.7799
  62   2.0000     -10.278656      -279.6964
  63   2.0000     -10.269162      -279.4381
  64   2.0000     -10.266418      -279.3634
  65   2.0000     -10.264560      -279.3129
  66   2.0000     -10.263311      -279.2789
  67   2.0000     -10.260338      -279.1980
  68   2.0000      -8.097910      -220.3553
  69   2.0000      -8.096341      -220.3126
  70   2.0000      -8.083416      -219.9609
  71   2.0000      -6.066703      -165.0834
  72   2.0000      -6.065063      -165.0388
  73   2.0000      -6.062349      -164.9649
  74   2.0000      -6.061303      -164.9365
  75   2.0000      -6.060881      -164.9250
  76   2.0000      -6.059762      -164.8945
  77   2.0000      -6.052756      -164.7039
  78   2.0000      -6.048459      -164.5869
  79   2.0000      -6.045499      -164.5064
  80   2.0000      -1.168765       -31.8037
  81   2.0000      -1.145129       -31.1606
  82   2.0000      -1.138205       -30.9721
  83   2.0000      -1.131594       -30.7922
  84   2.0000      -1.106394       -30.1065
  85   2.0000      -1.101268       -29.9670
  86   2.0000      -1.067997       -29.0617
  87   2.0000      -1.060236       -28.8505
  88   2.0000      -1.058716       -28.8091
  89   2.0000      -1.024719       -27.8840
  90   2.0000      -1.024374       -27.8746
  91   2.0000      -1.016591       -27.6628
  92   2.0000      -1.013932       -27.5905
  93   2.0000      -1.011673       -27.5290
  94   2.0000      -1.002346       -27.2752
  95   2.0000      -0.998903       -27.1815
  96   2.0000      -0.991938       -26.9920
  97   2.0000      -0.987757       -26.8782
  98   2.0000      -0.984308       -26.7844
  99   2.0000      -0.979877       -26.6638
 100   2.0000      -0.933356       -25.3979
 101   2.0000      -0.924254       -25.1502
 102   2.0000      -0.922150       -25.0930
 103   2.0000      -0.913138       -24.8478
 104   2.0000      -0.908483       -24.7211
 105   2.0000      -0.892978       -24.2992
 106   2.0000      -0.890398       -24.2289
 107   2.0000      -0.882498       -24.0140
 108   2.0000      -0.871993       -23.7281
 109   2.0000      -0.867518       -23.6064
 110   2.0000      -0.855841       -23.2886
 111   2.0000      -0.847545       -23.0629
 112   2.0000      -0.837981       -22.8026
 113   2.0000      -0.831816       -22.6349
 114   2.0000      -0.824534       -22.4367
 115   2.0000      -0.821940       -22.3661
 116   2.0000      -0.806513       -21.9463
 117   2.0000      -0.801520       -21.8105
 118   2.0000      -0.801019       -21.7968
 119   2.0000      -0.790122       -21.5003
 120   2.0000      -0.771697       -20.9989
 121   2.0000      -0.761793       -20.7294
 122   2.0000      -0.761272       -20.7153
 123   2.0000      -0.752030       -20.4638
 124   2.0000      -0.743818       -20.2403
 125   2.0000      -0.732320       -19.9274
 126   2.0000      -0.728079       -19.8120
 127   2.0000      -0.724484       -19.7142
 128   2.0000      -0.720042       -19.5933
 129   2.0000      -0.712215       -19.3804
 130   2.0000      -0.710264       -19.3273
 131   2.0000      -0.704059       -19.1584
 132   2.0000      -0.700043       -19.0491
 133   2.0000      -0.688857       -18.7448
 134   2.0000      -0.677930       -18.4474
 135   2.0000      -0.672565       -18.3014
 136   2.0000      -0.669954       -18.2304
 137   2.0000      -0.655295       -17.8315
 138   2.0000      -0.653138       -17.7728
 139   2.0000      -0.648662       -17.6510
 140   2.0000      -0.644520       -17.5383
 141   2.0000      -0.642868       -17.4933
 142   2.0000      -0.636928       -17.3317
 143   2.0000      -0.628862       -17.1122
 144   2.0000      -0.624252       -16.9868
 145   2.0000      -0.615054       -16.7365
 146   2.0000      -0.601629       -16.3711
 147   2.0000      -0.594607       -16.1801
 148   2.0000      -0.590428       -16.0664
 149   2.0000      -0.587798       -15.9948
 150   2.0000      -0.585748       -15.9390
 151   2.0000      -0.579900       -15.7799
 152   2.0000      -0.576366       -15.6837
 153   2.0000      -0.569194       -15.4886
 154   2.0000      -0.566752       -15.4221
 155   2.0000      -0.563756       -15.3406
 156   2.0000      -0.559301       -15.2194
 157   2.0000      -0.557138       -15.1605
 158   2.0000      -0.553180       -15.0528
 159   2.0000      -0.553037       -15.0489
 160   2.0000      -0.548081       -14.9140
 161   2.0000      -0.547252       -14.8915
 162   2.0000      -0.539959       -14.6930
 163   2.0000      -0.537305       -14.6208
 164   2.0000      -0.533360       -14.5135
 165   2.0000      -0.532897       -14.5009
 166   2.0000      -0.531706       -14.4685
 167   2.0000      -0.530979       -14.4487
 168   2.0000      -0.526797       -14.3349
 169   2.0000      -0.524528       -14.2731
 170   2.0000      -0.522957       -14.2304
 171   2.0000      -0.519285       -14.1305
 172   2.0000      -0.518355       -14.1051
 173   2.0000      -0.516206       -14.0467
 174   2.0000      -0.513160       -13.9638
 175   2.0000      -0.512583       -13.9481
 176   2.0000      -0.508094       -13.8259
 177   2.0000      -0.505482       -13.7549
 178   2.0000      -0.502103       -13.6629
 179   2.0000      -0.499783       -13.5998
 180   2.0000      -0.496911       -13.5216
 181   2.0000      -0.495919       -13.4946
 182   2.0000      -0.494305       -13.4507
 183   2.0000      -0.493715       -13.4347
 184   2.0000      -0.486747       -13.2451
 185   2.0000      -0.483307       -13.1514
 186   2.0000      -0.478891       -13.0313
 187   2.0000      -0.476413       -12.9639
 188   2.0000      -0.473857       -12.8943
 189   2.0000      -0.473291       -12.8789
 190   2.0000      -0.470040       -12.7904
 191   2.0000      -0.468717       -12.7544
 192   2.0000      -0.467039       -12.7088
 193   2.0000      -0.464434       -12.6379
 194   2.0000      -0.463594       -12.6150
 195   2.0000      -0.460666       -12.5354
 196   2.0000      -0.458395       -12.4736
 197   2.0000      -0.457202       -12.4411
 198   2.0000      -0.456543       -12.4232
 199   2.0000      -0.453470       -12.3395
 200   2.0000      -0.453125       -12.3302
 201   2.0000      -0.451347       -12.2818
 202   2.0000      -0.449949       -12.2437
 203   2.0000      -0.446412       -12.1475
 204   2.0000      -0.443553       -12.0697
 205   2.0000      -0.442807       -12.0494
 206   2.0000      -0.440462       -11.9856
 207   2.0000      -0.438795       -11.9402
 208   2.0000      -0.438209       -11.9243
 209   2.0000      -0.435606       -11.8535
 210   2.0000      -0.434305       -11.8180
 211   2.0000      -0.431721       -11.7477
 212   2.0000      -0.429905       -11.6983
 213   2.0000      -0.428809       -11.6685
 214   2.0000      -0.424308       -11.5460
 215   2.0000      -0.422467       -11.4959
 216   2.0000      -0.415036       -11.2937
 217   2.0000      -0.413260       -11.2454
 218   2.0000      -0.404192       -10.9986
 219   2.0000      -0.395962       -10.7747
 220   2.0000      -0.395345       -10.7579
 221   2.0000      -0.393253       -10.7010
 222   2.0000      -0.389283       -10.5929
 223   2.0000      -0.385088       -10.4788
 224   2.0000      -0.373482       -10.1630
 225   2.0000      -0.372382       -10.1330
 226   2.0000      -0.363846        -9.9008
 227   2.0000      -0.361576        -9.8390
 228   2.0000      -0.357224        -9.7206
 229   2.0000      -0.353442        -9.6176
 230   2.0000      -0.351465        -9.5638
 231   2.0000      -0.350929        -9.5493
 232   2.0000      -0.345474        -9.4008
 233   2.0000      -0.340471        -9.2647
 234   2.0000      -0.336874        -9.1668
 235   2.0000      -0.331754        -9.0275
 236   2.0000      -0.329124        -8.9559
 237   2.0000      -0.320580        -8.7234
 238   2.0000      -0.317224        -8.6321
 239   2.0000      -0.302075        -8.2199
 240   2.0000      -0.287440        -7.8216
 241   2.0000      -0.265260        -7.2181
 242   2.0000      -0.234294        -6.3755
 243   0.0000      -0.132271        -3.5993
 244   0.0000      -0.097261        -2.6466
 245   0.0000      -0.087979        -2.3940
 246   0.0000      -0.082036        -2.2323
 247   0.0000      -0.037771        -1.0278

MULLIKEN ATOMIC CHARGES
-----------------------
   0 C :   -0.119114
   1 S :    0.217980
   2 C :   -0.191017
   3 C :    0.211781
   4 C :    0.032371
   5 N :   -0.046405
   6 C :    0.086595
   7 N :   -0.055812
   8 C :   -0.145462
   9 C :   -0.188987
  10 N :    0.157673
  11 C :   -0.162746
  12 S :    0.199686
  13 C :    0.045679
  14 C :    0.175130
  15 O :   -0.168921
  16 N :   -0.294712
  17 C :    0.135662
  18 C :   -0.008711
  19 C :    0.214829
  20 O :   -0.180091
  21 C :    0.001737
  22 C :   -0.147590
  23 C :    0.070631
  24 C :   -0.026336
  25 C :    0.140693
  26 N :   -0.263099
  27 C :    0.100176
  28 C :    0.007138
  29 C :    0.149241
  30 O :   -0.186064
  31 C :   -0.037682
  32 C :   -0.058476
  33 C :    0.159630
  34 O :   -0.215250
  35 N :   -0.266395
  36 C :    0.103076
  37 C :    0.001353
  38 C :    0.123073
  39 C :   -0.035660
  40 C :    0.005452
  41 C :    0.109360
  42 C :   -0.119436
  43 C :    0.122808
  44 C :   -0.104060
  45 C :   -0.003344
  46 C :   -0.168315
  47 N :    0.132608
  48 C :    0.120207
  49 C :   -0.125902
  50 C :    0.122402
  51 C :   -0.008859
  52 C :   -0.096471
  53 C :   -0.172519
  54 N :    0.123349
  55 C :   -0.019644
  56 C :    0.020512
  57 C :   -0.130062
  58 S :    0.192270
  59 C :   -0.111849
  60 C :    0.117628
  61 C :    0.030185
  62 N :   -0.038301
  63 C :    0.086299
  64 N :   -0.048083
  65 C :   -0.143748
  66 C :   -0.160558
  67 N :    0.158858
  68 H :    0.031603
  69 H :    0.022833
  70 H :    0.037407
  71 H :    0.035147
  72 H :    0.028953
  73 H :    0.025755
  74 H :    0.023435
  75 H :   -0.002033
  76 H :   -0.004079
  77 H :    0.039300
  78 H :    0.040476
  79 H :    0.016774
  80 H :    0.025860
  81 H :    0.024105
  82 H :    0.041247
  83 H :    0.026177
  84 H :    0.028563
  85 H :    0.027717
  86 H :    0.022187
  87 H :    0.005842
  88 H :   -0.013825
  89 H :   -0.001743
  90 H :    0.012313
  91 H :    0.001853
  92 H :   -0.006042
  93 H :   -0.018276
  94 H :    0.027095
  95 H :    0.047580
  96 H :    0.027384
Sum of atomic charges:   -0.0000000

LOEWDIN ATOMIC CHARGES
----------------------
   0 C :   -0.182378
   1 S :    0.531602
   2 C :   -0.197603
   3 C :   -0.061653
   4 C :   -0.028688
   5 N :   -0.065352
   6 C :    0.046111
   7 N :   -0.057115
   8 C :    0.017462
   9 C :   -0.018201
  10 N :   -0.036519
  11 C :   -0.165100
  12 S :    0.473628
  13 C :   -0.081685
  14 C :    0.092135
  15 O :   -0.162449
  16 N :   -0.018982
  17 C :    0.046115
  18 C :   -0.059708
  19 C :    0.101216
  20 O :   -0.164823
  21 C :   -0.083496
  22 C :   -0.129884
  23 C :   -0.000069
  24 C :   -0.022686
  25 C :    0.083577
  26 N :    0.001381
  27 C :    0.038093
  28 C :   -0.058780
  29 C :    0.080359
  30 O :   -0.188778
  31 C :   -0.101148
  32 C :   -0.123238
  33 C :    0.081171
  34 O :   -0.204043
  35 N :   -0.001123
  36 C :    0.035482
  37 C :   -0.062629
  38 C :    0.063477
  39 C :   -0.019709
  40 C :   -0.004499
  41 C :   -0.015702
  42 C :   -0.027821
  43 C :    0.032421
  44 C :   -0.076610
  45 C :    0.053000
  46 C :   -0.029153
  47 N :   -0.062892
  48 C :    0.034798
  49 C :   -0.033059
  50 C :   -0.014754
  51 C :    0.048154
  52 C :   -0.081281
  53 C :   -0.029342
  54 N :   -0.069743
  55 C :   -0.033106
  56 C :    0.004913
  57 C :   -0.183923
  58 S :    0.525510
  59 C :   -0.169040
  60 C :   -0.079547
  61 C :   -0.020303
  62 N :   -0.059617
  63 C :    0.047667
  64 N :   -0.060122
  65 C :    0.009331
  66 C :   -0.026370
  67 N :   -0.017919
  68 H :    0.036121
  69 H :    0.024019
  70 H :    0.035506
  71 H :    0.033958
  72 H :    0.028950
  73 H :    0.031720
  74 H :    0.027000
  75 H :    0.035608
  76 H :    0.032936
  77 H :    0.029910
  78 H :    0.037022
  79 H :    0.023267
  80 H :    0.032627
  81 H :    0.029256
  82 H :    0.037058
  83 H :    0.022959
  84 H :    0.032972
  85 H :    0.032874
  86 H :    0.022561
  87 H :    0.045208
  88 H :    0.035357
  89 H :    0.033617
  90 H :    0.039980
  91 H :    0.032520
  92 H :    0.035217
  93 H :    0.022166
  94 H :    0.049448
  95 H :    0.036872
  96 H :    0.026326

  Mayer bond orders larger than 0.100000
B(  0-C ,  1-S ) :   1.2165 B(  0-C ,  2-C ) :   0.1273 B(  0-C ,  4-C ) :   1.4025
B(  0-C , 68-H ) :   0.9735 B(  1-S ,  2-C ) :   1.2051 B(  2-C ,  3-C ) :   1.3856
B(  2-C , 11-C ) :   1.0961 B(  3-C ,  4-C ) :   1.1728 B(  3-C ,  8-C ) :   1.1782
B(  4-C ,  5-N ) :   1.3697 B(  5-N ,  6-C ) :   1.6738 B(  6-C ,  7-N ) :   1.3091
B(  6-C , 69-H ) :   0.9726 B(  7-N ,  8-C ) :   1.7844 B(  8-C ,  9-C ) :   1.1200
B(  9-C , 10-N ) :   3.0469 B( 11-C , 12-S ) :   1.1383 B( 11-C , 13-C ) :   1.5479
B( 12-S , 22-C ) :   1.1266 B( 13-C , 14-C ) :   0.8768 B( 13-C , 21-C ) :   1.2777
B( 14-C , 15-O ) :   2.1566 B( 14-C , 16-N ) :   1.0841 B( 16-N , 17-C ) :   0.9166
B( 16-N , 19-C ) :   1.0942 B( 17-C , 18-C ) :   1.1262 B( 17-C , 70-H ) :   0.9417
B( 17-C , 71-H ) :   0.9409 B( 18-C , 72-H ) :   0.9690 B( 18-C , 73-H ) :   0.9701
B( 18-C , 74-H ) :   0.9684 B( 19-C , 20-O ) :   2.0781 B( 19-C , 21-C ) :   0.9047
B( 21-C , 22-C ) :   1.4786 B( 22-C , 23-C ) :   1.1461 B( 23-C , 24-C ) :   1.5970
B( 23-C , 75-H ) :   0.9316 B( 24-C , 25-C ) :   1.1755 B( 24-C , 76-H ) :   0.9409
B( 25-C , 26-N ) :   1.1789 B( 25-C , 32-C ) :   1.2915 B( 26-N , 27-C ) :   0.9375
B( 26-N , 29-C ) :   1.0360 B( 27-C , 28-C ) :   1.1234 B( 27-C , 77-H ) :   0.9486
B( 27-C , 78-H ) :   0.9283 B( 28-C , 79-H ) :   0.9675 B( 28-C , 80-H ) :   0.9676
B( 28-C , 81-H ) :   0.9644 B( 29-C , 30-O ) :   2.1328 B( 29-C , 31-C ) :   0.9721
B( 31-C , 32-C ) :   1.2691 B( 31-C , 38-C ) :   1.3219 B( 32-C , 33-C ) :   0.9906
B( 33-C , 34-O ) :   2.0126 B( 33-C , 35-N ) :   1.0702 B( 34-O , 75-H ) :   0.1160
B( 35-N , 36-C ) :   0.9403 B( 35-N , 38-C ) :   1.1577 B( 36-C , 37-C ) :   1.1171
B( 36-C , 82-H ) :   0.9248 B( 36-C , 83-H ) :   0.9511 B( 37-C , 84-H ) :   0.9608
B( 37-C , 85-H ) :   0.9687 B( 37-C , 86-H ) :   0.9683 B( 38-C , 39-C ) :   1.2006
B( 39-C , 40-C ) :   1.5172 B( 39-C , 87-H ) :   0.9492 B( 40-C , 41-C ) :   1.1418
B( 40-C , 88-H ) :   0.9809 B( 41-C , 42-C ) :   1.4754 B( 41-C , 45-C ) :   1.0467
B( 42-C , 43-C ) :   1.1448 B( 42-C , 89-H ) :   1.0068 B( 43-C , 44-C ) :   1.1066
B( 43-C , 48-C ) :   1.3652 B( 44-C , 45-C ) :   1.6787 B( 44-C , 46-C ) :   1.0911
B( 45-C , 90-H ) :   1.0151 B( 46-C , 47-N ) :   2.9675 B( 48-C , 49-C ) :   1.1592
B( 48-C , 52-C ) :   1.1029 B( 49-C , 50-C ) :   1.5108 B( 49-C , 91-H ) :   0.9972
B( 50-C , 51-C ) :   1.0370 B( 50-C , 55-C ) :   1.1309 B( 51-C , 52-C ) :   1.6612
B( 51-C , 92-H ) :   1.0245 B( 52-C , 53-C ) :   1.0903 B( 53-C , 54-N ) :   2.9583
B( 55-C , 56-C ) :   1.5779 B( 55-C , 93-H ) :   0.9740 B( 56-C , 57-C ) :   1.2055
B( 56-C , 94-H ) :   0.9768 B( 57-C , 58-S ) :   1.1667 B( 57-C , 59-C ) :   0.1073
B( 57-C , 61-C ) :   1.3121 B( 58-S , 59-C ) :   1.2208 B( 59-C , 60-C ) :   1.4152
B( 59-C , 95-H ) :   0.9545 B( 60-C , 61-C ) :   1.1701 B( 60-C , 65-C ) :   1.1746
B( 61-C , 62-N ) :   1.4334 B( 62-N , 63-C ) :   1.6405 B( 63-C , 64-N ) :   1.3206
B( 63-C , 96-H ) :   0.9739 B( 64-N , 65-C ) :   1.7780 B( 65-C , 66-C ) :   1.0821
B( 66-C , 67-N ) :   3.0714

-----------------------------------------------------------------------------
         ABSORPTION SPECTRUM VIA TRANSITION ELECTRIC DIPOLE MOMENTS
-----------------------------------------------------------------------------
State   Energy  Wavelength   fosc         T2         TX        TY        TZ
        (cm-1)    (nm)                  (au**2)     (au)      (au)      (au)
-----------------------------------------------------------------------------
   0    9197.0   1087.3   1.180298389  42.24955   0.79707  -2.86403   5.78027
   1   14024.2    713.1   0.047581036   1.11695   0.07492  -0.83031   0.64956
   2   16252.0    615.3   0.291944166   5.91384  -0.30696   1.09491  -2.14960
   3   19091.4    523.8   0.001381054   0.02381  -0.06453   0.08874  -0.10852
   4   20037.0    499.1   0.262665961   4.31565  -0.05426   1.83203  -0.97795
   5   20301.5    492.6   0.070342900   1.14069   0.38224   0.58150   0.81021
   6   22943.5    435.9   0.395065974   5.66873  -0.17308   1.68255  -1.67564
   7   23414.6    427.1   0.376872585   5.29888   0.10475   1.87417  -1.33244
   8   24717.9    404.6   0.013913084   0.18530  -0.07024  -0.40859   0.11585
   9   25488.5    392.3   0.002616722   0.03380   0.00388  -0.10385   0.15165
  10   26338.4    379.7   0.061833988   0.77288  -0.37371  -0.78094  -0.15281
  11   27068.8    369.4   0.057563488   0.70009   0.04234   0.36378  -0.75230
  12   27176.3    368.0   0.019434544   0.23543  -0.06697   0.12169  -0.46490
  13   27669.5    361.4   0.063315335   0.75333   0.12165   0.76735  -0.38691
  14   28194.2    354.7   0.015715284   0.18350   0.08176   0.10753  -0.40651
  15   28282.9    353.6   0.003206355   0.03732  -0.19246   0.00248   0.01654
  16   28709.6    348.3   0.235349630   2.69874   0.30867   0.14690   1.60683
  17   29465.5    339.4   0.031311411   0.34984  -0.01632   0.57866  -0.12132
  18   30643.0    326.3   0.058065754   0.62383   0.15787   0.74341   0.21506
  19   30800.1    324.7   0.001582402   0.01691  -0.01281   0.04426  -0.12162
  20   31281.7    319.7   0.166231833   1.74944   0.05938  -0.95236   0.91593
  21   31780.3    314.7   0.009338532   0.09674  -0.05912  -0.30525  -0.00787
  22   32328.0    309.3   0.036372592   0.37040   0.22283  -0.39740   0.40350
  23   32636.7    306.4   0.025295203   0.25516   0.01629  -0.39157   0.31869
  24   32869.3    304.2   0.433381874   4.34066  -0.05230   1.96003  -0.70442
  25   34220.1    292.2   0.038710737   0.37241  -0.01440  -0.20711  -0.57386
  26   34479.1    290.0   0.158473237   1.51313  -0.68102  -1.02351  -0.04190
  27   34864.2    286.8   0.027287614   0.25767   0.12713  -0.48974   0.04079
  28   34898.7    286.5   0.096301527   0.90845  -0.00263  -0.84128   0.44799
  29   34966.2    286.0   0.031739442   0.29883  -0.01108   0.33624  -0.43087
  30   34985.3    285.8   0.001789444   0.01684   0.12573  -0.03184  -0.00416
  31   35371.6    282.7   0.029334571   0.27302  -0.11743  -0.43614   0.26270
  32   35460.6    282.0   0.016195902   0.15036  -0.08110   0.18709  -0.32982
  33   35560.8    281.2   0.000520964   0.00482  -0.00217   0.06323   0.02864
  34   35725.8    279.9   0.026746679   0.24647   0.09619  -0.39268   0.28813
  35   36121.3    276.8   0.112065380   1.02137   0.09008  -0.98799   0.19269
  36   36326.2    275.3   0.025091086   0.22739   0.14089  -0.23785  -0.38855
  37   36385.2    274.8   0.004382033   0.03965  -0.04889   0.06016   0.18341
  38   36984.5    270.4   0.037137250   0.33057  -0.00594  -0.57491  -0.00393
  39   37482.7    266.8   0.123258822   1.08259  -0.02165   0.72384  -0.74711
  40   37871.7    264.0   0.080552986   0.70023  -0.09443  -0.65004   0.51843
  41   38302.7    261.1   0.016628291   0.14292  -0.17628  -0.32070   0.09486
  42   38383.2    260.5   0.004704658   0.04035   0.03893   0.15217  -0.12523
  43   38416.9    260.3   0.073204007   0.62732  -0.03620  -0.54504   0.57353
  44   38696.2    258.4   0.004194961   0.03569  -0.04266   0.17849  -0.04486
  45   38818.8    257.6   0.003015066   0.02557  -0.05812  -0.12571   0.07993
  46   38933.4    256.8   0.010440917   0.08829   0.18452  -0.08854   0.21541
  47   39006.0    256.4   0.007444276   0.06283   0.16892  -0.07041   0.17128
  48   39178.3    255.2   0.007016223   0.05896  -0.05287   0.23558  -0.02579
  49   39447.2    253.5   0.004708164   0.03929  -0.17719  -0.06432  -0.06131
  50   39475.2    253.3   0.010732501   0.08951  -0.21768   0.02057  -0.20420
  51   39754.0    251.5   0.109595115   0.90758  -0.03767   0.89750  -0.31727
  52   40126.5    249.2   0.023771305   0.19503   0.16831   0.34500   0.21834

FINAL SINGLE POINT ENERGY     -4016.522722251816

DIPOLE MOMENT
-------------
                                X             Y             Z
Electronic contribution:      3.78113       5.33902      26.98467
Nuclear contribution   :     -2.34451      -3.45891     -27.19560
                        -----------------------------------------
Total Dipole Moment    :      1.43662       1.88011      -0.21093
                        -----------------------------------------
Magnitude (a.u.)       :      2.37554
Magnitude (Debye)      :      6.03814

Rotational constants in cm-1:     0.003266     0.000198     0.000189
Rotational constants in MHz :    97.903471     5.936345     5.651751

                             ****ORCA TERMINATED NORMALLY****
TOTAL RUN TIME: 0 days 0 hours 9 minutes 42 seconds 362 msec
