                         Program Version 4.2.0 -  RELEASE  -
|  1> # ORCA input file
|  2> # SCF done       -138.244024806091          0.000568366872
|  3> ! CAM-B3LYP def2-SVP def2/J RIJCOSX Grid4 TightSCF
|  4> %maxcore 5000
|  5> %tddft
|  6>     Mode sTDDFT
|  7>     Ethresh 5.0
|  8>     maxcore 5000
|  9> end
| 10>
| 11> %pal
| 12>   nprocs 6
| 13>   end
| 14> * xyz 0 1
| 15>    C        3.27505        -0.62839        -4.26753
| 16>    S        2.37359        -1.22010        -2.94374
| 17>    C        3.73961        -2.09392        -2.33175
| 18>    C        4.83198        -1.93315        -3.15012
| 19>    C        4.56689        -1.08089        -4.26372
| 20>    C        5.50376        -0.70746        -5.25077
| 21>    N        6.24459        -0.37245        -6.05645
| 22>    C        6.14365        -2.61582        -2.94586
| 23>    F        6.00970        -3.85523        -2.43588
| 24>    F        6.85219        -2.74285        -4.06412
| 25>    F        6.94017        -1.96064        -2.06289
| 26>    C        3.61096        -2.87518        -1.11245
| 27>    C        4.59593        -2.87098        -0.13065
| 28>    C        4.44103        -3.67014         1.00430
| 29>    C        3.24128        -4.39144         1.11103
| 30>    N        2.29223        -4.36768         0.20247
| 31>    C        2.46644        -3.64782        -0.88632
| 32>    C        5.45081        -3.74477         2.02479
| 33>    S        5.07152        -4.34813         3.61471
| 34>    C        6.69018        -4.14550         4.22079
| 35>    C        7.50435        -3.64493         3.21090
| 36>    C        6.79410        -3.42507         1.98235
| 37>    N        7.68077        -2.97342         1.05516
| 38>    C        8.92705        -2.91386         1.64516
| 39>    C       10.06105        -2.49466         0.93253
| 40>    N       10.99373        -2.15457         0.35853
| 41>    C        8.85909        -3.30852         2.96134
| 42>    C        7.00332        -4.48966         5.57794
| 43>    C        8.20811        -4.10089         6.16403
| 44>    C        8.51768        -4.45673         7.46535
| 45>    N        9.81631        -4.05087         7.94277
| 46>    O       10.34053        -3.10913         7.38687
| 47>    O       10.31984        -4.67652         8.85229
| 48>    C        7.63152        -5.20739         8.26148
| 49>    C        6.41515        -5.57038         7.66344
| 50>    C        6.10952        -5.23062         6.36877
| 51>    C        7.90980        -5.54694         9.63681
| 52>    C        7.42690        -6.63705        10.26152
| 53>    C        7.72346        -6.96755        11.61716
| 54>    S        8.73750        -5.99530        12.63714
| 55>    C        8.55447        -7.08098        13.94676
| 56>    C        7.75944        -8.14227        13.63411
| 57>    C        7.27469        -8.08982        12.29857
| 58>    C        6.42968        -9.05246        11.71943
| 59>    N        5.73753        -9.82059        11.22478
| 60>    C        7.42336        -9.25184        14.57687
| 61>    F        7.99852        -9.08302        15.77672
| 62>    F        6.10226        -9.35152        14.79605
| 63>    F        7.82734       -10.44814        14.12211
| 64>    H        2.82277         0.02256        -4.98922
| 65>    H        5.44790        -2.21636        -0.22128
| 66>    H        3.05040        -5.00922         1.97871
| 67>    H        1.66829        -3.68216        -1.61549
| 68>    H        7.51332        -2.78881         0.08111
| 69>    H        9.69470        -3.35498         3.62920
| 70>    H        8.92242        -3.50935         5.61632
| 71>    H        5.69229        -6.11516         8.24990
| 72>    H        5.16464        -5.53762         5.94531
| 73>    H        8.57652        -4.89608        10.18691
| 74>    H        6.80987        -7.35693         9.73968
| 75>    H        9.03978        -6.88971        14.88363
| 76> *
| 77>
| 78>                          ****END OF INPUT****

CARTESIAN COORDINATES (ANGSTROEM)
---------------------------------
  C      3.275050   -0.628390   -4.267530
  S      2.373590   -1.220100   -2.943740
  C      3.739610   -2.093920   -2.331750
  C      4.831980   -1.933150   -3.150120
  C      4.566890   -1.080890   -4.263720
  C      5.503760   -0.707460   -5.250770
  N      6.244590   -0.372450   -6.056450
  C      6.143650   -2.615820   -2.945860
  F      6.009700   -3.855230   -2.435880
  F      6.852190   -2.742850   -4.064120
  F      6.940170   -1.960640   -2.062890
  C      3.610960   -2.875180   -1.112450
  C      4.595930   -2.870980   -0.130650
  C      4.441030   -3.670140    1.004300
  C      3.241280   -4.391440    1.111030
  N      2.292230   -4.367680    0.202470
  C      2.466440   -3.647820   -0.886320
  C      5.450810   -3.744770    2.024790
  S      5.071520   -4.348130    3.614710
  C      6.690180   -4.145500    4.220790
  C      7.504350   -3.644930    3.210900
  C      6.794100   -3.425070    1.982350
  N      7.680770   -2.973420    1.055160
  C      8.927050   -2.913860    1.645160
  C     10.061050   -2.494660    0.932530
  N     10.993730   -2.154570    0.358530
  C      8.859090   -3.308520    2.961340
  C      7.003320   -4.489660    5.577940
  C      8.208110   -4.100890    6.164030
  C      8.517680   -4.456730    7.465350
  N      9.816310   -4.050870    7.942770
  O     10.340530   -3.109130    7.386870
  O     10.319840   -4.676520    8.852290
  C      7.631520   -5.207390    8.261480
  C      6.415150   -5.570380    7.663440
  C      6.109520   -5.230620    6.368770
  C      7.909800   -5.546940    9.636810
  C      7.426900   -6.637050   10.261520
  C      7.723460   -6.967550   11.617160
  S      8.737500   -5.995300   12.637140
  C      8.554470   -7.080980   13.946760
  C      7.759440   -8.142270   13.634110
  C      7.274690   -8.089820   12.298570
  C      6.429680   -9.052460   11.719430
  N      5.737530   -9.820590   11.224780
  C      7.423360   -9.251840   14.576870
  F      7.998520   -9.083020   15.776720
  F      6.102260   -9.351520   14.796050
  F      7.827340  -10.448140   14.122110
  H      2.822770    0.022560   -4.989220
  H      5.447900   -2.216360   -0.221280
  H      3.050400   -5.009220    1.978710
  H      1.668290   -3.682160   -1.615490
  H      7.513320   -2.788810    0.081110
  H      9.694700   -3.354980    3.629200
  H      8.922420   -3.509350    5.616320
  H      5.692290   -6.115160    8.249900
  H      5.164640   -5.537620    5.945310
  H      8.576520   -4.896080   10.186910
  H      6.809870   -7.356930    9.739680
  H      9.039780   -6.889710   14.883630

 Total Charge           Charge          ....    0
 Multiplicity           Mult            ....    1
 Number of Electrons    NEL             ....  364
 Basis Dimension        Dim             ....  758

ORBITAL ENERGIES
----------------

  NO   OCC          E(Eh)            E(eV)
   0   2.0000     -89.006119     -2421.9796
   1   2.0000     -88.991090     -2421.5707
   2   2.0000     -88.984004     -2421.3779
   3   2.0000     -24.829332      -675.6405
   4   2.0000     -24.825980      -675.5493
   5   2.0000     -24.823419      -675.4796
   6   2.0000     -24.804891      -674.9754
   7   2.0000     -24.799234      -674.8215
   8   2.0000     -24.799118      -674.8183
   9   2.0000     -19.256901      -524.0069
  10   2.0000     -19.255054      -523.9567
  11   2.0000     -14.661772      -398.9671
  12   2.0000     -14.487669      -394.2295
  13   2.0000     -14.425383      -392.5346
  14   2.0000     -14.424396      -392.5078
  15   2.0000     -14.420145      -392.3921
  16   2.0000     -14.415129      -392.2556
  17   2.0000     -10.549182      -287.0578
  18   2.0000     -10.525270      -286.4072
  19   2.0000     -10.360476      -281.9229
  20   2.0000     -10.355149      -281.7779
  21   2.0000     -10.346963      -281.5552
  22   2.0000     -10.346079      -281.5311
  23   2.0000     -10.344475      -281.4875
  24   2.0000     -10.341898      -281.4174
  25   2.0000     -10.339226      -281.3446
  26   2.0000     -10.335491      -281.2430
  27   2.0000     -10.331519      -281.1349
  28   2.0000     -10.331403      -281.1318
  29   2.0000     -10.329643      -281.0839
  30   2.0000     -10.328147      -281.0432
  31   2.0000     -10.327255      -281.0189
  32   2.0000     -10.325758      -280.9782
  33   2.0000     -10.324321      -280.9391
  34   2.0000     -10.322756      -280.8965
  35   2.0000     -10.322674      -280.8942
  36   2.0000     -10.321295      -280.8567
  37   2.0000     -10.321215      -280.8545
  38   2.0000     -10.320631      -280.8387
  39   2.0000     -10.319784      -280.8156
  40   2.0000     -10.317020      -280.7404
  41   2.0000     -10.315316      -280.6940
  42   2.0000     -10.310663      -280.5674
  43   2.0000     -10.308750      -280.5154
  44   2.0000     -10.308048      -280.4963
  45   2.0000     -10.306701      -280.4596
  46   2.0000     -10.306629      -280.4576
  47   2.0000     -10.303946      -280.3846
  48   2.0000     -10.301428      -280.3161
  49   2.0000      -8.101964      -220.4657
  50   2.0000      -8.086768      -220.0521
  51   2.0000      -8.078437      -219.8254
  52   2.0000      -6.071138      -165.2041
  53   2.0000      -6.066640      -165.0817
  54   2.0000      -6.064518      -165.0239
  55   2.0000      -6.055928      -164.7902
  56   2.0000      -6.051651      -164.6738
  57   2.0000      -6.049199      -164.6071
  58   2.0000      -6.047743      -164.5675
  59   2.0000      -6.043577      -164.4541
  60   2.0000      -6.040767      -164.3776
  61   2.0000      -1.416650       -38.5490
  62   2.0000      -1.391637       -37.8684
  63   2.0000      -1.337382       -36.3920
  64   2.0000      -1.320198       -35.9244
  65   2.0000      -1.314603       -35.7722
  66   2.0000      -1.295425       -35.2503
  67   2.0000      -1.291284       -35.1376
  68   2.0000      -1.155680       -31.4477
  69   2.0000      -1.112063       -30.2608
  70   2.0000      -1.064040       -28.9540
  71   2.0000      -1.039845       -28.2956
  72   2.0000      -1.028184       -27.9783
  73   2.0000      -1.012268       -27.5452
  74   2.0000      -1.004556       -27.3354
  75   2.0000      -1.001560       -27.2538
  76   2.0000      -0.994536       -27.0627
  77   2.0000      -0.992709       -27.0130
  78   2.0000      -0.945142       -25.7186
  79   2.0000      -0.934186       -25.4205
  80   2.0000      -0.924906       -25.1680
  81   2.0000      -0.915751       -24.9189
  82   2.0000      -0.910832       -24.7850
  83   2.0000      -0.895144       -24.3581
  84   2.0000      -0.894621       -24.3439
  85   2.0000      -0.887117       -24.1397
  86   2.0000      -0.866303       -23.5733
  87   2.0000      -0.861453       -23.4413
  88   2.0000      -0.851016       -23.1573
  89   2.0000      -0.817265       -22.2389
  90   2.0000      -0.805739       -21.9253
  91   2.0000      -0.804865       -21.9015
  92   2.0000      -0.779043       -21.1988
  93   2.0000      -0.768981       -20.9250
  94   2.0000      -0.761343       -20.7172
  95   2.0000      -0.751450       -20.4480
  96   2.0000      -0.747778       -20.3481
  97   2.0000      -0.728069       -19.8118
  98   2.0000      -0.723116       -19.6770
  99   2.0000      -0.721753       -19.6399
 100   2.0000      -0.715540       -19.4708
 101   2.0000      -0.713537       -19.4163
 102   2.0000      -0.701506       -19.0889
 103   2.0000      -0.699897       -19.0452
 104   2.0000      -0.696330       -18.9481
 105   2.0000      -0.693198       -18.8629
 106   2.0000      -0.676294       -18.4029
 107   2.0000      -0.675204       -18.3732
 108   2.0000      -0.673565       -18.3286
 109   2.0000      -0.666118       -18.1260
 110   2.0000      -0.652028       -17.7426
 111   2.0000      -0.643648       -17.5145
 112   2.0000      -0.632713       -17.2170
 113   2.0000      -0.629370       -17.1260
 114   2.0000      -0.621254       -16.9052
 115   2.0000      -0.618073       -16.8186
 116   2.0000      -0.607645       -16.5349
 117   2.0000      -0.607224       -16.5234
 118   2.0000      -0.598600       -16.2887
 119   2.0000      -0.589146       -16.0315
 120   2.0000      -0.580830       -15.8052
 121   2.0000      -0.579498       -15.7689
 122   2.0000      -0.576219       -15.6797
 123   2.0000      -0.575621       -15.6634
 124   2.0000      -0.561338       -15.2748
 125   2.0000      -0.559215       -15.2170
 126   2.0000      -0.558377       -15.1942
 127   2.0000      -0.554784       -15.0964
 128   2.0000      -0.551883       -15.0175
 129   2.0000      -0.547798       -14.9064
 130   2.0000      -0.542941       -14.7742
 131   2.0000      -0.541930       -14.7467
 132   2.0000      -0.537175       -14.6173
 133   2.0000      -0.534062       -14.5326
 134   2.0000      -0.532106       -14.4793
 135   2.0000      -0.526888       -14.3373
 136   2.0000      -0.526104       -14.3160
 137   2.0000      -0.521223       -14.1832
 138   2.0000      -0.516151       -14.0452
 139   2.0000      -0.514931       -14.0120
 140   2.0000      -0.512471       -13.9451
 141   2.0000      -0.508962       -13.8496
 142   2.0000      -0.507632       -13.8134
 143   2.0000      -0.505833       -13.7644
 144   2.0000      -0.504546       -13.7294
 145   2.0000      -0.501607       -13.6494
 146   2.0000      -0.500656       -13.6235
 147   2.0000      -0.490407       -13.3447
 148   2.0000      -0.488570       -13.2947
 149   2.0000      -0.486217       -13.2306
 150   2.0000      -0.481202       -13.0942
 151   2.0000      -0.475618       -12.9422
 152   2.0000      -0.472384       -12.8542
 153   2.0000      -0.465321       -12.6620
 154   2.0000      -0.458903       -12.4874
 155   2.0000      -0.451734       -12.2923
 156   2.0000      -0.451126       -12.2758
 157   2.0000      -0.448163       -12.1951
 158   2.0000      -0.447034       -12.1644
 159   2.0000      -0.444047       -12.0831
 160   2.0000      -0.440616       -11.9898
 161   2.0000      -0.439748       -11.9662
 162   2.0000      -0.434877       -11.8336
 163   2.0000      -0.429205       -11.6793
 164   2.0000      -0.424844       -11.5606
 165   2.0000      -0.423224       -11.5165
 166   2.0000      -0.418262       -11.3815
 167   2.0000      -0.408464       -11.1149
 168   2.0000      -0.397159       -10.8072
 169   2.0000      -0.393619       -10.7109
 170   2.0000      -0.392427       -10.6785
 171   2.0000      -0.385150       -10.4805
 172   2.0000      -0.367460        -9.9991
 173   2.0000      -0.361914        -9.8482
 174   2.0000      -0.361023        -9.8239
 175   2.0000      -0.358100        -9.7444
 176   2.0000      -0.349634        -9.5140
 177   2.0000      -0.348148        -9.4736
 178   2.0000      -0.328524        -8.9396
 179   2.0000      -0.319318        -8.6891
 180   2.0000      -0.303709        -8.2643
 181   2.0000      -0.261624        -7.1192
 182   0.0000      -0.086949        -2.3660
 183   0.0000      -0.060511        -1.6466
 184   0.0000      -0.050949        -1.3864
 185   0.0000      -0.044306        -1.2056
 186   0.0000      -0.018020        -0.4904

MULLIKEN ATOMIC CHARGES
-----------------------
   0 C :   -0.062803
   1 S :    0.199694
   2 C :   -0.160525
   3 C :    0.009948
   4 C :   -0.097809
   5 C :   -0.180280
   6 N :    0.152921
   7 C :    0.520157
   8 F :   -0.157397
   9 F :   -0.125168
  10 F :   -0.173025
  11 C :    0.028109
  12 C :   -0.027486
  13 C :    0.079111
  14 C :   -0.029395
  15 N :   -0.039236
  16 C :   -0.007026
  17 C :   -0.165859
  18 S :    0.133082
  19 C :   -0.141458
  20 C :    0.117248
  21 C :    0.117117
  22 N :   -0.041337
  23 C :   -0.091809
  24 C :   -0.144782
  25 N :    0.176874
  26 C :   -0.049509
  27 C :    0.160879
  28 C :   -0.100313
  29 C :    0.158117
  30 N :    0.244527
  31 O :   -0.226972
  32 O :   -0.231846
  33 C :    0.046917
  34 C :   -0.029315
  35 C :   -0.011453
  36 C :    0.000181
  37 C :   -0.000462
  38 C :   -0.077161
  39 S :    0.167565
  40 C :   -0.098087
  41 C :   -0.040432
  42 C :   -0.052304
  43 C :   -0.218812
  44 N :    0.151322
  45 C :    0.528668
  46 F :   -0.156425
  47 F :   -0.156044
  48 F :   -0.154832
  49 H :    0.049078
  50 H :   -0.017213
  51 H :    0.011610
  52 H :    0.005469
  53 H :    0.126410
  54 H :    0.002640
  55 H :   -0.008721
  56 H :   -0.001585
  57 H :    0.001254
  58 H :    0.018465
  59 H :    0.020475
  60 H :    0.049046
Sum of atomic charges:   -0.0000000

LOEWDIN ATOMIC CHARGES
----------------------
   0 C :   -0.141769
   1 S :    0.508614
   2 C :   -0.136899
   3 C :   -0.108285
   4 C :   -0.090375
   5 C :   -0.043435
   6 N :   -0.032366
   7 C :    0.176561
   8 F :   -0.056469
   9 F :   -0.022978
  10 F :   -0.072182
  11 C :   -0.068396
  12 C :    0.006995
  13 C :   -0.048123
  14 C :    0.020907
  15 N :   -0.050994
  16 C :    0.014714
  17 C :   -0.209939
  18 S :    0.473236
  19 C :   -0.171041
  20 C :   -0.059662
  21 C :    0.001671
  22 N :    0.069716
  23 C :   -0.016811
  24 C :   -0.044089
  25 N :   -0.026613
  26 C :   -0.037902
  27 C :   -0.029890
  28 C :    0.006581
  29 C :   -0.020933
  30 N :    0.285549
  31 O :   -0.196661
  32 O :   -0.191456
  33 C :   -0.011112
  34 C :    0.000654
  35 C :   -0.000244
  36 C :   -0.003450
  37 C :   -0.032560
  38 C :   -0.132450
  39 S :    0.492096
  40 C :   -0.151786
  41 C :   -0.102432
  42 C :   -0.095488
  43 C :   -0.039680
  44 N :   -0.041771
  45 C :    0.167989
  46 F :   -0.056505
  47 F :   -0.056378
  48 F :   -0.055074
  49 H :    0.040669
  50 H :    0.022866
  51 H :    0.017906
  52 H :    0.019696
  53 H :    0.083224
  54 H :    0.037991
  55 H :    0.038373
  56 H :    0.038494
  57 H :    0.028381
  58 H :    0.024181
  59 H :    0.041849
  60 H :    0.037283

  Mayer bond orders larger than 0.100000
B(  0-C ,  1-S ) :   1.1783 B(  0-C ,  4-C ) :   1.5762 B(  0-C , 49-H ) :   0.9745
B(  1-S ,  2-C ) :   1.1988 B(  2-C ,  3-C ) :   1.5595 B(  2-C , 11-C ) :   0.9863
B(  3-C ,  4-C ) :   1.2678 B(  3-C ,  7-C ) :   0.9389 B(  4-C ,  5-C ) :   1.0951
B(  5-C ,  6-N ) :   3.0474 B(  7-C ,  8-F ) :   1.1535 B(  7-C ,  9-F ) :   1.1946
B(  7-C , 10-F ) :   1.1084 B( 11-C , 12-C ) :   1.3965 B( 11-C , 16-C ) :   1.3446
B( 12-C , 13-C ) :   1.3830 B( 12-C , 50-H ) :   0.9757 B( 13-C , 14-C ) :   1.3050
B( 13-C , 17-C ) :   1.0557 B( 14-C , 15-N ) :   1.5854 B( 14-C , 51-H ) :   0.9826
B( 15-N , 16-C ) :   1.5543 B( 16-C , 52-H ) :   0.9888 B( 17-C , 18-S ) :   1.1158
B( 17-C , 19-C ) :   0.1299 B( 17-C , 21-C ) :   1.4425 B( 18-S , 19-C ) :   1.1425
B( 19-C , 20-C ) :   1.3675 B( 19-C , 27-C ) :   1.0949 B( 20-C , 21-C ) :   1.2153
B( 20-C , 26-C ) :   1.1485 B( 21-C , 22-N ) :   1.1728 B( 22-N , 23-C ) :   1.2054
B( 22-N , 53-H ) :   0.9208 B( 23-C , 24-C ) :   1.0510 B( 23-C , 26-C ) :   1.6043
B( 24-C , 25-N ) :   3.0570 B( 26-C , 54-H ) :   1.0087 B( 27-C , 28-C ) :   1.2986
B( 27-C , 35-C ) :   1.2872 B( 28-C , 29-C ) :   1.3799 B( 28-C , 55-H ) :   0.9910
B( 29-C , 30-N ) :   0.8772 B( 29-C , 33-C ) :   1.3458 B( 30-N , 31-O ) :   1.5533
B( 30-N , 32-O ) :   1.5191 B( 31-O , 32-O ) :   0.2651 B( 33-C , 34-C ) :   1.3320
B( 33-C , 36-C ) :   1.0716 B( 34-C , 35-C ) :   1.4270 B( 34-C , 56-H ) :   0.9886
B( 35-C , 57-H ) :   0.9871 B( 36-C , 37-C ) :   1.7121 B( 36-C , 58-H ) :   0.9490
B( 37-C , 38-C ) :   1.1645 B( 37-C , 59-H ) :   0.9599 B( 38-C , 39-S ) :   1.1426
B( 38-C , 42-C ) :   1.5008 B( 39-S , 40-C ) :   1.1757 B( 40-C , 41-C ) :   1.5872
B( 40-C , 60-H ) :   0.9669 B( 41-C , 42-C ) :   1.2523 B( 41-C , 45-C ) :   0.9435
B( 42-C , 43-C ) :   1.1329 B( 43-C , 44-N ) :   3.0087 B( 45-C , 46-F ) :   1.1770
B( 45-C , 47-F ) :   1.1781 B( 45-C , 48-F ) :   1.1797

-----------------------------------------------------------------------------
         ABSORPTION SPECTRUM VIA TRANSITION ELECTRIC DIPOLE MOMENTS
-----------------------------------------------------------------------------
State   Energy  Wavelength   fosc         T2         TX        TY        TZ
        (cm-1)    (nm)                  (au**2)     (au)      (au)      (au)
-----------------------------------------------------------------------------
   0   22310.7    448.2   1.224102511  18.06261  -0.73178   1.39310  -3.94796
   1   26342.6    379.6   0.300766419   3.75877  -1.14232   0.08326  -1.56427
   2   29806.7    335.5   0.028596257   0.31584   0.06059   0.30287  -0.46951
   3   30772.3    325.0   0.225756909   2.41522  -0.14523  -0.82561   1.30863
   4   32321.1    309.4   0.153650354   1.56503   0.60918   0.74392  -0.80031
   5   34234.6    292.1   0.111482431   1.07205   0.75725   0.32300  -0.62793
   6   35101.1    284.9   0.028674914   0.26894  -0.30218  -0.32745   0.26534
   7   36192.4    276.3   0.030524249   0.27765   0.51819  -0.06237   0.07238
   8   36604.5    273.2   0.253092372   2.27625  -1.43446  -0.11598  -0.45290
   9   38482.7    259.9   0.009193453   0.07865  -0.14259  -0.21395   0.11199
  10   39408.8    253.8   0.064144480   0.53585  -0.65841  -0.22458  -0.22782
  11   39656.2    252.2   0.007344721   0.06097  -0.12506   0.02693   0.21120
  12   40035.4    249.8   0.258557746   2.12612  -1.35092   0.06329  -0.54510

FINAL SINGLE POINT ENERGY     -3496.009107896558

DIPOLE MOMENT
-------------
                                X             Y             Z
Electronic contribution:      3.93129     -10.81949       8.78415
Nuclear contribution   :     -6.32001      12.31774      -8.82073
                        -----------------------------------------
Total Dipole Moment    :     -2.38873       1.49825      -0.03658
                        -----------------------------------------
Magnitude (a.u.)       :      2.81995
Magnitude (Debye)      :      7.16773

Rotational constants in cm-1:     0.005003     0.000472     0.000442
Rotational constants in MHz :   149.980966    14.153533    13.262676

                             ****ORCA TERMINATED NORMALLY****
TOTAL RUN TIME: 0 days 0 hours 4 minutes 7 seconds 196 msec
