                         Program Version 4.2.0 -  RELEASE  -
|  1> # ORCA input file
|  2> # SCF done       -176.167644087432          0.000585317811
|  3> ! CAM-B3LYP def2-SVP def2/J RIJCOSX Grid4 TightSCF
|  4> %maxcore 5000
|  5> %tddft
|  6>     Mode sTDDFT
|  7>     Ethresh 5.0
|  8>     maxcore 5000
|  9> end
| 10>
| 11> %pal
| 12>   nprocs 6
| 13>   end
| 14> * xyz 0 1
| 15>    C       -4.36593        -0.46018         6.75689
| 16>    S       -4.15848         1.11107         6.10206
| 17>    C       -5.64084         0.98559         5.19860
| 18>    C       -6.23293        -0.25710         5.41475
| 19>    C       -5.49574        -1.06891         6.30904
| 20>    C       -7.38714        -0.72614         4.76578
| 21>    N       -8.29620        -1.17423         4.22807
| 22>    C       -6.06200         2.07137         4.39013
| 23>    C       -7.31746         2.22597         3.89154
| 24>    C       -7.71741         3.29718         3.05739
| 25>    C       -8.97474         3.88243         2.98812
| 26>    N      -10.13395         3.51993         3.69513
| 27>    O      -11.15072         4.14960         3.45761
| 28>    O      -10.06600         2.60925         4.50409
| 29>    C       -8.92264         5.02277         2.11708
| 30>    C       -7.64612         5.18000         1.67908
| 31>    C       -6.84413         4.10689         2.18894
| 32>    C       -5.56194         3.78038         1.78180
| 33>    C       -5.05581         2.45626         1.58648
| 34>    C       -3.89171         2.52650         0.87859
| 35>    C       -3.56227         3.89840         0.66302
| 36>    N       -2.38278         4.30787         0.02503
| 37>    O       -2.16093         5.50654        -0.08982
| 38>    O       -1.63789         3.43749        -0.39190
| 39>    C       -4.55647         4.70557         1.23341
| 40>    C       -4.50517         6.09862         1.40620
| 41>    C       -5.23235         6.76865         2.35638
| 42>    C       -5.34587         8.14361         2.60636
| 43>    N       -4.77963         9.23896         2.00258
| 44>    C       -3.86436         9.27452         0.88368
| 45>    C       -4.58433         9.05856        -0.44448
| 46>    C       -5.23651        10.44334         2.57367
| 47>    O       -4.87243        11.53951         2.20624
| 48>    C       -6.16073        10.03242         3.61685
| 49>    C       -6.19582         8.63464         3.61416
| 50>    C       -7.12192         8.18783         4.63453
| 51>    O       -7.46626         7.08037         4.98544
| 52>    N       -7.58900         9.38397         5.21098
| 53>    C       -8.59519         9.36573         6.24653
| 54>    C       -9.98730         9.65210         5.68944
| 55>    C       -7.03768        10.49609         4.61888
| 56>    C       -7.32412        11.81699         4.99977
| 57>    C       -6.76783        12.90245         4.37624
| 58>    C       -7.02481        14.24337         4.72163
| 59>    C       -6.49509        15.35128         4.07465
| 60>    C       -6.98329        16.53296         4.68688
| 61>    C       -7.86074        16.08885         5.78590
| 62>    C       -7.87947        14.73035         5.79434
| 63>    C       -8.56412        16.90062         6.68317
| 64>    N       -9.15423        17.53398         7.43844
| 65>    C       -6.72136        17.84226         4.33518
| 66>    C       -7.23231        19.02029         4.93892
| 67>    C       -6.74125        20.12038         4.26803
| 68>    C       -5.87808        19.64678         3.19669
| 69>    C       -5.85498        18.28986         3.22500
| 70>    C       -5.12712        17.48542         2.34125
| 71>    N       -4.51333        16.86432         1.59528
| 72>    C       -7.00759        21.48745         4.53189
| 73>    S       -6.31873        22.74959         3.54383
| 74>    C       -7.09310        23.98905         4.46567
| 75>    C       -7.84962        23.43010         5.49596
| 76>    C       -7.79716        22.02656         5.52624
| 77>    C       -8.60648        24.15304         6.43626
| 78>    N       -9.23688        24.69282         7.22784
| 79>    C       -6.88596        25.35801         4.09037
| 80>    C       -7.41209        26.42315         4.69639
| 81>    H       -3.63600        -0.84998         7.43847
| 82>    H       -5.80263        -2.05954         6.59293
| 83>    H       -5.32266         2.84499         4.22590
| 84>    H       -8.10414         1.55226         4.20692
| 85>    H       -9.77766         5.62688         1.88042
| 86>    H       -7.30209         5.91055         0.97315
| 87>    H       -5.58798         1.56072         1.84202
| 88>    H       -3.29482         1.70823         0.52267
| 89>    H       -3.78661         6.61443         0.78684
| 90>    H       -5.82788         6.18350         3.04656
| 91>    H       -3.07304         8.53695         1.03159
| 92>    H       -3.41697        10.27257         0.89451
| 93>    H       -5.11986         8.11205        -0.45400
| 94>    H       -3.85957         9.05456        -1.25306
| 95>    H       -5.29607         9.86227        -0.61733
| 96>    H       -8.32919        10.08320         7.02762
| 97>    H       -8.57233         8.35880         6.67208
| 98>    H      -10.02516        10.62739         5.20877
| 99>    H      -10.71633         9.62918         6.49434
|100>    H      -10.25728         8.89466         4.95789
|101>    H       -8.01346        11.96415         5.81817
|102>    H       -6.08376        12.74240         3.55255
|103>    H       -5.82529        15.31663         3.23771
|104>    H       -8.43173        14.11918         6.48351
|105>    H       -7.89767        19.03704         5.77826
|106>    H       -5.35413        20.28431         2.50823
|107>    H       -8.32123        21.43355         6.25413
|108>    H       -6.23937        25.49192         3.23200
|109>    H       -8.06079        26.34060         5.55054
|110>    H       -7.20208        27.41675         4.34176
|111> *
|112>
|113>                          ****END OF INPUT****

CARTESIAN COORDINATES (ANGSTROEM)
---------------------------------
  C     -4.365930   -0.460180    6.756890
  S     -4.158480    1.111070    6.102060
  C     -5.640840    0.985590    5.198600
  C     -6.232930   -0.257100    5.414750
  C     -5.495740   -1.068910    6.309040
  C     -7.387140   -0.726140    4.765780
  N     -8.296200   -1.174230    4.228070
  C     -6.062000    2.071370    4.390130
  C     -7.317460    2.225970    3.891540
  C     -7.717410    3.297180    3.057390
  C     -8.974740    3.882430    2.988120
  N    -10.133950    3.519930    3.695130
  O    -11.150720    4.149600    3.457610
  O    -10.066000    2.609250    4.504090
  C     -8.922640    5.022770    2.117080
  C     -7.646120    5.180000    1.679080
  C     -6.844130    4.106890    2.188940
  C     -5.561940    3.780380    1.781800
  C     -5.055810    2.456260    1.586480
  C     -3.891710    2.526500    0.878590
  C     -3.562270    3.898400    0.663020
  N     -2.382780    4.307870    0.025030
  O     -2.160930    5.506540   -0.089820
  O     -1.637890    3.437490   -0.391900
  C     -4.556470    4.705570    1.233410
  C     -4.505170    6.098620    1.406200
  C     -5.232350    6.768650    2.356380
  C     -5.345870    8.143610    2.606360
  N     -4.779630    9.238960    2.002580
  C     -3.864360    9.274520    0.883680
  C     -4.584330    9.058560   -0.444480
  C     -5.236510   10.443340    2.573670
  O     -4.872430   11.539510    2.206240
  C     -6.160730   10.032420    3.616850
  C     -6.195820    8.634640    3.614160
  C     -7.121920    8.187830    4.634530
  O     -7.466260    7.080370    4.985440
  N     -7.589000    9.383970    5.210980
  C     -8.595190    9.365730    6.246530
  C     -9.987300    9.652100    5.689440
  C     -7.037680   10.496090    4.618880
  C     -7.324120   11.816990    4.999770
  C     -6.767830   12.902450    4.376240
  C     -7.024810   14.243370    4.721630
  C     -6.495090   15.351280    4.074650
  C     -6.983290   16.532960    4.686880
  C     -7.860740   16.088850    5.785900
  C     -7.879470   14.730350    5.794340
  C     -8.564120   16.900620    6.683170
  N     -9.154230   17.533980    7.438440
  C     -6.721360   17.842260    4.335180
  C     -7.232310   19.020290    4.938920
  C     -6.741250   20.120380    4.268030
  C     -5.878080   19.646780    3.196690
  C     -5.854980   18.289860    3.225000
  C     -5.127120   17.485420    2.341250
  N     -4.513330   16.864320    1.595280
  C     -7.007590   21.487450    4.531890
  S     -6.318730   22.749590    3.543830
  C     -7.093100   23.989050    4.465670
  C     -7.849620   23.430100    5.495960
  C     -7.797160   22.026560    5.526240
  C     -8.606480   24.153040    6.436260
  N     -9.236880   24.692820    7.227840
  C     -6.885960   25.358010    4.090370
  C     -7.412090   26.423150    4.696390
  H     -3.636000   -0.849980    7.438470
  H     -5.802630   -2.059540    6.592930
  H     -5.322660    2.844990    4.225900
  H     -8.104140    1.552260    4.206920
  H     -9.777660    5.626880    1.880420
  H     -7.302090    5.910550    0.973150
  H     -5.587980    1.560720    1.842020
  H     -3.294820    1.708230    0.522670
  H     -3.786610    6.614430    0.786840
  H     -5.827880    6.183500    3.046560
  H     -3.073040    8.536950    1.031590
  H     -3.416970   10.272570    0.894510
  H     -5.119860    8.112050   -0.454000
  H     -3.859570    9.054560   -1.253060
  H     -5.296070    9.862270   -0.617330
  H     -8.329190   10.083200    7.027620
  H     -8.572330    8.358800    6.672080
  H    -10.025160   10.627390    5.208770
  H    -10.716330    9.629180    6.494340
  H    -10.257280    8.894660    4.957890
  H     -8.013460   11.964150    5.818170
  H     -6.083760   12.742400    3.552550
  H     -5.825290   15.316630    3.237710
  H     -8.431730   14.119180    6.483510
  H     -7.897670   19.037040    5.778260
  H     -5.354130   20.284310    2.508230
  H     -8.321230   21.433550    6.254130
  H     -6.239370   25.491920    3.232000
  H     -8.060790   26.340600    5.550540
  H     -7.202080   27.416750    4.341760

 Total Charge           Charge          ....    0
 Multiplicity           Mult            ....    1
 Number of Electrons    NEL             ....  466
 Basis Dimension        Dim             .... 1082

ORBITAL ENERGIES
----------------

  NO   OCC          E(Eh)            E(eV)
   0   2.0000     -88.991803     -2421.5901
   1   2.0000     -88.981644     -2421.3136
   2   2.0000     -19.235977      -523.4376
   3   2.0000     -19.235130      -523.4145
   4   2.0000     -19.231259      -523.3092
   5   2.0000     -19.231133      -523.3057
   6   2.0000     -19.209899      -522.7279
   7   2.0000     -19.203638      -522.5575
   8   2.0000     -14.644957      -398.5096
   9   2.0000     -14.640294      -398.3826
  10   2.0000     -14.470371      -393.7588
  11   2.0000     -14.465311      -393.6211
  12   2.0000     -14.418487      -392.3470
  13   2.0000     -14.417499      -392.3201
  14   2.0000     -14.417056      -392.3080
  15   2.0000     -14.409031      -392.0897
  16   2.0000     -10.391753      -282.7740
  17   2.0000     -10.387160      -282.6490
  18   2.0000     -10.360886      -281.9340
  19   2.0000     -10.349437      -281.6225
  20   2.0000     -10.345054      -281.5032
  21   2.0000     -10.335427      -281.2413
  22   2.0000     -10.333869      -281.1989
  23   2.0000     -10.333060      -281.1768
  24   2.0000     -10.331574      -281.1364
  25   2.0000     -10.331350      -281.1303
  26   2.0000     -10.331089      -281.1232
  27   2.0000     -10.329174      -281.0711
  28   2.0000     -10.328920      -281.0642
  29   2.0000     -10.327264      -281.0191
  30   2.0000     -10.326248      -280.9915
  31   2.0000     -10.324985      -280.9571
  32   2.0000     -10.322800      -280.8977
  33   2.0000     -10.321892      -280.8730
  34   2.0000     -10.321806      -280.8706
  35   2.0000     -10.321671      -280.8670
  36   2.0000     -10.321334      -280.8578
  37   2.0000     -10.320378      -280.8318
  38   2.0000     -10.319021      -280.7948
  39   2.0000     -10.318773      -280.7881
  40   2.0000     -10.317819      -280.7621
  41   2.0000     -10.317360      -280.7496
  42   2.0000     -10.317131      -280.7434
  43   2.0000     -10.312640      -280.6212
  44   2.0000     -10.311988      -280.6035
  45   2.0000     -10.311842      -280.5995
  46   2.0000     -10.310879      -280.5733
  47   2.0000     -10.310669      -280.5676
  48   2.0000     -10.309477      -280.5351
  49   2.0000     -10.309075      -280.5242
  50   2.0000     -10.309053      -280.5236
  51   2.0000     -10.305391      -280.4240
  52   2.0000     -10.305208      -280.4190
  53   2.0000     -10.300617      -280.2940
  54   2.0000     -10.298508      -280.2366
  55   2.0000     -10.298057      -280.2244
  56   2.0000     -10.297585      -280.2115
  57   2.0000     -10.295500      -280.1548
  58   2.0000     -10.292659      -280.0775
  59   2.0000     -10.291902      -280.0569
  60   2.0000     -10.287517      -279.9376
  61   2.0000     -10.285254      -279.8760
  62   2.0000     -10.282650      -279.8051
  63   2.0000     -10.279653      -279.7236
  64   2.0000     -10.274834      -279.5925
  65   2.0000     -10.266264      -279.3592
  66   2.0000      -8.087341      -220.0677
  67   2.0000      -8.077636      -219.8036
  68   2.0000      -6.056371      -164.8022
  69   2.0000      -6.052397      -164.6941
  70   2.0000      -6.049789      -164.6231
  71   2.0000      -6.046800      -164.5418
  72   2.0000      -6.042494      -164.4246
  73   2.0000      -6.040091      -164.3592
  74   2.0000      -1.313883       -35.7526
  75   2.0000      -1.310406       -35.6580
  76   2.0000      -1.149774       -31.2869
  77   2.0000      -1.141771       -31.0692
  78   2.0000      -1.130908       -30.7736
  79   2.0000      -1.127660       -30.6852
  80   2.0000      -1.080069       -29.3902
  81   2.0000      -1.068566       -29.0772
  82   2.0000      -1.031404       -28.0659
  83   2.0000      -1.022609       -27.8266
  84   2.0000      -1.019347       -27.7378
  85   2.0000      -1.014485       -27.6055
  86   2.0000      -1.010044       -27.4847
  87   2.0000      -0.998133       -27.1606
  88   2.0000      -0.996699       -27.1216
  89   2.0000      -0.994793       -27.0697
  90   2.0000      -0.989236       -26.9185
  91   2.0000      -0.987469       -26.8704
  92   2.0000      -0.943678       -25.6788
  93   2.0000      -0.929170       -25.2840
  94   2.0000      -0.921788       -25.0831
  95   2.0000      -0.917754       -24.9734
  96   2.0000      -0.916225       -24.9318
  97   2.0000      -0.908269       -24.7152
  98   2.0000      -0.889545       -24.2058
  99   2.0000      -0.884766       -24.0757
 100   2.0000      -0.879391       -23.9294
 101   2.0000      -0.873872       -23.7793
 102   2.0000      -0.871116       -23.7043
 103   2.0000      -0.868912       -23.6443
 104   2.0000      -0.860068       -23.4036
 105   2.0000      -0.855006       -23.2659
 106   2.0000      -0.849126       -23.1059
 107   2.0000      -0.831565       -22.6280
 108   2.0000      -0.830635       -22.6027
 109   2.0000      -0.817189       -22.2368
 110   2.0000      -0.809460       -22.0265
 111   2.0000      -0.789435       -21.4816
 112   2.0000      -0.781381       -21.2625
 113   2.0000      -0.770803       -20.9746
 114   2.0000      -0.769623       -20.9425
 115   2.0000      -0.741200       -20.1691
 116   2.0000      -0.736100       -20.0303
 117   2.0000      -0.730719       -19.8839
 118   2.0000      -0.729552       -19.8521
 119   2.0000      -0.728993       -19.8369
 120   2.0000      -0.721596       -19.6356
 121   2.0000      -0.715266       -19.4634
 122   2.0000      -0.706107       -19.2141
 123   2.0000      -0.699492       -19.0341
 124   2.0000      -0.694588       -18.9007
 125   2.0000      -0.688540       -18.7361
 126   2.0000      -0.683631       -18.6025
 127   2.0000      -0.677456       -18.4345
 128   2.0000      -0.672300       -18.2942
 129   2.0000      -0.663074       -18.0432
 130   2.0000      -0.654551       -17.8113
 131   2.0000      -0.652523       -17.7561
 132   2.0000      -0.641686       -17.4612
 133   2.0000      -0.636729       -17.3263
 134   2.0000      -0.636077       -17.3085
 135   2.0000      -0.626105       -17.0372
 136   2.0000      -0.623533       -16.9672
 137   2.0000      -0.621222       -16.9043
 138   2.0000      -0.618490       -16.8300
 139   2.0000      -0.614170       -16.7124
 140   2.0000      -0.612598       -16.6696
 141   2.0000      -0.609574       -16.5874
 142   2.0000      -0.605640       -16.4803
 143   2.0000      -0.598059       -16.2740
 144   2.0000      -0.591127       -16.0854
 145   2.0000      -0.588661       -16.0183
 146   2.0000      -0.579595       -15.7716
 147   2.0000      -0.578277       -15.7357
 148   2.0000      -0.572113       -15.5680
 149   2.0000      -0.565771       -15.3954
 150   2.0000      -0.563062       -15.3217
 151   2.0000      -0.559209       -15.2168
 152   2.0000      -0.552765       -15.0415
 153   2.0000      -0.549707       -14.9583
 154   2.0000      -0.543728       -14.7956
 155   2.0000      -0.543015       -14.7762
 156   2.0000      -0.540943       -14.7198
 157   2.0000      -0.537983       -14.6393
 158   2.0000      -0.537552       -14.6275
 159   2.0000      -0.536101       -14.5881
 160   2.0000      -0.531956       -14.4753
 161   2.0000      -0.529659       -14.4128
 162   2.0000      -0.528137       -14.3713
 163   2.0000      -0.527274       -14.3478
 164   2.0000      -0.526544       -14.3280
 165   2.0000      -0.522338       -14.2135
 166   2.0000      -0.522094       -14.2069
 167   2.0000      -0.519141       -14.1266
 168   2.0000      -0.516711       -14.0604
 169   2.0000      -0.512054       -13.9337
 170   2.0000      -0.510930       -13.9031
 171   2.0000      -0.510811       -13.8999
 172   2.0000      -0.503246       -13.6940
 173   2.0000      -0.498230       -13.5575
 174   2.0000      -0.497891       -13.5483
 175   2.0000      -0.493146       -13.4192
 176   2.0000      -0.487945       -13.2777
 177   2.0000      -0.487183       -13.2569
 178   2.0000      -0.486324       -13.2335
 179   2.0000      -0.481997       -13.1158
 180   2.0000      -0.481294       -13.0967
 181   2.0000      -0.480238       -13.0679
 182   2.0000      -0.479328       -13.0432
 183   2.0000      -0.476126       -12.9560
 184   2.0000      -0.472292       -12.8517
 185   2.0000      -0.470136       -12.7931
 186   2.0000      -0.468408       -12.7460
 187   2.0000      -0.462101       -12.5744
 188   2.0000      -0.461083       -12.5467
 189   2.0000      -0.457974       -12.4621
 190   2.0000      -0.455650       -12.3989
 191   2.0000      -0.454618       -12.3708
 192   2.0000      -0.451736       -12.2924
 193   2.0000      -0.451657       -12.2902
 194   2.0000      -0.448275       -12.1982
 195   2.0000      -0.447544       -12.1783
 196   2.0000      -0.445402       -12.1200
 197   2.0000      -0.443904       -12.0792
 198   2.0000      -0.443303       -12.0629
 199   2.0000      -0.440029       -11.9738
 200   2.0000      -0.438243       -11.9252
 201   2.0000      -0.436266       -11.8714
 202   2.0000      -0.435269       -11.8443
 203   2.0000      -0.433921       -11.8076
 204   2.0000      -0.428019       -11.6470
 205   2.0000      -0.425533       -11.5794
 206   2.0000      -0.412995       -11.2382
 207   2.0000      -0.410983       -11.1834
 208   2.0000      -0.407467       -11.0877
 209   2.0000      -0.406983       -11.0746
 210   2.0000      -0.402985       -10.9658
 211   2.0000      -0.387311       -10.5393
 212   2.0000      -0.383036       -10.4229
 213   2.0000      -0.379871       -10.3368
 214   2.0000      -0.377471       -10.2715
 215   2.0000      -0.372502       -10.1363
 216   2.0000      -0.370221       -10.0742
 217   2.0000      -0.364030        -9.9058
 218   2.0000      -0.361975        -9.8499
 219   2.0000      -0.358306        -9.7500
 220   2.0000      -0.350070        -9.5259
 221   2.0000      -0.347041        -9.4435
 222   2.0000      -0.345742        -9.4081
 223   2.0000      -0.340874        -9.2757
 224   2.0000      -0.337378        -9.1805
 225   2.0000      -0.333073        -9.0634
 226   2.0000      -0.332132        -9.0378
 227   2.0000      -0.331854        -9.0302
 228   2.0000      -0.313858        -8.5405
 229   2.0000      -0.306648        -8.3443
 230   2.0000      -0.282398        -7.6844
 231   2.0000      -0.273821        -7.4511
 232   2.0000      -0.241113        -6.5610
 233   0.0000      -0.147173        -4.0048
 234   0.0000      -0.129553        -3.5253
 235   0.0000      -0.088686        -2.4133
 236   0.0000      -0.058926        -1.6035
 237   0.0000      -0.052957        -1.4410

MULLIKEN ATOMIC CHARGES
-----------------------
   0 C :   -0.060736
   1 S :    0.155825
   2 C :   -0.091972
   3 C :   -0.078577
   4 C :    0.065016
   5 C :   -0.188705
   6 N :    0.131522
   7 C :    0.042969
   8 C :   -0.046250
   9 C :    0.041637
  10 C :    0.103265
  11 N :    0.271026
  12 O :   -0.252212
  13 O :   -0.244543
  14 C :    0.028026
  15 C :    0.005318
  16 C :    0.015568
  17 C :    0.000324
  18 C :    0.006169
  19 C :    0.016439
  20 C :    0.084011
  21 N :    0.275352
  22 O :   -0.264396
  23 O :   -0.249113
  24 C :    0.038800
  25 C :   -0.033707
  26 C :   -0.058269
  27 C :    0.117948
  28 N :   -0.254718
  29 C :    0.096380
  30 C :    0.000685
  31 C :    0.160142
  32 O :   -0.196281
  33 C :   -0.061511
  34 C :   -0.038312
  35 C :    0.152767
  36 O :   -0.181099
  37 N :   -0.258381
  38 C :    0.094377
  39 C :    0.001838
  40 C :    0.160250
  41 C :   -0.037757
  42 C :    0.019119
  43 C :    0.103547
  44 C :   -0.097229
  45 C :    0.116358
  46 C :   -0.098773
  47 C :   -0.008138
  48 C :   -0.171547
  49 N :    0.136135
  50 C :    0.124498
  51 C :   -0.145929
  52 C :    0.156928
  53 C :   -0.025153
  54 C :   -0.085175
  55 C :   -0.183297
  56 N :    0.148774
  57 C :   -0.079261
  58 S :    0.153619
  59 C :   -0.071469
  60 C :   -0.052259
  61 C :    0.014742
  62 C :   -0.185040
  63 N :    0.127237
  64 C :    0.030052
  65 C :   -0.008421
  66 H :    0.043655
  67 H :    0.005135
  68 H :    0.011068
  69 H :    0.046059
  70 H :    0.001337
  71 H :   -0.003330
  72 H :    0.006149
  73 H :    0.004660
  74 H :    0.017850
  75 H :    0.030947
  76 H :    0.042171
  77 H :    0.046492
  78 H :    0.016691
  79 H :    0.033553
  80 H :    0.027161
  81 H :    0.026188
  82 H :    0.048273
  83 H :    0.014407
  84 H :    0.031710
  85 H :    0.035370
  86 H :   -0.027285
  87 H :    0.020478
  88 H :    0.020165
  89 H :   -0.000824
  90 H :    0.001609
  91 H :    0.008608
  92 H :    0.014064
  93 H :   -0.001597
  94 H :    0.051341
  95 H :    0.039463
Sum of atomic charges:   -0.0000000

LOEWDIN ATOMIC CHARGES
----------------------
   0 C :   -0.170980
   1 S :    0.471682
   2 C :   -0.147760
   3 C :   -0.098922
   4 C :   -0.029709
   5 C :   -0.033435
   6 N :   -0.047207
   7 C :   -0.019193
   8 C :   -0.001581
   9 C :    0.008458
  10 C :   -0.038198
  11 N :    0.285839
  12 O :   -0.215468
  13 O :   -0.208655
  14 C :    0.019558
  15 C :   -0.042122
  16 C :    0.045590
  17 C :    0.036546
  18 C :   -0.039678
  19 C :    0.012118
  20 C :   -0.054395
  21 N :    0.286286
  22 O :   -0.230147
  23 O :   -0.213382
  24 C :    0.003736
  25 C :   -0.008434
  26 C :   -0.008542
  27 C :    0.057861
  28 N :    0.001793
  29 C :    0.037664
  30 C :   -0.060988
  31 C :    0.080552
  32 O :   -0.188200
  33 C :   -0.117766
  34 C :   -0.089980
  35 C :    0.081039
  36 O :   -0.182602
  37 N :   -0.001008
  38 C :    0.036753
  39 C :   -0.060234
  40 C :    0.087931
  41 C :   -0.047101
  42 C :    0.049138
  43 C :   -0.027370
  44 C :    0.001871
  45 C :    0.026581
  46 C :   -0.076902
  47 C :    0.049624
  48 C :   -0.030300
  49 N :   -0.060953
  50 C :    0.045789
  51 C :   -0.037245
  52 C :   -0.018908
  53 C :    0.041520
  54 C :   -0.070891
  55 C :   -0.033866
  56 N :   -0.050805
  57 C :   -0.170761
  58 S :    0.473834
  59 C :   -0.129439
  60 C :   -0.103267
  61 C :    0.000965
  62 C :   -0.027510
  63 N :   -0.048855
  64 C :   -0.053886
  65 C :    0.002186
  66 H :    0.031158
  67 H :    0.042335
  68 H :    0.032844
  69 H :    0.046061
  70 H :    0.037907
  71 H :    0.030272
  72 H :    0.033545
  73 H :    0.039150
  74 H :    0.035515
  75 H :    0.046510
  76 H :    0.028802
  77 H :    0.039324
  78 H :    0.020423
  79 H :    0.036080
  80 H :    0.031307
  81 H :    0.023765
  82 H :    0.040241
  83 H :    0.021458
  84 H :    0.034052
  85 H :    0.034566
  86 H :    0.028708
  87 H :    0.044622
  88 H :    0.041624
  89 H :    0.034839
  90 H :    0.033839
  91 H :    0.033635
  92 H :    0.046900
  93 H :    0.032582
  94 H :    0.035178
  95 H :    0.034485

  Mayer bond orders larger than 0.100000
B(  0-C ,  1-S ) :   1.1696 B(  0-C ,  4-C ) :   1.5540 B(  0-C , 66-H ) :   0.9691
B(  1-S ,  2-C ) :   1.1499 B(  2-C ,  3-C ) :   1.4626 B(  2-C ,  7-C ) :   1.1640
B(  3-C ,  4-C ) :   1.2840 B(  3-C ,  5-C ) :   1.1301 B(  4-C , 67-H ) :   1.0022
B(  5-C ,  6-N ) :   2.9915 B(  7-C ,  8-C ) :   1.6159 B(  7-C , 68-H ) :   0.9393
B(  8-C ,  9-C ) :   1.1886 B(  8-C , 69-H ) :   0.9342 B(  9-C , 10-C ) :   1.5109
B(  9-C , 16-C ) :   1.0217 B( 10-C , 11-N ) :   0.9468 B( 10-C , 14-C ) :   1.1334
B( 11-N , 12-O ) :   1.5271 B( 11-N , 13-O ) :   1.5026 B( 12-O , 13-O ) :   0.2624
B( 14-C , 15-C ) :   1.5643 B( 14-C , 70-H ) :   1.0096 B( 15-C , 16-C ) :   1.1582
B( 15-C , 71-H ) :   0.9977 B( 16-C , 17-C ) :   1.4465 B( 17-C , 18-C ) :   1.1716
B( 17-C , 24-C ) :   1.0135 B( 18-C , 19-C ) :   1.5363 B( 18-C , 72-H ) :   0.9988
B( 19-C , 20-C ) :   1.1570 B( 19-C , 73-H ) :   1.0117 B( 20-C , 21-N ) :   0.9631
B( 20-C , 24-C ) :   1.4403 B( 21-N , 22-O ) :   1.4819 B( 21-N , 23-O ) :   1.5311
B( 22-O , 23-O ) :   0.2532 B( 24-C , 25-C ) :   1.2323 B( 25-C , 26-C ) :   1.4364
B( 25-C , 74-H ) :   0.9527 B( 26-C , 27-C ) :   1.2547 B( 26-C , 75-H ) :   0.9311
B( 27-C , 28-N ) :   1.1697 B( 27-C , 34-C ) :   1.2961 B( 28-N , 29-C ) :   0.9327
B( 28-N , 31-C ) :   1.0660 B( 29-C , 30-C ) :   1.1182 B( 29-C , 76-H ) :   0.9513
B( 29-C , 77-H ) :   0.9254 B( 30-C , 78-H ) :   0.9684 B( 30-C , 79-H ) :   0.9675
B( 30-C , 80-H ) :   0.9623 B( 31-C , 32-O ) :   2.0364 B( 31-C , 33-C ) :   0.9794
B( 32-O , 87-H ) :   0.1103 B( 33-C , 34-C ) :   1.2990 B( 33-C , 40-C ) :   1.2782
B( 34-C , 35-C ) :   0.9677 B( 35-C , 36-O ) :   2.1237 B( 35-C , 37-N ) :   1.0406
B( 37-N , 38-C ) :   0.9411 B( 37-N , 40-C ) :   1.1722 B( 38-C , 39-C ) :   1.1195
B( 38-C , 81-H ) :   0.9496 B( 38-C , 82-H ) :   0.9283 B( 39-C , 83-H ) :   0.9686
B( 39-C , 84-H ) :   0.9680 B( 39-C , 85-H ) :   0.9639 B( 40-C , 41-C ) :   1.1919
B( 41-C , 42-C ) :   1.5134 B( 41-C , 86-H ) :   0.9645 B( 42-C , 43-C ) :   1.1440
B( 42-C , 87-H ) :   0.9588 B( 43-C , 44-C ) :   1.4761 B( 43-C , 47-C ) :   1.0413
B( 44-C , 45-C ) :   1.1267 B( 44-C , 88-H ) :   1.0116 B( 45-C , 46-C ) :   1.1077
B( 45-C , 50-C ) :   1.3778 B( 46-C , 47-C ) :   1.6859 B( 46-C , 48-C ) :   1.0888
B( 47-C , 89-H ) :   1.0141 B( 48-C , 49-N ) :   2.9686 B( 50-C , 51-C ) :   1.1440
B( 50-C , 54-C ) :   1.1000 B( 51-C , 52-C ) :   1.5573 B( 51-C , 90-H ) :   0.9996
B( 52-C , 53-C ) :   1.0352 B( 52-C , 57-C ) :   1.0877 B( 53-C , 54-C ) :   1.6950
B( 53-C , 91-H ) :   1.0116 B( 54-C , 55-C ) :   1.0829 B( 55-C , 56-N ) :   2.9725
B( 57-C , 58-S ) :   1.1110 B( 57-C , 61-C ) :   1.4808 B( 58-S , 59-C ) :   1.1597
B( 59-C , 60-C ) :   1.4540 B( 59-C , 64-C ) :   1.1169 B( 60-C , 61-C ) :   1.2937
B( 60-C , 62-C ) :   1.1040 B( 61-C , 92-H ) :   1.0049 B( 62-C , 63-N ) :   2.9867
B( 64-C , 65-C ) :   1.9212 B( 64-C , 93-H ) :   0.9459 B( 65-C , 94-H ) :   0.9497
B( 65-C , 95-H ) :   0.9465

-----------------------------------------------------------------------------
         ABSORPTION SPECTRUM VIA TRANSITION ELECTRIC DIPOLE MOMENTS
-----------------------------------------------------------------------------
State   Energy  Wavelength   fosc         T2         TX        TY        TZ
        (cm-1)    (nm)                  (au**2)     (au)      (au)      (au)
-----------------------------------------------------------------------------
   0    5899.5   1695.1   0.422181813  23.55917   0.45933  -4.77615  -0.73250
   1   10247.3    975.9   0.279420031   8.97681  -0.44299   2.88708   0.66732
   2   11289.0    885.8   0.037023351   1.07968   0.10329  -0.45999   0.92597
   3   14493.2    690.0   0.208336487   4.73235  -0.17985  -2.12118   0.44789
   4   17495.4    571.6   0.204990299   3.85731   1.09573  -0.89653  -1.36122
   5   18114.3    552.1   0.080527660   1.46353  -0.31825   0.21041   1.14803
   6   19171.2    521.6   0.025666748   0.44076   0.05778  -0.58766  -0.30344
   7   19981.8    500.5   0.022268120   0.36688  -0.58650   0.14948  -0.02343
   8   23017.5    434.5   0.504233016   7.21189  -0.22926   2.66344  -0.25574
   9   23205.4    430.9   0.003051459   0.04329   0.04928   0.19497   0.05338
  10   23640.3    423.0   0.035256874   0.49098   0.43384  -0.44443   0.32442
  11   24057.0    415.7   0.061447029   0.84088   0.09736  -0.40959   0.81464
  12   24359.4    410.5   0.262004038   3.54092  -0.03335  -1.85206   0.33119
  13   24775.6    403.6   0.014619133   0.19426   0.39028   0.12883  -0.15919
  14   25337.6    394.7   0.089333110   1.16071   0.92977   0.54174  -0.05246
  15   25583.3    390.9   0.084076562   1.08192   0.21750  -0.93441   0.40186
  16   26272.4    380.6   0.077677768   0.97336   0.55023  -0.67527  -0.46327
  17   26540.7    376.8   0.052958015   0.65689  -0.50138   0.17641   0.61188
  18   26721.0    374.2   0.004422243   0.05448  -0.20443  -0.06777   0.09000
  19   27235.6    367.2   0.126418189   1.52809   0.02081   1.23375  -0.07432
  20   27618.8    362.1   0.007269324   0.08665  -0.04611  -0.27917   0.08118
  21   28002.9    357.1   0.023176835   0.27247  -0.40282   0.01550  -0.33162
  22   28662.0    348.9   0.039764995   0.45674  -0.50709   0.38784   0.22176
  23   28907.7    345.9   0.129789548   1.47809   0.07959  -1.20823   0.10930
  24   29272.9    341.6   0.281263797   3.16318   0.77625   1.30345  -0.92824
  25   29690.8    336.8   0.006603764   0.07322  -0.15278   0.14029   0.17378
  26   30284.9    330.2   0.251202672   2.73069  -1.40652   0.84857  -0.17983
  27   30838.3    324.3   0.204023812   2.17804  -1.24605   0.74337   0.26982
  28   30969.6    322.9   0.044812744   0.47637   0.36327   0.58444   0.05321
  29   31196.3    320.6   0.127750250   1.34814  -0.81430  -0.80201   0.20451
  30   31586.1    316.6   0.178364432   1.85904  -0.50071   1.26064   0.13827
  31   31796.3    314.5   0.087517007   0.90613   0.50042  -0.75256  -0.29893
  32   31921.3    313.3   0.139247199   1.43609  -0.80084   0.83701   0.30684
  33   32204.2    310.5   0.006935844   0.07090  -0.03359   0.17649  -0.19653
  34   32643.5    306.3   0.102973139   1.03849  -0.96943   0.27920  -0.14401
  35   32736.1    305.5   0.224096914   2.25364  -1.12721   0.89222   0.43242
  36   33742.9    296.4   0.018736831   0.18281   0.41606  -0.06823  -0.07104
  37   33876.1    295.2   0.175744563   1.70791  -1.10062   0.68483   0.16596
  38   34107.2    293.2   0.029599415   0.28570  -0.11308  -0.49598   0.16406
  39   34246.2    292.0   0.003301283   0.03174  -0.15254   0.08771   0.02784
  40   34524.1    289.7   0.028984332   0.27639  -0.28688  -0.36842   0.24156
  41   34546.4    289.5   0.026754197   0.25496   0.12440   0.48285   0.07960
  42   34616.0    288.9   0.041416544   0.39389   0.17482   0.45623  -0.39393
  43   34691.5    288.3   0.035697354   0.33876   0.08163   0.53411  -0.21637
  44   35019.0    285.6   0.217395098   2.04372  -0.01357  -1.42838   0.05722
  45   35966.4    278.0   0.008045150   0.07364   0.10731  -0.06099   0.24167
  46   36270.8    275.7   0.011247654   0.10209   0.31118   0.00012  -0.07249
  47   36324.8    275.3   0.057573940   0.52179   0.64288   0.31833  -0.08464
  48   36632.3    273.0   0.062099104   0.55808   0.15060  -0.70723  -0.18770
  49   36805.0    271.7   0.013398419   0.11985   0.11922   0.20891  -0.24897
  50   36837.0    271.5   0.014688208   0.13127  -0.21760  -0.27053   0.10360
  51   37305.9    268.1   0.023523609   0.20759  -0.21511  -0.12143   0.38285
  52   37472.8    266.9   0.013535479   0.11891   0.11433   0.04409  -0.32233
  53   37583.2    266.1   0.005881486   0.05152   0.04016  -0.13989  -0.17418
  54   37901.1    263.8   0.097452865   0.84648   0.43625   0.43029  -0.68631
  55   38273.5    261.3   0.072820657   0.62637   0.02763  -0.69198   0.38311
  56   38865.8    257.3   0.009722567   0.08235  -0.06321   0.23605  -0.15047
  57   39331.0    254.3   0.100335026   0.83983   0.34602   0.65570  -0.53866
  58   39619.2    252.4   0.033469674   0.27811   0.16576  -0.45539  -0.20799
  59   40104.2    249.4   0.000654129   0.00537   0.04056   0.05293  -0.03038
  60   40226.5    248.6   0.000565600   0.00463  -0.05345  -0.03514   0.02317
  61   40254.0    248.4   0.024030543   0.19653   0.20884   0.34866  -0.17706

FINAL SINGLE POINT ENERGY     -3604.945092260221

DIPOLE MOMENT
-------------
                                X             Y             Z
Electronic contribution:      5.15115      -2.85406       4.83423
Nuclear contribution   :     -3.63617       4.58009      -4.34974
                        -----------------------------------------
Total Dipole Moment    :      1.51498       1.72603       0.48450
                        -----------------------------------------
Magnitude (a.u.)       :      2.34714
Magnitude (Debye)      :      5.96597

Rotational constants in cm-1:     0.002524     0.000288     0.000271
Rotational constants in MHz :    75.674607     8.636947     8.115358

                             ****ORCA TERMINATED NORMALLY****
TOTAL RUN TIME: 0 days 0 hours 9 minutes 54 seconds 466 msec
