                         Program Version 4.2.0 -  RELEASE  -
|  1> # ORCA input file
|  2> # SCF done       -183.635198727010          0.000558182467
|  3> ! CAM-B3LYP def2-SVP def2/J RIJCOSX Grid4 TightSCF
|  4> %maxcore 5000
|  5> %tddft
|  6>     Mode sTDDFT
|  7>     Ethresh 5.0
|  8>     maxcore 5000
|  9> end
| 10>
| 11> %pal
| 12>   nprocs 6
| 13>   end
| 14> * xyz 0 1
| 15>    C        1.96715         6.61772         0.57046
| 16>    O        2.94690         7.64377         0.69830
| 17>    C        2.27135         8.48058        -0.23927
| 18>    C        1.21806         7.39056        -0.53605
| 19>    C       -0.17982         7.76883        -0.24873
| 20>    C       -1.19230         7.54346        -1.10026
| 21>    C       -2.57020         7.89905        -0.92915
| 22>    C       -3.18051         9.00110        -0.36297
| 23>    N       -2.62620        10.11486         0.29744
| 24>    O       -3.34206        11.09374         0.41294
| 25>    O       -1.48291        10.05721         0.71686
| 26>    C       -4.59940         8.97002        -0.65972
| 27>    C       -4.86669         7.88970        -1.42534
| 28>    C       -3.64640         7.15059        -1.61433
| 29>    C       -3.52362         5.89468        -2.16966
| 30>    C       -2.58765         4.88881        -1.76452
| 31>    C       -2.97470         3.68906        -2.28417
| 32>    C       -4.11811         3.89093        -3.11652
| 33>    N       -4.70815         2.85689        -3.86246
| 34>    O       -5.65198         3.12496        -4.59328
| 35>    O       -4.24635         1.73784        -3.73059
| 36>    C       -4.46318         5.24745        -3.10431
| 37>    C       -5.37760         5.87821        -3.96558
| 38>    C       -5.31849         7.21092        -4.28029
| 39>    C       -6.15993         7.98465        -5.09331
| 40>    N       -7.25811         7.66181        -5.85174
| 41>    C       -7.88203         6.36875        -6.02631
| 42>    C       -8.78096         6.01032        -4.84637
| 43>    C       -7.80104         8.79392        -6.48670
| 44>    O       -8.76372         8.75116        -7.22595
| 45>    C       -6.95995         9.90021        -6.06220
| 46>    C       -5.96907         9.37191        -5.23178
| 47>    C       -5.11466        10.45352        -4.77558
| 48>    O       -4.14668        10.45997        -4.04913
| 49>    N       -5.67058        11.59757        -5.37782
| 50>    C       -5.07802        12.90359        -5.19291
| 51>    C       -4.27035        13.34479        -6.40972
| 52>    C       -6.76375        11.29784        -6.14914
| 53>    C       -7.51001        12.25511        -6.85540
| 54>    C       -8.59785        11.89396        -7.60821
| 55>    C       -9.42459        12.70755        -8.40611
| 56>    C       -9.24360        13.94990        -9.03285
| 57>    N       -8.19886        14.88766        -8.94442
| 58>    O       -7.42729        14.84857        -7.99783
| 59>    O       -8.12429        15.71246        -9.83853
| 60>    C      -10.31485        14.17112        -9.95784
| 61>    C      -11.14916        13.09782        -9.94520
| 62>    C      -10.66777        12.15679        -8.97673
| 63>    C      -11.33519        11.02862        -8.54826
| 64>    C      -11.34419        10.47703        -7.22851
| 65>    C      -12.34928         9.56590        -7.14621
| 66>    C      -12.97023         9.43441        -8.44153
| 67>    N      -13.99815         8.50661        -8.69881
| 68>    O      -14.47162         8.45782        -9.82031
| 69>    O      -14.36118         7.80830        -7.76876
| 70>    C      -12.35700        10.29324        -9.33106
| 71>    C      -12.51860        10.36073       -10.74510
| 72>    C      -11.52696        10.66432       -11.60091
| 73>    C      -11.71051        10.76681       -13.06553
| 74>    O      -13.05760        10.71640       -13.52711
| 75>    C      -12.94488        11.97527       -14.18980
| 76>    C      -11.52253        12.20103       -13.65084
| 77>    C      -10.42378        12.37648       -14.63265
| 78>    C       -9.43123        13.23515       -14.47863
| 79>    H        1.39732         6.48333         1.49502
| 80>    H        2.40773         5.66504         0.26561
| 81>    H        2.91241         8.75607        -1.07968
| 82>    H        1.86573         9.37957         0.23263
| 83>    H        1.32160         6.94154        -1.52469
| 84>    H       -0.35196         8.24412         0.70443
| 85>    H       -0.98221         7.01633        -2.02423
| 86>    H       -5.28656         9.71195        -0.30043
| 87>    H       -5.83320         7.56152        -1.75332
| 88>    H       -1.80134         5.04293        -1.05136
| 89>    H       -2.52104         2.72969        -2.12090
| 90>    H       -6.09037         5.22224        -4.44248
| 91>    H       -4.50775         7.79707        -3.86543
| 92>    H       -7.11465         5.60918        -6.18726
| 93>    H       -8.48943         6.44753        -6.93245
| 94>    H       -8.22911         6.02872        -3.90945
| 95>    H       -9.18684         5.01363        -4.99026
| 96>    H       -9.60537         6.71594        -4.77772
| 97>    H       -4.41972        12.81147        -4.32474
| 98>    H       -5.86167        13.63151        -4.96951
| 99>    H       -3.51712        12.59873        -6.65197
|100>    H       -3.77062        14.28300        -6.18828
|101>    H       -4.91216        13.49422        -7.27386
|102>    H       -7.21364        13.28930        -6.78577
|103>    H       -8.87504        10.84730        -7.60630
|104>    H      -10.41084        15.06906       -10.53910
|105>    H      -12.08155        13.00543       -10.46605
|106>    H      -10.74915        10.83356        -6.41122
|107>    H      -12.66635         9.01259        -6.28247
|108>    H      -13.47728        10.05986       -11.15021
|109>    H      -10.51498        10.84231       -11.26165
|110>    H      -11.08413        10.02330       -13.57950
|111>    H      -13.70236        12.68523       -13.85021
|112>    H      -13.00528        11.86361       -15.27624
|113>    H      -11.46896        12.96122       -12.87115
|114>    H      -10.46888        11.73456       -15.50268
|115>    H       -9.36564        13.88006       -13.61765
|116>    H       -8.64659        13.33252       -15.20829
|117> *
|118>
|119>                          ****END OF INPUT****

CARTESIAN COORDINATES (ANGSTROEM)
---------------------------------
  C      1.967150    6.617720    0.570460
  O      2.946900    7.643770    0.698300
  C      2.271350    8.480580   -0.239270
  C      1.218060    7.390560   -0.536050
  C     -0.179820    7.768830   -0.248730
  C     -1.192300    7.543460   -1.100260
  C     -2.570200    7.899050   -0.929150
  C     -3.180510    9.001100   -0.362970
  N     -2.626200   10.114860    0.297440
  O     -3.342060   11.093740    0.412940
  O     -1.482910   10.057210    0.716860
  C     -4.599400    8.970020   -0.659720
  C     -4.866690    7.889700   -1.425340
  C     -3.646400    7.150590   -1.614330
  C     -3.523620    5.894680   -2.169660
  C     -2.587650    4.888810   -1.764520
  C     -2.974700    3.689060   -2.284170
  C     -4.118110    3.890930   -3.116520
  N     -4.708150    2.856890   -3.862460
  O     -5.651980    3.124960   -4.593280
  O     -4.246350    1.737840   -3.730590
  C     -4.463180    5.247450   -3.104310
  C     -5.377600    5.878210   -3.965580
  C     -5.318490    7.210920   -4.280290
  C     -6.159930    7.984650   -5.093310
  N     -7.258110    7.661810   -5.851740
  C     -7.882030    6.368750   -6.026310
  C     -8.780960    6.010320   -4.846370
  C     -7.801040    8.793920   -6.486700
  O     -8.763720    8.751160   -7.225950
  C     -6.959950    9.900210   -6.062200
  C     -5.969070    9.371910   -5.231780
  C     -5.114660   10.453520   -4.775580
  O     -4.146680   10.459970   -4.049130
  N     -5.670580   11.597570   -5.377820
  C     -5.078020   12.903590   -5.192910
  C     -4.270350   13.344790   -6.409720
  C     -6.763750   11.297840   -6.149140
  C     -7.510010   12.255110   -6.855400
  C     -8.597850   11.893960   -7.608210
  C     -9.424590   12.707550   -8.406110
  C     -9.243600   13.949900   -9.032850
  N     -8.198860   14.887660   -8.944420
  O     -7.427290   14.848570   -7.997830
  O     -8.124290   15.712460   -9.838530
  C    -10.314850   14.171120   -9.957840
  C    -11.149160   13.097820   -9.945200
  C    -10.667770   12.156790   -8.976730
  C    -11.335190   11.028620   -8.548260
  C    -11.344190   10.477030   -7.228510
  C    -12.349280    9.565900   -7.146210
  C    -12.970230    9.434410   -8.441530
  N    -13.998150    8.506610   -8.698810
  O    -14.471620    8.457820   -9.820310
  O    -14.361180    7.808300   -7.768760
  C    -12.357000   10.293240   -9.331060
  C    -12.518600   10.360730  -10.745100
  C    -11.526960   10.664320  -11.600910
  C    -11.710510   10.766810  -13.065530
  O    -13.057600   10.716400  -13.527110
  C    -12.944880   11.975270  -14.189800
  C    -11.522530   12.201030  -13.650840
  C    -10.423780   12.376480  -14.632650
  C     -9.431230   13.235150  -14.478630
  H      1.397320    6.483330    1.495020
  H      2.407730    5.665040    0.265610
  H      2.912410    8.756070   -1.079680
  H      1.865730    9.379570    0.232630
  H      1.321600    6.941540   -1.524690
  H     -0.351960    8.244120    0.704430
  H     -0.982210    7.016330   -2.024230
  H     -5.286560    9.711950   -0.300430
  H     -5.833200    7.561520   -1.753320
  H     -1.801340    5.042930   -1.051360
  H     -2.521040    2.729690   -2.120900
  H     -6.090370    5.222240   -4.442480
  H     -4.507750    7.797070   -3.865430
  H     -7.114650    5.609180   -6.187260
  H     -8.489430    6.447530   -6.932450
  H     -8.229110    6.028720   -3.909450
  H     -9.186840    5.013630   -4.990260
  H     -9.605370    6.715940   -4.777720
  H     -4.419720   12.811470   -4.324740
  H     -5.861670   13.631510   -4.969510
  H     -3.517120   12.598730   -6.651970
  H     -3.770620   14.283000   -6.188280
  H     -4.912160   13.494220   -7.273860
  H     -7.213640   13.289300   -6.785770
  H     -8.875040   10.847300   -7.606300
  H    -10.410840   15.069060  -10.539100
  H    -12.081550   13.005430  -10.466050
  H    -10.749150   10.833560   -6.411220
  H    -12.666350    9.012590   -6.282470
  H    -13.477280   10.059860  -11.150210
  H    -10.514980   10.842310  -11.261650
  H    -11.084130   10.023300  -13.579500
  H    -13.702360   12.685230  -13.850210
  H    -13.005280   11.863610  -15.276240
  H    -11.468960   12.961220  -12.871150
  H    -10.468880   11.734560  -15.502680
  H     -9.365640   13.880060  -13.617650
  H     -8.646590   13.332520  -15.208290

 Total Charge           Charge          ....    0
 Multiplicity           Mult            ....    1
 Number of Electrons    NEL             ....  452
 Basis Dimension        Dim             .... 1086

ORBITAL ENERGIES
----------------

  NO   OCC          E(Eh)            E(eV)
   0   2.0000     -19.252691      -523.8924
   1   2.0000     -19.250172      -523.8238
   2   2.0000     -19.239383      -523.5302
   3   2.0000     -19.238309      -523.5010
   4   2.0000     -19.237104      -523.4682
   5   2.0000     -19.236081      -523.4404
   6   2.0000     -19.234702      -523.4029
   7   2.0000     -19.234090      -523.3862
   8   2.0000     -19.217757      -522.9418
   9   2.0000     -19.210938      -522.7562
  10   2.0000     -19.209592      -522.7196
  11   2.0000     -19.199889      -522.4556
  12   2.0000     -14.659770      -398.9126
  13   2.0000     -14.648278      -398.5999
  14   2.0000     -14.645521      -398.5249
  15   2.0000     -14.643940      -398.4819
  16   2.0000     -14.470546      -393.7636
  17   2.0000     -14.469866      -393.7451
  18   2.0000     -10.392931      -282.8060
  19   2.0000     -10.392483      -282.7939
  20   2.0000     -10.360789      -281.9314
  21   2.0000     -10.352825      -281.7147
  22   2.0000     -10.344647      -281.4922
  23   2.0000     -10.337082      -281.2863
  24   2.0000     -10.336550      -281.2718
  25   2.0000     -10.332409      -281.1591
  26   2.0000     -10.330929      -281.1189
  27   2.0000     -10.330056      -281.0951
  28   2.0000     -10.329967      -281.0927
  29   2.0000     -10.329701      -281.0855
  30   2.0000     -10.329293      -281.0744
  31   2.0000     -10.326954      -281.0107
  32   2.0000     -10.324940      -280.9559
  33   2.0000     -10.324398      -280.9412
  34   2.0000     -10.324091      -280.9328
  35   2.0000     -10.320996      -280.8486
  36   2.0000     -10.316412      -280.7238
  37   2.0000     -10.316102      -280.7154
  38   2.0000     -10.316036      -280.7136
  39   2.0000     -10.313544      -280.6458
  40   2.0000     -10.312666      -280.6219
  41   2.0000     -10.311661      -280.5946
  42   2.0000     -10.307833      -280.4904
  43   2.0000     -10.304859      -280.4095
  44   2.0000     -10.303637      -280.3762
  45   2.0000     -10.303213      -280.3647
  46   2.0000     -10.302424      -280.3432
  47   2.0000     -10.300731      -280.2971
  48   2.0000     -10.298052      -280.2242
  49   2.0000     -10.294932      -280.1393
  50   2.0000     -10.292006      -280.0597
  51   2.0000     -10.290623      -280.0221
  52   2.0000     -10.290313      -280.0136
  53   2.0000     -10.289368      -279.9879
  54   2.0000     -10.288494      -279.9641
  55   2.0000     -10.288214      -279.9565
  56   2.0000     -10.285045      -279.8703
  57   2.0000     -10.284938      -279.8674
  58   2.0000     -10.283153      -279.8188
  59   2.0000     -10.282897      -279.8119
  60   2.0000     -10.282200      -279.7929
  61   2.0000     -10.273132      -279.5461
  62   2.0000     -10.270026      -279.4616
  63   2.0000     -10.267177      -279.3841
  64   2.0000      -1.330254       -36.1981
  65   2.0000      -1.317769       -35.8583
  66   2.0000      -1.316639       -35.8276
  67   2.0000      -1.314519       -35.7699
  68   2.0000      -1.152077       -31.3496
  69   2.0000      -1.146767       -31.2051
  70   2.0000      -1.145547       -31.1719
  71   2.0000      -1.144923       -31.1549
  72   2.0000      -1.135077       -30.8870
  73   2.0000      -1.133353       -30.8401
  74   2.0000      -1.131971       -30.8025
  75   2.0000      -1.127503       -30.6809
  76   2.0000      -1.082013       -29.4431
  77   2.0000      -1.072050       -29.1720
  78   2.0000      -1.024547       -27.8793
  79   2.0000      -1.019493       -27.7418
  80   2.0000      -1.002245       -27.2725
  81   2.0000      -0.997614       -27.1465
  82   2.0000      -0.944764       -25.7083
  83   2.0000      -0.927489       -25.2383
  84   2.0000      -0.922311       -25.0974
  85   2.0000      -0.919351       -25.0168
  86   2.0000      -0.912348       -24.8263
  87   2.0000      -0.910429       -24.7740
  88   2.0000      -0.908768       -24.7288
  89   2.0000      -0.897751       -24.4290
  90   2.0000      -0.886210       -24.1150
  91   2.0000      -0.884267       -24.0621
  92   2.0000      -0.881133       -23.9769
  93   2.0000      -0.858457       -23.3598
  94   2.0000      -0.852017       -23.1846
  95   2.0000      -0.849866       -23.1260
  96   2.0000      -0.841013       -22.8851
  97   2.0000      -0.831643       -22.6302
  98   2.0000      -0.817366       -22.2417
  99   2.0000      -0.814893       -22.1744
 100   2.0000      -0.808547       -22.0017
 101   2.0000      -0.784379       -21.3440
 102   2.0000      -0.777168       -21.1478
 103   2.0000      -0.776806       -21.1380
 104   2.0000      -0.770450       -20.9650
 105   2.0000      -0.768402       -20.9093
 106   2.0000      -0.766470       -20.8567
 107   2.0000      -0.735913       -20.0252
 108   2.0000      -0.730941       -19.8899
 109   2.0000      -0.722041       -19.6477
 110   2.0000      -0.720552       -19.6072
 111   2.0000      -0.708883       -19.2897
 112   2.0000      -0.704127       -19.1603
 113   2.0000      -0.695679       -18.9304
 114   2.0000      -0.692655       -18.8481
 115   2.0000      -0.679609       -18.4931
 116   2.0000      -0.673818       -18.3355
 117   2.0000      -0.667415       -18.1613
 118   2.0000      -0.663279       -18.0487
 119   2.0000      -0.660894       -17.9838
 120   2.0000      -0.655005       -17.8236
 121   2.0000      -0.649547       -17.6751
 122   2.0000      -0.645659       -17.5693
 123   2.0000      -0.640619       -17.4321
 124   2.0000      -0.639489       -17.4014
 125   2.0000      -0.632472       -17.2104
 126   2.0000      -0.630826       -17.1657
 127   2.0000      -0.629400       -17.1269
 128   2.0000      -0.626810       -17.0564
 129   2.0000      -0.625505       -17.0209
 130   2.0000      -0.624244       -16.9865
 131   2.0000      -0.620464       -16.8837
 132   2.0000      -0.618772       -16.8376
 133   2.0000      -0.614292       -16.7157
 134   2.0000      -0.608937       -16.5700
 135   2.0000      -0.606641       -16.5075
 136   2.0000      -0.599992       -16.3266
 137   2.0000      -0.595193       -16.1960
 138   2.0000      -0.593944       -16.1620
 139   2.0000      -0.587000       -15.9731
 140   2.0000      -0.584938       -15.9170
 141   2.0000      -0.584518       -15.9056
 142   2.0000      -0.582782       -15.8583
 143   2.0000      -0.582319       -15.8457
 144   2.0000      -0.578273       -15.7356
 145   2.0000      -0.575453       -15.6589
 146   2.0000      -0.571323       -15.5465
 147   2.0000      -0.563775       -15.3411
 148   2.0000      -0.559319       -15.2198
 149   2.0000      -0.551375       -15.0037
 150   2.0000      -0.548044       -14.9130
 151   2.0000      -0.544736       -14.8230
 152   2.0000      -0.543476       -14.7887
 153   2.0000      -0.542580       -14.7644
 154   2.0000      -0.538604       -14.6562
 155   2.0000      -0.536179       -14.5902
 156   2.0000      -0.532117       -14.4796
 157   2.0000      -0.530447       -14.4342
 158   2.0000      -0.526043       -14.3144
 159   2.0000      -0.525229       -14.2922
 160   2.0000      -0.520182       -14.1549
 161   2.0000      -0.519863       -14.1462
 162   2.0000      -0.517803       -14.0901
 163   2.0000      -0.512875       -13.9560
 164   2.0000      -0.509407       -13.8617
 165   2.0000      -0.507307       -13.8045
 166   2.0000      -0.504520       -13.7287
 167   2.0000      -0.503339       -13.6965
 168   2.0000      -0.500971       -13.6321
 169   2.0000      -0.497538       -13.5387
 170   2.0000      -0.492105       -13.3909
 171   2.0000      -0.488489       -13.2924
 172   2.0000      -0.488197       -13.2845
 173   2.0000      -0.484314       -13.1789
 174   2.0000      -0.483821       -13.1654
 175   2.0000      -0.482849       -13.1390
 176   2.0000      -0.480782       -13.0828
 177   2.0000      -0.480035       -13.0624
 178   2.0000      -0.478989       -13.0339
 179   2.0000      -0.473940       -12.8966
 180   2.0000      -0.469761       -12.7829
 181   2.0000      -0.466402       -12.6914
 182   2.0000      -0.465096       -12.6559
 183   2.0000      -0.462701       -12.5907
 184   2.0000      -0.456586       -12.4244
 185   2.0000      -0.454171       -12.3586
 186   2.0000      -0.452204       -12.3051
 187   2.0000      -0.446686       -12.1549
 188   2.0000      -0.443829       -12.0772
 189   2.0000      -0.441063       -12.0019
 190   2.0000      -0.439912       -11.9706
 191   2.0000      -0.433787       -11.8039
 192   2.0000      -0.432370       -11.7654
 193   2.0000      -0.431675       -11.7465
 194   2.0000      -0.426191       -11.5972
 195   2.0000      -0.399612       -10.8740
 196   2.0000      -0.395895       -10.7729
 197   2.0000      -0.393016       -10.6945
 198   2.0000      -0.390587       -10.6284
 199   2.0000      -0.386833       -10.5263
 200   2.0000      -0.385562       -10.4917
 201   2.0000      -0.383840       -10.4448
 202   2.0000      -0.381575       -10.3832
 203   2.0000      -0.379893       -10.3374
 204   2.0000      -0.379053       -10.3145
 205   2.0000      -0.378334       -10.2950
 206   2.0000      -0.375875       -10.2281
 207   2.0000      -0.375661       -10.2222
 208   2.0000      -0.370157       -10.0725
 209   2.0000      -0.366220        -9.9653
 210   2.0000      -0.365985        -9.9590
 211   2.0000      -0.364176        -9.9097
 212   2.0000      -0.361005        -9.8235
 213   2.0000      -0.358335        -9.7508
 214   2.0000      -0.350257        -9.5310
 215   2.0000      -0.343999        -9.3607
 216   2.0000      -0.342143        -9.3102
 217   2.0000      -0.339430        -9.2363
 218   2.0000      -0.336758        -9.1637
 219   2.0000      -0.334618        -9.1054
 220   2.0000      -0.320329        -8.7166
 221   2.0000      -0.315197        -8.5769
 222   2.0000      -0.309792        -8.4299
 223   2.0000      -0.292209        -7.9514
 224   2.0000      -0.288260        -7.8439
 225   2.0000      -0.244972        -6.6660
 226   0.0000      -0.148932        -4.0527
 227   0.0000      -0.129063        -3.5120
 228   0.0000      -0.091116        -2.4794
 229   0.0000      -0.057354        -1.5607
 230   0.0000      -0.037997        -1.0340

MULLIKEN ATOMIC CHARGES
-----------------------
   0 C :    0.281185
   1 O :   -0.391357
   2 C :    0.279464
   3 C :   -0.197626
   4 C :    0.064952
   5 C :   -0.086610
   6 C :    0.073923
   7 C :    0.075216
   8 N :    0.269094
   9 O :   -0.245974
  10 O :   -0.251285
  11 C :    0.037794
  12 C :    0.004958
  13 C :    0.011444
  14 C :    0.018328
  15 C :   -0.008304
  16 C :    0.016786
  17 C :    0.082310
  18 N :    0.276530
  19 O :   -0.263972
  20 O :   -0.245788
  21 C :    0.041627
  22 C :   -0.034447
  23 C :   -0.052957
  24 C :    0.116894
  25 N :   -0.254529
  26 C :    0.096237
  27 C :    0.004683
  28 C :    0.159876
  29 O :   -0.206458
  30 C :   -0.062336
  31 C :   -0.040977
  32 C :    0.155962
  33 O :   -0.177392
  34 N :   -0.258162
  35 C :    0.093281
  36 C :    0.004907
  37 C :    0.152046
  38 C :   -0.015135
  39 C :   -0.090494
  40 C :    0.095509
  41 C :    0.076108
  42 N :    0.275557
  43 O :   -0.251075
  44 O :   -0.241691
  45 C :    0.001392
  46 C :    0.022743
  47 C :   -0.019915
  48 C :    0.045491
  49 C :    0.033197
  50 C :    0.026777
  51 C :    0.081775
  52 N :    0.272871
  53 O :   -0.247042
  54 O :   -0.251920
  55 C :    0.044374
  56 C :   -0.030504
  57 C :   -0.050837
  58 C :    0.241014
  59 O :   -0.368953
  60 C :    0.297952
  61 C :   -0.167063
  62 C :    0.008882
  63 C :   -0.016025
  64 H :    0.002325
  65 H :    0.010484
  66 H :    0.011761
  67 H :    0.017794
  68 H :    0.005918
  69 H :    0.027969
  70 H :    0.008589
  71 H :    0.001639
  72 H :   -0.001748
  73 H :   -0.000515
  74 H :    0.005261
  75 H :    0.019414
  76 H :    0.034745
  77 H :    0.043004
  78 H :    0.044739
  79 H :    0.017634
  80 H :    0.034520
  81 H :    0.023332
  82 H :    0.048601
  83 H :    0.035629
  84 H :    0.023945
  85 H :    0.030031
  86 H :    0.023067
  87 H :    0.006277
  88 H :    0.035270
  89 H :    0.004589
  90 H :    0.008722
  91 H :   -0.007823
  92 H :    0.005118
  93 H :    0.044741
  94 H :    0.031956
  95 H :    0.016287
  96 H :    0.015315
  97 H :    0.008426
  98 H :    0.001225
  99 H :   -0.000187
 100 H :    0.021348
 101 H :    0.028290
Sum of atomic charges:   -0.0000000

LOEWDIN ATOMIC CHARGES
----------------------
   0 C :    0.105545
   1 O :   -0.203949
   2 C :    0.110155
   3 C :   -0.053950
   4 C :    0.032045
   5 C :   -0.055788
   6 C :    0.016264
   7 C :   -0.036652
   8 N :    0.285567
   9 O :   -0.209862
  10 O :   -0.209585
  11 C :    0.018542
  12 C :   -0.044074
  13 C :    0.047428
  14 C :    0.029972
  15 C :   -0.042325
  16 C :    0.018199
  17 C :   -0.054317
  18 N :    0.286167
  19 O :   -0.228764
  20 O :   -0.210650
  21 C :    0.010555
  22 C :   -0.009243
  23 C :   -0.006855
  24 C :    0.059135
  25 N :    0.003075
  26 C :    0.037848
  27 C :   -0.060322
  28 C :    0.080702
  29 O :   -0.193007
  30 C :   -0.118382
  31 C :   -0.090004
  32 C :    0.081653
  33 O :   -0.177598
  34 N :    0.003592
  35 C :    0.038437
  36 C :   -0.059013
  37 C :    0.085933
  38 C :   -0.022986
  39 C :    0.020477
  40 C :   -0.005825
  41 C :   -0.033344
  42 N :    0.286812
  43 O :   -0.213339
  44 O :   -0.205376
  45 C :   -0.007893
  46 C :   -0.026699
  47 C :    0.028315
  48 C :    0.063689
  49 C :   -0.038782
  50 C :    0.036989
  51 C :   -0.053710
  52 N :    0.284360
  53 O :   -0.209705
  54 O :   -0.215606
  55 C :    0.024837
  56 C :   -0.030025
  57 C :    0.010719
  58 C :    0.088527
  59 O :   -0.185618
  60 C :    0.108444
  61 C :   -0.037101
  62 C :   -0.027807
  63 C :   -0.042731
  64 H :    0.009236
  65 H :    0.012261
  66 H :    0.013288
  67 H :    0.015346
  68 H :    0.026994
  69 H :    0.028210
  70 H :    0.033240
  71 H :    0.036807
  72 H :    0.029799
  73 H :    0.031330
  74 H :    0.039194
  75 H :    0.035155
  76 H :    0.048312
  77 H :    0.029683
  78 H :    0.038356
  79 H :    0.021067
  80 H :    0.036852
  81 H :    0.029840
  82 H :    0.039458
  83 H :    0.028769
  84 H :    0.029749
  85 H :    0.034986
  86 H :    0.024399
  87 H :    0.029780
  88 H :    0.041432
  89 H :    0.036499
  90 H :    0.031080
  91 H :    0.029940
  92 H :    0.039015
  93 H :    0.045394
  94 H :    0.034300
  95 H :    0.025356
  96 H :    0.014882
  97 H :    0.013178
  98 H :    0.027339
  99 H :    0.025408
 100 H :    0.023566
 101 H :    0.027406

  Mayer bond orders larger than 0.100000
B(  0-C ,  1-O ) :   1.0422 B(  0-C ,  3-C ) :   1.0520 B(  0-C , 64-H ) :   0.9426
B(  0-C , 65-H ) :   0.9442 B(  1-O ,  2-C ) :   1.0341 B(  2-C ,  3-C ) :   1.0543
B(  2-C , 66-H ) :   0.9442 B(  2-C , 67-H ) :   0.9453 B(  3-C ,  4-C ) :   1.0067
B(  3-C , 68-H ) :   0.9338 B(  4-C ,  5-C ) :   1.7789 B(  4-C , 69-H ) :   0.9550
B(  5-C ,  6-C ) :   1.0817 B(  5-C , 70-H ) :   0.9526 B(  6-C ,  7-C ) :   1.5707
B(  6-C , 13-C ) :   1.0307 B(  7-C ,  8-N ) :   0.9478 B(  7-C , 11-C ) :   1.1048
B(  8-N ,  9-O ) :   1.5395 B(  8-N , 10-O ) :   1.4958 B(  9-O , 10-O ) :   0.2588
B( 11-C , 12-C ) :   1.6126 B( 11-C , 71-H ) :   1.0059 B( 12-C , 13-C ) :   1.1196
B( 12-C , 72-H ) :   0.9968 B( 13-C , 14-C ) :   1.4913 B( 14-C , 15-C ) :   1.1553
B( 14-C , 21-C ) :   1.0084 B( 15-C , 16-C ) :   1.5344 B( 15-C , 73-H ) :   1.0041
B( 16-C , 17-C ) :   1.1588 B( 16-C , 74-H ) :   1.0119 B( 17-C , 18-N ) :   0.9592
B( 17-C , 21-C ) :   1.4531 B( 18-N , 19-O ) :   1.4821 B( 18-N , 20-O ) :   1.5356
B( 19-O , 20-O ) :   0.2538 B( 21-C , 22-C ) :   1.2269 B( 22-C , 23-C ) :   1.4463
B( 22-C , 75-H ) :   0.9522 B( 23-C , 24-C ) :   1.2536 B( 23-C , 76-H ) :   0.9320
B( 24-C , 25-N ) :   1.1657 B( 24-C , 31-C ) :   1.2978 B( 25-N , 26-C ) :   0.9308
B( 25-N , 28-C ) :   1.0762 B( 26-C , 27-C ) :   1.1178 B( 26-C , 77-H ) :   0.9512
B( 26-C , 78-H ) :   0.9256 B( 27-C , 79-H ) :   0.9686 B( 27-C , 80-H ) :   0.9683
B( 27-C , 81-H ) :   0.9619 B( 28-C , 29-O ) :   2.0073 B( 28-C , 30-C ) :   0.9827
B( 29-O , 88-H ) :   0.1105 B( 30-C , 31-C ) :   1.3049 B( 30-C , 37-C ) :   1.2521
B( 31-C , 32-C ) :   0.9638 B( 32-C , 33-O ) :   2.1278 B( 32-C , 34-N ) :   1.0426
B( 34-N , 35-C ) :   0.9318 B( 34-N , 37-C ) :   1.1830 B( 35-C , 36-C ) :   1.1227
B( 35-C , 82-H ) :   0.9287 B( 35-C , 83-H ) :   0.9490 B( 36-C , 84-H ) :   0.9631
B( 36-C , 85-H ) :   0.9672 B( 36-C , 86-H ) :   0.9660 B( 37-C , 38-C ) :   1.1760
B( 38-C , 39-C ) :   1.5333 B( 38-C , 87-H ) :   0.9532 B( 39-C , 40-C ) :   1.1671
B( 39-C , 88-H ) :   0.9373 B( 40-C , 41-C ) :   1.4398 B( 40-C , 47-C ) :   1.0379
B( 41-C , 42-N ) :   0.9549 B( 41-C , 45-C ) :   1.1660 B( 42-N , 43-O ) :   1.4672
B( 42-N , 44-O ) :   1.5407 B( 43-O , 44-O ) :   0.2541 B( 45-C , 46-C ) :   1.5474
B( 45-C , 89-H ) :   1.0066 B( 46-C , 47-C ) :   1.1416 B( 46-C , 90-H ) :   0.9889
B( 47-C , 48-C ) :   1.4876 B( 48-C , 49-C ) :   1.1531 B( 48-C , 55-C ) :   1.0031
B( 49-C , 50-C ) :   1.5635 B( 49-C , 91-H ) :   1.0032 B( 50-C , 51-C ) :   1.1198
B( 50-C , 92-H ) :   1.0098 B( 51-C , 52-N ) :   0.9438 B( 51-C , 55-C ) :   1.5545
B( 52-N , 53-O ) :   1.5065 B( 52-N , 54-O ) :   1.5302 B( 53-O , 54-O ) :   0.2632
B( 55-C , 56-C ) :   1.1360 B( 56-C , 57-C ) :   1.7249 B( 56-C , 93-H ) :   0.9498
B( 57-C , 58-C ) :   1.0275 B( 57-C , 94-H ) :   0.9529 B( 58-C , 59-O ) :   1.0855
B( 58-C , 61-C ) :   1.0081 B( 58-C , 95-H ) :   0.9058 B( 59-O , 60-C ) :   1.0077
B( 60-C , 61-C ) :   1.0487 B( 60-C , 96-H ) :   0.9465 B( 60-C , 97-H ) :   0.9426
B( 61-C , 62-C ) :   1.0134 B( 61-C , 98-H ) :   0.9278 B( 62-C , 63-C ) :   2.0083
B( 62-C , 99-H ) :   0.9620 B( 63-C ,100-H ) :   0.9611 B( 63-C ,101-H ) :   0.9506

-----------------------------------------------------------------------------
         ABSORPTION SPECTRUM VIA TRANSITION ELECTRIC DIPOLE MOMENTS
-----------------------------------------------------------------------------
State   Energy  Wavelength   fosc         T2         TX        TY        TZ
        (cm-1)    (nm)                  (au**2)     (au)      (au)      (au)
-----------------------------------------------------------------------------
   0    5698.4   1754.9   0.278027049  16.06246  -2.28653   2.27061  -2.38297
   1    9406.4   1063.1   0.008820995   0.30872   0.05002  -0.33730   0.43869
   2   12681.4    788.6   0.021216252   0.55078   0.10586   0.60142   0.42174
   3   13402.6    746.1   0.019433893   0.47736   0.48744   0.47579   0.11567
   4   17355.9    576.2   0.257881156   4.89158  -0.11590   2.18325  -0.33405
   5   17858.3    560.0   0.029739966   0.54825   0.52755  -0.48729   0.18024
   6   18680.1    535.3   0.029909705   0.52712   0.34278  -0.25008   0.58914
   7   21452.2    466.2   0.007901406   0.12126   0.04731   0.00055   0.34499
   8   22414.4    446.1   0.009816466   0.14418  -0.35748  -0.12226  -0.03794
   9   22768.7    439.2   0.034101259   0.49307   0.69586   0.09270  -0.01579
  10   23761.2    420.9   0.022378094   0.31005  -0.08857  -0.54650   0.05955
  11   24427.6    409.4   0.066140874   0.89138   0.11708  -0.26911   0.89736
  12   24780.1    403.5   0.016603618   0.22058   0.17138   0.37770  -0.22036
  13   24826.1    402.8   0.102222463   1.35554   1.05771  -0.07973   0.48003
  14   25009.9    399.8   0.003549682   0.04673   0.13369   0.15844   0.06124
  15   25663.6    389.7   0.097291351   1.24805   1.02137  -0.04699   0.45016
  16   25887.0    386.3   0.180249407   2.29228   0.29283   1.46389   0.25208
  17   26208.5    381.6   0.037535482   0.47149   0.51859  -0.28952   0.34458
  18   26382.2    379.0   0.076878963   0.95934  -0.26726   0.56233  -0.75611
  19   26626.6    375.6   0.031194332   0.38569  -0.28734  -0.53103   0.14534
  20   27179.5    367.9   0.002016839   0.02443   0.10281   0.11748  -0.00758
  21   27308.0    366.2   0.016702648   0.20136  -0.16732  -0.14641   0.38978
  22   27657.0    361.6   0.072502667   0.86303  -0.04877   0.75498   0.53913
  23   27917.7    358.2   0.007264740   0.08567   0.02988  -0.27703  -0.08960
  24   28009.6    357.0   0.272769385   3.20601   0.52231   1.69781  -0.22501
  25   28217.5    354.4   0.150662379   1.75777   0.47284   1.07972   0.60697
  26   28749.8    347.8   0.042332600   0.48475  -0.61418  -0.30688  -0.11557
  27   29247.8    341.9   0.041342395   0.46535  -0.64820   0.20832  -0.04226
  28   29925.1    334.2   0.014284183   0.15714   0.21573  -0.33083   0.03396
  29   30336.5    329.6   0.010630796   0.11537  -0.02851  -0.32715  -0.08674
  30   31104.3    321.5   0.086249795   0.91288  -0.77240  -0.45494   0.33061
  31   31166.1    320.9   0.026896400   0.28411   0.01951   0.51524  -0.13512
  32   31477.1    317.7   0.034230897   0.35801   0.11911   0.52271  -0.26571
  33   31676.7    315.7   0.171543799   1.78283   0.29187   1.29181  -0.16991
  34   31771.7    314.7   0.075427709   0.78157   0.72776  -0.44858   0.22519
  35   31957.9    312.9   0.003823928   0.03939  -0.16623  -0.08536  -0.06688
  36   31978.0    312.7   0.004079959   0.04200   0.18814  -0.03071   0.07525
  37   32136.0    311.2   0.007398299   0.07579  -0.12358   0.01118  -0.24575
  38   32227.3    310.3   0.058160245   0.59412  -0.31086   0.42254  -0.56475
  39   32257.0    310.0   0.063622939   0.64933   0.49216  -0.19094   0.60881
  40   32669.7    306.1   0.047252416   0.47616   0.38365  -0.26224   0.51010
  41   33140.3    301.7   0.166230422   1.65131   0.13794   1.13871   0.57933
  42   33374.6    299.6   0.158440142   1.56287   0.47377  -1.13881   0.20379
  43   33418.1    299.2   0.009078175   0.08943  -0.19333   0.06206  -0.21956
  44   33451.1    298.9   0.028179034   0.27733   0.05480  -0.52314   0.02538
  45   33784.8    296.0   0.093702207   0.91307  -0.18301   0.84042   0.41626
  46   34032.9    293.8   0.074492576   0.72059   0.38160   0.75690  -0.04558
  47   34220.1    292.2   0.067578734   0.65014  -0.17379   0.75969   0.20689
  48   34740.1    287.9   0.115456027   1.09411  -0.37853   0.95518   0.19613
  49   35031.4    285.5   0.018406571   0.17298   0.13304  -0.32245  -0.22651
  50   35294.0    283.3   0.242663918   2.26350  -0.67932  -0.90656   0.99004
  51   35494.5    281.7   0.008942558   0.08294   0.05307   0.28023   0.03997
  52   35786.9    279.4   0.166988802   1.53617   0.62190   0.81335  -0.69848
  53   35991.9    277.8   0.012768957   0.11680   0.15456   0.30248  -0.03759
  54   36276.3    275.7   0.019039359   0.17278   0.11769   0.36612  -0.15777
  55   36546.1    273.6   0.003622525   0.03263  -0.03679  -0.17487  -0.02643
  56   36657.0    272.8   0.033018093   0.29653  -0.50410   0.19177   0.07506
  57   37116.1    269.4   0.003207136   0.02845   0.11941   0.00819   0.11883
  58   37164.9    269.1   0.004905617   0.04345   0.11925   0.15550   0.07110
  59   37405.9    267.3   0.000699504   0.00616   0.00524   0.06208   0.04770
  60   37445.6    267.1   0.055267066   0.48589  -0.28793  -0.54838  -0.31980
  61   37746.3    264.9   0.272293704   2.37486  -0.83406  -1.28848  -0.13797
  62   37855.6    264.2   0.069958279   0.60839   0.59258   0.41406  -0.29291
  63   38307.9    261.0   0.032114225   0.27598   0.04014  -0.44276  -0.27989
  64   38853.3    257.4   0.054948366   0.46559   0.04206  -0.47784  -0.48527
  65   39012.6    256.3   0.065427879   0.55212  -0.08300   0.73233   0.09446
  66   39182.8    255.2   0.000737146   0.00619   0.00563   0.05915   0.05160
  67   39321.5    254.3   0.006312774   0.05285   0.05141   0.07243  -0.21205
  68   39407.9    253.8   0.023151006   0.19340  -0.21955  -0.34027   0.17151
  69   39689.3    252.0   0.115125746   0.95494  -0.81098  -0.53636   0.09777
  70   40017.8    249.9   0.001566637   0.01289  -0.05895   0.06357   0.07329
  71   40152.1    249.1   0.031444517   0.25782   0.16543   0.47971  -0.01806
  72   40306.6    248.1   0.009997639   0.08166   0.02576  -0.00036  -0.28459

FINAL SINGLE POINT ENERGY     -3002.614720015875

DIPOLE MOMENT
-------------
                                X             Y             Z
Electronic contribution:    -13.29628      -8.34926      16.14674
Nuclear contribution   :     13.36044       9.41938     -17.41160
                        -----------------------------------------
Total Dipole Moment    :      0.06417       1.07012      -1.26486
                        -----------------------------------------
Magnitude (a.u.)       :      1.65805
Magnitude (Debye)      :      4.21444

Rotational constants in cm-1:     0.001994     0.000496     0.000435
Rotational constants in MHz :    59.770034    14.880498    13.045879

                             ****ORCA TERMINATED NORMALLY****
TOTAL RUN TIME: 0 days 0 hours 10 minutes 9 seconds 6 msec
