                         Program Version 4.2.0 -  RELEASE  -
|  1> # ORCA input file
|  2> # SCF done       -183.554463358463          0.000724975077
|  3> ! CAM-B3LYP def2-SVP def2/J RIJCOSX Grid4 TightSCF
|  4> %maxcore 5000
|  5> %tddft
|  6>     Mode sTDDFT
|  7>     Ethresh 5.0
|  8>     maxcore 5000
|  9> end
| 10>
| 11> %pal
| 12>   nprocs 6
| 13>   end
| 14> * xyz 0 1
| 15>    C       -5.40471         0.14335         0.32238
| 16>    S       -3.92119        -0.58820         0.72735
| 17>    C       -4.21659        -1.90775        -0.36148
| 18>    C       -5.46073        -1.78239        -0.96030
| 19>    C       -6.13857        -0.60398        -0.56068
| 20>    N       -7.49708        -0.28396        -0.90236
| 21>    O       -7.80703         0.88321        -0.86774
| 22>    O       -8.22977        -1.21245        -1.15199
| 23>    N       -6.00116        -2.73930        -1.88135
| 24>    O       -5.90539        -3.91165        -1.57873
| 25>    O       -6.47857        -2.31877        -2.90559
| 26>    C       -3.25179        -2.93178        -0.63324
| 27>    C       -2.47202        -3.65023         0.26304
| 28>    N       -2.29777        -3.39458         1.62814
| 29>    O       -2.60801        -2.28177         2.04446
| 30>    O       -1.84049        -4.27755         2.32421
| 31>    C       -1.86737        -4.76370        -0.41517
| 32>    C       -2.26276        -4.74277        -1.71272
| 33>    C       -3.09479        -3.58672        -1.92416
| 34>    C       -3.45099        -3.05880        -3.15622
| 35>    C       -3.54486        -1.68441        -3.49784
| 36>    C       -3.61724        -1.57334        -4.86145
| 37>    C       -3.65727        -2.87778        -5.43385
| 38>    N       -3.84084        -3.10446        -6.81310
| 39>    O       -4.08615        -4.23657        -7.18966
| 40>    O       -3.73660        -2.14078        -7.54941
| 41>    C       -3.59526        -3.82899        -4.41325
| 42>    C       -3.83992        -5.20550        -4.50722
| 43>    C       -4.37233        -5.93829        -3.47329
| 44>    C       -4.70443        -7.29549        -3.58575
| 45>    N       -5.43835        -7.98035        -2.65346
| 46>    C       -5.88668        -7.47105        -1.37647
| 47>    C       -4.76101        -7.48272        -0.34579
| 48>    C       -5.72185        -9.29813        -3.06078
| 49>    O       -6.36312       -10.08894        -2.41214
| 50>    C       -5.07259        -9.40776        -4.36074
| 51>    C       -4.44457        -8.18978        -4.64395
| 52>    C       -3.76367        -8.33017        -5.91594
| 53>    O       -3.02669        -7.59519        -6.52894
| 54>    N       -4.09162        -9.64205        -6.34776
| 55>    C       -3.58861       -10.10647        -7.61880
| 56>    C       -4.57399        -9.82316        -8.75062
| 57>    C       -4.87948       -10.29068        -5.43755
| 58>    C       -5.46287       -11.58073        -5.47909
| 59>    C       -5.55526       -12.45055        -6.51747
| 60>    C       -6.23737       -13.68938        -6.38191
| 61>    S       -6.46860       -14.78752        -7.73999
| 62>    C       -7.33710       -15.79988        -6.60042
| 63>    N       -7.37378       -15.28405        -5.40038
| 64>    N       -6.77806       -14.14148        -5.28141
| 65>    C       -7.93572       -17.03501        -6.98399
| 66>    C       -8.60548       -17.79060        -6.08790
| 67>    C       -9.27193       -19.03308        -6.32545
| 68>    S       -9.72334       -19.97037        -4.92005
| 69>    C      -10.45682       -21.17639        -5.86692
| 70>    C      -10.38347       -20.88700        -7.20159
| 71>    C       -9.70955       -19.66570        -7.47371
| 72>    N       -9.68572       -19.09938        -8.80680
| 73>    O       -8.62074       -18.75709        -9.25794
| 74>    O      -10.76084       -18.98046        -9.33778
| 75>    N      -10.84538       -21.79874        -8.21336
| 76>    O      -11.67162       -22.61270        -7.87614
| 77>    O      -10.33777       -21.70206        -9.30556
| 78>    H       -5.72748         1.05478         0.78712
| 79>    H       -1.20598        -5.45902         0.06442
| 80>    H       -1.93005        -5.39547        -2.49569
| 81>    H       -3.45133        -0.86951        -2.80570
| 82>    H       -3.65563        -0.66801        -5.43762
| 83>    H       -3.70287        -5.66386        -5.48084
| 84>    H       -4.66250        -5.43401        -2.56285
| 85>    H       -6.69202        -8.13413        -1.05078
| 86>    H       -6.28281        -6.46087        -1.50049
| 87>    H       -4.39685        -8.49643        -0.19720
| 88>    H       -5.13341        -7.10586         0.60185
| 89>    H       -3.93180        -6.85563        -0.66592
| 90>    H       -3.34291       -11.16769        -7.54475
| 91>    H       -2.66778        -9.54514        -7.80434
| 92>    H       -5.54351       -10.27739        -8.55837
| 93>    H       -4.18085       -10.21104        -9.68602
| 94>    H       -4.71299        -8.75003        -8.85291
| 95>    H       -5.93757       -11.87093        -4.54951
| 96>    H       -5.16079       -12.24145        -7.49846
| 97>    H       -7.81323       -17.32863        -8.01576
| 98>    H       -8.62842       -17.44633        -5.06208
| 99>    H      -10.89438       -22.05373        -5.43146
|100> *
|101>
|102>                          ****END OF INPUT****

CARTESIAN COORDINATES (ANGSTROEM)
---------------------------------
  C     -5.404710    0.143350    0.322380
  S     -3.921190   -0.588200    0.727350
  C     -4.216590   -1.907750   -0.361480
  C     -5.460730   -1.782390   -0.960300
  C     -6.138570   -0.603980   -0.560680
  N     -7.497080   -0.283960   -0.902360
  O     -7.807030    0.883210   -0.867740
  O     -8.229770   -1.212450   -1.151990
  N     -6.001160   -2.739300   -1.881350
  O     -5.905390   -3.911650   -1.578730
  O     -6.478570   -2.318770   -2.905590
  C     -3.251790   -2.931780   -0.633240
  C     -2.472020   -3.650230    0.263040
  N     -2.297770   -3.394580    1.628140
  O     -2.608010   -2.281770    2.044460
  O     -1.840490   -4.277550    2.324210
  C     -1.867370   -4.763700   -0.415170
  C     -2.262760   -4.742770   -1.712720
  C     -3.094790   -3.586720   -1.924160
  C     -3.450990   -3.058800   -3.156220
  C     -3.544860   -1.684410   -3.497840
  C     -3.617240   -1.573340   -4.861450
  C     -3.657270   -2.877780   -5.433850
  N     -3.840840   -3.104460   -6.813100
  O     -4.086150   -4.236570   -7.189660
  O     -3.736600   -2.140780   -7.549410
  C     -3.595260   -3.828990   -4.413250
  C     -3.839920   -5.205500   -4.507220
  C     -4.372330   -5.938290   -3.473290
  C     -4.704430   -7.295490   -3.585750
  N     -5.438350   -7.980350   -2.653460
  C     -5.886680   -7.471050   -1.376470
  C     -4.761010   -7.482720   -0.345790
  C     -5.721850   -9.298130   -3.060780
  O     -6.363120  -10.088940   -2.412140
  C     -5.072590   -9.407760   -4.360740
  C     -4.444570   -8.189780   -4.643950
  C     -3.763670   -8.330170   -5.915940
  O     -3.026690   -7.595190   -6.528940
  N     -4.091620   -9.642050   -6.347760
  C     -3.588610  -10.106470   -7.618800
  C     -4.573990   -9.823160   -8.750620
  C     -4.879480  -10.290680   -5.437550
  C     -5.462870  -11.580730   -5.479090
  C     -5.555260  -12.450550   -6.517470
  C     -6.237370  -13.689380   -6.381910
  S     -6.468600  -14.787520   -7.739990
  C     -7.337100  -15.799880   -6.600420
  N     -7.373780  -15.284050   -5.400380
  N     -6.778060  -14.141480   -5.281410
  C     -7.935720  -17.035010   -6.983990
  C     -8.605480  -17.790600   -6.087900
  C     -9.271930  -19.033080   -6.325450
  S     -9.723340  -19.970370   -4.920050
  C    -10.456820  -21.176390   -5.866920
  C    -10.383470  -20.887000   -7.201590
  C     -9.709550  -19.665700   -7.473710
  N     -9.685720  -19.099380   -8.806800
  O     -8.620740  -18.757090   -9.257940
  O    -10.760840  -18.980460   -9.337780
  N    -10.845380  -21.798740   -8.213360
  O    -11.671620  -22.612700   -7.876140
  O    -10.337770  -21.702060   -9.305560
  H     -5.727480    1.054780    0.787120
  H     -1.205980   -5.459020    0.064420
  H     -1.930050   -5.395470   -2.495690
  H     -3.451330   -0.869510   -2.805700
  H     -3.655630   -0.668010   -5.437620
  H     -3.702870   -5.663860   -5.480840
  H     -4.662500   -5.434010   -2.562850
  H     -6.692020   -8.134130   -1.050780
  H     -6.282810   -6.460870   -1.500490
  H     -4.396850   -8.496430   -0.197200
  H     -5.133410   -7.105860    0.601850
  H     -3.931800   -6.855630   -0.665920
  H     -3.342910  -11.167690   -7.544750
  H     -2.667780   -9.545140   -7.804340
  H     -5.543510  -10.277390   -8.558370
  H     -4.180850  -10.211040   -9.686020
  H     -4.712990   -8.750030   -8.852910
  H     -5.937570  -11.870930   -4.549510
  H     -5.160790  -12.241450   -7.498460
  H     -7.813230  -17.328630   -8.015760
  H     -8.628420  -17.446330   -5.062080
  H    -10.894380  -22.053730   -5.431460

 Total Charge           Charge          ....    0
 Multiplicity           Mult            ....    1
 Number of Electrons    NEL             ....  468
 Basis Dimension        Dim             .... 1004

ORBITAL ENERGIES
----------------

  NO   OCC          E(Eh)            E(eV)
   0   2.0000     -89.011889     -2422.1366
   1   2.0000     -89.009308     -2422.0664
   2   2.0000     -88.989138     -2421.5175
   3   2.0000     -19.276899      -524.5511
   4   2.0000     -19.273976      -524.4716
   5   2.0000     -19.267524      -524.2960
   6   2.0000     -19.266063      -524.2562
   7   2.0000     -19.261998      -524.1456
   8   2.0000     -19.260956      -524.1173
   9   2.0000     -19.259465      -524.0767
  10   2.0000     -19.258993      -524.0638
  11   2.0000     -19.258228      -524.0430
  12   2.0000     -19.257238      -524.0161
  13   2.0000     -19.234515      -523.3978
  14   2.0000     -19.234318      -523.3924
  15   2.0000     -19.212714      -522.8045
  16   2.0000     -19.199597      -522.4476
  17   2.0000     -14.681482      -399.5034
  18   2.0000     -14.673972      -399.2991
  19   2.0000     -14.668348      -399.1460
  20   2.0000     -14.668004      -399.1367
  21   2.0000     -14.667658      -399.1273
  22   2.0000     -14.644442      -398.4955
  23   2.0000     -14.471280      -393.7835
  24   2.0000     -14.462836      -393.5538
  25   2.0000     -14.453224      -393.2922
  26   2.0000     -14.452758      -393.2796
  27   2.0000     -10.392485      -282.7939
  28   2.0000     -10.384851      -282.5862
  29   2.0000     -10.368444      -282.1397
  30   2.0000     -10.364677      -282.0372
  31   2.0000     -10.364220      -282.0248
  32   2.0000     -10.361923      -281.9623
  33   2.0000     -10.361544      -281.9520
  34   2.0000     -10.359491      -281.8961
  35   2.0000     -10.358492      -281.8689
  36   2.0000     -10.356798      -281.8228
  37   2.0000     -10.356609      -281.8177
  38   2.0000     -10.353359      -281.7292
  39   2.0000     -10.352638      -281.7096
  40   2.0000     -10.349612      -281.6272
  41   2.0000     -10.345572      -281.5173
  42   2.0000     -10.343775      -281.4684
  43   2.0000     -10.340532      -281.3802
  44   2.0000     -10.338983      -281.3380
  45   2.0000     -10.330251      -281.1004
  46   2.0000     -10.328034      -281.0401
  47   2.0000     -10.321424      -280.8602
  48   2.0000     -10.319362      -280.8041
  49   2.0000     -10.319156      -280.7985
  50   2.0000     -10.313081      -280.6332
  51   2.0000     -10.312762      -280.6245
  52   2.0000     -10.311969      -280.6030
  53   2.0000     -10.311006      -280.5767
  54   2.0000     -10.310360      -280.5592
  55   2.0000     -10.309363      -280.5320
  56   2.0000     -10.306018      -280.4410
  57   2.0000     -10.303491      -280.3722
  58   2.0000     -10.295169      -280.1458
  59   2.0000     -10.284302      -279.8501
  60   2.0000     -10.280680      -279.7515
  61   2.0000     -10.273645      -279.5601
  62   2.0000     -10.265115      -279.3280
  63   2.0000      -8.105797      -220.5699
  64   2.0000      -8.105175      -220.5530
  65   2.0000      -8.085479      -220.0171
  66   2.0000      -6.075052      -165.3106
  67   2.0000      -6.074372      -165.2921
  68   2.0000      -6.070436      -165.1850
  69   2.0000      -6.070104      -165.1759
  70   2.0000      -6.068375      -165.1289
  71   2.0000      -6.067421      -165.1029
  72   2.0000      -6.054047      -164.7390
  73   2.0000      -6.050752      -164.6493
  74   2.0000      -6.047973      -164.5737
  75   2.0000      -1.356967       -36.9250
  76   2.0000      -1.351050       -36.7639
  77   2.0000      -1.342186       -36.5227
  78   2.0000      -1.341365       -36.5004
  79   2.0000      -1.339480       -36.4491
  80   2.0000      -1.315129       -35.7865
  81   2.0000      -1.175674       -31.9917
  82   2.0000      -1.171667       -31.8827
  83   2.0000      -1.162892       -31.6439
  84   2.0000      -1.162724       -31.6393
  85   2.0000      -1.158975       -31.5373
  86   2.0000      -1.157489       -31.4969
  87   2.0000      -1.152063       -31.3492
  88   2.0000      -1.140100       -31.0237
  89   2.0000      -1.132763       -30.8240
  90   2.0000      -1.080202       -29.3938
  91   2.0000      -1.069393       -29.0997
  92   2.0000      -1.052131       -28.6299
  93   2.0000      -1.046290       -28.4710
  94   2.0000      -1.028481       -27.9864
  95   2.0000      -1.009135       -27.4600
  96   2.0000      -0.966260       -26.2933
  97   2.0000      -0.947581       -25.7850
  98   2.0000      -0.942609       -25.6497
  99   2.0000      -0.937594       -25.5132
 100   2.0000      -0.933793       -25.4098
 101   2.0000      -0.929573       -25.2950
 102   2.0000      -0.928594       -25.2683
 103   2.0000      -0.923701       -25.1352
 104   2.0000      -0.920716       -25.0540
 105   2.0000      -0.901441       -24.5295
 106   2.0000      -0.891890       -24.2696
 107   2.0000      -0.883388       -24.0382
 108   2.0000      -0.875363       -23.8198
 109   2.0000      -0.862334       -23.4653
 110   2.0000      -0.854260       -23.2456
 111   2.0000      -0.831052       -22.6141
 112   2.0000      -0.825303       -22.4576
 113   2.0000      -0.819667       -22.3043
 114   2.0000      -0.808797       -22.0085
 115   2.0000      -0.792095       -21.5540
 116   2.0000      -0.785610       -21.3775
 117   2.0000      -0.785052       -21.3623
 118   2.0000      -0.772167       -21.0117
 119   2.0000      -0.769622       -20.9425
 120   2.0000      -0.752781       -20.4842
 121   2.0000      -0.743191       -20.2232
 122   2.0000      -0.736794       -20.0492
 123   2.0000      -0.724702       -19.7201
 124   2.0000      -0.719866       -19.5885
 125   2.0000      -0.712706       -19.3937
 126   2.0000      -0.708024       -19.2663
 127   2.0000      -0.698853       -19.0168
 128   2.0000      -0.691774       -18.8241
 129   2.0000      -0.687450       -18.7065
 130   2.0000      -0.677865       -18.4456
 131   2.0000      -0.672317       -18.2947
 132   2.0000      -0.666996       -18.1499
 133   2.0000      -0.665571       -18.1111
 134   2.0000      -0.662264       -18.0211
 135   2.0000      -0.658313       -17.9136
 136   2.0000      -0.651227       -17.7208
 137   2.0000      -0.648445       -17.6451
 138   2.0000      -0.647618       -17.6226
 139   2.0000      -0.645951       -17.5772
 140   2.0000      -0.643866       -17.5205
 141   2.0000      -0.638757       -17.3815
 142   2.0000      -0.634905       -17.2767
 143   2.0000      -0.633273       -17.2322
 144   2.0000      -0.627608       -17.0781
 145   2.0000      -0.625114       -17.0102
 146   2.0000      -0.622109       -16.9284
 147   2.0000      -0.614216       -16.7137
 148   2.0000      -0.612169       -16.6580
 149   2.0000      -0.611985       -16.6529
 150   2.0000      -0.609810       -16.5938
 151   2.0000      -0.605647       -16.4805
 152   2.0000      -0.605035       -16.4638
 153   2.0000      -0.603060       -16.4101
 154   2.0000      -0.595020       -16.1913
 155   2.0000      -0.593021       -16.1369
 156   2.0000      -0.590751       -16.0752
 157   2.0000      -0.582827       -15.8595
 158   2.0000      -0.580394       -15.7933
 159   2.0000      -0.577215       -15.7068
 160   2.0000      -0.575811       -15.6686
 161   2.0000      -0.562847       -15.3159
 162   2.0000      -0.560341       -15.2476
 163   2.0000      -0.556848       -15.1526
 164   2.0000      -0.550876       -14.9901
 165   2.0000      -0.547314       -14.8932
 166   2.0000      -0.545606       -14.8467
 167   2.0000      -0.541776       -14.7425
 168   2.0000      -0.538734       -14.6597
 169   2.0000      -0.538200       -14.6452
 170   2.0000      -0.529537       -14.4094
 171   2.0000      -0.526543       -14.3280
 172   2.0000      -0.524182       -14.2637
 173   2.0000      -0.523450       -14.2438
 174   2.0000      -0.519973       -14.1492
 175   2.0000      -0.519081       -14.1249
 176   2.0000      -0.517419       -14.0797
 177   2.0000      -0.514279       -13.9942
 178   2.0000      -0.505343       -13.7511
 179   2.0000      -0.502406       -13.6712
 180   2.0000      -0.500200       -13.6111
 181   2.0000      -0.494481       -13.4555
 182   2.0000      -0.491870       -13.3844
 183   2.0000      -0.490106       -13.3365
 184   2.0000      -0.484165       -13.1748
 185   2.0000      -0.483381       -13.1535
 186   2.0000      -0.481248       -13.0954
 187   2.0000      -0.479271       -13.0416
 188   2.0000      -0.476998       -12.9798
 189   2.0000      -0.474173       -12.9029
 190   2.0000      -0.468862       -12.7584
 191   2.0000      -0.467207       -12.7134
 192   2.0000      -0.460873       -12.5410
 193   2.0000      -0.457800       -12.4574
 194   2.0000      -0.452545       -12.3144
 195   2.0000      -0.443480       -12.0677
 196   2.0000      -0.439967       -11.9721
 197   2.0000      -0.434393       -11.8204
 198   2.0000      -0.429676       -11.6921
 199   2.0000      -0.418086       -11.3767
 200   2.0000      -0.415807       -11.3147
 201   2.0000      -0.415058       -11.2943
 202   2.0000      -0.412677       -11.2295
 203   2.0000      -0.409514       -11.1434
 204   2.0000      -0.409079       -11.1316
 205   2.0000      -0.406681       -11.0664
 206   2.0000      -0.404610       -11.0100
 207   2.0000      -0.404080       -10.9956
 208   2.0000      -0.403221       -10.9722
 209   2.0000      -0.401017       -10.9122
 210   2.0000      -0.399608       -10.8739
 211   2.0000      -0.394096       -10.7239
 212   2.0000      -0.392117       -10.6700
 213   2.0000      -0.390617       -10.6292
 214   2.0000      -0.389530       -10.5997
 215   2.0000      -0.389187       -10.5903
 216   2.0000      -0.385304       -10.4847
 217   2.0000      -0.382931       -10.4201
 218   2.0000      -0.377453       -10.2710
 219   2.0000      -0.374306       -10.1854
 220   2.0000      -0.370865       -10.0917
 221   2.0000      -0.363749        -9.8981
 222   2.0000      -0.362063        -9.8522
 223   2.0000      -0.361621        -9.8402
 224   2.0000      -0.357604        -9.7309
 225   2.0000      -0.349874        -9.5206
 226   2.0000      -0.346707        -9.4344
 227   2.0000      -0.343766        -9.3543
 228   2.0000      -0.336926        -9.1682
 229   2.0000      -0.331698        -9.0260
 230   2.0000      -0.317941        -8.6516
 231   2.0000      -0.304909        -8.2970
 232   2.0000      -0.299717        -8.1557
 233   2.0000      -0.245828        -6.6893
 234   0.0000      -0.152056        -4.1377
 235   0.0000      -0.103966        -2.8291
 236   0.0000      -0.080275        -2.1844
 237   0.0000      -0.072172        -1.9639
 238   0.0000      -0.059085        -1.6078

MULLIKEN ATOMIC CHARGES
-----------------------
   0 C :   -0.092227
   1 S :    0.284146
   2 C :   -0.246037
   3 C :    0.179393
   4 C :    0.128297
   5 N :    0.261346
   6 O :   -0.230056
   7 O :   -0.225968
   8 N :    0.256708
   9 O :   -0.232470
  10 O :   -0.185427
  11 C :    0.069252
  12 C :    0.070804
  13 N :    0.288752
  14 O :   -0.273568
  15 O :   -0.223616
  16 C :    0.012194
  17 C :    0.013944
  18 C :   -0.051204
  19 C :    0.030355
  20 C :   -0.005309
  21 C :    0.044930
  22 C :    0.095919
  23 N :    0.272479
  24 O :   -0.243813
  25 O :   -0.250809
  26 C :    0.042784
  27 C :   -0.018467
  28 C :   -0.032714
  29 C :    0.134727
  30 N :   -0.260170
  31 C :    0.091138
  32 C :    0.011286
  33 C :    0.153337
  34 O :   -0.171680
  35 C :   -0.047335
  36 C :   -0.043296
  37 C :    0.153816
  38 O :   -0.173131
  39 N :   -0.263067
  40 C :    0.101970
  41 C :    0.000225
  42 C :    0.130196
  43 C :   -0.027762
  44 C :    0.069327
  45 C :   -0.116286
  46 S :    0.125028
  47 C :   -0.114445
  48 N :   -0.040568
  49 N :   -0.029675
  50 C :    0.053483
  51 C :    0.041925
  52 C :   -0.154956
  53 S :    0.204526
  54 C :   -0.093326
  55 C :    0.138414
  56 C :    0.170852
  57 N :    0.248658
  58 O :   -0.218211
  59 O :   -0.199975
  60 N :    0.259431
  61 O :   -0.230559
  62 O :   -0.224914
  63 H :    0.051929
  64 H :    0.004142
  65 H :    0.011087
  66 H :   -0.007620
  67 H :    0.012226
  68 H :    0.047245
  69 H :    0.026336
  70 H :    0.043404
  71 H :    0.043808
  72 H :    0.024910
  73 H :    0.026421
  74 H :    0.005942
  75 H :    0.024711
  76 H :    0.045174
  77 H :    0.018643
  78 H :    0.026002
  79 H :    0.042400
  80 H :    0.044556
  81 H :   -0.009878
  82 H :    0.017652
  83 H :    0.026434
  84 H :    0.055873
Sum of atomic charges:   -0.0000000

LOEWDIN ATOMIC CHARGES
----------------------
   0 C :   -0.152386
   1 S :    0.575457
   2 C :   -0.158979
   3 C :   -0.054700
   4 C :   -0.066770
   5 N :    0.281176
   6 O :   -0.192313
   7 O :   -0.190588
   8 N :    0.289082
   9 O :   -0.194700
  10 O :   -0.154398
  11 C :   -0.034221
  12 C :   -0.026266
  13 N :    0.286821
  14 O :   -0.236524
  15 O :   -0.187012
  16 C :   -0.013505
  17 C :   -0.017416
  18 C :    0.013928
  19 C :    0.050553
  20 C :   -0.061591
  21 C :    0.051008
  22 C :   -0.053560
  23 N :    0.283568
  24 O :   -0.207505
  25 O :   -0.215190
  26 C :    0.011792
  27 C :    0.033332
  28 C :   -0.004448
  29 C :    0.069661
  30 N :    0.002475
  31 C :    0.037697
  32 C :   -0.061415
  33 C :    0.078082
  34 O :   -0.177199
  35 C :   -0.101906
  36 C :   -0.097792
  37 C :    0.084554
  38 O :   -0.163495
  39 N :    0.000688
  40 C :    0.035950
  41 C :   -0.061855
  42 C :    0.076204
  43 C :    0.005679
  44 C :   -0.035307
  45 C :   -0.149973
  46 S :    0.406847
  47 C :   -0.150189
  48 N :   -0.067732
  49 N :   -0.061620
  50 C :   -0.029860
  51 C :   -0.021466
  52 C :   -0.147931
  53 S :    0.516826
  54 C :   -0.145726
  55 C :   -0.062431
  56 C :   -0.049841
  57 N :    0.283047
  58 O :   -0.179629
  59 O :   -0.167595
  60 N :    0.281808
  61 O :   -0.192575
  62 O :   -0.189172
  63 H :    0.044219
  64 H :    0.038986
  65 H :    0.035824
  66 H :    0.029084
  67 H :    0.043010
  68 H :    0.045861
  69 H :    0.031423
  70 H :    0.038288
  71 H :    0.028621
  72 H :    0.030409
  73 H :    0.032991
  74 H :    0.018964
  75 H :    0.023151
  76 H :    0.039237
  77 H :    0.020894
  78 H :    0.032305
  79 H :    0.038233
  80 H :    0.057530
  81 H :    0.031862
  82 H :    0.031941
  83 H :    0.042063
  84 H :    0.045654

  Mayer bond orders larger than 0.100000
B(  0-C ,  1-S ) :   1.1870 B(  0-C ,  4-C ) :   1.5333 B(  0-C , 63-H ) :   0.9616
B(  1-S ,  2-C ) :   1.2072 B(  2-C ,  3-C ) :   1.4933 B(  2-C , 11-C ) :   1.0631
B(  3-C ,  4-C ) :   1.2748 B(  3-C ,  8-N ) :   0.8865 B(  4-C ,  5-N ) :   0.8902
B(  5-N ,  6-O ) :   1.5421 B(  5-N ,  7-O ) :   1.5529 B(  6-O ,  7-O ) :   0.2804
B(  8-N ,  9-O ) :   1.4718 B(  8-N , 10-O ) :   1.5707 B(  9-O , 10-O ) :   0.2697
B( 11-C , 12-C ) :   1.5485 B( 11-C , 18-C ) :   1.0842 B( 12-C , 13-N ) :   0.9489
B( 12-C , 16-C ) :   1.1545 B( 13-N , 14-O ) :   1.4394 B( 13-N , 15-O ) :   1.5566
B( 14-O , 15-O ) :   0.2625 B( 16-C , 17-C ) :   1.5513 B( 16-C , 64-H ) :   1.0160
B( 17-C , 18-C ) :   1.1548 B( 17-C , 65-H ) :   0.9990 B( 18-C , 19-C ) :   1.4233
B( 19-C , 20-C ) :   1.2213 B( 19-C , 26-C ) :   0.9819 B( 20-C , 21-C ) :   1.4897
B( 20-C , 66-H ) :   1.0043 B( 21-C , 22-C ) :   1.1736 B( 21-C , 67-H ) :   1.0110
B( 22-C , 23-N ) :   0.9460 B( 22-C , 26-C ) :   1.4514 B( 23-N , 24-O ) :   1.5036
B( 23-N , 25-O ) :   1.5249 B( 24-O , 25-O ) :   0.2610 B( 26-C , 27-C ) :   1.2472
B( 27-C , 28-C ) :   1.4521 B( 27-C , 68-H ) :   0.9392 B( 28-C , 29-C ) :   1.2331
B( 28-C , 69-H ) :   0.9325 B( 29-C , 30-N ) :   1.1785 B( 29-C , 36-C ) :   1.2690
B( 30-N , 31-C ) :   0.9303 B( 30-N , 33-C ) :   1.0355 B( 31-C , 32-C ) :   1.1227
B( 31-C , 70-H ) :   0.9278 B( 31-C , 71-H ) :   0.9446 B( 32-C , 72-H ) :   0.9604
B( 32-C , 73-H ) :   0.9664 B( 32-C , 74-H ) :   0.9665 B( 33-C , 34-O ) :   2.1578
B( 33-C , 35-C ) :   0.9627 B( 35-C , 36-C ) :   1.3009 B( 35-C , 42-C ) :   1.3028
B( 36-C , 37-C ) :   0.9736 B( 37-C , 38-O ) :   2.0866 B( 37-C , 39-N ) :   1.0314
B( 39-N , 40-C ) :   0.9388 B( 39-N , 42-C ) :   1.1908 B( 40-C , 41-C ) :   1.1173
B( 40-C , 75-H ) :   0.9503 B( 40-C , 76-H ) :   0.9260 B( 41-C , 77-H ) :   0.9670
B( 41-C , 78-H ) :   0.9688 B( 41-C , 79-H ) :   0.9603 B( 42-C , 43-C ) :   1.1644
B( 43-C , 44-C ) :   1.6246 B( 43-C , 80-H ) :   0.9510 B( 44-C , 45-C ) :   1.1143
B( 44-C , 81-H ) :   0.9495 B( 45-C , 46-S ) :   1.0976 B( 45-C , 49-N ) :   1.6597
B( 46-S , 47-C ) :   1.1091 B( 47-C , 48-N ) :   1.6571 B( 47-C , 50-C ) :   1.1067
B( 48-N , 49-N ) :   1.2496 B( 50-C , 51-C ) :   1.7574 B( 50-C , 82-H ) :   0.9351
B( 51-C , 52-C ) :   1.0973 B( 51-C , 83-H ) :   0.9471 B( 52-C , 53-S ) :   1.1664
B( 52-C , 56-C ) :   1.5109 B( 53-S , 54-C ) :   1.1860 B( 54-C , 55-C ) :   1.5566
B( 54-C , 84-H ) :   0.9589 B( 55-C , 56-C ) :   1.2530 B( 55-C , 60-N ) :   0.8939
B( 56-C , 57-N ) :   0.8758 B( 57-N , 58-O ) :   1.5119 B( 57-N , 59-O ) :   1.5751
B( 58-O , 59-O ) :   0.2793 B( 60-N , 61-O ) :   1.5485 B( 60-N , 62-O ) :   1.5549
B( 61-O , 62-O ) :   0.2796

-----------------------------------------------------------------------------
         ABSORPTION SPECTRUM VIA TRANSITION ELECTRIC DIPOLE MOMENTS
-----------------------------------------------------------------------------
State   Energy  Wavelength   fosc         T2         TX        TY        TZ
        (cm-1)    (nm)                  (au**2)     (au)      (au)      (au)
-----------------------------------------------------------------------------
   0    5161.4   1937.5   0.224888540  14.34426   0.74365   3.36565   1.56960
   1   13794.9    724.9   0.052396965   1.25044  -0.46977  -1.00986  -0.09971
   2   15701.3    636.9   0.343510184   7.20242  -0.25127  -2.58101  -0.69114
   3   16598.7    602.5   0.026775794   0.53106  -0.56357  -0.41467  -0.20370
   4   20723.1    482.6   0.041267427   0.65558  -0.03378   0.56334   0.58059
   5   21236.5    470.9   0.052968622   0.82113  -0.24580  -0.87032  -0.05709
   6   22156.7    451.3   0.301787089   4.48407  -1.00652  -1.85863  -0.12844
   7   23276.4    429.6   0.104607745   1.47953  -0.59283  -1.03225  -0.25009
   8   23361.5    428.1   0.102433533   1.44350   0.58206   1.02494   0.23280
   9   24363.5    410.5   0.048942880   0.66134   0.29156   0.13481   0.74710
  10   25083.7    398.7   0.122661952   1.60988  -0.65228  -0.38099  -1.01944
  11   25435.4    393.2   0.035769836   0.46297   0.24452   0.45295   0.44499
  12   25749.1    388.4   0.000695787   0.00890  -0.01301   0.09331  -0.00436
  13   26811.8    373.0   0.063492824   0.77960  -0.42158  -0.15746   0.75966
  14   27142.1    368.4   0.014919362   0.18096  -0.17529  -0.03907   0.38562
  15   27497.2    363.7   0.131041325   1.56890   0.62898   0.61401  -0.89234
  16   27681.6    361.3   0.078233744   0.93042  -0.83113  -0.09868   0.47948
  17   28626.5    349.3   0.065689087   0.75544   0.00149  -0.77778   0.38793
  18   28870.8    346.4   0.028712422   0.32741  -0.11083   0.49669  -0.26157
  19   29131.4    343.3   0.028848958   0.32602  -0.24120   0.18521  -0.48326
  20   29303.4    341.3   0.272223973   3.05833  -0.72575  -1.57823  -0.20203
  21   29510.5    338.9   0.098909649   1.10341   0.30925   0.95197  -0.31864
  22   29735.0    336.3   0.078617670   0.87042   0.40806   0.43518   0.71730
  23   30152.3    331.6   0.066429104   0.72529   0.44685   0.72233   0.06216
  24   30289.0    330.2   0.078071300   0.84856   0.30890  -0.06547   0.86536
  25   30488.7    328.0   0.195380375   2.10969   0.39547  -0.96528   1.01070
  26   31505.4    317.4   0.070666763   0.73842   0.39570   0.50288   0.57355
  27   31529.4    317.2   0.045219583   0.47216   0.38615   0.56000   0.09719
  28   31705.7    315.4   0.028059718   0.29135   0.05873   0.01986  -0.53620
  29   31729.5    315.2   0.010256937   0.10642  -0.24306  -0.21726  -0.01201
  30   32021.1    312.3   0.268906073   2.76465  -0.07705   0.67423  -1.51794
  31   32429.2    308.4   0.053485136   0.54297   0.48107   0.26541  -0.49102
  32   33034.6    302.7   0.081802695   0.81522  -0.08209  -0.58457   0.68320
  33   33344.1    299.9   0.035209899   0.34763  -0.12960   0.28636  -0.49884
  34   33374.6    299.6   0.000751443   0.00741  -0.01865   0.07140   0.04434
  35   33829.2    295.6   0.097899339   0.95272  -0.49117  -0.71905   0.44095
  36   34291.5    291.6   0.080136564   0.76934   0.53288  -0.66545   0.20630
  37   35484.7    281.8   0.032462119   0.30117  -0.14564  -0.30511   0.43228
  38   35554.2    281.3   0.010059280   0.09314  -0.28921  -0.09708  -0.00866
  39   35674.8    280.3   0.006230968   0.05750   0.19943  -0.10119   0.08654
  40   35878.7    278.7   0.049449483   0.45373  -0.12358   0.53059  -0.39616
  41   35945.0    278.2   0.120448759   1.10316   0.58566   0.84135   0.22868
  42   36182.4    276.4   0.046376909   0.42197   0.37647   0.23115   0.47624
  43   36346.3    275.1   0.024648141   0.22325   0.24559  -0.13131   0.38170
  44   36519.6    273.8   0.018427940   0.16612   0.14188   0.17932   0.33740
  45   36647.5    272.9   0.007199327   0.06467  -0.07726   0.15928   0.18258
  46   36687.1    272.6   0.011293756   0.10134   0.09411  -0.16256  -0.25703
  47   37028.1    270.1   0.006199968   0.05512  -0.13583   0.06401  -0.18049
  48   37209.3    268.7   0.038499663   0.34063   0.04614  -0.29401  -0.50205
  49   37437.4    267.1   0.067357879   0.59232  -0.21138  -0.51775   0.52875
  50   37823.8    264.4   0.072523081   0.63123  -0.33503   0.15294  -0.70398
  51   38093.5    262.5   0.001602555   0.01385   0.09712  -0.06476  -0.01494
  52   38526.2    259.6   0.042252879   0.36106  -0.14916  -0.33122   0.47864
  53   38576.4    259.2   0.000038427   0.00033   0.00271  -0.01777  -0.00216
  54   38723.7    258.2   0.031822052   0.27054  -0.22733   0.08884  -0.45931
  55   39082.2    255.9   0.056742162   0.47797  -0.32581  -0.60289  -0.09132
  56   39174.5    255.3   0.023325354   0.19602   0.25044  -0.21316   0.29641
  57   39560.9    252.8   0.006733528   0.05603   0.08222  -0.03596   0.21905
  58   39664.0    252.1   0.014162662   0.11755   0.19212  -0.08364   0.27138
  59   39783.9    251.4   0.031334162   0.25929   0.06519   0.27362  -0.42447
  60   39959.4    250.3   0.005667557   0.04669   0.01147  -0.11915  -0.17990
  61   40142.5    249.1   0.006762712   0.05546   0.14812   0.08007  -0.16465

FINAL SINGLE POINT ENERGY     -4175.629074876614

DIPOLE MOMENT
-------------
                                X             Y             Z
Electronic contribution:    -16.34473      -8.40600       3.19588
Nuclear contribution   :     18.38083       8.03129      -1.52843
                        -----------------------------------------
Total Dipole Moment    :      2.03610      -0.37472       1.66744
                        -----------------------------------------
Magnitude (a.u.)       :      2.65829
Magnitude (Debye)      :      6.75683

Rotational constants in cm-1:     0.002586     0.000294     0.000284
Rotational constants in MHz :    77.525434     8.816946     8.510504

                             ****ORCA TERMINATED NORMALLY****
TOTAL RUN TIME: 0 days 0 hours 9 minutes 11 seconds 924 msec
