                         Program Version 4.2.0 -  RELEASE  -
|  1> # ORCA input file
|  2> # SCF done       -170.385598127459          0.000743668542
|  3> ! CAM-B3LYP def2-SVP def2/J RIJCOSX Grid4 TightSCF
|  4> %maxcore 5000
|  5> %tddft
|  6>     Mode sTDDFT
|  7>     Ethresh 5.0
|  8>     maxcore 5000
|  9> end
| 10>
| 11> %pal
| 12>   nprocs 6
| 13>   end
| 14> * xyz 0 1
| 15>    C        2.60549        -0.72704         0.07435
| 16>    S        2.21699        -2.36740        -0.16267
| 17>    C        0.95883        -2.32051         1.05196
| 18>    C        0.87502        -1.05451         1.59852
| 19>    C        1.81944        -0.15408         1.03222
| 20>    N        2.02586         1.19580         1.48709
| 21>    O        2.57181         1.94940         0.71714
| 22>    O        1.67780         1.44904         2.61512
| 23>    N       -0.15704        -0.59762         2.50355
| 24>    O       -0.32365        -1.21423         3.52660
| 25>    O       -0.79554         0.35183         2.12365
| 26>    C        0.17899        -3.49641         1.27786
| 27>    S        0.20226        -4.75797         0.07052
| 28>    C       -0.88680        -5.74537         0.99818
| 29>    C       -1.22377        -5.10021         2.19099
| 30>    C       -0.62084        -3.84216         2.34438
| 31>    C       -2.07162        -5.66670         3.16319
| 32>    N       -2.74729        -6.11323         3.97306
| 33>    C       -1.34142        -7.00833         0.56051
| 34>    C       -0.92135        -7.59528        -0.59422
| 35>    C       -1.39695        -8.84643        -1.04270
| 36>    N       -0.95228        -9.47557        -2.18093
| 37>    C        0.10429        -9.02976        -3.05724
| 38>    C        1.48552        -9.27559        -2.45557
| 39>    C       -1.61514       -10.69538        -2.40110
| 40>    O       -1.38151       -11.42354        -3.34450
| 41>    C       -2.55094       -10.79926        -1.30016
| 42>    C       -2.38853        -9.66074        -0.48600
| 43>    C       -3.34210        -9.74661         0.60395
| 44>    O       -3.56759        -9.00679         1.53721
| 45>    N       -4.03365       -10.94428         0.36409
| 46>    C       -5.05715       -11.40952         1.27200
| 47>    C       -4.53630       -12.49806         2.20598
| 48>    C       -3.57907       -11.58897        -0.76085
| 49>    C       -4.11417       -12.79826        -1.24517
| 50>    C       -3.63108       -13.42545        -2.35944
| 51>    C       -4.16321       -14.62132        -2.88817
| 52>    C       -5.24257       -15.36902        -2.45445
| 53>    C       -5.42195       -16.48112        -3.31853
| 54>    C       -4.35254       -16.38755        -4.33683
| 55>    C       -3.61743       -15.27979        -4.07168
| 56>    C       -4.12822       -17.27598        -5.39496
| 57>    N       -3.92565       -17.99141        -6.27043
| 58>    C       -6.40463       -17.44384        -3.25010
| 59>    C       -6.59767       -18.55028        -4.12993
| 60>    C       -7.70535       -19.26053        -3.72955
| 61>    C       -8.26135       -18.60555        -2.55614
| 62>    C       -7.49046       -17.52262        -2.26281
| 63>    C       -7.71026       -16.63997        -1.19940
| 64>    N       -7.89271       -15.92118        -0.32203
| 65>    C       -8.19650       -20.42794        -4.39300
| 66>    S       -7.46659       -20.89952        -5.91522
| 67>    C       -8.45731       -22.27308        -6.04327
| 68>    C       -9.31271       -22.38698        -4.98017
| 69>    C       -9.17001       -21.33624        -4.03632
| 70>    N       -9.89542       -21.33020        -2.77656
| 71>    O      -10.67002       -20.42848        -2.58475
| 72>    O       -9.60882       -22.21443        -2.01030
| 73>    N      -10.30783       -23.41366        -4.88762
| 74>    O      -10.18505       -24.36516        -5.62372
| 75>    O      -11.20795       -23.23226        -4.09959
| 76>    H        3.39766        -0.25121        -0.46983
| 77>    H       -0.75634        -3.23032         3.21880
| 78>    H       -2.06318        -7.50752         1.19659
| 79>    H       -0.19081        -7.08271        -1.20696
| 80>    H       -0.03688        -7.97071        -3.29097
| 81>    H       -0.00326        -9.60998        -3.97783
| 82>    H        1.60446        -8.74244        -1.51488
| 83>    H        2.25186        -8.93917        -3.14804
| 84>    H        1.62693       -10.33757        -2.27118
| 85>    H       -5.91822       -11.76552         0.70047
| 86>    H       -5.35909       -10.53722         1.85794
| 87>    H       -4.18280       -13.36071         1.64542
| 88>    H       -5.33268       -12.81804         2.87138
| 89>    H       -3.71572       -12.11302         2.80640
| 90>    H       -4.94438       -13.23285        -0.70810
| 91>    H       -2.79224       -12.99038        -2.88709
| 92>    H       -5.86709       -15.15869        -1.60990
| 93>    H       -2.76856       -14.92113        -4.62388
| 94>    H       -5.96710       -18.78700        -4.96458
| 95>    H       -9.14839       -18.89735        -2.02807
| 96>    H       -8.40001       -22.93661        -6.88410
| 97> *
| 98>
| 99>                          ****END OF INPUT****

CARTESIAN COORDINATES (ANGSTROEM)
---------------------------------
  C      2.605490   -0.727040    0.074350
  S      2.216990   -2.367400   -0.162670
  C      0.958830   -2.320510    1.051960
  C      0.875020   -1.054510    1.598520
  C      1.819440   -0.154080    1.032220
  N      2.025860    1.195800    1.487090
  O      2.571810    1.949400    0.717140
  O      1.677800    1.449040    2.615120
  N     -0.157040   -0.597620    2.503550
  O     -0.323650   -1.214230    3.526600
  O     -0.795540    0.351830    2.123650
  C      0.178990   -3.496410    1.277860
  S      0.202260   -4.757970    0.070520
  C     -0.886800   -5.745370    0.998180
  C     -1.223770   -5.100210    2.190990
  C     -0.620840   -3.842160    2.344380
  C     -2.071620   -5.666700    3.163190
  N     -2.747290   -6.113230    3.973060
  C     -1.341420   -7.008330    0.560510
  C     -0.921350   -7.595280   -0.594220
  C     -1.396950   -8.846430   -1.042700
  N     -0.952280   -9.475570   -2.180930
  C      0.104290   -9.029760   -3.057240
  C      1.485520   -9.275590   -2.455570
  C     -1.615140  -10.695380   -2.401100
  O     -1.381510  -11.423540   -3.344500
  C     -2.550940  -10.799260   -1.300160
  C     -2.388530   -9.660740   -0.486000
  C     -3.342100   -9.746610    0.603950
  O     -3.567590   -9.006790    1.537210
  N     -4.033650  -10.944280    0.364090
  C     -5.057150  -11.409520    1.272000
  C     -4.536300  -12.498060    2.205980
  C     -3.579070  -11.588970   -0.760850
  C     -4.114170  -12.798260   -1.245170
  C     -3.631080  -13.425450   -2.359440
  C     -4.163210  -14.621320   -2.888170
  C     -5.242570  -15.369020   -2.454450
  C     -5.421950  -16.481120   -3.318530
  C     -4.352540  -16.387550   -4.336830
  C     -3.617430  -15.279790   -4.071680
  C     -4.128220  -17.275980   -5.394960
  N     -3.925650  -17.991410   -6.270430
  C     -6.404630  -17.443840   -3.250100
  C     -6.597670  -18.550280   -4.129930
  C     -7.705350  -19.260530   -3.729550
  C     -8.261350  -18.605550   -2.556140
  C     -7.490460  -17.522620   -2.262810
  C     -7.710260  -16.639970   -1.199400
  N     -7.892710  -15.921180   -0.322030
  C     -8.196500  -20.427940   -4.393000
  S     -7.466590  -20.899520   -5.915220
  C     -8.457310  -22.273080   -6.043270
  C     -9.312710  -22.386980   -4.980170
  C     -9.170010  -21.336240   -4.036320
  N     -9.895420  -21.330200   -2.776560
  O    -10.670020  -20.428480   -2.584750
  O     -9.608820  -22.214430   -2.010300
  N    -10.307830  -23.413660   -4.887620
  O    -10.185050  -24.365160   -5.623720
  O    -11.207950  -23.232260   -4.099590
  H      3.397660   -0.251210   -0.469830
  H     -0.756340   -3.230320    3.218800
  H     -2.063180   -7.507520    1.196590
  H     -0.190810   -7.082710   -1.206960
  H     -0.036880   -7.970710   -3.290970
  H     -0.003260   -9.609980   -3.977830
  H      1.604460   -8.742440   -1.514880
  H      2.251860   -8.939170   -3.148040
  H      1.626930  -10.337570   -2.271180
  H     -5.918220  -11.765520    0.700470
  H     -5.359090  -10.537220    1.857940
  H     -4.182800  -13.360710    1.645420
  H     -5.332680  -12.818040    2.871380
  H     -3.715720  -12.113020    2.806400
  H     -4.944380  -13.232850   -0.708100
  H     -2.792240  -12.990380   -2.887090
  H     -5.867090  -15.158690   -1.609900
  H     -2.768560  -14.921130   -4.623880
  H     -5.967100  -18.787000   -4.964580
  H     -9.148390  -18.897350   -2.028070
  H     -8.400010  -22.936610   -6.884100

 Total Charge           Charge          ....    0
 Multiplicity           Mult            ....    1
 Number of Electrons    NEL             ....  446
 Basis Dimension        Dim             ....  971

ORBITAL ENERGIES
----------------

  NO   OCC          E(Eh)            E(eV)
   0   2.0000     -89.018995     -2422.3300
   1   2.0000     -89.010371     -2422.0953
   2   2.0000     -89.000341     -2421.8224
   3   2.0000     -19.270542      -524.3781
   4   2.0000     -19.268910      -524.3337
   5   2.0000     -19.267053      -524.2832
   6   2.0000     -19.266345      -524.2639
   7   2.0000     -19.264049      -524.2014
   8   2.0000     -19.262024      -524.1463
   9   2.0000     -19.259587      -524.0800
  10   2.0000     -19.257589      -524.0256
  11   2.0000     -19.211025      -522.7586
  12   2.0000     -19.206597      -522.6381
  13   2.0000     -14.677661      -399.3995
  14   2.0000     -14.674085      -399.3022
  15   2.0000     -14.672620      -399.2623
  16   2.0000     -14.668464      -399.1492
  17   2.0000     -14.471927      -393.8012
  18   2.0000     -14.468338      -393.7035
  19   2.0000     -14.421467      -392.4281
  20   2.0000     -14.418669      -392.3519
  21   2.0000     -14.415438      -392.2640
  22   2.0000     -10.393139      -282.8117
  23   2.0000     -10.389065      -282.7008
  24   2.0000     -10.374032      -282.2918
  25   2.0000     -10.371540      -282.2239
  26   2.0000     -10.368328      -282.1366
  27   2.0000     -10.366767      -282.0941
  28   2.0000     -10.361962      -281.9633
  29   2.0000     -10.360425      -281.9215
  30   2.0000     -10.357751      -281.8487
  31   2.0000     -10.356719      -281.8206
  32   2.0000     -10.356496      -281.8146
  33   2.0000     -10.353554      -281.7345
  34   2.0000     -10.351899      -281.6895
  35   2.0000     -10.350503      -281.6515
  36   2.0000     -10.339102      -281.3413
  37   2.0000     -10.337160      -281.2884
  38   2.0000     -10.335082      -281.2319
  39   2.0000     -10.329067      -281.0682
  40   2.0000     -10.327996      -281.0391
  41   2.0000     -10.325915      -280.9824
  42   2.0000     -10.325704      -280.9767
  43   2.0000     -10.323574      -280.9187
  44   2.0000     -10.321475      -280.8616
  45   2.0000     -10.320981      -280.8482
  46   2.0000     -10.319079      -280.7964
  47   2.0000     -10.318022      -280.7677
  48   2.0000     -10.317365      -280.7498
  49   2.0000     -10.317340      -280.7491
  50   2.0000     -10.316661      -280.7306
  51   2.0000     -10.316050      -280.7140
  52   2.0000     -10.314143      -280.6621
  53   2.0000     -10.313002      -280.6310
  54   2.0000     -10.308175      -280.4997
  55   2.0000     -10.304771      -280.4071
  56   2.0000     -10.296734      -280.1884
  57   2.0000     -10.282651      -279.8052
  58   2.0000     -10.281285      -279.7680
  59   2.0000     -10.280415      -279.7443
  60   2.0000     -10.269477      -279.4467
  61   2.0000      -8.114640      -220.8106
  62   2.0000      -8.105548      -220.5632
  63   2.0000      -8.095722      -220.2958
  64   2.0000      -6.084001      -165.5541
  65   2.0000      -6.079597      -165.4343
  66   2.0000      -6.076752      -165.3568
  67   2.0000      -6.074814      -165.3041
  68   2.0000      -6.070465      -165.1857
  69   2.0000      -6.067852      -165.1146
  70   2.0000      -6.064968      -165.0362
  71   2.0000      -6.060952      -164.9269
  72   2.0000      -6.057826      -164.8418
  73   2.0000      -1.354394       -36.8549
  74   2.0000      -1.351107       -36.7655
  75   2.0000      -1.346185       -36.6316
  76   2.0000      -1.341406       -36.5015
  77   2.0000      -1.175100       -31.9761
  78   2.0000      -1.171734       -31.8845
  79   2.0000      -1.167680       -31.7742
  80   2.0000      -1.162579       -31.6354
  81   2.0000      -1.152096       -31.3501
  82   2.0000      -1.144641       -31.1473
  83   2.0000      -1.082199       -29.4481
  84   2.0000      -1.073096       -29.2004
  85   2.0000      -1.057955       -28.7884
  86   2.0000      -1.049147       -28.5487
  87   2.0000      -1.029804       -28.0224
  88   2.0000      -1.028286       -27.9811
  89   2.0000      -1.012178       -27.5428
  90   2.0000      -0.997724       -27.1495
  91   2.0000      -0.995295       -27.0834
  92   2.0000      -0.994012       -27.0485
  93   2.0000      -0.949111       -25.8266
  94   2.0000      -0.944084       -25.6898
  95   2.0000      -0.937350       -25.5066
  96   2.0000      -0.935694       -25.4615
  97   2.0000      -0.929317       -25.2880
  98   2.0000      -0.923583       -25.1320
  99   2.0000      -0.921472       -25.0745
 100   2.0000      -0.890138       -24.2219
 101   2.0000      -0.888630       -24.1808
 102   2.0000      -0.881583       -23.9891
 103   2.0000      -0.871424       -23.7127
 104   2.0000      -0.869113       -23.6498
 105   2.0000      -0.859069       -23.3765
 106   2.0000      -0.834801       -22.7161
 107   2.0000      -0.829465       -22.5709
 108   2.0000      -0.824370       -22.4322
 109   2.0000      -0.804105       -21.8808
 110   2.0000      -0.795727       -21.6528
 111   2.0000      -0.791450       -21.5365
 112   2.0000      -0.786137       -21.3919
 113   2.0000      -0.779378       -21.2080
 114   2.0000      -0.774374       -21.0718
 115   2.0000      -0.748185       -20.3591
 116   2.0000      -0.737362       -20.0646
 117   2.0000      -0.733713       -19.9653
 118   2.0000      -0.731376       -19.9017
 119   2.0000      -0.725794       -19.7499
 120   2.0000      -0.719697       -19.5840
 121   2.0000      -0.707598       -19.2547
 122   2.0000      -0.695506       -18.9257
 123   2.0000      -0.691005       -18.8032
 124   2.0000      -0.683125       -18.5888
 125   2.0000      -0.679559       -18.4917
 126   2.0000      -0.666793       -18.1444
 127   2.0000      -0.663544       -18.0560
 128   2.0000      -0.662570       -18.0294
 129   2.0000      -0.657705       -17.8971
 130   2.0000      -0.653722       -17.7887
 131   2.0000      -0.651454       -17.7270
 132   2.0000      -0.649409       -17.6713
 133   2.0000      -0.646153       -17.5827
 134   2.0000      -0.642487       -17.4830
 135   2.0000      -0.636876       -17.3303
 136   2.0000      -0.629933       -17.1414
 137   2.0000      -0.621514       -16.9123
 138   2.0000      -0.619395       -16.8546
 139   2.0000      -0.617940       -16.8150
 140   2.0000      -0.614560       -16.7230
 141   2.0000      -0.610122       -16.6023
 142   2.0000      -0.607842       -16.5402
 143   2.0000      -0.605020       -16.4634
 144   2.0000      -0.599525       -16.3139
 145   2.0000      -0.596675       -16.2363
 146   2.0000      -0.593956       -16.1624
 147   2.0000      -0.590766       -16.0756
 148   2.0000      -0.580420       -15.7940
 149   2.0000      -0.566502       -15.4153
 150   2.0000      -0.564901       -15.3717
 151   2.0000      -0.563443       -15.3321
 152   2.0000      -0.557667       -15.1749
 153   2.0000      -0.551581       -15.0093
 154   2.0000      -0.546515       -14.8714
 155   2.0000      -0.545678       -14.8486
 156   2.0000      -0.543286       -14.7836
 157   2.0000      -0.540221       -14.7002
 158   2.0000      -0.538499       -14.6533
 159   2.0000      -0.537195       -14.6178
 160   2.0000      -0.530778       -14.4432
 161   2.0000      -0.528994       -14.3946
 162   2.0000      -0.528116       -14.3708
 163   2.0000      -0.525033       -14.2869
 164   2.0000      -0.522229       -14.2106
 165   2.0000      -0.519997       -14.1498
 166   2.0000      -0.517111       -14.0713
 167   2.0000      -0.515304       -14.0221
 168   2.0000      -0.512566       -13.9476
 169   2.0000      -0.509916       -13.8755
 170   2.0000      -0.500831       -13.6283
 171   2.0000      -0.496501       -13.5105
 172   2.0000      -0.495026       -13.4704
 173   2.0000      -0.493010       -13.4155
 174   2.0000      -0.490459       -13.3461
 175   2.0000      -0.485632       -13.2147
 176   2.0000      -0.478695       -13.0260
 177   2.0000      -0.475919       -12.9504
 178   2.0000      -0.472927       -12.8690
 179   2.0000      -0.470958       -12.8154
 180   2.0000      -0.467666       -12.7258
 181   2.0000      -0.460743       -12.5374
 182   2.0000      -0.456800       -12.4302
 183   2.0000      -0.455802       -12.4030
 184   2.0000      -0.453480       -12.3398
 185   2.0000      -0.451318       -12.2810
 186   2.0000      -0.448847       -12.2138
 187   2.0000      -0.448528       -12.2051
 188   2.0000      -0.445728       -12.1289
 189   2.0000      -0.443661       -12.0726
 190   2.0000      -0.441537       -12.0148
 191   2.0000      -0.440627       -11.9901
 192   2.0000      -0.432185       -11.7603
 193   2.0000      -0.427966       -11.6455
 194   2.0000      -0.420239       -11.4353
 195   2.0000      -0.418385       -11.3848
 196   2.0000      -0.414695       -11.2844
 197   2.0000      -0.413558       -11.2535
 198   2.0000      -0.410775       -11.1777
 199   2.0000      -0.410325       -11.1655
 200   2.0000      -0.408007       -11.1024
 201   2.0000      -0.405809       -11.0426
 202   2.0000      -0.404084       -10.9957
 203   2.0000      -0.403503       -10.9799
 204   2.0000      -0.400976       -10.9111
 205   2.0000      -0.397943       -10.8286
 206   2.0000      -0.395523       -10.7627
 207   2.0000      -0.391884       -10.6637
 208   2.0000      -0.391604       -10.6561
 209   2.0000      -0.387079       -10.5329
 210   2.0000      -0.370766       -10.0891
 211   2.0000      -0.368817       -10.0360
 212   2.0000      -0.366667        -9.9775
 213   2.0000      -0.364235        -9.9113
 214   2.0000      -0.362153        -9.8547
 215   2.0000      -0.354798        -9.6545
 216   2.0000      -0.349248        -9.5035
 217   2.0000      -0.338782        -9.2187
 218   2.0000      -0.333557        -9.0765
 219   2.0000      -0.316226        -8.6050
 220   2.0000      -0.310854        -8.4588
 221   2.0000      -0.301459        -8.2031
 222   2.0000      -0.248458        -6.7609
 223   0.0000      -0.146040        -3.9739
 224   0.0000      -0.104781        -2.8512
 225   0.0000      -0.066848        -1.8190
 226   0.0000      -0.063636        -1.7316
 227   0.0000      -0.061834        -1.6826

MULLIKEN ATOMIC CHARGES
-----------------------
   0 C :   -0.090128
   1 S :    0.192312
   2 C :   -0.120948
   3 C :    0.179414
   4 C :    0.135529
   5 N :    0.259382
   6 O :   -0.229167
   7 O :   -0.219223
   8 N :    0.250303
   9 O :   -0.215315
  10 O :   -0.200045
  11 C :   -0.075972
  12 S :    0.122239
  13 C :   -0.034436
  14 C :   -0.061833
  15 C :    0.006676
  16 C :   -0.181456
  17 N :    0.163254
  18 C :    0.002296
  19 C :   -0.034476
  20 C :    0.138462
  21 N :   -0.255506
  22 C :    0.096733
  23 C :    0.004543
  24 C :    0.168538
  25 O :   -0.205053
  26 C :   -0.064158
  27 C :   -0.063922
  28 C :    0.167642
  29 O :   -0.187982
  30 N :   -0.255516
  31 C :    0.095312
  32 C :    0.003787
  33 C :    0.145601
  34 C :   -0.006829
  35 C :    0.003754
  36 C :    0.110521
  37 C :   -0.121050
  38 C :    0.119782
  39 C :   -0.089452
  40 C :    0.009188
  41 C :   -0.170205
  42 N :    0.131888
  43 C :    0.112716
  44 C :   -0.143021
  45 C :    0.097427
  46 C :   -0.006314
  47 C :   -0.107815
  48 C :   -0.166131
  49 N :    0.131025
  50 C :   -0.147092
  51 S :    0.210425
  52 C :   -0.084506
  53 C :    0.145699
  54 C :    0.167072
  55 N :    0.237866
  56 O :   -0.212102
  57 O :   -0.196081
  58 N :    0.263438
  59 O :   -0.231367
  60 O :   -0.227071
  61 H :    0.057694
  62 H :    0.032599
  63 H :    0.047565
  64 H :   -0.017270
  65 H :    0.024410
  66 H :    0.046672
  67 H :    0.014805
  68 H :    0.027296
  69 H :    0.032022
  70 H :    0.033079
  71 H :    0.050928
  72 H :    0.015464
  73 H :    0.034074
  74 H :    0.031073
  75 H :   -0.008582
  76 H :    0.004104
  77 H :    0.002591
  78 H :    0.013903
  79 H :    0.015266
  80 H :    0.016193
  81 H :    0.057466
Sum of atomic charges:   -0.0000000

LOEWDIN ATOMIC CHARGES
----------------------
   0 C :   -0.144138
   1 S :    0.496809
   2 C :   -0.161370
   3 C :   -0.049594
   4 C :   -0.059108
   5 N :    0.281371
   6 O :   -0.191295
   7 O :   -0.184534
   8 N :    0.282623
   9 O :   -0.175031
  10 O :   -0.168095
  11 C :   -0.189532
  12 S :    0.443510
  13 C :   -0.134079
  14 C :   -0.087375
  15 C :   -0.006093
  16 C :   -0.034289
  17 N :   -0.026407
  18 C :    0.010125
  19 C :   -0.041095
  20 C :    0.071723
  21 N :    0.001253
  22 C :    0.036775
  23 C :   -0.060384
  24 C :    0.081290
  25 O :   -0.195185
  26 C :   -0.110258
  27 C :   -0.110264
  28 C :    0.079853
  29 O :   -0.179930
  30 N :    0.004133
  31 C :    0.038211
  32 C :   -0.058949
  33 C :    0.074478
  34 C :   -0.013084
  35 C :    0.021255
  36 C :   -0.012171
  37 C :   -0.022901
  38 C :    0.048171
  39 C :   -0.081674
  40 C :    0.066729
  41 C :   -0.029236
  42 N :   -0.062228
  43 C :    0.029999
  44 C :   -0.021805
  45 C :   -0.041433
  46 C :    0.050825
  47 C :   -0.081489
  48 C :   -0.025090
  49 N :   -0.064717
  50 C :   -0.146967
  51 S :    0.527253
  52 C :   -0.136573
  53 C :   -0.067989
  54 C :   -0.041891
  55 N :    0.277961
  56 O :   -0.174995
  57 O :   -0.165879
  58 N :    0.282711
  59 O :   -0.193871
  60 O :   -0.190371
  61 H :    0.046626
  62 H :    0.043465
  63 H :    0.050010
  64 H :    0.022995
  65 H :    0.023185
  66 H :    0.039225
  67 H :    0.021623
  68 H :    0.032391
  69 H :    0.033482
  70 H :    0.026769
  71 H :    0.041296
  72 H :    0.022005
  73 H :    0.035852
  74 H :    0.032746
  75 H :    0.036852
  76 H :    0.037765
  77 H :    0.032416
  78 H :    0.043757
  79 H :    0.028891
  80 H :    0.035815
  81 H :    0.047147

  Mayer bond orders larger than 0.100000
B(  0-C ,  1-S ) :   1.1670 B(  0-C ,  4-C ) :   1.5742 B(  0-C , 61-H ) :   0.9610
B(  1-S ,  2-C ) :   1.1600 B(  2-C ,  3-C ) :   1.5590 B(  2-C , 11-C ) :   1.1046
B(  3-C ,  4-C ) :   1.2441 B(  3-C ,  8-N ) :   0.8824 B(  4-C ,  5-N ) :   0.8905
B(  5-N ,  6-O ) :   1.5466 B(  5-N ,  7-O ) :   1.5584 B(  6-O ,  7-O ) :   0.2811
B(  8-N ,  9-O ) :   1.5150 B(  8-N , 10-O ) :   1.5704 B(  9-O , 10-O ) :   0.2814
B( 11-C , 12-S ) :   1.1072 B( 11-C , 15-C ) :   1.5223 B( 12-S , 13-C ) :   1.1139
B( 13-C , 14-C ) :   1.4380 B( 13-C , 18-C ) :   1.1986 B( 14-C , 15-C ) :   1.2664
B( 14-C , 16-C ) :   1.1070 B( 15-C , 62-H ) :   0.9920 B( 16-C , 17-N ) :   3.0241
B( 18-C , 19-C ) :   1.5605 B( 18-C , 63-H ) :   0.9409 B( 19-C , 20-C ) :   1.1800
B( 19-C , 64-H ) :   0.9584 B( 20-C , 21-N ) :   1.1599 B( 20-C , 27-C ) :   1.3299
B( 21-N , 22-C ) :   0.9454 B( 21-N , 24-C ) :   1.0616 B( 22-C , 23-C ) :   1.1199
B( 22-C , 65-H ) :   0.9498 B( 22-C , 66-H ) :   0.9277 B( 23-C , 67-H ) :   0.9684
B( 23-C , 68-H ) :   0.9679 B( 23-C , 69-H ) :   0.9635 B( 24-C , 25-O ) :   2.0258
B( 24-C , 26-C ) :   0.9843 B( 25-O , 76-H ) :   0.1127 B( 26-C , 27-C ) :   1.2814
B( 26-C , 33-C ) :   1.3031 B( 27-C , 28-C ) :   0.9737 B( 28-C , 29-O ) :   2.0491
B( 28-C , 30-N ) :   1.0609 B( 29-O , 63-H ) :   0.1077 B( 30-N , 31-C ) :   0.9360
B( 30-N , 33-C ) :   1.1671 B( 31-C , 32-C ) :   1.1214 B( 31-C , 70-H ) :   0.9496
B( 31-C , 71-H ) :   0.9277 B( 32-C , 72-H ) :   0.9685 B( 32-C , 73-H ) :   0.9680
B( 32-C , 74-H ) :   0.9640 B( 33-C , 34-C ) :   1.1788 B( 34-C , 35-C ) :   1.5510
B( 34-C , 75-H ) :   0.9666 B( 35-C , 36-C ) :   1.1277 B( 35-C , 76-H ) :   0.9557
B( 36-C , 37-C ) :   1.5113 B( 36-C , 40-C ) :   1.0246 B( 37-C , 38-C ) :   1.1497
B( 37-C , 77-H ) :   0.9949 B( 38-C , 39-C ) :   1.0941 B( 38-C , 43-C ) :   1.3967
B( 39-C , 40-C ) :   1.6735 B( 39-C , 41-C ) :   1.0902 B( 40-C , 78-H ) :   1.0273
B( 41-C , 42-N ) :   2.9565 B( 43-C , 44-C ) :   1.1318 B( 43-C , 47-C ) :   1.1223
B( 44-C , 45-C ) :   1.5470 B( 44-C , 79-H ) :   0.9898 B( 45-C , 46-C ) :   1.0704
B( 45-C , 50-C ) :   1.0997 B( 46-C , 47-C ) :   1.6592 B( 46-C , 80-H ) :   1.0065
B( 47-C , 48-C ) :   1.0923 B( 48-C , 49-N ) :   2.9583 B( 50-C , 51-S ) :   1.1639
B( 50-C , 54-C ) :   1.5382 B( 51-S , 52-C ) :   1.1909 B( 52-C , 53-C ) :   1.5488
B( 52-C , 81-H ) :   0.9576 B( 53-C , 54-C ) :   1.2526 B( 53-C , 58-N ) :   0.9021
B( 54-C , 55-N ) :   0.8547 B( 55-N , 56-O ) :   1.5212 B( 55-N , 57-O ) :   1.5756
B( 56-O , 57-O ) :   0.2870 B( 58-N , 59-O ) :   1.5487 B( 58-N , 60-O ) :   1.5469
B( 59-O , 60-O ) :   0.2787

-----------------------------------------------------------------------------
         ABSORPTION SPECTRUM VIA TRANSITION ELECTRIC DIPOLE MOMENTS
-----------------------------------------------------------------------------
State   Energy  Wavelength   fosc         T2         TX        TY        TZ
        (cm-1)    (nm)                  (au**2)     (au)      (au)      (au)
-----------------------------------------------------------------------------
   0    8816.8   1134.2   0.770801577  28.78121  -2.65629  -4.53531  -1.07533
   1   16305.3    613.3   0.129483805   2.61434  -0.47755  -1.50102  -0.36500
   2   16574.8    603.3   0.215124359   4.27285  -1.13138  -1.71877  -0.19666
   3   18222.2    548.8   0.005542243   0.10013  -0.15036  -0.27794  -0.01638
   4   23663.4    422.6   0.210531582   2.92898  -0.57359  -1.50453  -0.57996
   5   24490.5    408.3   0.225978316   3.03770   0.47860   1.53061   0.68255
   6   25339.6    394.6   0.401263693   5.21322   1.47928   1.70510   0.34292
   7   25630.7    390.2   0.324544127   4.16858   0.44408   1.80497   0.84467
   8   26230.3    381.2   0.000333993   0.00419  -0.03181  -0.00310  -0.05631
   9   29076.8    343.9   0.037080532   0.41983   0.12448   0.63571   0.01460
  10   29367.6    340.5   0.000864095   0.00969   0.08390   0.00497  -0.05121
  11   29502.5    339.0   0.016385186   0.18284   0.31858   0.15408  -0.24001
  12   30144.9    331.7   0.111914326   1.22221   0.13906  -0.69134  -0.85142
  13   30605.7    326.7   0.188485102   2.02745  -0.25154  -1.24643  -0.64077
  14   30837.1    324.3   0.005062122   0.05404  -0.17254  -0.15403  -0.02334
  15   31164.9    320.9   0.007212075   0.07619   0.09384   0.23061   0.11916
  16   31341.6    319.1   0.034882080   0.36640  -0.41984  -0.41472   0.13471
  17   31744.4    315.0   0.008150831   0.08453  -0.02194  -0.28120  -0.07054
  18   32258.1    310.0   0.025406247   0.25928  -0.02433   0.34773   0.37118
  19   33707.6    296.7   0.019332421   0.18881  -0.27543  -0.28312   0.18109
  20   33744.4    296.3   0.021277064   0.20758  -0.07228   0.06815   0.44465
  21   34111.5    293.2   0.000847199   0.00818   0.05500   0.05096   0.05054
  22   34794.0    287.4   0.004219293   0.03992  -0.04499   0.06896   0.18205
  23   34924.3    286.3   0.092223890   0.86934   0.33460   0.80631   0.32750
  24   35621.8    280.7   0.018214204   0.16833   0.28909   0.14557  -0.25213
  25   36135.1    276.7   0.000783506   0.00714  -0.05770  -0.02007   0.05836
  26   36927.1    270.8   0.104243512   0.92935   0.24149   0.91540   0.18185
  27   37097.8    269.6   0.035507011   0.31510  -0.27391   0.02257   0.48945
  28   37319.2    268.0   0.106779600   0.94196   0.61247   0.75122   0.05018
  29   37970.2    263.4   0.007791858   0.06756  -0.22994  -0.11862   0.02479
  30   38060.9    262.7   0.014444700   0.12494  -0.22945  -0.26540  -0.04313
  31   38197.2    261.8   0.013826040   0.11916   0.12192  -0.22363  -0.23300
  32   38424.3    260.3   0.097269197   0.83338   0.38888   0.73314   0.38034
  33   38591.2    259.1   0.033735546   0.28779  -0.29523  -0.06133   0.44370
  34   38761.2    258.0   0.152771199   1.29754  -0.24278  -0.87653  -0.68578
  35   39069.2    256.0   0.036668989   0.30899   0.09832  -0.41856  -0.35232
  36   39164.4    255.3   0.011853290   0.09964  -0.05976   0.15614   0.26775
  37   39218.2    255.0   0.040967164   0.34389  -0.52992  -0.13275   0.21319
  38   39412.9    253.7   0.034875206   0.29131   0.29022  -0.15616  -0.42743
  39   39814.2    251.2   0.010838891   0.08962  -0.11917   0.22517   0.15722
  40   40184.5    248.9   0.017741999   0.14535   0.17244  -0.03217  -0.33850

FINAL SINGLE POINT ENERGY     -3934.156784612892

DIPOLE MOMENT
-------------
                                X             Y             Z
Electronic contribution:    -11.16548       3.38955      -4.77624
Nuclear contribution   :     14.76526      -2.89518       1.82030
                        -----------------------------------------
Total Dipole Moment    :      3.59978       0.49437      -2.95593
                        -----------------------------------------
Magnitude (a.u.)       :      4.68406
Magnitude (Debye)      :     11.90593

Rotational constants in cm-1:     0.004653     0.000244     0.000234
Rotational constants in MHz :   139.490759     7.307712     7.013470

                             ****ORCA TERMINATED NORMALLY****
TOTAL RUN TIME: 0 days 0 hours 7 minutes 25 seconds 71 msec
