                         Program Version 4.2.0 -  RELEASE  -
|  1> # ORCA input file
|  2> # SCF done       -210.017148730679          0.000351105069
|  3> ! CAM-B3LYP def2-SVP def2/J RIJCOSX Grid4 TightSCF
|  4> %maxcore 5000
|  5> %tddft
|  6>     Mode sTDDFT
|  7>     Ethresh 5.0
|  8>     maxcore 5000
|  9> end
| 10>
| 11> %pal
| 12>   nprocs 6
| 13>   end
| 14> * xyz 0 1
| 15>    C        3.95176        -5.61757        10.17374
| 16>    S        3.48644        -6.81253         9.05228
| 17>    C        2.69922        -7.77025        10.27269
| 18>    C        2.81312        -7.14792        11.52125
| 19>    C        3.53911        -5.91494        11.45701
| 20>    C        3.75370        -5.17655        12.63757
| 21>    C        3.30600        -5.64206        13.84923
| 22>    C        3.62780        -4.83766        15.03243
| 23>    C        4.06043        -5.29462        16.19855
| 24>    C        2.55255        -6.85615        13.91083
| 25>    C        1.97031        -7.34674        15.20203
| 26>    C        2.31901        -7.57429        12.76747
| 27>    C        2.06888        -8.99993         9.96184
| 28>    C        2.10885        -9.57207         8.73678
| 29>    C        1.52765       -10.82975         8.37167
| 30>    C        1.53861       -11.35412         7.02451
| 31>    C        1.91919       -10.69053         5.84918
| 32>    O        2.29682        -9.37365         5.79729
| 33>    C        1.23816        -8.41830         5.86875
| 34>    C        0.46814        -8.29460         4.56131
| 35>    C        1.94744       -11.44626         4.68737
| 36>    C        1.60416       -12.81126         4.65056
| 37>    C        1.09514       -13.45130         5.80013
| 38>    C        1.08005       -12.69843         6.96790
| 39>    S        0.54320       -13.22300         8.55317
| 40>    C        0.99785       -11.73217         9.25283
| 41>    O        0.66793       -14.71641         5.59116
| 42>    C        0.05368       -15.46327         6.62916
| 43>    C       -0.34043       -16.81388         6.05339
| 44>    C        1.72098       -13.35766         3.34963
| 45>    C        2.06806       -12.43593         2.40339
| 46>    S        2.37185       -10.85413         3.11173
| 47>    C        2.10111       -12.55943         0.97735
| 48>    C        1.35159       -13.40916         0.15687
| 49>    C        1.70766       -13.22265        -1.20833
| 50>    C        2.68990       -12.22965        -1.38620
| 51>    S        3.20539       -11.53586         0.10019
| 52>    C        2.91069       -12.10285        -2.76098
| 53>    C        2.06039       -12.99847        -3.37406
| 54>    N        1.33027       -13.68380        -2.44831
| 55>    C        0.30031       -14.63461        -2.78516
| 56>    C       -1.09095       -14.11882        -2.43149
| 57>    C        2.13231       -13.08775        -4.85746
| 58>    C        2.95198       -11.86558        -5.29862
| 59>    S        3.90486       -11.18886        -3.86437
| 60>    C        0.40291       -14.36268         0.67085
| 61>    S        0.47367       -16.01332         0.15956
| 62>    C       -0.76282       -16.53972         1.26727
| 63>    C       -1.18437       -15.45349         2.04962
| 64>    C       -0.54998       -14.21712         1.68091
| 65>    C       -0.87314       -13.03591         2.37528
| 66>    C       -1.69071       -13.09900         3.47265
| 67>    N       -1.68484       -11.97275         4.36920
| 68>    O       -1.62041       -12.23124         5.55231
| 69>    O       -1.62799       -10.86439         3.88865
| 70>    C       -2.34477       -14.31068         3.81693
| 71>    N       -3.35563       -14.34097         4.84003
| 72>    O       -3.53528       -15.39967         5.40443
| 73>    O       -3.98941       -13.32546         5.02529
| 74>    C       -2.12339       -15.45455         3.09200
| 75>    C       -1.14657       -17.89807         1.32282
| 76>    S       -1.81393       -18.61116         2.76259
| 77>    C       -1.92459       -20.16223         2.05801
| 78>    C       -1.47834       -20.17407         0.75871
| 79>    C       -1.02605       -18.87759         0.31914
| 80>    C       -0.57445       -18.73068        -0.99472
| 81>    C       -0.55373       -19.80801        -1.85009
| 82>    N        0.06417       -19.62743        -3.13065
| 83>    O        0.10845       -18.49344        -3.57014
| 84>    O        0.55466       -20.60231        -3.65851
| 85>    C       -1.01400       -21.08234        -1.41878
| 86>    N       -1.18395       -22.18089        -2.35482
| 87>    O       -0.82887       -23.27399        -1.98911
| 88>    O       -1.75322       -21.91837        -3.38697
| 89>    C       -1.45592       -21.26656        -0.14125
| 90>    H        4.50827        -4.76315         9.84353
| 91>    H        4.30351        -4.24818        12.58034
| 92>    H        3.55653        -3.76716        14.87841
| 93>    H        4.20650        -6.34300        16.39128
| 94>    H        4.31440        -4.62466        17.00263
| 95>    H        1.73282        -6.51911        15.86554
| 96>    H        2.67450        -8.00239        15.71457
| 97>    H        1.06525        -7.91989        15.01152
| 98>    H        1.74039        -8.48491        12.82216
| 99>    H        1.53906        -9.47613        10.77457
|100>    H        2.66420        -9.06836         7.95947
|101>    H        1.74232        -7.47681         6.10375
|102>    H        0.55499        -8.67155         6.68890
|103>    H       -0.10784        -9.19351         4.35549
|104>    H        1.15684        -8.12094         3.73798
|105>    H       -0.22065        -7.45722         4.62969
|106>    H        0.87565       -11.61485        10.31134
|107>    H       -0.83311       -14.93474         6.99741
|108>    H        0.75772       -15.60107         7.45849
|109>    H       -1.09932       -16.69221         5.28679
|110>    H       -0.74243       -17.43819         6.84487
|111>    H        0.52800       -17.30043         5.61725
|112>    H        1.55962       -14.40069         3.15390
|113>    H        0.49646       -15.58197        -2.27507
|114>    H        0.36406       -14.82383        -3.85766
|115>    H       -1.17621       -13.92409        -1.36488
|116>    H       -1.83539       -14.85801        -2.71291
|117>    H       -1.29772       -13.19346        -2.96387
|118>    H        1.14712       -13.06620        -5.32798
|119>    H        2.63008       -14.01632        -5.15574
|120>    H        2.30540       -11.05824        -5.64158
|121>    H        3.66921       -12.10171        -6.08057
|122>    H       -0.43181       -12.09301         2.09524
|123>    H       -2.68783       -16.34037         3.33788
|124>    H       -2.31413       -20.97992         2.62968
|125>    H       -0.22349       -17.78527        -1.37393
|126>    H       -1.81961       -22.23247         0.17330
|127> *
|128>
|129>                          ****END OF INPUT****

CARTESIAN COORDINATES (ANGSTROEM)
---------------------------------
  C      3.951760   -5.617570   10.173740
  S      3.486440   -6.812530    9.052280
  C      2.699220   -7.770250   10.272690
  C      2.813120   -7.147920   11.521250
  C      3.539110   -5.914940   11.457010
  C      3.753700   -5.176550   12.637570
  C      3.306000   -5.642060   13.849230
  C      3.627800   -4.837660   15.032430
  C      4.060430   -5.294620   16.198550
  C      2.552550   -6.856150   13.910830
  C      1.970310   -7.346740   15.202030
  C      2.319010   -7.574290   12.767470
  C      2.068880   -8.999930    9.961840
  C      2.108850   -9.572070    8.736780
  C      1.527650  -10.829750    8.371670
  C      1.538610  -11.354120    7.024510
  C      1.919190  -10.690530    5.849180
  O      2.296820   -9.373650    5.797290
  C      1.238160   -8.418300    5.868750
  C      0.468140   -8.294600    4.561310
  C      1.947440  -11.446260    4.687370
  C      1.604160  -12.811260    4.650560
  C      1.095140  -13.451300    5.800130
  C      1.080050  -12.698430    6.967900
  S      0.543200  -13.223000    8.553170
  C      0.997850  -11.732170    9.252830
  O      0.667930  -14.716410    5.591160
  C      0.053680  -15.463270    6.629160
  C     -0.340430  -16.813880    6.053390
  C      1.720980  -13.357660    3.349630
  C      2.068060  -12.435930    2.403390
  S      2.371850  -10.854130    3.111730
  C      2.101110  -12.559430    0.977350
  C      1.351590  -13.409160    0.156870
  C      1.707660  -13.222650   -1.208330
  C      2.689900  -12.229650   -1.386200
  S      3.205390  -11.535860    0.100190
  C      2.910690  -12.102850   -2.760980
  C      2.060390  -12.998470   -3.374060
  N      1.330270  -13.683800   -2.448310
  C      0.300310  -14.634610   -2.785160
  C     -1.090950  -14.118820   -2.431490
  C      2.132310  -13.087750   -4.857460
  C      2.951980  -11.865580   -5.298620
  S      3.904860  -11.188860   -3.864370
  C      0.402910  -14.362680    0.670850
  S      0.473670  -16.013320    0.159560
  C     -0.762820  -16.539720    1.267270
  C     -1.184370  -15.453490    2.049620
  C     -0.549980  -14.217120    1.680910
  C     -0.873140  -13.035910    2.375280
  C     -1.690710  -13.099000    3.472650
  N     -1.684840  -11.972750    4.369200
  O     -1.620410  -12.231240    5.552310
  O     -1.627990  -10.864390    3.888650
  C     -2.344770  -14.310680    3.816930
  N     -3.355630  -14.340970    4.840030
  O     -3.535280  -15.399670    5.404430
  O     -3.989410  -13.325460    5.025290
  C     -2.123390  -15.454550    3.092000
  C     -1.146570  -17.898070    1.322820
  S     -1.813930  -18.611160    2.762590
  C     -1.924590  -20.162230    2.058010
  C     -1.478340  -20.174070    0.758710
  C     -1.026050  -18.877590    0.319140
  C     -0.574450  -18.730680   -0.994720
  C     -0.553730  -19.808010   -1.850090
  N      0.064170  -19.627430   -3.130650
  O      0.108450  -18.493440   -3.570140
  O      0.554660  -20.602310   -3.658510
  C     -1.014000  -21.082340   -1.418780
  N     -1.183950  -22.180890   -2.354820
  O     -0.828870  -23.273990   -1.989110
  O     -1.753220  -21.918370   -3.386970
  C     -1.455920  -21.266560   -0.141250
  H      4.508270   -4.763150    9.843530
  H      4.303510   -4.248180   12.580340
  H      3.556530   -3.767160   14.878410
  H      4.206500   -6.343000   16.391280
  H      4.314400   -4.624660   17.002630
  H      1.732820   -6.519110   15.865540
  H      2.674500   -8.002390   15.714570
  H      1.065250   -7.919890   15.011520
  H      1.740390   -8.484910   12.822160
  H      1.539060   -9.476130   10.774570
  H      2.664200   -9.068360    7.959470
  H      1.742320   -7.476810    6.103750
  H      0.554990   -8.671550    6.688900
  H     -0.107840   -9.193510    4.355490
  H      1.156840   -8.120940    3.737980
  H     -0.220650   -7.457220    4.629690
  H      0.875650  -11.614850   10.311340
  H     -0.833110  -14.934740    6.997410
  H      0.757720  -15.601070    7.458490
  H     -1.099320  -16.692210    5.286790
  H     -0.742430  -17.438190    6.844870
  H      0.528000  -17.300430    5.617250
  H      1.559620  -14.400690    3.153900
  H      0.496460  -15.581970   -2.275070
  H      0.364060  -14.823830   -3.857660
  H     -1.176210  -13.924090   -1.364880
  H     -1.835390  -14.858010   -2.712910
  H     -1.297720  -13.193460   -2.963870
  H      1.147120  -13.066200   -5.327980
  H      2.630080  -14.016320   -5.155740
  H      2.305400  -11.058240   -5.641580
  H      3.669210  -12.101710   -6.080570
  H     -0.431810  -12.093010    2.095240
  H     -2.687830  -16.340370    3.337880
  H     -2.314130  -20.979920    2.629680
  H     -0.223490  -17.785270   -1.373930
  H     -1.819610  -22.232470    0.173300

 Total Charge           Charge          ....    0
 Multiplicity           Mult            ....    1
 Number of Electrons    NEL             ....  582
 Basis Dimension        Dim             .... 1263

ORBITAL ENERGIES
----------------

  NO   OCC          E(Eh)            E(eV)
   0   2.0000     -89.011745     -2422.1327
   1   2.0000     -89.007777     -2422.0247
   2   2.0000     -88.962892     -2420.8034
   3   2.0000     -88.951223     -2420.4858
   4   2.0000     -88.948014     -2420.3985
   5   2.0000     -88.945426     -2420.3281
   6   2.0000     -88.919597     -2419.6253
   7   2.0000     -19.260120      -524.0945
   8   2.0000     -19.258835      -524.0595
   9   2.0000     -19.258191      -524.0420
  10   2.0000     -19.256981      -524.0091
  11   2.0000     -19.255661      -523.9732
  12   2.0000     -19.255435      -523.9670
  13   2.0000     -19.254839      -523.9508
  14   2.0000     -19.254431      -523.9397
  15   2.0000     -19.250672      -523.8374
  16   2.0000     -19.224323      -523.1204
  17   2.0000     -14.665647      -399.0725
  18   2.0000     -14.664433      -399.0395
  19   2.0000     -14.661462      -398.9587
  20   2.0000     -14.660247      -398.9256
  21   2.0000     -14.473041      -393.8315
  22   2.0000     -10.361672      -281.9554
  23   2.0000     -10.361176      -281.9419
  24   2.0000     -10.359739      -281.9028
  25   2.0000     -10.356691      -281.8199
  26   2.0000     -10.354750      -281.7671
  27   2.0000     -10.350046      -281.6391
  28   2.0000     -10.347715      -281.5756
  29   2.0000     -10.338863      -281.3348
  30   2.0000     -10.334428      -281.2141
  31   2.0000     -10.333346      -281.1846
  32   2.0000     -10.330253      -281.1005
  33   2.0000     -10.328826      -281.0617
  34   2.0000     -10.328090      -281.0416
  35   2.0000     -10.327839      -281.0348
  36   2.0000     -10.327154      -281.0162
  37   2.0000     -10.326069      -280.9866
  38   2.0000     -10.325113      -280.9606
  39   2.0000     -10.324785      -280.9517
  40   2.0000     -10.320719      -280.8410
  41   2.0000     -10.320068      -280.8233
  42   2.0000     -10.319371      -280.8044
  43   2.0000     -10.311259      -280.5836
  44   2.0000     -10.310835      -280.5721
  45   2.0000     -10.307233      -280.4741
  46   2.0000     -10.305108      -280.4162
  47   2.0000     -10.302530      -280.3461
  48   2.0000     -10.302106      -280.3346
  49   2.0000     -10.296466      -280.1811
  50   2.0000     -10.294934      -280.1394
  51   2.0000     -10.292666      -280.0777
  52   2.0000     -10.292207      -280.0652
  53   2.0000     -10.286516      -279.9103
  54   2.0000     -10.285038      -279.8701
  55   2.0000     -10.282989      -279.8144
  56   2.0000     -10.280658      -279.7509
  57   2.0000     -10.278632      -279.6958
  58   2.0000     -10.277011      -279.6517
  59   2.0000     -10.275435      -279.6088
  60   2.0000     -10.274257      -279.5768
  61   2.0000     -10.273876      -279.5664
  62   2.0000     -10.268205      -279.4121
  63   2.0000     -10.267609      -279.3958
  64   2.0000     -10.266105      -279.3549
  65   2.0000     -10.264792      -279.3192
  66   2.0000     -10.264346      -279.3070
  67   2.0000     -10.264308      -279.3060
  68   2.0000     -10.264097      -279.3003
  69   2.0000     -10.261455      -279.2284
  70   2.0000     -10.258859      -279.1578
  71   2.0000     -10.257240      -279.1137
  72   2.0000     -10.255090      -279.0552
  73   2.0000     -10.251404      -278.9549
  74   2.0000     -10.238045      -278.5914
  75   2.0000      -8.106168      -220.5801
  76   2.0000      -8.101838      -220.4622
  77   2.0000      -8.057836      -219.2649
  78   2.0000      -8.046251      -218.9496
  79   2.0000      -8.042792      -218.8555
  80   2.0000      -8.040704      -218.7987
  81   2.0000      -8.015170      -218.1039
  82   2.0000      -6.075228      -165.3153
  83   2.0000      -6.070830      -165.1957
  84   2.0000      -6.070667      -165.1912
  85   2.0000      -6.069327      -165.1548
  86   2.0000      -6.066580      -165.0800
  87   2.0000      -6.064815      -165.0320
  88   2.0000      -6.027410      -164.0142
  89   2.0000      -6.023238      -163.9006
  90   2.0000      -6.019493      -163.7987
  91   2.0000      -6.015142      -163.6803
  92   2.0000      -6.012462      -163.6074
  93   2.0000      -6.010961      -163.5666
  94   2.0000      -6.010471      -163.5532
  95   2.0000      -6.009396      -163.5240
  96   2.0000      -6.008366      -163.4960
  97   2.0000      -6.005979      -163.4310
  98   2.0000      -6.004140      -163.3809
  99   2.0000      -6.002247      -163.3294
 100   2.0000      -5.985959      -162.8862
 101   2.0000      -5.981847      -162.7743
 102   2.0000      -5.974167      -162.5653
 103   2.0000      -1.341527       -36.5048
 104   2.0000      -1.341046       -36.4917
 105   2.0000      -1.334571       -36.3155
 106   2.0000      -1.333211       -36.2785
 107   2.0000      -1.160977       -31.5918
 108   2.0000      -1.160615       -31.5819
 109   2.0000      -1.155784       -31.4505
 110   2.0000      -1.155241       -31.4357
 111   2.0000      -1.153318       -31.3834
 112   2.0000      -1.128194       -30.6997
 113   2.0000      -1.097618       -29.8677
 114   2.0000      -1.049091       -28.5472
 115   2.0000      -1.034118       -28.1398
 116   2.0000      -1.002404       -27.2768
 117   2.0000      -0.999708       -27.2034
 118   2.0000      -0.993353       -27.0305
 119   2.0000      -0.982237       -26.7280
 120   2.0000      -0.978975       -26.6393
 121   2.0000      -0.966395       -26.2970
 122   2.0000      -0.949086       -25.8259
 123   2.0000      -0.935089       -25.4451
 124   2.0000      -0.928755       -25.2727
 125   2.0000      -0.927031       -25.2258
 126   2.0000      -0.912729       -24.8366
 127   2.0000      -0.908672       -24.7262
 128   2.0000      -0.906243       -24.6601
 129   2.0000      -0.903291       -24.5798
 130   2.0000      -0.890684       -24.2367
 131   2.0000      -0.883297       -24.0357
 132   2.0000      -0.874816       -23.8050
 133   2.0000      -0.867576       -23.6079
 134   2.0000      -0.863238       -23.4899
 135   2.0000      -0.849502       -23.1161
 136   2.0000      -0.847372       -23.0582
 137   2.0000      -0.841273       -22.8922
 138   2.0000      -0.836423       -22.7602
 139   2.0000      -0.830036       -22.5864
 140   2.0000      -0.824132       -22.4258
 141   2.0000      -0.818520       -22.2731
 142   2.0000      -0.815519       -22.1914
 143   2.0000      -0.807064       -21.9613
 144   2.0000      -0.805925       -21.9303
 145   2.0000      -0.802203       -21.8290
 146   2.0000      -0.799476       -21.7549
 147   2.0000      -0.786532       -21.4026
 148   2.0000      -0.779737       -21.2177
 149   2.0000      -0.773098       -21.0371
 150   2.0000      -0.763891       -20.7865
 151   2.0000      -0.744785       -20.2666
 152   2.0000      -0.744106       -20.2482
 153   2.0000      -0.736067       -20.0294
 154   2.0000      -0.729528       -19.8515
 155   2.0000      -0.725047       -19.7295
 156   2.0000      -0.717467       -19.5233
 157   2.0000      -0.710241       -19.3266
 158   2.0000      -0.702001       -19.1024
 159   2.0000      -0.694929       -18.9100
 160   2.0000      -0.692548       -18.8452
 161   2.0000      -0.689013       -18.7490
 162   2.0000      -0.686110       -18.6700
 163   2.0000      -0.677581       -18.4379
 164   2.0000      -0.670566       -18.2470
 165   2.0000      -0.668470       -18.1900
 166   2.0000      -0.664742       -18.0885
 167   2.0000      -0.659828       -17.9548
 168   2.0000      -0.656682       -17.8692
 169   2.0000      -0.656056       -17.8522
 170   2.0000      -0.655608       -17.8400
 171   2.0000      -0.647687       -17.6245
 172   2.0000      -0.641659       -17.4604
 173   2.0000      -0.640132       -17.4189
 174   2.0000      -0.638357       -17.3706
 175   2.0000      -0.633551       -17.2398
 176   2.0000      -0.631526       -17.1847
 177   2.0000      -0.627289       -17.0694
 178   2.0000      -0.623223       -16.9588
 179   2.0000      -0.619898       -16.8683
 180   2.0000      -0.618820       -16.8389
 181   2.0000      -0.618138       -16.8204
 182   2.0000      -0.612319       -16.6621
 183   2.0000      -0.606202       -16.4956
 184   2.0000      -0.603564       -16.4238
 185   2.0000      -0.600819       -16.3491
 186   2.0000      -0.597884       -16.2693
 187   2.0000      -0.595194       -16.1961
 188   2.0000      -0.591580       -16.0977
 189   2.0000      -0.587817       -15.9953
 190   2.0000      -0.581902       -15.8344
 191   2.0000      -0.576140       -15.6776
 192   2.0000      -0.573188       -15.5972
 193   2.0000      -0.571749       -15.5581
 194   2.0000      -0.570938       -15.5360
 195   2.0000      -0.568570       -15.4716
 196   2.0000      -0.566271       -15.4090
 197   2.0000      -0.564781       -15.3685
 198   2.0000      -0.559126       -15.2146
 199   2.0000      -0.556269       -15.1368
 200   2.0000      -0.555289       -15.1102
 201   2.0000      -0.549336       -14.9482
 202   2.0000      -0.547098       -14.8873
 203   2.0000      -0.546249       -14.8642
 204   2.0000      -0.541727       -14.7411
 205   2.0000      -0.538323       -14.6485
 206   2.0000      -0.533692       -14.5225
 207   2.0000      -0.531559       -14.4645
 208   2.0000      -0.528000       -14.3676
 209   2.0000      -0.516869       -14.0647
 210   2.0000      -0.514657       -14.0045
 211   2.0000      -0.512946       -13.9580
 212   2.0000      -0.511408       -13.9161
 213   2.0000      -0.506834       -13.7917
 214   2.0000      -0.504243       -13.7211
 215   2.0000      -0.497990       -13.5510
 216   2.0000      -0.496608       -13.5134
 217   2.0000      -0.496370       -13.5069
 218   2.0000      -0.491631       -13.3780
 219   2.0000      -0.489679       -13.3248
 220   2.0000      -0.485319       -13.2062
 221   2.0000      -0.484332       -13.1793
 222   2.0000      -0.482971       -13.1423
 223   2.0000      -0.480921       -13.0865
 224   2.0000      -0.479268       -13.0415
 225   2.0000      -0.476322       -12.9614
 226   2.0000      -0.475287       -12.9332
 227   2.0000      -0.472535       -12.8583
 228   2.0000      -0.471291       -12.8245
 229   2.0000      -0.467707       -12.7270
 230   2.0000      -0.465672       -12.6716
 231   2.0000      -0.463199       -12.6043
 232   2.0000      -0.462123       -12.5750
 233   2.0000      -0.460405       -12.5283
 234   2.0000      -0.458571       -12.4783
 235   2.0000      -0.455759       -12.4018
 236   2.0000      -0.454585       -12.3699
 237   2.0000      -0.454097       -12.3566
 238   2.0000      -0.452302       -12.3078
 239   2.0000      -0.450265       -12.2523
 240   2.0000      -0.448476       -12.2036
 241   2.0000      -0.444902       -12.1064
 242   2.0000      -0.442813       -12.0495
 243   2.0000      -0.441370       -12.0103
 244   2.0000      -0.437070       -11.8933
 245   2.0000      -0.433806       -11.8044
 246   2.0000      -0.432566       -11.7707
 247   2.0000      -0.427109       -11.6222
 248   2.0000      -0.424239       -11.5441
 249   2.0000      -0.418485       -11.3876
 250   2.0000      -0.414084       -11.2678
 251   2.0000      -0.412940       -11.2367
 252   2.0000      -0.408283       -11.1099
 253   2.0000      -0.407467       -11.0878
 254   2.0000      -0.406444       -11.0599
 255   2.0000      -0.405829       -11.0432
 256   2.0000      -0.405444       -11.0327
 257   2.0000      -0.403105       -10.9690
 258   2.0000      -0.400945       -10.9103
 259   2.0000      -0.398894       -10.8545
 260   2.0000      -0.397674       -10.8213
 261   2.0000      -0.395534       -10.7630
 262   2.0000      -0.393974       -10.7206
 263   2.0000      -0.393742       -10.7143
 264   2.0000      -0.392385       -10.6773
 265   2.0000      -0.391642       -10.6571
 266   2.0000      -0.390780       -10.6337
 267   2.0000      -0.388989       -10.5849
 268   2.0000      -0.387822       -10.5532
 269   2.0000      -0.381555       -10.3826
 270   2.0000      -0.379716       -10.3326
 271   2.0000      -0.378660       -10.3039
 272   2.0000      -0.376010       -10.2317
 273   2.0000      -0.375746       -10.2246
 274   2.0000      -0.360980        -9.8228
 275   2.0000      -0.354973        -9.6593
 276   2.0000      -0.352548        -9.5933
 277   2.0000      -0.351362        -9.5610
 278   2.0000      -0.342075        -9.3083
 279   2.0000      -0.341505        -9.2928
 280   2.0000      -0.336373        -9.1532
 281   2.0000      -0.323583        -8.8051
 282   2.0000      -0.319579        -8.6962
 283   2.0000      -0.307364        -8.3638
 284   2.0000      -0.295612        -8.0440
 285   2.0000      -0.284886        -7.7521
 286   2.0000      -0.272916        -7.4264
 287   2.0000      -0.269334        -7.3289
 288   2.0000      -0.248181        -6.7533
 289   2.0000      -0.233578        -6.3560
 290   2.0000      -0.214589        -5.8393
 291   0.0000      -0.108647        -2.9564
 292   0.0000      -0.072012        -1.9595
 293   0.0000      -0.063582        -1.7302
 294   0.0000      -0.058916        -1.6032
 295   0.0000      -0.038549        -1.0490

MULLIKEN ATOMIC CHARGES
-----------------------
   0 C :   -0.127808
   1 S :    0.137474
   2 C :   -0.131161
   3 C :    0.146027
   4 C :    0.109591
   5 C :   -0.063588
   6 C :    0.063598
   7 C :   -0.051611
   8 C :   -0.016439
   9 C :   -0.067252
  10 C :    0.085493
  11 C :   -0.086937
  12 C :    0.017310
  13 C :   -0.053963
  14 C :    0.074112
  15 C :    0.117929
  16 C :    0.024563
  17 O :   -0.345793
  18 C :    0.161245
  19 C :   -0.013003
  20 C :   -0.064500
  21 C :   -0.003210
  22 C :    0.119344
  23 C :   -0.139279
  24 S :    0.090707
  25 C :   -0.124040
  26 O :   -0.318305
  27 C :    0.117578
  28 C :    0.034247
  29 C :    0.000386
  30 C :   -0.134668
  31 S :    0.139184
  32 C :   -0.129483
  33 C :    0.108662
  34 C :    0.046027
  35 C :   -0.120964
  36 S :    0.175459
  37 C :   -0.075714
  38 C :   -0.124801
  39 N :   -0.154786
  40 C :    0.100945
  41 C :   -0.000181
  42 C :    0.149931
  43 C :   -0.082354
  44 S :    0.000557
  45 C :   -0.237281
  46 S :    0.182766
  47 C :   -0.117936
  48 C :    0.129768
  49 C :    0.106823
  50 C :    0.022744
  51 C :    0.079210
  52 N :    0.269111
  53 O :   -0.215493
  54 O :   -0.214017
  55 C :    0.122610
  56 N :    0.255223
  57 O :   -0.232433
  58 O :   -0.216613
  59 C :   -0.086209
  60 C :   -0.129540
  61 S :    0.196359
  62 C :   -0.109776
  63 C :    0.092105
  64 C :    0.155068
  65 C :   -0.072459
  66 C :    0.153507
  67 N :    0.256179
  68 O :   -0.247522
  69 O :   -0.218313
  70 C :    0.067850
  71 N :    0.251118
  72 O :   -0.222166
  73 O :   -0.217577
  74 C :   -0.012064
  75 H :    0.011003
  76 H :   -0.042591
  77 H :    0.004607
  78 H :    0.015306
  79 H :    0.020608
  80 H :    0.027753
  81 H :    0.028462
  82 H :    0.009337
  83 H :   -0.051361
  84 H :   -0.028303
  85 H :    0.017749
  86 H :    0.014680
  87 H :    0.026566
  88 H :    0.029301
  89 H :    0.019526
  90 H :    0.012664
  91 H :    0.018706
  92 H :    0.037283
  93 H :    0.033754
  94 H :    0.006734
  95 H :    0.018637
  96 H :    0.018318
  97 H :   -0.013876
  98 H :    0.032047
  99 H :    0.032732
 100 H :    0.030816
 101 H :    0.028684
 102 H :    0.026700
 103 H :    0.026177
 104 H :    0.033966
 105 H :    0.064329
 106 H :    0.053445
 107 H :    0.022998
 108 H :    0.007012
 109 H :    0.037345
 110 H :   -0.014836
 111 H :    0.002148
Sum of atomic charges:   -0.0000000

LOEWDIN ATOMIC CHARGES
----------------------
   0 C :   -0.201407
   1 S :    0.481056
   2 C :   -0.184727
   3 C :   -0.045834
   4 C :   -0.055628
   5 C :   -0.007861
   6 C :   -0.033256
   7 C :   -0.018913
   8 C :   -0.045783
   9 C :   -0.018119
  10 C :   -0.047574
  11 C :   -0.027827
  12 C :   -0.035861
  13 C :   -0.038134
  14 C :   -0.061147
  15 C :   -0.042017
  16 C :    0.007202
  17 O :   -0.132629
  18 C :    0.082505
  19 C :   -0.078890
  20 C :   -0.166884
  21 C :   -0.081911
  22 C :    0.032709
  23 C :   -0.183983
  24 S :    0.421759
  25 C :   -0.169793
  26 O :   -0.100993
  27 C :    0.070729
  28 C :   -0.062365
  29 C :   -0.042780
  30 C :   -0.194289
  31 S :    0.415231
  32 C :   -0.176612
  33 C :   -0.104914
  34 C :   -0.034822
  35 C :   -0.219599
  36 S :    0.447792
  37 C :   -0.227447
  38 C :   -0.037109
  39 N :    0.049390
  40 C :    0.035348
  41 C :   -0.062370
  42 C :   -0.038414
  43 C :   -0.102569
  44 S :    0.257482
  45 C :   -0.148947
  46 S :    0.544780
  47 C :   -0.195939
  48 C :   -0.041354
  49 C :   -0.051817
  50 C :    0.054290
  51 C :   -0.031124
  52 N :    0.291426
  53 O :   -0.181635
  54 O :   -0.179983
  55 C :   -0.021795
  56 N :    0.285426
  57 O :   -0.201365
  58 O :   -0.183896
  59 C :    0.007945
  60 C :   -0.179265
  61 S :    0.537428
  62 C :   -0.184064
  63 C :   -0.044700
  64 C :   -0.056559
  65 C :    0.018585
  66 C :   -0.034679
  67 N :    0.287413
  68 O :   -0.213599
  69 O :   -0.184842
  70 C :   -0.018974
  71 N :    0.279846
  72 O :   -0.186335
  73 O :   -0.187123
  74 C :    0.022879
  75 H :    0.021104
  76 H :    0.026041
  77 H :    0.030002
  78 H :    0.020787
  79 H :    0.024012
  80 H :    0.031648
  81 H :    0.033110
  82 H :    0.028635
  83 H :    0.021206
  84 H :    0.026565
  85 H :    0.022928
  86 H :    0.017742
  87 H :    0.016081
  88 H :    0.020465
  89 H :    0.020644
  90 H :    0.030542
  91 H :    0.021578
  92 H :    0.011863
  93 H :    0.009649
  94 H :    0.017018
  95 H :    0.033970
  96 H :    0.025936
  97 H :    0.029315
  98 H :    0.005782
  99 H :    0.036458
 100 H :    0.024452
 101 H :    0.033230
 102 H :    0.031015
 103 H :    0.034035
 104 H :    0.036833
 105 H :    0.025462
 106 H :    0.026905
 107 H :    0.050952
 108 H :    0.026103
 109 H :    0.033754
 110 H :    0.024879
 111 H :    0.048538

  Mayer bond orders larger than 0.100000
B(  0-C ,  1-S ) :   1.1934 B(  0-C ,  2-C ) :   0.1110 B(  0-C ,  4-C ) :   1.4109
B(  0-C , 75-H ) :   0.9695 B(  1-S ,  2-C ) :   1.1568 B(  2-C ,  3-C ) :   1.3329
B(  2-C , 12-C ) :   1.1642 B(  3-C ,  4-C ) :   1.1973 B(  3-C , 11-C ) :   1.1841
B(  4-C ,  5-C ) :   1.1522 B(  5-C ,  6-C ) :   1.5256 B(  5-C , 76-H ) :   1.0045
B(  6-C ,  7-C ) :   1.0148 B(  6-C ,  9-C ) :   1.2036 B(  7-C ,  8-C ) :   1.9756
B(  7-C , 77-H ) :   0.9653 B(  8-C , 78-H ) :   0.9619 B(  8-C , 79-H ) :   0.9505
B(  9-C , 10-C ) :   1.0722 B(  9-C , 11-C ) :   1.5677 B( 10-C , 80-H ) :   0.9465
B( 10-C , 81-H ) :   0.9479 B( 10-C , 82-H ) :   0.9537 B( 11-C , 83-H ) :   0.9893
B( 12-C , 13-C ) :   1.6795 B( 12-C , 84-H ) :   0.9667 B( 13-C , 14-C ) :   1.0880
B( 13-C , 85-H ) :   0.9590 B( 14-C , 15-C ) :   1.1348 B( 14-C , 25-C ) :   1.5840
B( 15-C , 16-C ) :   1.3075 B( 15-C , 21-C ) :   0.1013 B( 15-C , 23-C ) :   1.2842
B( 16-C , 17-O ) :   1.1618 B( 16-C , 20-C ) :   1.4019 B( 17-O , 18-C ) :   0.9076
B( 18-C , 19-C ) :   1.1158 B( 18-C , 86-H ) :   0.9603 B( 18-C , 87-H ) :   0.9441
B( 19-C , 88-H ) :   0.9553 B( 19-C , 89-H ) :   0.9598 B( 19-C , 90-H ) :   0.9549
B( 20-C , 21-C ) :   1.3512 B( 20-C , 31-S ) :   1.0411 B( 21-C , 22-C ) :   1.2954
B( 21-C , 29-C ) :   1.1639 B( 22-C , 23-C ) :   1.3707 B( 22-C , 26-O ) :   1.2187
B( 23-C , 24-S ) :   1.0211 B( 24-S , 25-C ) :   1.1112 B( 25-C , 91-H ) :   0.9548
B( 26-O , 27-C ) :   0.9172 B( 27-C , 28-C ) :   1.1027 B( 27-C , 92-H ) :   0.9470
B( 27-C , 93-H ) :   0.9472 B( 28-C , 94-H ) :   0.9627 B( 28-C , 95-H ) :   0.9551
B( 28-C , 96-H ) :   0.9636 B( 29-C , 30-C ) :   1.5608 B( 29-C , 97-H ) :   1.0104
B( 30-C , 31-S ) :   1.0684 B( 30-C , 32-C ) :   1.0771 B( 32-C , 33-C ) :   1.4964
B( 32-C , 36-S ) :   1.1288 B( 33-C , 34-C ) :   1.2085 B( 33-C , 45-C ) :   1.0219
B( 34-C , 35-C ) :   1.4100 B( 34-C , 39-N ) :   1.1760 B( 35-C , 36-S ) :   1.0276
B( 35-C , 37-C ) :   1.4125 B( 37-C , 38-C ) :   1.5468 B( 37-C , 44-S ) :   0.9390
B( 38-C , 39-N ) :   1.1905 B( 38-C , 42-C ) :   1.0636 B( 39-N , 40-C ) :   0.9507
B( 40-C , 41-C ) :   1.0990 B( 40-C , 98-H ) :   0.9450 B( 40-C , 99-H ) :   0.9412
B( 41-C ,100-H ) :   0.9674 B( 41-C ,101-H ) :   0.9647 B( 41-C ,102-H ) :   0.9632
B( 42-C , 43-C ) :   1.0445 B( 42-C ,103-H ) :   0.9216 B( 42-C ,104-H ) :   0.9100
B( 43-C , 44-S ) :   0.9933 B( 43-C ,105-H ) :   0.9559 B( 43-C ,106-H ) :   0.9531
B( 45-C , 46-S ) :   1.2030 B( 45-C , 47-C ) :   0.1191 B( 45-C , 49-C ) :   1.3817
B( 46-S , 47-C ) :   1.1441 B( 47-C , 48-C ) :   1.3689 B( 47-C , 60-C ) :   1.1620
B( 48-C , 49-C ) :   1.1940 B( 48-C , 59-C ) :   1.1281 B( 49-C , 50-C ) :   1.1630
B( 50-C , 51-C ) :   1.5673 B( 50-C ,107-H ) :   0.9762 B( 51-C , 52-N ) :   0.8765
B( 51-C , 55-C ) :   1.2032 B( 52-N , 53-O ) :   1.5529 B( 52-N , 54-O ) :   1.5198
B( 53-O , 54-O ) :   0.2662 B( 55-C , 56-N ) :   0.8828 B( 55-C , 59-C ) :   1.5738
B( 56-N , 57-O ) :   1.5312 B( 56-N , 58-O ) :   1.5647 B( 57-O , 58-O ) :   0.2717
B( 59-C ,108-H ) :   0.9703 B( 60-C , 61-S ) :   1.2026 B( 60-C , 62-C ) :   0.1049
B( 60-C , 64-C ) :   1.3378 B( 61-S , 62-C ) :   1.1925 B( 62-C , 63-C ) :   1.4412
B( 62-C ,109-H ) :   0.9701 B( 63-C , 64-C ) :   1.1799 B( 63-C , 74-C ) :   1.1195
B( 64-C , 65-C ) :   1.1445 B( 65-C , 66-C ) :   1.5665 B( 65-C ,110-H ) :   0.9793
B( 66-C , 67-N ) :   0.8903 B( 66-C , 70-C ) :   1.2071 B( 67-N , 68-O ) :   1.5251
B( 67-N , 69-O ) :   1.5630 B( 68-O , 69-O ) :   0.2704 B( 70-C , 71-N ) :   0.8559
B( 70-C , 74-C ) :   1.5893 B( 71-N , 72-O ) :   1.5530 B( 71-N , 73-O ) :   1.5615
B( 72-O , 73-O ) :   0.2802 B( 74-C ,111-H ) :   1.0044

-----------------------------------------------------------------------------
         ABSORPTION SPECTRUM VIA TRANSITION ELECTRIC DIPOLE MOMENTS
-----------------------------------------------------------------------------
State   Energy  Wavelength   fosc         T2         TX        TY        TZ
        (cm-1)    (nm)                  (au**2)     (au)      (au)      (au)
-----------------------------------------------------------------------------
   0    9797.9   1020.6   0.048717877   1.63693   0.45000   0.99647   0.66444
   1   13829.9    723.1   0.056885483   1.35412  -0.50232  -1.04410  -0.10794
   2   15198.6    658.0   0.016917687   0.36645   0.09276   0.59811   0.01032
   3   18105.3    552.3   0.025190665   0.45805   0.25647   0.62590   0.02260
   4   18809.2    531.7   0.494676391   8.65818   0.42475   2.78511   0.84909
   5   19682.1    508.1   0.002517151   0.04210   0.15174   0.08677  -0.10747
   6   20266.1    493.4   0.023707593   0.38512   0.08269   0.07022  -0.61102
   7   21010.4    476.0   0.017350988   0.27187  -0.37316  -0.15223  -0.33084
   8   23104.6    432.8   0.124011413   1.76701   0.44856   1.21643  -0.29342
   9   23607.7    423.6   0.571314615   7.96704  -0.92139  -2.21175  -1.49205
  10   23987.8    416.9   0.122908783   1.68682  -0.22630  -0.48912  -1.18168
  11   24418.4    409.5   0.135808203   1.83098   0.08226  -0.23012  -1.33089
  12   24985.0    400.2   0.001410973   0.01859  -0.03675  -0.09830  -0.08705
  13   25676.2    389.5   0.055815043   0.71564  -0.50143   0.17034   0.65969
  14   26788.2    373.3   0.055387660   0.68068  -0.40950  -0.44804  -0.55880
  15   27036.3    369.9   0.031969625   0.38928   0.60287  -0.13264  -0.09075
  16   27652.9    361.6   0.049829438   0.59323   0.13152  -0.20557   0.73053
  17   27805.1    359.6   0.104140224   1.23302  -0.59217  -0.31154   0.88617
  18   27822.5    359.4   0.053338718   0.63114  -0.15228   0.20912   0.75114
  19   28195.9    354.7   0.459113484   5.36055   0.08324  -0.75728  -2.18635
  20   28427.3    351.8   0.003508689   0.04063   0.19257   0.05959   0.00082
  21   28667.2    348.8   0.030325313   0.34825  -0.14341   0.19328  -0.53882
  22   29297.9    341.3   0.079961374   0.89850   0.19185  -0.09219  -0.92369
  23   29790.9    335.7   0.006682675   0.07385  -0.24402   0.07178  -0.09565
  24   30704.4    325.7   0.007670958   0.08225   0.19705   0.07178   0.19562
  25   31035.2    322.2   0.025047366   0.26569   0.14849   0.21042  -0.44651
  26   31243.2    320.1   0.019259246   0.20294  -0.14893   0.24023   0.35078
  27   31305.9    319.4   0.004338370   0.04562   0.03380   0.14797  -0.15028
  28   31793.6    314.5   0.104065534   1.07756  -0.31371  -0.65691  -0.74001
  29   32154.9    311.0   0.159850975   1.63661   0.56889   1.08951  -0.35487
  30   32388.6    308.8   0.010895845   0.11075  -0.03151  -0.31677   0.09702
  31   32615.8    306.6   0.009908092   0.10001  -0.09239  -0.28496   0.10135
  32   33022.2    302.8   0.023217557   0.23147   0.10201   0.01201  -0.47002
  33   33461.2    298.9   0.003231160   0.03179  -0.07647  -0.11448  -0.11330
  34   33705.7    296.7   0.191880508   1.87414  -0.54399  -0.50220   1.15153
  35   34096.6    293.3   0.045514808   0.43946  -0.49264  -0.38041  -0.22815
  36   34371.0    290.9   0.042771554   0.40967  -0.35906  -0.46998   0.24468
  37   34550.7    289.4   0.089977521   0.85734  -0.54978   0.63562   0.38868
  38   34774.8    287.6   0.145832858   1.38060  -0.24764   0.16612   1.13652
  39   34966.2    286.0   0.009987586   0.09403  -0.13371   0.01252   0.27568
  40   35315.4    283.2   0.295450453   2.75420  -0.53111   0.34216   1.53462
  41   35790.7    279.4   0.003866674   0.03557   0.05645   0.14687  -0.10397
  42   35858.3    278.9   0.069324403   0.63646   0.39123   0.38353  -0.57992
  43   36037.4    277.5   0.079526819   0.72650  -0.23339  -0.21447   0.79122
  44   36096.2    277.0   0.141711156   1.29246   0.41106   0.09180  -1.05597
  45   36795.8    271.8   0.087141805   0.77966   0.42588  -0.19804  -0.74771
  46   36983.5    270.4   0.020918021   0.18620  -0.08182   0.28073  -0.31733
  47   37131.5    269.3   0.018856171   0.16718   0.02264   0.20231   0.35459
  48   37236.3    268.6   0.884702734   7.82179  -0.14579   1.11788   2.55947
  49   37327.8    267.9   0.011409199   0.10062  -0.09548  -0.18213  -0.24153
  50   37532.4    266.4   0.034832042   0.30553   0.34516  -0.05314  -0.42845
  51   37703.2    265.2   0.019817458   0.17304   0.22720   0.31577  -0.14734
  52   38448.8    260.1   0.023072935   0.19756   0.11135   0.07463  -0.42378
  53   38542.6    259.5   0.006619777   0.05654   0.13979   0.16916  -0.09159
  54   38800.2    257.7   0.007807039   0.06624  -0.10493  -0.21313   0.09903
  55   39029.5    256.2   0.025332356   0.21368   0.02782   0.10345   0.44967
  56   39242.2    254.8   0.003718922   0.03120  -0.15910  -0.07620   0.00888
  57   39299.4    254.5   0.008382154   0.07022   0.04641   0.22113  -0.13845
  58   39329.7    254.3   0.016887072   0.14135   0.16208   0.33264  -0.06661
  59   39482.8    253.3   0.143123232   1.19338  -0.21710  -0.70446  -0.80622
  60   39674.3    252.1   0.006469609   0.05368   0.16098   0.08815  -0.14142
  61   39778.6    251.4   0.020650727   0.17091   0.13435   0.38309  -0.07811
  62   39920.0    250.5   0.164168026   1.35386   0.02277  -0.81304  -0.83205
  63   40145.9    249.1   0.015155071   0.12428   0.06678   0.33316   0.09393
  64   40252.4    248.4   0.018624741   0.15233   0.15287   0.35850  -0.02088
  65   40300.2    248.1   0.010819808   0.08839   0.14242   0.19789   0.17013

FINAL SINGLE POINT ENERGY     -5850.185727528887

DIPOLE MOMENT
-------------
                                X             Y             Z
Electronic contribution:     -6.94376     -51.83227     -55.71256
Nuclear contribution   :      6.24790      51.35162      55.99867
                        -----------------------------------------
Total Dipole Moment    :     -0.69586      -0.48065       0.28610
                        -----------------------------------------
Magnitude (a.u.)       :      0.89280
Magnitude (Debye)      :      2.26932

Rotational constants in cm-1:     0.001447     0.000344     0.000294
Rotational constants in MHz :    43.387598    10.315566     8.817579

                             ****ORCA TERMINATED NORMALLY****
TOTAL RUN TIME: 0 days 0 hours 13 minutes 51 seconds 634 msec
