                         Program Version 4.2.0 -  RELEASE  -
|  1> # ORCA input file
|  2> # SCF done       -150.323006416423          0.000589935742
|  3> ! CAM-B3LYP def2-SVP def2/J RIJCOSX Grid4 TightSCF
|  4> %maxcore 5000
|  5> %tddft
|  6>     Mode sTDDFT
|  7>     Ethresh 5.0
|  8>     maxcore 5000
|  9> end
| 10>
| 11> %pal
| 12>   nprocs 6
| 13>   end
| 14> * xyz 0 1
| 15>    C       -0.96631         0.32759        -0.86546
| 16>    S       -1.21133        -1.21830        -0.19071
| 17>    C       -0.94967        -2.01650        -1.71218
| 18>    C       -0.67925        -1.07642        -2.70803
| 19>    C       -0.68928         0.26951        -2.21473
| 20>    C       -0.42130         1.33727        -3.09773
| 21>    C       -0.14750         1.09563        -4.41810
| 22>    C        0.14818         2.20603        -5.32339
| 23>    C       -0.40559         3.40825        -5.24606
| 24>    C       -0.13344        -0.25035        -4.91189
| 25>    C        0.15433        -0.50792        -6.36003
| 26>    C       -0.39796        -1.29481        -4.07288
| 27>    C       -1.00432        -3.43076        -1.83884
| 28>    C       -1.17243        -4.28565        -0.81141
| 29>    C       -1.18837        -5.72619        -0.90315
| 30>    C       -1.02628        -6.49409         0.24984
| 31>    C       -0.97948        -7.88778         0.18160
| 32>    C       -1.14816        -8.45590        -1.08979
| 33>    N       -1.33417        -7.74758        -2.18604
| 34>    C       -1.34741        -6.43147        -2.10493
| 35>    C       -0.73702        -8.64814         1.38174
| 36>    C       -0.42956        -9.96068         1.44962
| 37>    C       -0.11216       -10.64257         2.65124
| 38>    S       -0.15809        -9.85070         4.19090
| 39>    C        0.47270       -11.22897         5.03274
| 40>    C        0.65719       -12.29804         4.15241
| 41>    C        0.32667       -11.96569         2.80132
| 42>    C        0.46862       -12.94143         1.80008
| 43>    C        0.89231       -14.21128         2.10829
| 44>    C        1.04872       -15.21082         1.05291
| 45>    C        0.28421       -15.29542        -0.02756
| 46>    C        1.17480       -14.55739         3.46600
| 47>    C        1.57381       -15.96019         3.81169
| 48>    C        1.05168       -13.61908         4.45156
| 49>    C        0.75776       -11.08959         6.42285
| 50>    C        1.72526       -11.74090         7.09562
| 51>    C        2.02716       -11.52440         8.49443
| 52>    C        3.31746       -11.74700         8.97333
| 53>    C        3.62809       -11.48839        10.30880
| 54>    C        2.57118       -11.04991        11.12126
| 55>    N        1.33848       -10.86718        10.69316
| 56>    C        1.07041       -11.08889         9.42122
| 57>    C        4.94917       -11.62232        10.87663
| 58>    C        6.08782       -11.76034        10.16664
| 59>    C        7.41259       -11.83151        10.68012
| 60>    S        8.70440       -11.43372         9.59226
| 61>    C        9.91862       -11.58084        10.81190
| 62>    C        9.34222       -11.96070        12.02595
| 63>    C        7.92141       -12.12149        11.95267
| 64>    C        7.23622       -12.59283        13.08744
| 65>    C        7.89823       -12.83066        14.26746
| 66>    C        7.16618       -13.33753        15.42678
| 67>    C        5.91021       -13.02797        15.72083
| 68>    C        9.30732       -12.60679        14.35532
| 69>    C       10.02198       -12.82559        15.65430
| 70>    C        9.99890       -12.19480        13.25266
| 71>    C       11.29830       -11.32782        10.53512
| 72>    C       11.79082       -10.97785         9.34602
| 73>    H       -1.03715         1.19734        -0.24316
| 74>    H       -0.41013         2.34457        -2.70986
| 75>    H        0.86913         2.00415        -6.10415
| 76>    H       -1.15327         3.64716        -4.50826
| 77>    H       -0.14312         4.19694        -5.93031
| 78>    H       -0.49562         0.09250        -6.99481
| 79>    H        0.00155        -1.55770        -6.59824
| 80>    H        1.18755        -0.25286        -6.59747
| 81>    H       -0.39014        -2.30518        -4.45503
| 82>    H       -0.87323        -3.81053        -2.84232
| 83>    H       -1.26233        -3.87968         0.18962
| 84>    H       -0.90637        -6.00238         1.20645
| 85>    H       -1.14694        -9.52786        -1.23126
| 86>    H       -1.51016        -5.91509        -3.04095
| 87>    H       -0.75974        -8.07935         2.30448
| 88>    H       -0.37251       -10.55244         0.54734
| 89>    H        0.25317       -12.68604         0.77425
| 90>    H        1.84978       -15.92464         1.19166
| 91>    H       -0.54891       -14.63293        -0.19365
| 92>    H        0.45174       -16.04603        -0.78092
| 93>    H        2.55855       -16.19126         3.40426
| 94>    H        0.86285       -16.67477         3.39955
| 95>    H        1.61357       -16.09022         4.89051
| 96>    H        1.22698       -13.89397         5.48028
| 97>    H        0.19193       -10.31964         6.93274
| 98>    H        2.39051       -12.41009         6.56748
| 99>    H        4.07537       -12.10929         8.29338
|100>    H        2.73853       -10.83358        12.16903
|101>    H        0.03999       -10.93891         9.12913
|102>    H        4.99564       -11.52619        11.95117
|103>    H        6.03506       -11.74611         9.08505
|104>    H        6.18583       -12.82229        13.01786
|105>    H        7.71274       -14.00507        16.07936
|106>    H        5.33575       -12.33742        15.12599
|107>    H        5.41338       -13.43870        16.58299
|108>    H       10.03707       -13.88509        15.91146
|109>    H        9.52467       -12.28966        16.46122
|110>    H       11.05023       -12.47869        15.58663
|111>    H       11.06717       -12.04802        13.31390
|112>    H       11.96533       -11.43776        11.37981
|113>    H       11.15320       -10.85792         8.48582
|114>    H       12.84114       -10.79959         9.20096
|115> *
|116>
|117>                          ****END OF INPUT****

CARTESIAN COORDINATES (ANGSTROEM)
---------------------------------
  C     -0.966310    0.327590   -0.865460
  S     -1.211330   -1.218300   -0.190710
  C     -0.949670   -2.016500   -1.712180
  C     -0.679250   -1.076420   -2.708030
  C     -0.689280    0.269510   -2.214730
  C     -0.421300    1.337270   -3.097730
  C     -0.147500    1.095630   -4.418100
  C      0.148180    2.206030   -5.323390
  C     -0.405590    3.408250   -5.246060
  C     -0.133440   -0.250350   -4.911890
  C      0.154330   -0.507920   -6.360030
  C     -0.397960   -1.294810   -4.072880
  C     -1.004320   -3.430760   -1.838840
  C     -1.172430   -4.285650   -0.811410
  C     -1.188370   -5.726190   -0.903150
  C     -1.026280   -6.494090    0.249840
  C     -0.979480   -7.887780    0.181600
  C     -1.148160   -8.455900   -1.089790
  N     -1.334170   -7.747580   -2.186040
  C     -1.347410   -6.431470   -2.104930
  C     -0.737020   -8.648140    1.381740
  C     -0.429560   -9.960680    1.449620
  C     -0.112160  -10.642570    2.651240
  S     -0.158090   -9.850700    4.190900
  C      0.472700  -11.228970    5.032740
  C      0.657190  -12.298040    4.152410
  C      0.326670  -11.965690    2.801320
  C      0.468620  -12.941430    1.800080
  C      0.892310  -14.211280    2.108290
  C      1.048720  -15.210820    1.052910
  C      0.284210  -15.295420   -0.027560
  C      1.174800  -14.557390    3.466000
  C      1.573810  -15.960190    3.811690
  C      1.051680  -13.619080    4.451560
  C      0.757760  -11.089590    6.422850
  C      1.725260  -11.740900    7.095620
  C      2.027160  -11.524400    8.494430
  C      3.317460  -11.747000    8.973330
  C      3.628090  -11.488390   10.308800
  C      2.571180  -11.049910   11.121260
  N      1.338480  -10.867180   10.693160
  C      1.070410  -11.088890    9.421220
  C      4.949170  -11.622320   10.876630
  C      6.087820  -11.760340   10.166640
  C      7.412590  -11.831510   10.680120
  S      8.704400  -11.433720    9.592260
  C      9.918620  -11.580840   10.811900
  C      9.342220  -11.960700   12.025950
  C      7.921410  -12.121490   11.952670
  C      7.236220  -12.592830   13.087440
  C      7.898230  -12.830660   14.267460
  C      7.166180  -13.337530   15.426780
  C      5.910210  -13.027970   15.720830
  C      9.307320  -12.606790   14.355320
  C     10.021980  -12.825590   15.654300
  C      9.998900  -12.194800   13.252660
  C     11.298300  -11.327820   10.535120
  C     11.790820  -10.977850    9.346020
  H     -1.037150    1.197340   -0.243160
  H     -0.410130    2.344570   -2.709860
  H      0.869130    2.004150   -6.104150
  H     -1.153270    3.647160   -4.508260
  H     -0.143120    4.196940   -5.930310
  H     -0.495620    0.092500   -6.994810
  H      0.001550   -1.557700   -6.598240
  H      1.187550   -0.252860   -6.597470
  H     -0.390140   -2.305180   -4.455030
  H     -0.873230   -3.810530   -2.842320
  H     -1.262330   -3.879680    0.189620
  H     -0.906370   -6.002380    1.206450
  H     -1.146940   -9.527860   -1.231260
  H     -1.510160   -5.915090   -3.040950
  H     -0.759740   -8.079350    2.304480
  H     -0.372510  -10.552440    0.547340
  H      0.253170  -12.686040    0.774250
  H      1.849780  -15.924640    1.191660
  H     -0.548910  -14.632930   -0.193650
  H      0.451740  -16.046030   -0.780920
  H      2.558550  -16.191260    3.404260
  H      0.862850  -16.674770    3.399550
  H      1.613570  -16.090220    4.890510
  H      1.226980  -13.893970    5.480280
  H      0.191930  -10.319640    6.932740
  H      2.390510  -12.410090    6.567480
  H      4.075370  -12.109290    8.293380
  H      2.738530  -10.833580   12.169030
  H      0.039990  -10.938910    9.129130
  H      4.995640  -11.526190   11.951170
  H      6.035060  -11.746110    9.085050
  H      6.185830  -12.822290   13.017860
  H      7.712740  -14.005070   16.079360
  H      5.335750  -12.337420   15.125990
  H      5.413380  -13.438700   16.582990
  H     10.037070  -13.885090   15.911460
  H      9.524670  -12.289660   16.461220
  H     11.050230  -12.478690   15.586630
  H     11.067170  -12.048020   13.313900
  H     11.965330  -11.437760   11.379810
  H     11.153200  -10.857920    8.485820
  H     12.841140  -10.799590    9.200960

 Total Charge           Charge          ....    0
 Multiplicity           Mult            ....    1
 Number of Electrons    NEL             ....  422
 Basis Dimension        Dim             .... 1034

ORBITAL ENERGIES
----------------

  NO   OCC          E(Eh)            E(eV)
   0   2.0000     -88.956821     -2420.6382
   1   2.0000     -88.956717     -2420.6353
   2   2.0000     -88.955792     -2420.6102
   3   2.0000     -14.392430      -391.6379
   4   2.0000     -14.391086      -391.6014
   5   2.0000     -10.296824      -280.1908
   6   2.0000     -10.296737      -280.1885
   7   2.0000     -10.296631      -280.1856
   8   2.0000     -10.293335      -280.0959
   9   2.0000     -10.292125      -280.0630
  10   2.0000     -10.291945      -280.0581
  11   2.0000     -10.290640      -280.0226
  12   2.0000     -10.290600      -280.0215
  13   2.0000     -10.290088      -280.0075
  14   2.0000     -10.288129      -279.9542
  15   2.0000     -10.281372      -279.7704
  16   2.0000     -10.281259      -279.7673
  17   2.0000     -10.279682      -279.7244
  18   2.0000     -10.279010      -279.7061
  19   2.0000     -10.278738      -279.6987
  20   2.0000     -10.278402      -279.6895
  21   2.0000     -10.277652      -279.6691
  22   2.0000     -10.277362      -279.6612
  23   2.0000     -10.277126      -279.6548
  24   2.0000     -10.276708      -279.6434
  25   2.0000     -10.275704      -279.6161
  26   2.0000     -10.274413      -279.5810
  27   2.0000     -10.273850      -279.5657
  28   2.0000     -10.273665      -279.5606
  29   2.0000     -10.273602      -279.5589
  30   2.0000     -10.273555      -279.5577
  31   2.0000     -10.273316      -279.5511
  32   2.0000     -10.273099      -279.5452
  33   2.0000     -10.272570      -279.5308
  34   2.0000     -10.272445      -279.5274
  35   2.0000     -10.272334      -279.5244
  36   2.0000     -10.272173      -279.5200
  37   2.0000     -10.271621      -279.5050
  38   2.0000     -10.270688      -279.4796
  39   2.0000     -10.269802      -279.4555
  40   2.0000     -10.269343      -279.4430
  41   2.0000     -10.269078      -279.4358
  42   2.0000     -10.268688      -279.4252
  43   2.0000     -10.268538      -279.4211
  44   2.0000     -10.268465      -279.4191
  45   2.0000     -10.267010      -279.3795
  46   2.0000     -10.266514      -279.3661
  47   2.0000     -10.265614      -279.3416
  48   2.0000     -10.264412      -279.3089
  49   2.0000     -10.263489      -279.2837
  50   2.0000     -10.262069      -279.2451
  51   2.0000     -10.261403      -279.2270
  52   2.0000     -10.261236      -279.2224
  53   2.0000     -10.261104      -279.2188
  54   2.0000     -10.260985      -279.2156
  55   2.0000     -10.260716      -279.2083
  56   2.0000     -10.259502      -279.1752
  57   2.0000     -10.258661      -279.1524
  58   2.0000      -8.052106      -219.1089
  59   2.0000      -8.052073      -219.1080
  60   2.0000      -8.051239      -219.0854
  61   2.0000      -6.020986      -163.8393
  62   2.0000      -6.020934      -163.8379
  63   2.0000      -6.020097      -163.8152
  64   2.0000      -6.017003      -163.7310
  65   2.0000      -6.016826      -163.7261
  66   2.0000      -6.016130      -163.7072
  67   2.0000      -6.015213      -163.6823
  68   2.0000      -6.014913      -163.6741
  69   2.0000      -6.014139      -163.6530
  70   2.0000      -1.026798       -27.9406
  71   2.0000      -1.024659       -27.8824
  72   2.0000      -0.989828       -26.9346
  73   2.0000      -0.988607       -26.9014
  74   2.0000      -0.985348       -26.8127
  75   2.0000      -0.937991       -25.5240
  76   2.0000      -0.937050       -25.4984
  77   2.0000      -0.934351       -25.4250
  78   2.0000      -0.918539       -24.9947
  79   2.0000      -0.913404       -24.8550
  80   2.0000      -0.907796       -24.7024
  81   2.0000      -0.900145       -24.4942
  82   2.0000      -0.884810       -24.0769
  83   2.0000      -0.876076       -23.8392
  84   2.0000      -0.870167       -23.6785
  85   2.0000      -0.869868       -23.6703
  86   2.0000      -0.865751       -23.5583
  87   2.0000      -0.860946       -23.4275
  88   2.0000      -0.850258       -23.1367
  89   2.0000      -0.849146       -23.1064
  90   2.0000      -0.841389       -22.8954
  91   2.0000      -0.837606       -22.7924
  92   2.0000      -0.826415       -22.4879
  93   2.0000      -0.813934       -22.1483
  94   2.0000      -0.810739       -22.0613
  95   2.0000      -0.807695       -21.9785
  96   2.0000      -0.782552       -21.2943
  97   2.0000      -0.776956       -21.1420
  98   2.0000      -0.776418       -21.1274
  99   2.0000      -0.761417       -20.7192
 100   2.0000      -0.758541       -20.6409
 101   2.0000      -0.756643       -20.5893
 102   2.0000      -0.737496       -20.0683
 103   2.0000      -0.730365       -19.8742
 104   2.0000      -0.718490       -19.5511
 105   2.0000      -0.711706       -19.3665
 106   2.0000      -0.707990       -19.2654
 107   2.0000      -0.703446       -19.1417
 108   2.0000      -0.699038       -19.0218
 109   2.0000      -0.694819       -18.9070
 110   2.0000      -0.685604       -18.6562
 111   2.0000      -0.668297       -18.1853
 112   2.0000      -0.664960       -18.0945
 113   2.0000      -0.662094       -18.0165
 114   2.0000      -0.652697       -17.7608
 115   2.0000      -0.647270       -17.6131
 116   2.0000      -0.637260       -17.3407
 117   2.0000      -0.626701       -17.0534
 118   2.0000      -0.624605       -16.9964
 119   2.0000      -0.620471       -16.8839
 120   2.0000      -0.618679       -16.8351
 121   2.0000      -0.614912       -16.7326
 122   2.0000      -0.607904       -16.5419
 123   2.0000      -0.600929       -16.3521
 124   2.0000      -0.595584       -16.2067
 125   2.0000      -0.594520       -16.1777
 126   2.0000      -0.588893       -16.0246
 127   2.0000      -0.582267       -15.8443
 128   2.0000      -0.563533       -15.3345
 129   2.0000      -0.562298       -15.3009
 130   2.0000      -0.560565       -15.2538
 131   2.0000      -0.556893       -15.1538
 132   2.0000      -0.552414       -15.0319
 133   2.0000      -0.544949       -14.8288
 134   2.0000      -0.543719       -14.7953
 135   2.0000      -0.543163       -14.7802
 136   2.0000      -0.536215       -14.5912
 137   2.0000      -0.532041       -14.4776
 138   2.0000      -0.526639       -14.3306
 139   2.0000      -0.523789       -14.2530
 140   2.0000      -0.523270       -14.2389
 141   2.0000      -0.522141       -14.2082
 142   2.0000      -0.517460       -14.0808
 143   2.0000      -0.511325       -13.9139
 144   2.0000      -0.508859       -13.8468
 145   2.0000      -0.503117       -13.6905
 146   2.0000      -0.501874       -13.6567
 147   2.0000      -0.498338       -13.5605
 148   2.0000      -0.496277       -13.5044
 149   2.0000      -0.495059       -13.4712
 150   2.0000      -0.492561       -13.4033
 151   2.0000      -0.490673       -13.3519
 152   2.0000      -0.488683       -13.2977
 153   2.0000      -0.486809       -13.2467
 154   2.0000      -0.484992       -13.1973
 155   2.0000      -0.482994       -13.1429
 156   2.0000      -0.482479       -13.1289
 157   2.0000      -0.481846       -13.1117
 158   2.0000      -0.479374       -13.0444
 159   2.0000      -0.478039       -13.0081
 160   2.0000      -0.476707       -12.9719
 161   2.0000      -0.475100       -12.9281
 162   2.0000      -0.471653       -12.8343
 163   2.0000      -0.469081       -12.7643
 164   2.0000      -0.461706       -12.5637
 165   2.0000      -0.460886       -12.5413
 166   2.0000      -0.456784       -12.4297
 167   2.0000      -0.454582       -12.3698
 168   2.0000      -0.451985       -12.2991
 169   2.0000      -0.449653       -12.2357
 170   2.0000      -0.447877       -12.1874
 171   2.0000      -0.447204       -12.1690
 172   2.0000      -0.443726       -12.0744
 173   2.0000      -0.440163       -11.9774
 174   2.0000      -0.434306       -11.8181
 175   2.0000      -0.431561       -11.7434
 176   2.0000      -0.418529       -11.3887
 177   2.0000      -0.417685       -11.3658
 178   2.0000      -0.415201       -11.2982
 179   2.0000      -0.413810       -11.2603
 180   2.0000      -0.412611       -11.2277
 181   2.0000      -0.411736       -11.2039
 182   2.0000      -0.411142       -11.1877
 183   2.0000      -0.410475       -11.1696
 184   2.0000      -0.408340       -11.1115
 185   2.0000      -0.407693       -11.0939
 186   2.0000      -0.404216       -10.9993
 187   2.0000      -0.401345       -10.9212
 188   2.0000      -0.400044       -10.8857
 189   2.0000      -0.397573       -10.8185
 190   2.0000      -0.390124       -10.6158
 191   2.0000      -0.380866       -10.3639
 192   2.0000      -0.370665       -10.0863
 193   2.0000      -0.361840        -9.8462
 194   2.0000      -0.359856        -9.7922
 195   2.0000      -0.357526        -9.7288
 196   2.0000      -0.349997        -9.5239
 197   2.0000      -0.344864        -9.3842
 198   2.0000      -0.322988        -8.7890
 199   2.0000      -0.316360        -8.6086
 200   2.0000      -0.314028        -8.5451
 201   2.0000      -0.312279        -8.4975
 202   2.0000      -0.310317        -8.4442
 203   2.0000      -0.299770        -8.1571
 204   2.0000      -0.294229        -8.0064
 205   2.0000      -0.290748        -7.9117
 206   2.0000      -0.289522        -7.8783
 207   2.0000      -0.286739        -7.8026
 208   2.0000      -0.233320        -6.3490
 209   2.0000      -0.227610        -6.1936
 210   2.0000      -0.222630        -6.0581
 211   0.0000      -0.058184        -1.5833
 212   0.0000      -0.052790        -1.4365
 213   0.0000      -0.040606        -1.1049
 214   0.0000      -0.004001        -0.1089
 215   0.0000       0.001815         0.0494

MULLIKEN ATOMIC CHARGES
-----------------------
   0 C :   -0.127871
   1 S :    0.138390
   2 C :   -0.137305
   3 C :    0.146550
   4 C :    0.107746
   5 C :   -0.078823
   6 C :    0.079540
   7 C :   -0.037943
   8 C :   -0.013682
   9 C :   -0.071967
  10 C :    0.097841
  11 C :   -0.093720
  12 C :    0.026827
  13 C :   -0.020830
  14 C :    0.085879
  15 C :   -0.046851
  16 C :    0.088365
  17 C :   -0.025634
  18 N :   -0.052363
  19 C :   -0.024999
  20 C :   -0.018322
  21 C :    0.023790
  22 C :   -0.107115
  23 S :    0.140654
  24 C :   -0.138811
  25 C :    0.132816
  26 C :    0.121680
  27 C :   -0.109008
  28 C :    0.085152
  29 C :   -0.038651
  30 C :   -0.013596
  31 C :   -0.076473
  32 C :    0.098577
  33 C :   -0.103110
  34 C :    0.040857
  35 C :   -0.016206
  36 C :    0.062148
  37 C :   -0.029928
  38 C :    0.072616
  39 C :   -0.028244
  40 N :   -0.050001
  41 C :   -0.020325
  42 C :   -0.013397
  43 C :    0.061030
  44 C :   -0.139344
  45 S :    0.141022
  46 C :   -0.130546
  47 C :    0.132299
  48 C :    0.130114
  49 C :   -0.115608
  50 C :    0.081788
  51 C :   -0.037593
  52 C :   -0.012538
  53 C :   -0.072994
  54 C :    0.099043
  55 C :   -0.100275
  56 C :    0.004285
  57 C :   -0.030797
  58 H :    0.014063
  59 H :   -0.038889
  60 H :   -0.002479
  61 H :    0.018057
  62 H :    0.020391
  63 H :    0.030270
  64 H :    0.008258
  65 H :    0.029016
  66 H :   -0.045807
  67 H :   -0.012576
  68 H :   -0.018378
  69 H :   -0.023466
  70 H :   -0.010011
  71 H :   -0.010097
  72 H :   -0.016998
  73 H :   -0.011787
  74 H :   -0.037510
  75 H :   -0.001661
  76 H :    0.019884
  77 H :    0.022702
  78 H :    0.028140
  79 H :    0.030874
  80 H :    0.009689
  81 H :   -0.039238
  82 H :   -0.005475
  83 H :   -0.005851
  84 H :   -0.021356
  85 H :   -0.010250
  86 H :   -0.004558
  87 H :   -0.017988
  88 H :   -0.019392
  89 H :   -0.030840
  90 H :   -0.004466
  91 H :    0.017231
  92 H :    0.022147
  93 H :    0.030409
  94 H :    0.029629
  95 H :    0.007337
  96 H :   -0.045491
  97 H :   -0.008816
  98 H :    0.018607
  99 H :    0.022537
Sum of atomic charges:   -0.0000000

LOEWDIN ATOMIC CHARGES
----------------------
   0 C :   -0.193763
   1 S :    0.476410
   2 C :   -0.190444
   3 C :   -0.041131
   4 C :   -0.055573
   5 C :   -0.004098
   6 C :   -0.032365
   7 C :   -0.020463
   8 C :   -0.041334
   9 C :   -0.016383
  10 C :   -0.045195
  11 C :   -0.031048
  12 C :   -0.025285
  13 C :   -0.038997
  14 C :   -0.042395
  15 C :    0.004522
  16 C :   -0.044252
  17 C :    0.013991
  18 N :   -0.063729
  19 C :    0.014129
  20 C :   -0.031855
  21 C :   -0.030404
  22 C :   -0.178760
  23 S :    0.472803
  24 C :   -0.178768
  25 C :   -0.043031
  26 C :   -0.043651
  27 C :   -0.007079
  28 C :   -0.027537
  29 C :   -0.021035
  30 C :   -0.038925
  31 C :   -0.018096
  32 C :   -0.045323
  33 C :   -0.028924
  34 C :   -0.036142
  35 C :   -0.025763
  36 C :   -0.043419
  37 C :    0.008113
  38 C :   -0.043601
  39 C :    0.012142
  40 N :   -0.064069
  41 C :    0.014858
  42 C :   -0.029020
  43 C :   -0.037138
  44 C :   -0.176485
  45 S :    0.476372
  46 C :   -0.186371
  47 C :   -0.040451
  48 C :   -0.046152
  49 C :   -0.008428
  50 C :   -0.027643
  51 C :   -0.020831
  52 C :   -0.038638
  53 C :   -0.018080
  54 C :   -0.045185
  55 C :   -0.027894
  56 C :   -0.038496
  57 C :   -0.055504
  58 H :    0.022470
  59 H :    0.026875
  60 H :    0.027945
  61 H :    0.021018
  62 H :    0.023920
  63 H :    0.034746
  64 H :    0.029553
  65 H :    0.033992
  66 H :    0.022762
  67 H :    0.032000
  68 H :    0.019036
  69 H :    0.026855
  70 H :    0.015843
  71 H :    0.016015
  72 H :    0.019190
  73 H :    0.032019
  74 H :    0.025301
  75 H :    0.028544
  76 H :    0.021529
  77 H :    0.024911
  78 H :    0.033877
  79 H :    0.035167
  80 H :    0.030133
  81 H :    0.024918
  82 H :    0.029161
  83 H :    0.028322
  84 H :    0.025769
  85 H :    0.017426
  86 H :    0.017718
  87 H :    0.027274
  88 H :    0.025092
  89 H :    0.026412
  90 H :    0.027929
  91 H :    0.020442
  92 H :    0.024749
  93 H :    0.034366
  94 H :    0.034999
  95 H :    0.029403
  96 H :    0.023050
  97 H :    0.033319
  98 H :    0.016098
  99 H :    0.025661

  Mayer bond orders larger than 0.100000
B(  0-C ,  1-S ) :   1.1994 B(  0-C ,  2-C ) :   0.1082 B(  0-C ,  4-C ) :   1.4122
B(  0-C , 58-H ) :   0.9699 B(  1-S ,  2-C ) :   1.1469 B(  2-C ,  3-C ) :   1.3485
B(  2-C , 12-C ) :   1.1616 B(  3-C ,  4-C ) :   1.1995 B(  3-C , 11-C ) :   1.1763
B(  4-C ,  5-C ) :   1.1464 B(  5-C ,  6-C ) :   1.5451 B(  5-C , 59-H ) :   1.0042
B(  6-C ,  7-C ) :   1.0244 B(  6-C ,  9-C ) :   1.1801 B(  7-C ,  8-C ) :   1.9840
B(  7-C , 60-H ) :   0.9506 B(  8-C , 61-H ) :   0.9576 B(  8-C , 62-H ) :   0.9501
B(  9-C , 10-C ) :   1.0866 B(  9-C , 11-C ) :   1.5822 B( 10-C , 63-H ) :   0.9433
B( 10-C , 64-H ) :   0.9545 B( 10-C , 65-H ) :   0.9407 B( 11-C , 66-H ) :   0.9897
B( 12-C , 13-C ) :   1.6943 B( 12-C , 67-H ) :   0.9643 B( 13-C , 14-C ) :   1.0613
B( 13-C , 68-H ) :   0.9801 B( 14-C , 15-C ) :   1.3495 B( 14-C , 19-C ) :   1.3219
B( 15-C , 16-C ) :   1.3461 B( 15-C , 69-H ) :   1.0020 B( 16-C , 17-C ) :   1.3194
B( 16-C , 20-C ) :   1.0689 B( 17-C , 18-N ) :   1.5668 B( 17-C , 70-H ) :   0.9830
B( 18-N , 19-C ) :   1.5642 B( 19-C , 71-H ) :   0.9825 B( 20-C , 21-C ) :   1.6715
B( 20-C , 72-H ) :   0.9806 B( 21-C , 22-C ) :   1.1734 B( 21-C , 73-H ) :   0.9653
B( 22-C , 23-S ) :   1.1412 B( 22-C , 24-C ) :   0.1075 B( 22-C , 26-C ) :   1.3169
B( 23-S , 24-C ) :   1.1460 B( 24-C , 25-C ) :   1.3677 B( 24-C , 34-C ) :   1.1101
B( 25-C , 26-C ) :   1.2028 B( 25-C , 33-C ) :   1.1770 B( 26-C , 27-C ) :   1.1872
B( 27-C , 28-C ) :   1.5310 B( 27-C , 74-H ) :   0.9925 B( 28-C , 29-C ) :   1.0278
B( 28-C , 31-C ) :   1.1921 B( 29-C , 30-C ) :   1.9786 B( 29-C , 75-H ) :   0.9504
B( 30-C , 76-H ) :   0.9576 B( 30-C , 77-H ) :   0.9506 B( 31-C , 32-C ) :   1.0872
B( 31-C , 33-C ) :   1.5612 B( 32-C , 78-H ) :   0.9407 B( 32-C , 79-H ) :   0.9434
B( 32-C , 80-H ) :   0.9545 B( 33-C , 81-H ) :   0.9900 B( 34-C , 35-C ) :   1.7247
B( 34-C , 82-H ) :   0.9513 B( 35-C , 36-C ) :   1.0485 B( 35-C , 83-H ) :   0.9753
B( 36-C , 37-C ) :   1.3773 B( 36-C , 41-C ) :   1.3221 B( 37-C , 38-C ) :   1.3594
B( 37-C , 84-H ) :   0.9863 B( 38-C , 39-C ) :   1.3125 B( 38-C , 42-C ) :   1.0713
B( 39-C , 40-N ) :   1.5615 B( 39-C , 85-H ) :   0.9873 B( 40-N , 41-C ) :   1.5669
B( 41-C , 86-H ) :   0.9805 B( 42-C , 43-C ) :   1.6918 B( 42-C , 87-H ) :   0.9769
B( 43-C , 44-C ) :   1.1374 B( 43-C , 88-H ) :   0.9442 B( 44-C , 45-S ) :   1.1591
B( 44-C , 46-C ) :   0.1085 B( 44-C , 48-C ) :   1.3410 B( 45-S , 46-C ) :   1.1408
B( 46-C , 47-C ) :   1.3517 B( 46-C , 56-C ) :   1.1385 B( 47-C , 48-C ) :   1.2066
B( 47-C , 55-C ) :   1.1738 B( 48-C , 49-C ) :   1.1839 B( 49-C , 50-C ) :   1.5252
B( 49-C , 89-H ) :   0.9907 B( 50-C , 51-C ) :   1.0262 B( 50-C , 53-C ) :   1.1904
B( 51-C , 52-C ) :   1.9781 B( 51-C , 90-H ) :   0.9509 B( 52-C , 91-H ) :   0.9581
B( 52-C , 92-H ) :   0.9505 B( 53-C , 54-C ) :   1.0859 B( 53-C , 55-C ) :   1.5758
B( 54-C , 93-H ) :   0.9407 B( 54-C , 94-H ) :   0.9440 B( 54-C , 95-H ) :   0.9542
B( 55-C , 96-H ) :   0.9903 B( 56-C , 57-C ) :   1.9099 B( 56-C , 97-H ) :   0.9595
B( 57-C , 98-H ) :   0.9567 B( 57-C , 99-H ) :   0.9488

-----------------------------------------------------------------------------
         ABSORPTION SPECTRUM VIA TRANSITION ELECTRIC DIPOLE MOMENTS
-----------------------------------------------------------------------------
State   Energy  Wavelength   fosc         T2         TX        TY        TZ
        (cm-1)    (nm)                  (au**2)     (au)      (au)      (au)
-----------------------------------------------------------------------------
   0   20592.8    485.6   1.434913233  22.93959  -2.21666   2.23139  -3.61205
   1   22592.0    442.6   0.530341377   7.72817   2.68146   0.70201  -0.21244
   2   25443.2    393.0   0.051488673   0.66622  -0.06798  -0.81335  -0.00786
   3   25530.8    391.7   0.509495709   6.56979   0.22169   2.55321  -0.04211
   4   26280.9    380.5   0.023727157   0.29722  -0.23330   0.48470  -0.08864
   5   26677.8    374.8   0.129376519   1.59655  -0.14755  -1.25446  -0.03328
   6   28383.2    352.3   0.038063727   0.44149  -0.08160  -0.59301  -0.28841
   7   29963.7    333.7   0.091864667   1.00932  -0.25840  -0.46578  -0.85182
   8   31822.5    314.2   0.027748625   0.28707  -0.48349  -0.05022  -0.22536
   9   32305.0    309.5   0.055394807   0.56451   0.18345   0.72267   0.09276
  10   32397.4    308.7   0.122339715   1.24318  -0.53305   0.17028  -0.96439
  11   32536.2    307.4   0.044846312   0.45377   0.02892   0.47148  -0.48025
  12   33159.4    301.6   0.000386142   0.00383   0.01881   0.05635   0.01745
  13   34047.1    293.7   0.702185354   6.78965  -0.10850  -2.21981  -1.36026
  14   34426.2    290.5   0.021620357   0.20675   0.02592   0.40217   0.21056
  15   35623.2    280.7   0.066324071   0.61293  -0.08147   0.70960  -0.32056
  16   35682.7    280.2   0.000325834   0.00301  -0.02190  -0.05010  -0.00403
  17   36180.4    276.4   0.508588375   4.62774   0.27215   1.59166  -1.42137
  18   36637.0    272.9   0.686811782   6.17153  -0.37360   1.59550  -1.86717
  19   36987.2    270.4   0.119569707   1.06425   0.32314  -0.32540   0.92409
  20   37180.6    269.0   0.037429527   0.33142   0.51948  -0.04429  -0.24412
  21   37213.6    268.7   0.275221879   2.43476   0.26224   0.67216  -1.38354
  22   37268.6    268.3   0.021621572   0.19099   0.28337   0.08397  -0.32194
  23   37554.5    266.3   0.716826473   6.28388  -1.89477  -0.13950   1.63532
  24   39001.8    256.4   0.113753203   0.96018  -0.06797  -0.91690   0.33890
  25   39444.1    253.5   0.003420480   0.02855   0.12223  -0.01159  -0.11608
  26   39660.2    252.1   0.041878037   0.34762  -0.08995   0.26316   0.51988
  27   39948.3    250.3   0.045921713   0.37844   0.55399   0.15014  -0.22133

FINAL SINGLE POINT ENERGY     -3345.717752833118

DIPOLE MOMENT
-------------
                                X             Y             Z
Electronic contribution:    -16.20637      10.98105       1.27845
Nuclear contribution   :     17.45533     -10.97302      -1.14343
                        -----------------------------------------
Total Dipole Moment    :      1.24896       0.00803       0.13501
                        -----------------------------------------
Magnitude (a.u.)       :      1.25626
Magnitude (Debye)      :      3.19315

Rotational constants in cm-1:     0.001438     0.000293     0.000263
Rotational constants in MHz :    43.099974     8.790837     7.884762

                             ****ORCA TERMINATED NORMALLY****
TOTAL RUN TIME: 0 days 0 hours 6 minutes 26 seconds 218 msec
