                         Program Version 4.2.0 -  RELEASE  -
|  1> # ORCA input file
|  2> # SCF done       -181.034835874095          0.000779705989
|  3> ! CAM-B3LYP def2-SVP def2/J RIJCOSX Grid4 TightSCF
|  4> %maxcore 5000
|  5> %tddft
|  6>     Mode sTDDFT
|  7>     Ethresh 5.0
|  8>     maxcore 5000
|  9> end
| 10>
| 11> %pal
| 12>   nprocs 6
| 13>   end
| 14> * xyz 0 1
| 15>    C        2.32228        -3.38935        -4.85518
| 16>    S        1.53720        -4.82771        -4.40483
| 17>    C        0.63947        -4.04943        -3.13002
| 18>    C        0.98433        -2.69315        -3.06079
| 19>    C        1.94244        -2.32419        -4.06385
| 20>    C        2.39701        -0.99211        -4.15197
| 21>    C        1.94553        -0.04139        -3.27492
| 22>    C        2.42481         1.33746        -3.36935
| 23>    C        2.71038         1.95509        -4.50727
| 24>    C        1.02122        -0.41125        -2.24713
| 25>    C        0.53911         0.62193        -1.27422
| 26>    C        0.56389        -1.69666        -2.15600
| 27>    C       -0.26552        -4.86966        -2.41142
| 28>    C       -1.21367        -4.49936        -1.51762
| 29>    C       -2.07119        -5.41573        -0.85422
| 30>    S       -1.97041        -7.13304        -1.12636
| 31>    C       -3.25183        -7.44657         0.01129
| 32>    C       -3.71165        -6.26498         0.56553
| 33>    C       -3.06070        -5.12368         0.07101
| 34>    C       -3.40742        -3.73921         0.52141
| 35>    C       -4.76443        -3.69018         1.22467
| 36>    N       -4.88789        -2.41317         1.90715
| 37>    C       -4.81502        -4.81912         2.26715
| 38>    N       -6.06303        -4.70967         3.04755
| 39>    O       -7.09983        -4.67733         2.42492
| 40>    O       -5.97217        -4.67409         4.24881
| 41>    C       -4.81078        -6.18452         1.57966
| 42>    C       -3.72074        -8.76752         0.26208
| 43>    C       -3.27395        -9.86347        -0.37990
| 44>    C       -3.73942       -11.21538        -0.17848
| 45>    C       -3.37333       -12.21591        -1.08034
| 46>    C       -3.84216       -13.52053        -0.92789
| 47>    C       -4.64756       -13.76851         0.19233
| 48>    N       -4.98693       -12.84117         1.06579
| 49>    C       -4.56145       -11.60660         0.88800
| 50>    C       -3.48949       -14.53268        -1.90156
| 51>    C       -4.15571       -15.68996        -2.06853
| 52>    C       -3.89399       -16.71553        -3.02768
| 53>    S       -5.17535       -17.84971        -3.34162
| 54>    C       -4.22770       -18.70856        -4.52398
| 55>    C       -2.97548       -18.12474        -4.64761
| 56>    C       -2.78687       -17.01402        -3.80296
| 57>    C       -1.48990       -16.27170        -3.74097
| 58>    C       -0.34024       -17.06480        -4.36218
| 59>    N        0.79798       -16.17729        -4.52783
| 60>    C       -0.79816       -17.55549        -5.74450
| 61>    N        0.33390       -18.20626        -6.43246
| 62>    O        0.86759       -19.12918        -5.85976
| 63>    O        0.65044       -17.78431        -7.51647
| 64>    C       -1.91590       -18.58798        -5.59915
| 65>    C       -4.86307       -19.81147        -5.15971
| 66>    C       -4.29616       -20.75158        -5.95522
| 67>    C       -4.95706       -21.82555        -6.60524
| 68>    S       -4.07751       -22.59888        -7.88946
| 69>    C       -5.38245       -23.65281        -8.29539
| 70>    C       -6.46405       -23.43705        -7.43724
| 71>    C       -6.22458       -22.41422        -6.46441
| 72>    C       -7.21395       -22.16916        -5.49615
| 73>    C       -8.41009       -22.84663        -5.50965
| 74>    C       -9.42029       -22.56320        -4.49147
| 75>    C       -9.15609       -22.22090        -3.23731
| 76>    C       -8.66954       -23.82054        -6.52157
| 77>    C       -9.97686       -24.55256        -6.54628
| 78>    C       -7.70411       -24.10925        -7.44334
| 79>    C       -5.28924       -24.58608        -9.37412
| 80>    C       -4.22118       -24.74790       -10.15697
| 81>    H        3.01623        -3.38578        -5.67192
| 82>    H        3.12645        -0.74091        -4.90687
| 83>    H        2.53924         1.86814        -2.43388
| 84>    H        2.57966         1.47825        -5.46443
| 85>    H        3.07182         2.96902        -4.52553
| 86>    H        1.35699         0.96242        -0.63874
| 87>    H       -0.23870         0.21242        -0.63396
| 88>    H        0.13860         1.48756        -1.80007
| 89>    H       -0.11825        -1.95074        -1.36108
| 90>    H       -0.19078        -5.92687        -2.64105
| 91>    H       -1.36846        -3.46103        -1.27464
| 92>    H       -3.42443        -3.06001        -0.33414
| 93>    H       -2.65043        -3.37263         1.22233
| 94>    H       -5.56898        -3.87442         0.49071
| 95>    H       -5.82283        -2.28044         2.27697
| 96>    H       -4.70016        -1.64843         1.26987
| 97>    H       -3.98740        -4.71352         2.97305
| 98>    H       -5.77843        -6.32808         1.08477
| 99>    H       -4.69431        -6.97277         2.32758
|100>    H       -4.50156        -8.85256         1.00415
|101>    H       -2.51586        -9.73811        -1.14431
|102>    H       -2.73873       -11.96890        -1.92168
|103>    H       -5.02011       -14.76034         0.40734
|104>    H       -4.87764       -10.90034         1.64291
|105>    H       -2.67236       -14.27138        -2.55689
|106>    H       -5.03103       -15.87632        -1.45984
|107>    H       -1.25174       -16.04000        -2.69991
|108>    H       -1.56891       -15.32644        -4.28700
|109>    H       -0.11968       -17.95274        -3.74349
|110>    H        1.62565       -16.68546        -4.81993
|111>    H        1.01677       -15.71000        -3.65608
|112>    H       -1.09802       -16.70447        -6.36120
|113>    H       -1.47181       -19.51987        -5.22935
|114>    H       -2.36067       -18.78301        -6.57877
|115>    H       -5.92276       -19.86704        -4.96186
|116>    H       -3.24043       -20.69774        -6.17374
|117>    H       -7.03923       -21.44444        -4.71959
|118>    H      -10.45064       -22.65439        -4.80760
|119>    H       -8.14946       -22.15155        -2.85995
|120>    H       -9.94228       -22.01344        -2.53174
|121>    H      -10.17500       -25.01995        -5.58273
|122>    H       -9.96707       -25.32441        -7.31201
|123>    H      -10.79619       -23.86718        -6.76436
|124>    H       -7.88576       -24.86942        -8.18865
|125>    H       -6.17118       -25.19023        -9.53957
|126>    H       -3.32776       -24.16180       -10.01840
|127>    H       -4.21078       -25.46869       -10.95453
|128> *
|129>
|130>                          ****END OF INPUT****

CARTESIAN COORDINATES (ANGSTROEM)
---------------------------------
  C      2.322280   -3.389350   -4.855180
  S      1.537200   -4.827710   -4.404830
  C      0.639470   -4.049430   -3.130020
  C      0.984330   -2.693150   -3.060790
  C      1.942440   -2.324190   -4.063850
  C      2.397010   -0.992110   -4.151970
  C      1.945530   -0.041390   -3.274920
  C      2.424810    1.337460   -3.369350
  C      2.710380    1.955090   -4.507270
  C      1.021220   -0.411250   -2.247130
  C      0.539110    0.621930   -1.274220
  C      0.563890   -1.696660   -2.156000
  C     -0.265520   -4.869660   -2.411420
  C     -1.213670   -4.499360   -1.517620
  C     -2.071190   -5.415730   -0.854220
  S     -1.970410   -7.133040   -1.126360
  C     -3.251830   -7.446570    0.011290
  C     -3.711650   -6.264980    0.565530
  C     -3.060700   -5.123680    0.071010
  C     -3.407420   -3.739210    0.521410
  C     -4.764430   -3.690180    1.224670
  N     -4.887890   -2.413170    1.907150
  C     -4.815020   -4.819120    2.267150
  N     -6.063030   -4.709670    3.047550
  O     -7.099830   -4.677330    2.424920
  O     -5.972170   -4.674090    4.248810
  C     -4.810780   -6.184520    1.579660
  C     -3.720740   -8.767520    0.262080
  C     -3.273950   -9.863470   -0.379900
  C     -3.739420  -11.215380   -0.178480
  C     -3.373330  -12.215910   -1.080340
  C     -3.842160  -13.520530   -0.927890
  C     -4.647560  -13.768510    0.192330
  N     -4.986930  -12.841170    1.065790
  C     -4.561450  -11.606600    0.888000
  C     -3.489490  -14.532680   -1.901560
  C     -4.155710  -15.689960   -2.068530
  C     -3.893990  -16.715530   -3.027680
  S     -5.175350  -17.849710   -3.341620
  C     -4.227700  -18.708560   -4.523980
  C     -2.975480  -18.124740   -4.647610
  C     -2.786870  -17.014020   -3.802960
  C     -1.489900  -16.271700   -3.740970
  C     -0.340240  -17.064800   -4.362180
  N      0.797980  -16.177290   -4.527830
  C     -0.798160  -17.555490   -5.744500
  N      0.333900  -18.206260   -6.432460
  O      0.867590  -19.129180   -5.859760
  O      0.650440  -17.784310   -7.516470
  C     -1.915900  -18.587980   -5.599150
  C     -4.863070  -19.811470   -5.159710
  C     -4.296160  -20.751580   -5.955220
  C     -4.957060  -21.825550   -6.605240
  S     -4.077510  -22.598880   -7.889460
  C     -5.382450  -23.652810   -8.295390
  C     -6.464050  -23.437050   -7.437240
  C     -6.224580  -22.414220   -6.464410
  C     -7.213950  -22.169160   -5.496150
  C     -8.410090  -22.846630   -5.509650
  C     -9.420290  -22.563200   -4.491470
  C     -9.156090  -22.220900   -3.237310
  C     -8.669540  -23.820540   -6.521570
  C     -9.976860  -24.552560   -6.546280
  C     -7.704110  -24.109250   -7.443340
  C     -5.289240  -24.586080   -9.374120
  C     -4.221180  -24.747900  -10.156970
  H      3.016230   -3.385780   -5.671920
  H      3.126450   -0.740910   -4.906870
  H      2.539240    1.868140   -2.433880
  H      2.579660    1.478250   -5.464430
  H      3.071820    2.969020   -4.525530
  H      1.356990    0.962420   -0.638740
  H     -0.238700    0.212420   -0.633960
  H      0.138600    1.487560   -1.800070
  H     -0.118250   -1.950740   -1.361080
  H     -0.190780   -5.926870   -2.641050
  H     -1.368460   -3.461030   -1.274640
  H     -3.424430   -3.060010   -0.334140
  H     -2.650430   -3.372630    1.222330
  H     -5.568980   -3.874420    0.490710
  H     -5.822830   -2.280440    2.276970
  H     -4.700160   -1.648430    1.269870
  H     -3.987400   -4.713520    2.973050
  H     -5.778430   -6.328080    1.084770
  H     -4.694310   -6.972770    2.327580
  H     -4.501560   -8.852560    1.004150
  H     -2.515860   -9.738110   -1.144310
  H     -2.738730  -11.968900   -1.921680
  H     -5.020110  -14.760340    0.407340
  H     -4.877640  -10.900340    1.642910
  H     -2.672360  -14.271380   -2.556890
  H     -5.031030  -15.876320   -1.459840
  H     -1.251740  -16.040000   -2.699910
  H     -1.568910  -15.326440   -4.287000
  H     -0.119680  -17.952740   -3.743490
  H      1.625650  -16.685460   -4.819930
  H      1.016770  -15.710000   -3.656080
  H     -1.098020  -16.704470   -6.361200
  H     -1.471810  -19.519870   -5.229350
  H     -2.360670  -18.783010   -6.578770
  H     -5.922760  -19.867040   -4.961860
  H     -3.240430  -20.697740   -6.173740
  H     -7.039230  -21.444440   -4.719590
  H    -10.450640  -22.654390   -4.807600
  H     -8.149460  -22.151550   -2.859950
  H     -9.942280  -22.013440   -2.531740
  H    -10.175000  -25.019950   -5.582730
  H     -9.967070  -25.324410   -7.312010
  H    -10.796190  -23.867180   -6.764360
  H     -7.885760  -24.869420   -8.188650
  H     -6.171180  -25.190230   -9.539570
  H     -3.327760  -24.161800  -10.018400
  H     -4.210780  -25.468690  -10.954530

 Total Charge           Charge          ....    0
 Multiplicity           Mult            ....    1
 Number of Electrons    NEL             ....  496
 Basis Dimension        Dim             .... 1175

ORBITAL ENERGIES
----------------

  NO   OCC          E(Eh)            E(eV)
   0   2.0000     -88.963027     -2420.8070
   1   2.0000     -88.956195     -2420.6211
   2   2.0000     -88.949583     -2420.4412
   3   2.0000     -88.948525     -2420.4124
   4   2.0000     -19.242716      -523.6209
   5   2.0000     -19.242321      -523.6102
   6   2.0000     -19.241217      -523.5801
   7   2.0000     -19.240957      -523.5731
   8   2.0000     -14.638681      -398.3388
   9   2.0000     -14.638578      -398.3360
  10   2.0000     -14.396106      -391.7379
  11   2.0000     -14.395161      -391.7123
  12   2.0000     -14.394884      -391.7047
  13   2.0000     -10.322884      -280.9000
  14   2.0000     -10.322481      -280.8890
  15   2.0000     -10.312398      -280.6146
  16   2.0000     -10.312278      -280.6113
  17   2.0000     -10.300350      -280.2868
  18   2.0000     -10.298715      -280.2423
  19   2.0000     -10.298409      -280.2340
  20   2.0000     -10.297843      -280.2185
  21   2.0000     -10.297268      -280.2029
  22   2.0000     -10.296467      -280.1811
  23   2.0000     -10.296190      -280.1736
  24   2.0000     -10.295721      -280.1608
  25   2.0000     -10.294316      -280.1226
  26   2.0000     -10.293409      -280.0979
  27   2.0000     -10.290160      -280.0095
  28   2.0000     -10.289349      -279.9874
  29   2.0000     -10.285034      -279.8700
  30   2.0000     -10.284607      -279.8584
  31   2.0000     -10.283972      -279.8411
  32   2.0000     -10.283453      -279.8270
  33   2.0000     -10.282864      -279.8110
  34   2.0000     -10.282605      -279.8039
  35   2.0000     -10.282204      -279.7930
  36   2.0000     -10.281633      -279.7774
  37   2.0000     -10.281518      -279.7743
  38   2.0000     -10.281343      -279.7696
  39   2.0000     -10.281284      -279.7680
  40   2.0000     -10.281110      -279.7632
  41   2.0000     -10.280777      -279.7542
  42   2.0000     -10.278420      -279.6900
  43   2.0000     -10.278257      -279.6856
  44   2.0000     -10.278237      -279.6850
  45   2.0000     -10.277409      -279.6625
  46   2.0000     -10.277280      -279.6590
  47   2.0000     -10.277058      -279.6530
  48   2.0000     -10.276964      -279.6504
  49   2.0000     -10.276007      -279.6244
  50   2.0000     -10.274973      -279.5962
  51   2.0000     -10.274756      -279.5903
  52   2.0000     -10.274427      -279.5814
  53   2.0000     -10.274239      -279.5763
  54   2.0000     -10.272954      -279.5413
  55   2.0000     -10.271684      -279.5067
  56   2.0000     -10.271385      -279.4986
  57   2.0000     -10.269420      -279.4451
  58   2.0000     -10.267949      -279.4051
  59   2.0000     -10.267624      -279.3963
  60   2.0000     -10.265431      -279.3366
  61   2.0000     -10.265366      -279.3348
  62   2.0000     -10.263472      -279.2833
  63   2.0000     -10.262239      -279.2497
  64   2.0000     -10.261801      -279.2378
  65   2.0000     -10.261168      -279.2206
  66   2.0000      -8.058581      -219.2851
  67   2.0000      -8.051730      -219.0987
  68   2.0000      -8.045625      -218.9326
  69   2.0000      -8.043944      -218.8868
  70   2.0000      -6.027409      -164.0141
  71   2.0000      -6.023250      -163.9010
  72   2.0000      -6.021734      -163.8597
  73   2.0000      -6.020580      -163.8283
  74   2.0000      -6.016623      -163.7206
  75   2.0000      -6.014731      -163.6692
  76   2.0000      -6.014577      -163.6650
  77   2.0000      -6.013077      -163.6241
  78   2.0000      -6.010878      -163.5643
  79   2.0000      -6.009344      -163.5226
  80   2.0000      -6.007758      -163.4794
  81   2.0000      -6.006004      -163.4317
  82   2.0000      -1.322395       -35.9842
  83   2.0000      -1.322352       -35.9830
  84   2.0000      -1.141972       -31.0746
  85   2.0000      -1.141960       -31.0743
  86   2.0000      -1.030412       -28.0389
  87   2.0000      -1.002307       -27.2742
  88   2.0000      -1.001981       -27.2653
  89   2.0000      -0.990810       -26.9613
  90   2.0000      -0.989511       -26.9260
  91   2.0000      -0.981648       -26.7120
  92   2.0000      -0.981235       -26.7008
  93   2.0000      -0.940000       -25.5787
  94   2.0000      -0.938112       -25.5273
  95   2.0000      -0.926942       -25.2234
  96   2.0000      -0.926290       -25.2056
  97   2.0000      -0.919890       -25.0315
  98   2.0000      -0.914040       -24.8723
  99   2.0000      -0.903481       -24.5850
 100   2.0000      -0.894920       -24.3520
 101   2.0000      -0.881741       -23.9934
 102   2.0000      -0.875780       -23.8312
 103   2.0000      -0.873429       -23.7672
 104   2.0000      -0.871067       -23.7029
 105   2.0000      -0.866143       -23.5689
 106   2.0000      -0.860767       -23.4227
 107   2.0000      -0.854401       -23.2494
 108   2.0000      -0.847194       -23.0533
 109   2.0000      -0.844255       -22.9733
 110   2.0000      -0.833664       -22.6852
 111   2.0000      -0.822505       -22.3815
 112   2.0000      -0.821478       -22.3536
 113   2.0000      -0.818666       -22.2770
 114   2.0000      -0.797481       -21.7006
 115   2.0000      -0.793293       -21.5866
 116   2.0000      -0.778677       -21.1889
 117   2.0000      -0.774924       -21.0867
 118   2.0000      -0.769443       -20.9376
 119   2.0000      -0.767189       -20.8763
 120   2.0000      -0.759792       -20.6750
 121   2.0000      -0.754989       -20.5443
 122   2.0000      -0.736119       -20.0308
 123   2.0000      -0.725586       -19.7442
 124   2.0000      -0.718618       -19.5546
 125   2.0000      -0.715842       -19.4791
 126   2.0000      -0.709476       -19.3058
 127   2.0000      -0.706434       -19.2231
 128   2.0000      -0.703834       -19.1523
 129   2.0000      -0.695540       -18.9266
 130   2.0000      -0.677928       -18.4474
 131   2.0000      -0.671266       -18.2661
 132   2.0000      -0.668581       -18.1930
 133   2.0000      -0.658153       -17.9093
 134   2.0000      -0.652092       -17.7443
 135   2.0000      -0.651392       -17.7253
 136   2.0000      -0.645484       -17.5645
 137   2.0000      -0.642533       -17.4842
 138   2.0000      -0.638608       -17.3774
 139   2.0000      -0.633211       -17.2305
 140   2.0000      -0.631932       -17.1958
 141   2.0000      -0.628350       -17.0983
 142   2.0000      -0.627222       -17.0676
 143   2.0000      -0.622362       -16.9353
 144   2.0000      -0.621285       -16.9060
 145   2.0000      -0.619608       -16.8604
 146   2.0000      -0.618964       -16.8429
 147   2.0000      -0.607199       -16.5227
 148   2.0000      -0.601507       -16.3678
 149   2.0000      -0.595507       -16.2046
 150   2.0000      -0.591015       -16.0823
 151   2.0000      -0.584661       -15.9094
 152   2.0000      -0.583293       -15.8722
 153   2.0000      -0.581820       -15.8321
 154   2.0000      -0.579618       -15.7722
 155   2.0000      -0.572609       -15.5815
 156   2.0000      -0.563262       -15.3271
 157   2.0000      -0.561712       -15.2850
 158   2.0000      -0.560085       -15.2407
 159   2.0000      -0.554403       -15.0861
 160   2.0000      -0.553983       -15.0747
 161   2.0000      -0.551693       -15.0123
 162   2.0000      -0.548266       -14.9191
 163   2.0000      -0.547283       -14.8923
 164   2.0000      -0.544947       -14.8288
 165   2.0000      -0.540492       -14.7075
 166   2.0000      -0.534036       -14.5319
 167   2.0000      -0.533249       -14.5104
 168   2.0000      -0.530361       -14.4319
 169   2.0000      -0.529532       -14.4093
 170   2.0000      -0.518180       -14.1004
 171   2.0000      -0.517487       -14.0815
 172   2.0000      -0.511963       -13.9312
 173   2.0000      -0.509557       -13.8657
 174   2.0000      -0.509000       -13.8506
 175   2.0000      -0.506494       -13.7824
 176   2.0000      -0.505384       -13.7522
 177   2.0000      -0.503152       -13.6915
 178   2.0000      -0.500956       -13.6317
 179   2.0000      -0.500229       -13.6119
 180   2.0000      -0.494682       -13.4610
 181   2.0000      -0.493880       -13.4391
 182   2.0000      -0.488618       -13.2960
 183   2.0000      -0.488236       -13.2856
 184   2.0000      -0.485317       -13.2061
 185   2.0000      -0.484457       -13.1827
 186   2.0000      -0.483904       -13.1677
 187   2.0000      -0.482782       -13.1372
 188   2.0000      -0.481384       -13.0991
 189   2.0000      -0.480025       -13.0621
 190   2.0000      -0.477162       -12.9842
 191   2.0000      -0.474028       -12.8990
 192   2.0000      -0.470596       -12.8056
 193   2.0000      -0.465476       -12.6663
 194   2.0000      -0.461798       -12.5662
 195   2.0000      -0.460588       -12.5332
 196   2.0000      -0.456846       -12.4314
 197   2.0000      -0.455142       -12.3850
 198   2.0000      -0.451756       -12.2929
 199   2.0000      -0.451175       -12.2771
 200   2.0000      -0.449737       -12.2380
 201   2.0000      -0.448942       -12.2163
 202   2.0000      -0.447551       -12.1785
 203   2.0000      -0.446674       -12.1546
 204   2.0000      -0.441150       -12.0043
 205   2.0000      -0.439285       -11.9536
 206   2.0000      -0.433502       -11.7962
 207   2.0000      -0.428046       -11.6477
 208   2.0000      -0.422737       -11.5033
 209   2.0000      -0.421008       -11.4562
 210   2.0000      -0.420110       -11.4318
 211   2.0000      -0.417072       -11.3491
 212   2.0000      -0.416316       -11.3285
 213   2.0000      -0.414063       -11.2672
 214   2.0000      -0.412721       -11.2307
 215   2.0000      -0.411438       -11.1958
 216   2.0000      -0.408442       -11.1143
 217   2.0000      -0.407821       -11.0974
 218   2.0000      -0.406123       -11.0512
 219   2.0000      -0.404604       -11.0098
 220   2.0000      -0.397474       -10.8158
 221   2.0000      -0.397290       -10.8108
 222   2.0000      -0.394248       -10.7280
 223   2.0000      -0.383694       -10.4408
 224   2.0000      -0.380828       -10.3629
 225   2.0000      -0.380075       -10.3424
 226   2.0000      -0.375363       -10.2141
 227   2.0000      -0.374930       -10.2024
 228   2.0000      -0.364544        -9.9197
 229   2.0000      -0.364399        -9.9158
 230   2.0000      -0.363274        -9.8852
 231   2.0000      -0.361864        -9.8468
 232   2.0000      -0.358001        -9.7417
 233   2.0000      -0.347125        -9.4457
 234   2.0000      -0.326641        -8.8884
 235   2.0000      -0.322761        -8.7828
 236   2.0000      -0.322536        -8.7767
 237   2.0000      -0.319846        -8.7034
 238   2.0000      -0.318765        -8.6740
 239   2.0000      -0.311991        -8.4897
 240   2.0000      -0.309790        -8.4298
 241   2.0000      -0.309560        -8.4236
 242   2.0000      -0.294850        -8.0233
 243   2.0000      -0.291307        -7.9269
 244   2.0000      -0.273051        -7.4301
 245   2.0000      -0.265172        -7.2157
 246   2.0000      -0.225371        -6.1327
 247   2.0000      -0.220408        -5.9976
 248   0.0000      -0.061817        -1.6821
 249   0.0000      -0.057982        -1.5778
 250   0.0000      -0.028485        -0.7751
 251   0.0000      -0.019530        -0.5314
 252   0.0000      -0.014202        -0.3865

MULLIKEN ATOMIC CHARGES
-----------------------
   0 C :   -0.128052
   1 S :    0.152921
   2 C :   -0.159406
   3 C :    0.159767
   4 C :    0.096069
   5 C :   -0.079524
   6 C :    0.079893
   7 C :   -0.038400
   8 C :   -0.010636
   9 C :   -0.069920
  10 C :    0.100150
  11 C :   -0.101741
  12 C :    0.059563
  13 C :   -0.041158
  14 C :   -0.084184
  15 S :    0.084282
  16 C :   -0.090050
  17 C :   -0.082282
  18 C :   -0.086523
  19 C :    0.178920
  20 C :   -0.034857
  21 N :   -0.178415
  22 C :    0.045935
  23 N :    0.193789
  24 O :   -0.243016
  25 O :   -0.220271
  26 C :    0.200232
  27 C :    0.000734
  28 C :   -0.012936
  29 C :    0.087999
  30 C :   -0.048183
  31 C :    0.078102
  32 C :   -0.021754
  33 N :   -0.051419
  34 C :   -0.021855
  35 C :   -0.022231
  36 C :    0.062026
  37 C :   -0.139678
  38 S :    0.116802
  39 C :   -0.127015
  40 C :   -0.089894
  41 C :   -0.078445
  42 C :    0.154315
  43 C :   -0.023558
  44 N :   -0.175169
  45 C :    0.065456
  46 N :    0.193247
  47 O :   -0.242437
  48 O :   -0.220132
  49 C :    0.173031
  50 C :    0.020555
  51 C :    0.032544
  52 C :   -0.139019
  53 S :    0.140779
  54 C :   -0.126145
  55 C :    0.127732
  56 C :    0.140898
  57 C :   -0.115001
  58 C :    0.088472
  59 C :   -0.038596
  60 C :   -0.015134
  61 C :   -0.073991
  62 C :    0.099562
  63 C :   -0.102080
  64 C :    0.004706
  65 C :   -0.029841
  66 H :    0.017568
  67 H :   -0.036110
  68 H :   -0.002805
  69 H :    0.018578
  70 H :    0.021565
  71 H :    0.030627
  72 H :    0.004667
  73 H :    0.030455
  74 H :   -0.054890
  75 H :   -0.015421
  76 H :   -0.024191
  77 H :    0.019926
  78 H :    0.021379
  79 H :    0.012625
  80 H :    0.103422
  81 H :    0.097587
  82 H :    0.018919
  83 H :    0.040937
  84 H :    0.031654
  85 H :   -0.008430
  86 H :   -0.014317
  87 H :   -0.022005
  88 H :   -0.004764
  89 H :   -0.008862
  90 H :   -0.024202
  91 H :   -0.011998
  92 H :    0.021444
  93 H :    0.031014
  94 H :    0.012585
  95 H :    0.103353
  96 H :    0.098208
  97 H :    0.015999
  98 H :    0.047947
  99 H :    0.035370
 100 H :   -0.013549
 101 H :   -0.023297
 102 H :   -0.045479
 103 H :   -0.003362
 104 H :    0.022133
 105 H :    0.022437
 106 H :    0.030113
 107 H :    0.007977
 108 H :    0.029254
 109 H :   -0.044605
 110 H :   -0.009460
 111 H :    0.020784
 112 H :    0.023688
Sum of atomic charges:   -0.0000000

LOEWDIN ATOMIC CHARGES
----------------------
   0 C :   -0.196841
   1 S :    0.484779
   2 C :   -0.186954
   3 C :   -0.042403
   4 C :   -0.053340
   5 C :   -0.002150
   6 C :   -0.032163
   7 C :   -0.021107
   8 C :   -0.038651
   9 C :   -0.013296
  10 C :   -0.044786
  11 C :   -0.033355
  12 C :   -0.042065
  13 C :   -0.057941
  14 C :   -0.161070
  15 S :    0.424954
  16 C :   -0.173365
  17 C :   -0.057174
  18 C :   -0.067585
  19 C :   -0.023562
  20 C :    0.017756
  21 N :   -0.109660
  22 C :    0.010850
  23 N :    0.272894
  24 O :   -0.213288
  25 O :   -0.189568
  26 C :   -0.020961
  27 C :   -0.031682
  28 C :   -0.030222
  29 C :   -0.043762
  30 C :    0.005140
  31 C :   -0.043869
  32 C :    0.016481
  33 N :   -0.062160
  34 C :    0.017935
  35 C :   -0.029029
  36 C :   -0.033670
  37 C :   -0.178539
  38 S :    0.436706
  39 C :   -0.165441
  40 C :   -0.063160
  41 C :   -0.055594
  42 C :   -0.025093
  43 C :    0.018056
  44 N :   -0.109122
  45 C :    0.011437
  46 N :    0.272916
  47 O :   -0.213632
  48 O :   -0.189654
  49 C :   -0.024740
  50 C :   -0.055291
  51 C :   -0.045403
  52 C :   -0.174571
  53 S :    0.478222
  54 C :   -0.184887
  55 C :   -0.040204
  56 C :   -0.046583
  57 C :   -0.009008
  58 C :   -0.026078
  59 C :   -0.021127
  60 C :   -0.039057
  61 C :   -0.018025
  62 C :   -0.044972
  63 C :   -0.026969
  64 C :   -0.039278
  65 C :   -0.052957
  66 H :    0.023412
  67 H :    0.027936
  68 H :    0.027997
  69 H :    0.021399
  70 H :    0.024575
  71 H :    0.034929
  72 H :    0.028153
  73 H :    0.035225
  74 H :    0.021167
  75 H :    0.019457
  76 H :    0.026924
  77 H :    0.032422
  78 H :    0.035902
  79 H :    0.013325
  80 H :    0.057487
  81 H :    0.058672
  82 H :    0.036792
  83 H :    0.041518
  84 H :    0.037916
  85 H :    0.031170
  86 H :    0.020349
  87 H :    0.027047
  88 H :    0.017541
  89 H :    0.016993
  90 H :    0.026047
  91 H :    0.028093
  92 H :    0.035711
  93 H :    0.034732
  94 H :    0.013619
  95 H :    0.057911
  96 H :    0.059106
  97 H :    0.036297
  98 H :    0.039153
  99 H :    0.039229
 100 H :    0.026216
 101 H :    0.025605
 102 H :    0.023460
 103 H :    0.028318
 104 H :    0.021734
 105 H :    0.024925
 106 H :    0.035104
 107 H :    0.029591
 108 H :    0.034259
 109 H :    0.023373
 110 H :    0.033206
 111 H :    0.016854
 112 H :    0.026085

  Mayer bond orders larger than 0.100000
B(  0-C ,  1-S ) :   1.2081 B(  0-C ,  2-C ) :   0.1080 B(  0-C ,  4-C ) :   1.3946
B(  0-C , 66-H ) :   0.9704 B(  1-S ,  2-C ) :   1.1648 B(  2-C ,  3-C ) :   1.3391
B(  2-C , 12-C ) :   1.1586 B(  3-C ,  4-C ) :   1.2086 B(  3-C , 11-C ) :   1.1730
B(  4-C ,  5-C ) :   1.1565 B(  5-C ,  6-C ) :   1.5342 B(  5-C , 67-H ) :   1.0052
B(  6-C ,  7-C ) :   1.0232 B(  6-C ,  9-C ) :   1.1905 B(  7-C ,  8-C ) :   1.9839
B(  7-C , 68-H ) :   0.9508 B(  8-C , 69-H ) :   0.9581 B(  8-C , 70-H ) :   0.9502
B(  9-C , 10-C ) :   1.0872 B(  9-C , 11-C ) :   1.5689 B( 10-C , 71-H ) :   0.9406
B( 10-C , 72-H ) :   0.9538 B( 10-C , 73-H ) :   0.9430 B( 11-C , 74-H ) :   0.9929
B( 12-C , 13-C ) :   1.6436 B( 12-C , 75-H ) :   0.9452 B( 13-C , 14-C ) :   1.1778
B( 13-C , 76-H ) :   0.9672 B( 14-C , 15-S ) :   1.1037 B( 14-C , 18-C ) :   1.4958
B( 15-S , 16-C ) :   1.0954 B( 16-C , 17-C ) :   1.5065 B( 16-C , 27-C ) :   1.1557
B( 17-C , 18-C ) :   1.3098 B( 17-C , 26-C ) :   1.0507 B( 18-C , 19-C ) :   1.0474
B( 19-C , 20-C ) :   1.0472 B( 19-C , 77-H ) :   0.9050 B( 19-C , 78-H ) :   0.8940
B( 20-C , 21-N ) :   1.0777 B( 20-C , 22-C ) :   0.9951 B( 20-C , 79-H ) :   0.9111
B( 21-N , 80-H ) :   0.9549 B( 21-N , 81-H ) :   0.9596 B( 22-C , 23-N ) :   0.8386
B( 22-C , 26-C ) :   1.0293 B( 22-C , 82-H ) :   0.9108 B( 23-N , 24-O ) :   1.5291
B( 23-N , 25-O ) :   1.5801 B( 24-O , 25-O ) :   0.2711 B( 26-C , 83-H ) :   0.8884
B( 26-C , 84-H ) :   0.9060 B( 27-C , 28-C ) :   1.6864 B( 27-C , 85-H ) :   0.9642
B( 28-C , 29-C ) :   1.0598 B( 28-C , 86-H ) :   0.9811 B( 29-C , 30-C ) :   1.3517
B( 29-C , 34-C ) :   1.3220 B( 30-C , 31-C ) :   1.3494 B( 30-C , 87-H ) :   1.0007
B( 31-C , 32-C ) :   1.3262 B( 31-C , 35-C ) :   1.0518 B( 32-C , 33-N ) :   1.5627
B( 32-C , 88-H ) :   0.9812 B( 33-N , 34-C ) :   1.5690 B( 34-C , 89-H ) :   0.9828
B( 35-C , 36-C ) :   1.7130 B( 35-C , 90-H ) :   0.9772 B( 36-C , 37-C ) :   1.1095
B( 36-C , 91-H ) :   0.9467 B( 37-C , 38-S ) :   1.1188 B( 37-C , 41-C ) :   1.5134
B( 38-S , 39-C ) :   1.1254 B( 39-C , 40-C ) :   1.4996 B( 39-C , 50-C ) :   1.1407
B( 40-C , 41-C ) :   1.3196 B( 40-C , 49-C ) :   1.0554 B( 41-C , 42-C ) :   1.0549
B( 42-C , 43-C ) :   1.0415 B( 42-C , 92-H ) :   0.9070 B( 42-C , 93-H ) :   0.8865
B( 43-C , 44-N ) :   1.0883 B( 43-C , 45-C ) :   0.9972 B( 43-C , 94-H ) :   0.9102
B( 44-N , 95-H ) :   0.9553 B( 44-N , 96-H ) :   0.9595 B( 45-C , 46-N ) :   0.8391
B( 45-C , 49-C ) :   1.0224 B( 45-C , 97-H ) :   0.9058 B( 46-N , 47-O ) :   1.5277
B( 46-N , 48-O ) :   1.5795 B( 47-O , 48-O ) :   0.2711 B( 49-C , 98-H ) :   0.8830
B( 49-C , 99-H ) :   0.9047 B( 50-C , 51-C ) :   1.6697 B( 50-C ,100-H ) :   0.9420
B( 51-C , 52-C ) :   1.1611 B( 51-C ,101-H ) :   0.9377 B( 52-C , 53-S ) :   1.1596
B( 52-C , 54-C ) :   0.1066 B( 52-C , 56-C ) :   1.3233 B( 53-S , 54-C ) :   1.1403
B( 54-C , 55-C ) :   1.3488 B( 54-C , 64-C ) :   1.1405 B( 55-C , 56-C ) :   1.2076
B( 55-C , 63-C ) :   1.1761 B( 56-C , 57-C ) :   1.1816 B( 57-C , 58-C ) :   1.5269
B( 57-C ,102-H ) :   0.9912 B( 58-C , 59-C ) :   1.0303 B( 58-C , 61-C ) :   1.1925
B( 59-C , 60-C ) :   1.9748 B( 59-C ,103-H ) :   0.9506 B( 60-C ,104-H ) :   0.9578
B( 60-C ,105-H ) :   0.9501 B( 61-C , 62-C ) :   1.0867 B( 61-C , 63-C ) :   1.5709
B( 62-C ,106-H ) :   0.9434 B( 62-C ,107-H ) :   0.9543 B( 62-C ,108-H ) :   0.9407
B( 63-C ,109-H ) :   0.9911 B( 64-C , 65-C ) :   1.9081 B( 64-C ,110-H ) :   0.9582
B( 65-C ,111-H ) :   0.9568 B( 65-C ,112-H ) :   0.9488

-----------------------------------------------------------------------------
         ABSORPTION SPECTRUM VIA TRANSITION ELECTRIC DIPOLE MOMENTS
-----------------------------------------------------------------------------
State   Energy  Wavelength   fosc         T2         TX        TY        TZ
        (cm-1)    (nm)                  (au**2)     (au)      (au)      (au)
-----------------------------------------------------------------------------
   0   20002.3    499.9   1.756597981  28.91133  -1.67602  -4.70628  -1.98826
   1   21509.9    464.9   1.006076109  15.39811   2.12062   2.40645  -2.26054
   2   26382.7    379.0   0.014257770   0.17791  -0.21664   0.24180   0.26928
   3   27191.0    367.8   0.005666803   0.06861   0.04638  -0.25778   0.00325
   4   27943.1    357.9   0.018231906   0.21480  -0.06404  -0.40399  -0.21792
   5   28089.7    356.0   0.087401394   1.02435   0.09901  -0.91108  -0.42950
   6   29614.2    337.7   0.013917922   0.15472  -0.18495   0.24659   0.24435
   7   30417.8    328.8   0.503016929   5.44415   0.14509  -2.00542  -1.18380
   8   31107.9    321.5   0.009079841   0.09609  -0.23475   0.19791   0.04263
   9   31605.3    316.4   0.103622503   1.07937  -0.12624   1.03041   0.04119
  10   32012.6    312.4   0.028112924   0.28911  -0.37718   0.08537   0.37357
  11   32914.6    303.8   0.012536210   0.12539   0.27742   0.06956  -0.20878
  12   33791.0    295.9   0.041066906   0.40010  -0.15273   0.50840   0.34394
  13   34479.5    290.0   0.007601325   0.07258   0.26741  -0.00545  -0.03226
  14   35121.6    284.7   0.092654824   0.86850   0.18381  -0.68752  -0.60169
  15   36052.2    277.4   0.025665062   0.23436  -0.37143  -0.23961   0.19747
  16   36608.9    273.2   0.286411606   2.57561   1.24878   0.46375  -0.89503
  17   36739.2    272.2   0.611663029   5.48099   1.53309  -0.79753  -1.57942
  18   37170.6    269.0   0.089186880   0.78991   0.68950   0.06844  -0.55661
  19   37302.2    268.1   0.002881624   0.02543   0.06167  -0.10660  -0.10131
  20   38235.6    261.5   0.000008102   0.00007   0.00755  -0.00220   0.00280
  21   38719.3    258.3   0.060270255   0.51245   0.55197  -0.14745  -0.43132
  22   38794.8    257.8   0.008909835   0.07561   0.21322  -0.06823  -0.15965
  23   39087.0    255.8   0.277135015   2.33418   0.41522  -1.25157  -0.77159
  24   39295.3    254.5   0.198447482   1.66257  -1.06464   0.19648   0.70037
  25   39888.0    250.7   0.003285447   0.02712   0.00247  -0.16465   0.00010
  26   39954.2    250.3   0.004469316   0.03683  -0.04055   0.17143   0.07611
  27   40254.0    248.4   0.038790989   0.31725   0.05905   0.28597   0.48164

FINAL SINGLE POINT ENERGY     -4211.292860212117

DIPOLE MOMENT
-------------
                                X             Y             Z
Electronic contribution:      8.88537     -12.85493      -1.91280
Nuclear contribution   :     -8.49581      13.85797       0.91503
                        -----------------------------------------
Total Dipole Moment    :      0.38956       1.00304      -0.99778
                        -----------------------------------------
Magnitude (a.u.)       :      1.46745
Magnitude (Debye)      :      3.72995

Rotational constants in cm-1:     0.001416     0.000230     0.000205
Rotational constants in MHz :    42.436347     6.887052     6.137984

                             ****ORCA TERMINATED NORMALLY****
TOTAL RUN TIME: 0 days 0 hours 9 minutes 47 seconds 545 msec
