                         Program Version 4.2.0 -  RELEASE  -
|  1> # ORCA input file
|  2> # SCF done       -173.450180189334          0.000602872449
|  3> ! CAM-B3LYP def2-SVP def2/J RIJCOSX Grid4 TightSCF
|  4> %maxcore 5000
|  5> %tddft
|  6>     Mode sTDDFT
|  7>     Ethresh 5.0
|  8>     maxcore 5000
|  9> end
| 10>
| 11> %pal
| 12>   nprocs 6
| 13>   end
| 14> * xyz 0 1
| 15>    C       -7.15989        -1.37022        -3.95010
| 16>    C       -6.52454        -0.53292        -4.79251
| 17>    S       -6.34380         1.07241        -4.16748
| 18>    C       -7.17467         0.62346        -2.70155
| 19>    C       -7.54925        -0.73853        -2.73022
| 20>    C       -8.21584        -1.28994        -1.64062
| 21>    C       -8.50434        -0.45702        -0.58021
| 22>    C       -8.13553         0.91110        -0.54359
| 23>    C       -8.63360         1.54568         0.63423
| 24>    C       -9.30141         0.70315         1.44856
| 25>    S       -9.38290        -0.91948         0.85403
| 26>    C       -7.41900         1.46762        -1.61899
| 27>    C       -6.94275         2.83472        -1.66310
| 28>    C       -6.48505         3.52843        -0.61046
| 29>    C       -6.01237         4.88949        -0.65204
| 30>    C       -6.06161         5.71305        -1.73436
| 31>    S       -5.44133         7.29126        -1.44601
| 32>    C       -5.07966         6.90196         0.21660
| 33>    C       -5.44838         5.56454         0.49419
| 34>    C       -5.26777         5.05080         1.77320
| 35>    C       -4.73987         5.88435         2.73634
| 36>    C       -4.38755         7.22811         2.47888
| 37>    C       -3.86267         7.85246         3.64851
| 38>    C       -3.83184         7.03093         4.71939
| 39>    S       -4.42923         5.44301         4.39362
| 40>    C       -4.55564         7.76974         1.18379
| 41>    C       -4.23098         9.15132         0.95719
| 42>    C       -4.01485         9.75438        -0.23220
| 43>    C       -3.75006        11.13674        -0.39090
| 44>    S       -3.68299        12.23454         0.95063
| 45>    C       -3.38834        13.60741        -0.05596
| 46>    C       -3.32123        13.23182        -1.39564
| 47>    C       -3.53118        11.82421        -1.58990
| 48>    C       -3.50111        11.28959        -2.89012
| 49>    C       -3.24140        12.11179        -3.95913
| 50>    C       -3.21160        11.58315        -5.26859
| 51>    N       -3.19434        11.13770        -6.32480
| 52>    C       -2.98062        13.50679        -3.75964
| 53>    C       -2.67384        14.32153        -4.87269
| 54>    N       -2.42444        15.00017        -5.76224
| 55>    C       -3.02080        14.05185        -2.50148
| 56>    C       -3.31160        14.93855         0.48597
| 57>    C       -3.89579        16.01880        -0.10642
| 58>    S       -3.66770        17.49913         0.73930
| 59>    C       -2.74344        16.68168         1.97385
| 60>    C       -2.63536        15.30080         1.70666
| 61>    C       -1.89559        14.49767         2.56685
| 62>    C       -1.32236        15.09794         3.66908
| 63>    C       -1.43120        16.48296         3.94673
| 64>    C       -0.79249        16.81375         5.17929
| 65>    C       -0.21386        15.75152         5.77585
| 66>    S       -0.40049        14.27308         4.89644
| 67>    C       -2.13989        17.31248         3.06035
| 68>    C       -2.27279        18.74798         3.20292
| 69>    C       -1.31727        19.57894         3.64298
| 70>    C       -1.45917        21.00977         3.74831
| 71>    C       -2.64083        21.68850         3.74344
| 72>    S       -2.48451        23.39577         3.89449
| 73>    C       -0.74597        23.25669         3.98005
| 74>    C       -0.33839        21.90791         3.88601
| 75>    C        1.01870        21.60896         3.91427
| 76>    C        1.90573        22.65573         4.05765
| 77>    C        1.50033        24.00967         4.15479
| 78>    C        2.62129        24.87171         4.35184
| 79>    C        3.79688        24.21250         4.37261
| 80>    S        3.63921        22.50178         4.15952
| 81>    C        0.13506        24.32779         4.08979
| 82>    C       -0.39127        25.68784         4.12815
| 83>    C        0.14691        26.74092         3.52896
| 84>    H       -7.35948        -2.40466        -4.16508
| 85>    H       -6.13211        -0.74597        -5.76781
| 86>    H       -8.50739        -2.32791        -1.63445
| 87>    H       -8.52818         2.59532         0.83759
| 88>    H       -9.77283         0.92954         2.38511
| 89>    H       -6.90698         3.26928        -2.65392
| 90>    H       -6.43392         3.04480         0.35363
| 91>    H       -6.43030         5.49240        -2.71645
| 92>    H       -5.53159         4.03460         2.01694
| 93>    H       -3.51397         8.86810         3.69043
| 94>    H       -3.48491         7.25578         5.70909
| 95>    H       -4.15260         9.76178         1.84734
| 96>    H       -4.01947         9.18136        -1.14581
| 97>    H       -3.67761        10.23752        -3.05437
| 98>    H       -2.80212        15.09881        -2.35695
| 99>    H       -4.49727        16.02488        -0.99472
|100>    H       -1.77278        13.44209         2.38701
|101>    H       -0.79852        17.79860         5.60828
|102>    H        0.32400        15.73018         6.70360
|103>    H       -3.20676        19.15482         2.83583
|104>    H       -0.34639        19.18294         3.90414
|105>    H       -3.62906        21.27782         3.67358
|106>    H        1.37655        20.59535         3.83149
|107>    H        2.53624        25.93234         4.49875
|108>    H        4.77940        24.62174         4.50582
|109>    H       -1.33539        25.78929         4.65126
|110>    H        1.04747        26.67017         2.94269
|111>    H       -0.31521        27.71173         3.58209
|112> *
|113>
|114>                          ****END OF INPUT****

CARTESIAN COORDINATES (ANGSTROEM)
---------------------------------
  C     -7.159890   -1.370220   -3.950100
  C     -6.524540   -0.532920   -4.792510
  S     -6.343800    1.072410   -4.167480
  C     -7.174670    0.623460   -2.701550
  C     -7.549250   -0.738530   -2.730220
  C     -8.215840   -1.289940   -1.640620
  C     -8.504340   -0.457020   -0.580210
  C     -8.135530    0.911100   -0.543590
  C     -8.633600    1.545680    0.634230
  C     -9.301410    0.703150    1.448560
  S     -9.382900   -0.919480    0.854030
  C     -7.419000    1.467620   -1.618990
  C     -6.942750    2.834720   -1.663100
  C     -6.485050    3.528430   -0.610460
  C     -6.012370    4.889490   -0.652040
  C     -6.061610    5.713050   -1.734360
  S     -5.441330    7.291260   -1.446010
  C     -5.079660    6.901960    0.216600
  C     -5.448380    5.564540    0.494190
  C     -5.267770    5.050800    1.773200
  C     -4.739870    5.884350    2.736340
  C     -4.387550    7.228110    2.478880
  C     -3.862670    7.852460    3.648510
  C     -3.831840    7.030930    4.719390
  S     -4.429230    5.443010    4.393620
  C     -4.555640    7.769740    1.183790
  C     -4.230980    9.151320    0.957190
  C     -4.014850    9.754380   -0.232200
  C     -3.750060   11.136740   -0.390900
  S     -3.682990   12.234540    0.950630
  C     -3.388340   13.607410   -0.055960
  C     -3.321230   13.231820   -1.395640
  C     -3.531180   11.824210   -1.589900
  C     -3.501110   11.289590   -2.890120
  C     -3.241400   12.111790   -3.959130
  C     -3.211600   11.583150   -5.268590
  N     -3.194340   11.137700   -6.324800
  C     -2.980620   13.506790   -3.759640
  C     -2.673840   14.321530   -4.872690
  N     -2.424440   15.000170   -5.762240
  C     -3.020800   14.051850   -2.501480
  C     -3.311600   14.938550    0.485970
  C     -3.895790   16.018800   -0.106420
  S     -3.667700   17.499130    0.739300
  C     -2.743440   16.681680    1.973850
  C     -2.635360   15.300800    1.706660
  C     -1.895590   14.497670    2.566850
  C     -1.322360   15.097940    3.669080
  C     -1.431200   16.482960    3.946730
  C     -0.792490   16.813750    5.179290
  C     -0.213860   15.751520    5.775850
  S     -0.400490   14.273080    4.896440
  C     -2.139890   17.312480    3.060350
  C     -2.272790   18.747980    3.202920
  C     -1.317270   19.578940    3.642980
  C     -1.459170   21.009770    3.748310
  C     -2.640830   21.688500    3.743440
  S     -2.484510   23.395770    3.894490
  C     -0.745970   23.256690    3.980050
  C     -0.338390   21.907910    3.886010
  C      1.018700   21.608960    3.914270
  C      1.905730   22.655730    4.057650
  C      1.500330   24.009670    4.154790
  C      2.621290   24.871710    4.351840
  C      3.796880   24.212500    4.372610
  S      3.639210   22.501780    4.159520
  C      0.135060   24.327790    4.089790
  C     -0.391270   25.687840    4.128150
  C      0.146910   26.740920    3.528960
  H     -7.359480   -2.404660   -4.165080
  H     -6.132110   -0.745970   -5.767810
  H     -8.507390   -2.327910   -1.634450
  H     -8.528180    2.595320    0.837590
  H     -9.772830    0.929540    2.385110
  H     -6.906980    3.269280   -2.653920
  H     -6.433920    3.044800    0.353630
  H     -6.430300    5.492400   -2.716450
  H     -5.531590    4.034600    2.016940
  H     -3.513970    8.868100    3.690430
  H     -3.484910    7.255780    5.709090
  H     -4.152600    9.761780    1.847340
  H     -4.019470    9.181360   -1.145810
  H     -3.677610   10.237520   -3.054370
  H     -2.802120   15.098810   -2.356950
  H     -4.497270   16.024880   -0.994720
  H     -1.772780   13.442090    2.387010
  H     -0.798520   17.798600    5.608280
  H      0.324000   15.730180    6.703600
  H     -3.206760   19.154820    2.835830
  H     -0.346390   19.182940    3.904140
  H     -3.629060   21.277820    3.673580
  H      1.376550   20.595350    3.831490
  H      2.536240   25.932340    4.498750
  H      4.779400   24.621740    4.505820
  H     -1.335390   25.789290    4.651260
  H      1.047470   26.670170    2.942690
  H     -0.315210   27.711730    3.582090

 Total Charge           Charge          ....    0
 Multiplicity           Mult            ....    1
 Number of Electrons    NEL             ....  534
 Basis Dimension        Dim             .... 1142

ORBITAL ENERGIES
----------------

  NO   OCC          E(Eh)            E(eV)
   0   2.0000     -88.985480     -2421.4180
   1   2.0000     -88.960223     -2420.7307
   2   2.0000     -88.956911     -2420.6406
   3   2.0000     -88.951888     -2420.5039
   4   2.0000     -88.951628     -2420.4969
   5   2.0000     -88.950548     -2420.4675
   6   2.0000     -88.944524     -2420.3035
   7   2.0000     -88.943451     -2420.2743
   8   2.0000     -88.942218     -2420.2408
   9   2.0000     -14.404058      -391.9543
  10   2.0000     -14.403671      -391.9438
  11   2.0000     -10.326192      -280.9900
  12   2.0000     -10.326019      -280.9853
  13   2.0000     -10.325602      -280.9739
  14   2.0000     -10.321463      -280.8613
  15   2.0000     -10.311015      -280.5770
  16   2.0000     -10.310782      -280.5706
  17   2.0000     -10.309643      -280.5397
  18   2.0000     -10.306243      -280.4471
  19   2.0000     -10.305849      -280.4364
  20   2.0000     -10.304960      -280.4122
  21   2.0000     -10.303488      -280.3721
  22   2.0000     -10.303294      -280.3669
  23   2.0000     -10.303137      -280.3626
  24   2.0000     -10.302761      -280.3524
  25   2.0000     -10.302472      -280.3445
  26   2.0000     -10.302299      -280.3398
  27   2.0000     -10.301525      -280.3188
  28   2.0000     -10.301271      -280.3118
  29   2.0000     -10.297750      -280.2160
  30   2.0000     -10.297714      -280.2150
  31   2.0000     -10.297370      -280.2057
  32   2.0000     -10.297132      -280.1992
  33   2.0000     -10.296269      -280.1757
  34   2.0000     -10.294618      -280.1308
  35   2.0000     -10.294432      -280.1257
  36   2.0000     -10.294324      -280.1228
  37   2.0000     -10.294186      -280.1191
  38   2.0000     -10.293045      -280.0880
  39   2.0000     -10.292765      -280.0804
  40   2.0000     -10.292729      -280.0794
  41   2.0000     -10.292545      -280.0744
  42   2.0000     -10.291222      -280.0384
  43   2.0000     -10.288313      -279.9592
  44   2.0000     -10.288202      -279.9562
  45   2.0000     -10.287586      -279.9394
  46   2.0000     -10.287303      -279.9318
  47   2.0000     -10.287006      -279.9237
  48   2.0000     -10.286324      -279.9051
  49   2.0000     -10.284716      -279.8613
  50   2.0000     -10.284320      -279.8506
  51   2.0000     -10.284268      -279.8492
  52   2.0000     -10.282064      -279.7892
  53   2.0000     -10.281900      -279.7847
  54   2.0000     -10.281600      -279.7766
  55   2.0000     -10.280722      -279.7527
  56   2.0000     -10.280007      -279.7332
  57   2.0000     -10.279317      -279.7144
  58   2.0000     -10.278842      -279.7015
  59   2.0000     -10.278601      -279.6950
  60   2.0000     -10.278297      -279.6867
  61   2.0000     -10.277787      -279.6728
  62   2.0000     -10.276926      -279.6494
  63   2.0000     -10.276565      -279.6396
  64   2.0000     -10.275998      -279.6241
  65   2.0000     -10.270055      -279.4624
  66   2.0000     -10.269579      -279.4495
  67   2.0000     -10.268965      -279.4327
  68   2.0000     -10.268589      -279.4225
  69   2.0000      -8.079999      -219.8679
  70   2.0000      -8.056150      -219.2190
  71   2.0000      -8.052253      -219.1130
  72   2.0000      -8.048203      -219.0027
  73   2.0000      -8.048043      -218.9984
  74   2.0000      -8.046494      -218.9562
  75   2.0000      -8.040882      -218.8035
  76   2.0000      -8.039508      -218.7661
  77   2.0000      -8.038692      -218.7439
  78   2.0000      -6.048867      -164.5980
  79   2.0000      -6.044780      -164.4868
  80   2.0000      -6.043093      -164.4409
  81   2.0000      -6.025657      -163.9665
  82   2.0000      -6.021889      -163.8639
  83   2.0000      -6.021468      -163.8525
  84   2.0000      -6.017820      -163.7532
  85   2.0000      -6.017771      -163.7519
  86   2.0000      -6.017653      -163.7487
  87   2.0000      -6.017434      -163.7427
  88   2.0000      -6.016035      -163.7046
  89   2.0000      -6.014032      -163.6501
  90   2.0000      -6.013600      -163.6384
  91   2.0000      -6.013451      -163.6343
  92   2.0000      -6.011768      -163.5885
  93   2.0000      -6.010516      -163.5544
  94   2.0000      -6.009640      -163.5306
  95   2.0000      -6.009441      -163.5252
  96   2.0000      -6.009124      -163.5166
  97   2.0000      -6.008315      -163.4946
  98   2.0000      -6.008163      -163.4904
  99   2.0000      -6.006309      -163.4400
 100   2.0000      -6.004877      -163.4010
 101   2.0000      -6.004122      -163.3805
 102   2.0000      -6.002268      -163.3300
 103   2.0000      -6.000998      -163.2955
 104   2.0000      -6.000044      -163.2695
 105   2.0000      -1.022995       -27.8371
 106   2.0000      -1.007762       -27.4226
 107   2.0000      -1.005081       -27.3496
 108   2.0000      -0.999308       -27.1925
 109   2.0000      -0.996356       -27.1122
 110   2.0000      -0.994245       -27.0548
 111   2.0000      -0.984311       -26.7845
 112   2.0000      -0.979670       -26.6582
 113   2.0000      -0.977730       -26.6054
 114   2.0000      -0.971695       -26.4412
 115   2.0000      -0.965772       -26.2800
 116   2.0000      -0.957193       -26.0465
 117   2.0000      -0.931294       -25.3418
 118   2.0000      -0.923644       -25.1336
 119   2.0000      -0.913531       -24.8585
 120   2.0000      -0.909742       -24.7553
 121   2.0000      -0.903469       -24.5846
 122   2.0000      -0.899254       -24.4700
 123   2.0000      -0.894515       -24.3410
 124   2.0000      -0.890177       -24.2229
 125   2.0000      -0.887659       -24.1544
 126   2.0000      -0.872676       -23.7467
 127   2.0000      -0.871749       -23.7215
 128   2.0000      -0.863616       -23.5002
 129   2.0000      -0.858259       -23.3544
 130   2.0000      -0.845759       -23.0143
 131   2.0000      -0.833412       -22.6783
 132   2.0000      -0.824029       -22.4230
 133   2.0000      -0.823256       -22.4019
 134   2.0000      -0.819066       -22.2879
 135   2.0000      -0.812417       -22.1070
 136   2.0000      -0.808980       -22.0135
 137   2.0000      -0.804111       -21.8810
 138   2.0000      -0.801084       -21.7986
 139   2.0000      -0.797181       -21.6924
 140   2.0000      -0.791013       -21.5245
 141   2.0000      -0.780416       -21.2362
 142   2.0000      -0.770177       -20.9576
 143   2.0000      -0.766486       -20.8571
 144   2.0000      -0.755317       -20.5532
 145   2.0000      -0.741838       -20.1864
 146   2.0000      -0.731542       -19.9063
 147   2.0000      -0.722133       -19.6502
 148   2.0000      -0.719786       -19.5864
 149   2.0000      -0.716424       -19.4949
 150   2.0000      -0.705123       -19.1874
 151   2.0000      -0.699320       -19.0295
 152   2.0000      -0.688342       -18.7307
 153   2.0000      -0.680557       -18.5189
 154   2.0000      -0.677644       -18.4396
 155   2.0000      -0.665344       -18.1049
 156   2.0000      -0.661146       -17.9907
 157   2.0000      -0.657156       -17.8821
 158   2.0000      -0.653051       -17.7704
 159   2.0000      -0.650317       -17.6960
 160   2.0000      -0.647925       -17.6309
 161   2.0000      -0.644035       -17.5251
 162   2.0000      -0.634562       -17.2673
 163   2.0000      -0.633983       -17.2516
 164   2.0000      -0.628715       -17.1082
 165   2.0000      -0.623545       -16.9675
 166   2.0000      -0.620450       -16.8833
 167   2.0000      -0.616581       -16.7780
 168   2.0000      -0.612514       -16.6673
 169   2.0000      -0.607733       -16.5373
 170   2.0000      -0.606425       -16.5017
 171   2.0000      -0.600345       -16.3362
 172   2.0000      -0.593541       -16.1511
 173   2.0000      -0.582487       -15.8503
 174   2.0000      -0.571443       -15.5498
 175   2.0000      -0.569194       -15.4886
 176   2.0000      -0.567762       -15.4496
 177   2.0000      -0.560536       -15.2530
 178   2.0000      -0.555786       -15.1237
 179   2.0000      -0.552156       -15.0249
 180   2.0000      -0.551582       -15.0093
 181   2.0000      -0.548214       -14.9177
 182   2.0000      -0.546149       -14.8615
 183   2.0000      -0.544542       -14.8177
 184   2.0000      -0.536068       -14.5871
 185   2.0000      -0.530648       -14.4397
 186   2.0000      -0.527363       -14.3503
 187   2.0000      -0.525376       -14.2962
 188   2.0000      -0.523073       -14.2335
 189   2.0000      -0.520893       -14.1742
 190   2.0000      -0.517928       -14.0935
 191   2.0000      -0.514987       -14.0135
 192   2.0000      -0.513619       -13.9763
 193   2.0000      -0.511249       -13.9118
 194   2.0000      -0.509755       -13.8711
 195   2.0000      -0.508668       -13.8416
 196   2.0000      -0.506249       -13.7757
 197   2.0000      -0.504998       -13.7417
 198   2.0000      -0.502455       -13.6725
 199   2.0000      -0.498161       -13.5556
 200   2.0000      -0.495849       -13.4927
 201   2.0000      -0.492289       -13.3959
 202   2.0000      -0.491237       -13.3672
 203   2.0000      -0.486945       -13.2504
 204   2.0000      -0.484440       -13.1823
 205   2.0000      -0.472757       -12.8644
 206   2.0000      -0.470915       -12.8142
 207   2.0000      -0.469599       -12.7784
 208   2.0000      -0.467977       -12.7343
 209   2.0000      -0.465937       -12.6788
 210   2.0000      -0.463573       -12.6145
 211   2.0000      -0.461166       -12.5490
 212   2.0000      -0.456412       -12.4196
 213   2.0000      -0.455925       -12.4063
 214   2.0000      -0.454644       -12.3715
 215   2.0000      -0.454055       -12.3555
 216   2.0000      -0.452655       -12.3174
 217   2.0000      -0.452033       -12.3005
 218   2.0000      -0.447977       -12.1901
 219   2.0000      -0.447275       -12.1710
 220   2.0000      -0.445065       -12.1108
 221   2.0000      -0.442568       -12.0429
 222   2.0000      -0.440410       -11.9842
 223   2.0000      -0.439399       -11.9567
 224   2.0000      -0.438404       -11.9296
 225   2.0000      -0.433039       -11.7836
 226   2.0000      -0.432236       -11.7618
 227   2.0000      -0.431154       -11.7323
 228   2.0000      -0.429994       -11.7007
 229   2.0000      -0.426636       -11.6094
 230   2.0000      -0.424943       -11.5633
 231   2.0000      -0.419533       -11.4161
 232   2.0000      -0.418877       -11.3982
 233   2.0000      -0.417155       -11.3514
 234   2.0000      -0.416141       -11.3238
 235   2.0000      -0.410621       -11.1736
 236   2.0000      -0.407291       -11.0830
 237   2.0000      -0.406326       -11.0567
 238   2.0000      -0.405767       -11.0415
 239   2.0000      -0.404645       -11.0109
 240   2.0000      -0.402003       -10.9391
 241   2.0000      -0.398092       -10.8326
 242   2.0000      -0.395433       -10.7603
 243   2.0000      -0.389672       -10.6035
 244   2.0000      -0.387292       -10.5388
 245   2.0000      -0.385110       -10.4794
 246   2.0000      -0.381971       -10.3940
 247   2.0000      -0.379363       -10.3230
 248   2.0000      -0.374926       -10.2023
 249   2.0000      -0.358109        -9.7446
 250   2.0000      -0.356335        -9.6964
 251   2.0000      -0.341338        -9.2883
 252   2.0000      -0.332221        -9.0402
 253   2.0000      -0.330690        -8.9985
 254   2.0000      -0.328884        -8.9494
 255   2.0000      -0.317209        -8.6317
 256   2.0000      -0.307132        -8.3575
 257   2.0000      -0.304347        -8.2817
 258   2.0000      -0.300984        -8.1902
 259   2.0000      -0.298627        -8.1261
 260   2.0000      -0.292167        -7.9503
 261   2.0000      -0.288206        -7.8425
 262   2.0000      -0.278477        -7.5777
 263   2.0000      -0.265863        -7.2345
 264   2.0000      -0.249894        -6.8000
 265   2.0000      -0.245068        -6.6687
 266   2.0000      -0.237023        -6.4497
 267   0.0000      -0.077665        -2.1134
 268   0.0000      -0.039282        -1.0689
 269   0.0000      -0.036796        -1.0013
 270   0.0000      -0.026292        -0.7154
 271   0.0000      -0.018908        -0.5145

MULLIKEN ATOMIC CHARGES
-----------------------
   0 C :    0.029627
   1 C :   -0.052346
   2 S :    0.086713
   3 C :   -0.135647
   4 C :    0.100541
   5 C :   -0.054529
   6 C :   -0.075761
   7 C :    0.037898
   8 C :   -0.000618
   9 C :   -0.054596
  10 S :    0.094173
  11 C :    0.102633
  12 C :   -0.062958
  13 C :   -0.004521
  14 C :    0.103970
  15 C :   -0.115941
  16 S :    0.087529
  17 C :   -0.154968
  18 C :    0.133489
  19 C :   -0.074375
  20 C :   -0.089688
  21 C :    0.046499
  22 C :    0.002942
  23 C :   -0.045525
  24 S :    0.107452
  25 C :    0.121496
  26 C :   -0.079023
  27 C :    0.002068
  28 C :   -0.105538
  29 S :    0.176901
  30 C :   -0.166117
  31 C :    0.153246
  32 C :    0.108896
  33 C :   -0.053041
  34 C :   -0.068571
  35 C :   -0.176973
  36 N :    0.168368
  37 C :   -0.074112
  38 C :   -0.175669
  39 N :    0.168365
  40 C :   -0.066704
  41 C :    0.091642
  42 C :   -0.118794
  43 S :    0.119174
  44 C :   -0.158889
  45 C :    0.121301
  46 C :   -0.070504
  47 C :   -0.086246
  48 C :    0.043899
  49 C :   -0.000452
  50 C :   -0.047958
  51 S :    0.100137
  52 C :    0.106384
  53 C :   -0.073402
  54 C :    0.000204
  55 C :    0.099146
  56 C :   -0.126912
  57 S :    0.110081
  58 C :   -0.147149
  59 C :    0.120387
  60 C :   -0.073513
  61 C :   -0.081166
  62 C :    0.045328
  63 C :    0.002647
  64 C :   -0.051676
  65 S :    0.096335
  66 C :    0.072757
  67 C :   -0.079223
  68 C :   -0.012086
  69 H :   -0.018252
  70 H :    0.027447
  71 H :   -0.034639
  72 H :   -0.013875
  73 H :    0.025176
  74 H :   -0.005274
  75 H :   -0.009533
  76 H :    0.026842
  77 H :   -0.030686
  78 H :   -0.017423
  79 H :    0.028161
  80 H :   -0.012012
  81 H :    0.010020
  82 H :   -0.002049
  83 H :   -0.000138
  84 H :    0.033294
  85 H :   -0.035023
  86 H :   -0.009710
  87 H :    0.029377
  88 H :   -0.002538
  89 H :   -0.004299
  90 H :    0.022531
  91 H :   -0.034996
  92 H :   -0.014181
  93 H :    0.026247
  94 H :    0.011146
  95 H :    0.030752
  96 H :    0.026601
Sum of atomic charges:   -0.0000000

LOEWDIN ATOMIC CHARGES
----------------------
   0 C :   -0.060067
   1 C :   -0.161013
   2 S :    0.390629
   3 C :   -0.151909
   4 C :   -0.047984
   5 C :   -0.036205
   6 C :   -0.154869
   7 C :   -0.042595
   8 C :   -0.068482
   9 C :   -0.161829
  10 S :    0.389313
  11 C :   -0.040228
  12 C :   -0.015868
  13 C :   -0.016534
  14 C :   -0.061541
  15 C :   -0.162104
  16 S :    0.424056
  17 C :   -0.147787
  18 C :   -0.038181
  19 C :   -0.031358
  20 C :   -0.155394
  21 C :   -0.037865
  22 C :   -0.068057
  23 C :   -0.155468
  24 S :    0.399206
  25 C :   -0.041073
  26 C :   -0.020278
  27 C :   -0.050780
  28 C :   -0.168535
  29 S :    0.507534
  30 C :   -0.160338
  31 C :   -0.046636
  32 C :   -0.045712
  33 C :    0.034133
  34 C :   -0.057536
  35 C :   -0.032540
  36 N :   -0.040423
  37 C :   -0.059629
  38 C :   -0.032508
  39 N :   -0.040754
  40 C :    0.033242
  41 C :   -0.083443
  42 C :   -0.159620
  43 S :    0.420797
  44 C :   -0.150779
  45 C :   -0.044818
  46 C :   -0.046825
  47 C :   -0.152155
  48 C :   -0.040173
  49 C :   -0.065424
  50 C :   -0.157395
  51 S :    0.394364
  52 C :   -0.034667
  53 C :   -0.028497
  54 C :   -0.005419
  55 C :   -0.068186
  56 C :   -0.160008
  57 S :    0.411517
  58 C :   -0.151023
  59 C :   -0.040086
  60 C :   -0.041029
  61 C :   -0.152566
  62 C :   -0.040436
  63 C :   -0.064168
  64 C :   -0.160097
  65 S :    0.390018
  66 C :   -0.038532
  67 C :   -0.027128
  68 C :   -0.032207
  69 H :    0.030465
  70 H :    0.024937
  71 H :    0.029676
  72 H :    0.029755
  73 H :    0.024091
  74 H :    0.021553
  75 H :    0.028303
  76 H :    0.024673
  77 H :    0.029999
  78 H :    0.028736
  79 H :    0.026037
  80 H :    0.020688
  81 H :    0.017021
  82 H :    0.042869
  83 H :    0.043390
  84 H :    0.027533
  85 H :    0.018129
  86 H :    0.032141
  87 H :    0.025965
  88 H :    0.021538
  89 H :    0.029504
  90 H :    0.022626
  91 H :    0.027923
  92 H :    0.030875
  93 H :    0.024621
  94 H :    0.026516
  95 H :    0.025281
  96 H :    0.027112

  Mayer bond orders larger than 0.100000
B(  0-C ,  1-C ) :   1.6541 B(  0-C ,  4-C ) :   1.1497 B(  0-C , 69-H ) :   0.9977
B(  1-C ,  2-S ) :   1.1062 B(  1-C , 70-H ) :   0.9695 B(  2-S ,  3-C ) :   1.0662
B(  3-C ,  4-C ) :   1.2947 B(  3-C , 11-C ) :   1.3907 B(  4-C ,  5-C ) :   1.3314
B(  5-C ,  6-C ) :   1.3802 B(  5-C , 71-H ) :   1.0020 B(  6-C ,  7-C ) :   1.2898
B(  6-C , 10-S ) :   1.0508 B(  7-C ,  8-C ) :   1.1790 B(  7-C , 11-C ) :   1.3201
B(  8-C ,  9-C ) :   1.6419 B(  8-C , 72-H ) :   0.9900 B(  9-C , 10-S ) :   1.1165
B(  9-C , 73-H ) :   0.9656 B( 11-C , 12-C ) :   1.0382 B( 12-C , 13-C ) :   1.7680
B( 12-C , 74-H ) :   0.9578 B( 13-C , 14-C ) :   1.0783 B( 13-C , 75-H ) :   0.9704
B( 14-C , 15-C ) :   1.6125 B( 14-C , 18-C ) :   1.1092 B( 15-C , 16-S ) :   1.1043
B( 15-C , 76-H ) :   0.9541 B( 16-S , 17-C ) :   1.0723 B( 17-C , 18-C ) :   1.3000
B( 17-C , 25-C ) :   1.3662 B( 18-C , 19-C ) :   1.3433 B( 19-C , 20-C ) :   1.3791
B( 19-C , 77-H ) :   0.9917 B( 20-C , 21-C ) :   1.2994 B( 20-C , 24-S ) :   1.0612
B( 21-C , 22-C ) :   1.1873 B( 21-C , 25-C ) :   1.2807 B( 22-C , 23-C ) :   1.6456
B( 22-C , 78-H ) :   0.9873 B( 23-C , 24-S ) :   1.1219 B( 23-C , 79-H ) :   0.9645
B( 25-C , 26-C ) :   1.1042 B( 26-C , 27-C ) :   1.6543 B( 26-C , 80-H ) :   0.9697
B( 27-C , 28-C ) :   1.1830 B( 27-C , 81-H ) :   0.9473 B( 28-C , 29-S ) :   1.1389
B( 28-C , 30-C ) :   0.1152 B( 28-C , 32-C ) :   1.3350 B( 29-S , 30-C ) :   1.1832
B( 30-C , 31-C ) :   1.4016 B( 30-C , 41-C ) :   1.0076 B( 31-C , 32-C ) :   1.1704
B( 31-C , 40-C ) :   1.1717 B( 32-C , 33-C ) :   1.1903 B( 33-C , 34-C ) :   1.5777
B( 33-C , 82-H ) :   0.9942 B( 34-C , 35-C ) :   1.0792 B( 34-C , 37-C ) :   1.2212
B( 35-C , 36-N ) :   3.0419 B( 37-C , 38-C ) :   1.0788 B( 37-C , 40-C ) :   1.5759
B( 38-C , 39-N ) :   3.0442 B( 40-C , 83-H ) :   0.9972 B( 41-C , 42-C ) :   1.6015
B( 41-C , 45-C ) :   1.1419 B( 42-C , 43-S ) :   1.1154 B( 42-C , 84-H ) :   0.9670
B( 43-S , 44-C ) :   1.0693 B( 44-C , 45-C ) :   1.2839 B( 44-C , 52-C ) :   1.3877
B( 45-C , 46-C ) :   1.3406 B( 46-C , 47-C ) :   1.3913 B( 46-C , 85-H ) :   0.9801
B( 47-C , 48-C ) :   1.2887 B( 47-C , 51-S ) :   1.0604 B( 48-C , 49-C ) :   1.1811
B( 48-C , 52-C ) :   1.3164 B( 49-C , 50-C ) :   1.6420 B( 49-C , 86-H ) :   0.9918
B( 50-C , 51-S ) :   1.1139 B( 50-C , 87-H ) :   0.9655 B( 52-C , 53-C ) :   1.0373
B( 53-C , 54-C ) :   1.7727 B( 53-C , 88-H ) :   0.9562 B( 54-C , 55-C ) :   1.0752
B( 54-C , 89-H ) :   0.9680 B( 55-C , 56-C ) :   1.6007 B( 55-C , 59-C ) :   1.1143
B( 56-C , 57-S ) :   1.1157 B( 56-C , 90-H ) :   0.9566 B( 57-S , 58-C ) :   1.0659
B( 58-C , 59-C ) :   1.2924 B( 58-C , 66-C ) :   1.4054 B( 59-C , 60-C ) :   1.3501
B( 60-C , 61-C ) :   1.3841 B( 60-C , 91-H ) :   0.9923 B( 61-C , 62-C ) :   1.2877
B( 61-C , 65-S ) :   1.0586 B( 62-C , 63-C ) :   1.1760 B( 62-C , 66-C ) :   1.3355
B( 63-C , 64-C ) :   1.6444 B( 63-C , 92-H ) :   0.9916 B( 64-C , 65-S ) :   1.1114
B( 64-C , 93-H ) :   0.9667 B( 66-C , 67-C ) :   1.0277 B( 67-C , 68-C ) :   1.9748
B( 67-C , 94-H ) :   0.9536 B( 68-C , 95-H ) :   0.9608 B( 68-C , 96-H ) :   0.9492

-----------------------------------------------------------------------------
         ABSORPTION SPECTRUM VIA TRANSITION ELECTRIC DIPOLE MOMENTS
-----------------------------------------------------------------------------
State   Energy  Wavelength   fosc         T2         TX        TY        TZ
        (cm-1)    (nm)                  (au**2)     (au)      (au)      (au)
-----------------------------------------------------------------------------
   0   19123.9    522.9   0.739364374  12.72795   0.78893   3.44311  -0.50054
   1   23388.6    427.6   0.033356167   0.46951   0.16806   0.06636  -0.66096
   2   25560.0    391.2   0.034944847   0.45009  -0.11296  -0.58602   0.30645
   3   27909.3    358.3   0.708973626   8.36290  -0.81946  -2.67568   0.72945
   4   28270.2    353.7   0.449472172   5.23419  -0.23634   2.25965   0.26889
   5   28931.8    345.6   0.154118634   1.75370  -0.01197  -0.43602  -1.25038
   6   29614.6    337.7   0.071106929   0.79046  -0.61475  -0.52222  -0.37394
   7   30363.9    329.3   0.025597808   0.27754   0.19133  -0.43821   0.22113
   8   30460.2    328.3   0.124896251   1.34987  -0.08982   1.15740   0.04708
   9   31092.0    321.6   0.069534695   0.73626  -0.39081  -0.59746   0.47599
  10   32122.1    311.3   0.012611747   0.12926   0.12579  -0.26781   0.20423
  11   32470.5    308.0   0.016233616   0.16459  -0.16671  -0.28906  -0.23074
  12   32824.3    304.7   0.006038397   0.06056  -0.18115   0.16574   0.01656
  13   33161.7    301.6   0.060496464   0.60058   0.70364  -0.29855  -0.12779
  14   33548.2    298.1   0.002600671   0.02552   0.07641  -0.06393   0.12488
  15   34093.4    293.3   0.192095217   1.85491   0.23118   1.24247  -0.50766
  16   34718.3    288.0   0.148500510   1.40814   0.27546   1.00018   0.57611
  17   35156.6    284.4   0.065767270   0.61586   0.76373   0.00559   0.18041
  18   35405.9    282.4   0.047455860   0.44125   0.43945   0.32909  -0.37395
  19   36019.5    277.6   0.090170158   0.82414   0.32457   0.45806   0.71342
  20   36378.4    274.9   0.108969674   0.98614   0.56812   0.46670   0.66751
  21   37061.0    269.8   0.095882668   0.85172   0.04914   0.19677   0.90033
  22   37298.9    268.1   0.337865834   2.98211   0.05196  -0.27990  -1.70325
  23   37485.4    266.8   0.032711244   0.28728   0.36312   0.05619  -0.39022
  24   37778.5    264.7   0.074571588   0.64984  -0.15252  -0.06549   0.78885
  25   37981.6    263.3   0.035022325   0.30356   0.17908  -0.33229  -0.40134
  26   38319.8    261.0   0.099568867   0.85541   0.24242   0.53163  -0.71694
  27   38464.3    260.0   0.140983971   1.20667  -0.08059   0.51652  -0.96611
  28   38914.9    257.0   0.111241216   0.94108   0.48677  -0.40352   0.73573
  29   39136.8    255.5   0.058636572   0.49324  -0.11628   0.69243   0.01595
  30   39470.5    253.4   0.018901702   0.15765   0.36076  -0.12375   0.11042
  31   39710.9    251.8   0.080785168   0.66973  -0.39357  -0.16914   0.69729
  32   40002.0    250.0   0.083956362   0.69095   0.35769   0.66696  -0.34377
  33   40146.2    249.1   0.093918858   0.77016  -0.67440  -0.07915   0.55595

FINAL SINGLE POINT ENERGY     -5916.140901438961

DIPOLE MOMENT
-------------
                                X             Y             Z
Electronic contribution:     -4.10947     -14.74655     -10.50011
Nuclear contribution   :      3.85599      14.78089      14.21273
                        -----------------------------------------
Total Dipole Moment    :     -0.25348       0.03435       3.71262
                        -----------------------------------------
Magnitude (a.u.)       :      3.72142
Magnitude (Debye)      :      9.45910

Rotational constants in cm-1:     0.001968     0.000206     0.000193
Rotational constants in MHz :    59.003748     6.164736     5.798553

                             ****ORCA TERMINATED NORMALLY****
TOTAL RUN TIME: 0 days 0 hours 9 minutes 9 seconds 880 msec
