                         Program Version 4.2.0 -  RELEASE  -
|  1> # ORCA input file
|  2> # SCF done       -182.826574757492          0.000723156349
|  3> ! CAM-B3LYP def2-SVP def2/J RIJCOSX Grid4 TightSCF
|  4> %maxcore 5000
|  5> %tddft
|  6>     Mode sTDDFT
|  7>     Ethresh 5.0
|  8>     maxcore 5000
|  9> end
| 10>
| 11> %pal
| 12>   nprocs 6
| 13>   end
| 14> * xyz 0 1
| 15>    C        1.68642         1.01823        -1.47859
| 16>    S        2.94770        -0.10464        -1.71795
| 17>    C        2.26680        -1.22194        -0.56027
| 18>    C        1.10237        -0.70437        -0.03325
| 19>    C        0.77186         0.57945        -0.56035
| 20>    C       -0.36570         1.32532        -0.18577
| 21>    N       -1.28334         1.94383         0.10792
| 22>    C        0.18725        -1.31896         0.97892
| 23>    F        0.54431        -2.54408         1.38479
| 24>    F        0.10366        -0.56682         2.09041
| 25>    F       -1.06456        -1.43679         0.50203
| 26>    C        2.91951        -2.46591        -0.28527
| 27>    C        4.02023        -2.88135        -0.93818
| 28>    C        4.71946        -4.12646        -0.72428
| 29>    C        4.41298        -5.00797         0.31080
| 30>    C        5.10489        -6.19882         0.45854
| 31>    N        4.66211        -7.07074         1.51566
| 32>    O        4.07511        -6.56519         2.44751
| 33>    O        4.88112        -8.26159         1.40924
| 34>    C        6.14827        -6.56831        -0.41354
| 35>    C        6.44151        -5.67265        -1.44952
| 36>    C        5.75428        -4.49149        -1.59978
| 37>    C        6.91459        -7.78027        -0.22478
| 38>    C        7.46574        -8.47966        -1.23530
| 39>    C        8.19792        -9.70331        -1.15362
| 40>    N        8.20215       -10.63638        -0.14927
| 41>    C        7.46579       -10.63516         1.09423
| 42>    C        8.28280       -10.00940         2.22350
| 43>    C        9.04835       -11.72103        -0.44841
| 44>    O        9.20404       -12.67642         0.28718
| 45>    C        9.59345       -11.41218        -1.74900
| 46>    C        9.03305       -10.17360        -2.16253
| 47>    C        9.61124        -9.82393        -3.43328
| 48>    O        9.50881        -8.84066        -4.14455
| 49>    N       10.46129       -10.90848        -3.73618
| 50>    C       11.16012       -10.98403        -4.99455
| 51>    C       10.53880       -12.01834        -5.92953
| 52>    C       10.47718       -11.84634        -2.72452
| 53>    C       11.38919       -12.93910        -2.68168
| 54>    C       11.48761       -13.77898        -1.63064
| 55>    C       12.58001       -14.71337        -1.47837
| 56>    C       12.46633       -15.97251        -0.95861
| 57>    S       13.94581       -16.83856        -0.97851
| 58>    C       14.76266       -15.50904        -1.67949
| 59>    C       13.93551       -14.44265        -1.87819
| 60>    C       14.39042       -13.14003        -2.38806
| 61>    O       15.13721       -12.94954        -3.30963
| 62>    O       13.81760       -12.13212        -1.66467
| 63>    C       13.71916       -10.90365        -2.22815
| 64>    C       12.88482        -9.99116        -1.71359
| 65>    C       12.56943        -8.75562        -2.35487
| 66>    S       13.23100        -8.29071        -3.88421
| 67>    C       12.23911        -6.86767        -3.96922
| 68>    C       11.46340        -6.74924        -2.84110
| 69>    C       11.63981        -7.82240        -1.92371
| 70>    C       10.93330        -7.97713        -0.71964
| 71>    N       10.35374        -8.13787         0.25682
| 72>    C       10.56715        -5.59049        -2.55517
| 73>    F       11.10218        -4.41758        -2.93951
| 74>    F        9.37081        -5.66798        -3.16854
| 75>    F       10.29213        -5.45380        -1.24974
| 76>    C       12.34164        -6.04453        -5.15327
| 77>    C       11.34377        -5.36823        -5.71029
| 78>    H        1.67003         1.94426        -2.01823
| 79>    H        2.47453        -3.08041         0.48023
| 80>    H        4.43208        -2.25103        -1.71772
| 81>    H        3.62607        -4.79210         1.01722
| 82>    H        7.24415        -5.90898        -2.12726
| 83>    H        6.01597        -3.82761        -2.41040
| 84>    H        7.03131        -8.11762         0.79116
| 85>    H        7.37899        -8.11415        -2.25140
| 86>    H        7.26957       -11.68448         1.33514
| 87>    H        6.51156       -10.12537         0.95420
| 88>    H        9.12036       -10.65607         2.47257
| 89>    H        7.65875        -9.88901         3.10450
| 90>    H        8.68217        -9.04247         1.92807
| 91>    H       12.21870       -11.20564        -4.82289
| 92>    H       11.07911        -9.98829        -5.44093
| 93>    H       10.57707       -13.01274        -5.49054
| 94>    H       11.07704       -12.03116        -6.87318
| 95>    H        9.49918       -11.76630        -6.12374
| 96>    H       12.07978       -13.03541        -3.51031
| 97>    H       10.74705       -13.75070        -0.84247
| 98>    H       11.57561       -16.44306        -0.59283
| 99>    H       15.81548       -15.55824        -1.87459
|100>    H       14.28851       -10.75062        -3.13968
|101>    H       12.35871       -10.21029        -0.79479
|102>    H       13.31741        -6.06075        -5.62185
|103>    H       10.34317        -5.38038        -5.31778
|104>    H       11.50185        -4.79405        -6.60613
|105> *
|106>
|107>                          ****END OF INPUT****

CARTESIAN COORDINATES (ANGSTROEM)
---------------------------------
  C      1.686420    1.018230   -1.478590
  S      2.947700   -0.104640   -1.717950
  C      2.266800   -1.221940   -0.560270
  C      1.102370   -0.704370   -0.033250
  C      0.771860    0.579450   -0.560350
  C     -0.365700    1.325320   -0.185770
  N     -1.283340    1.943830    0.107920
  C      0.187250   -1.318960    0.978920
  F      0.544310   -2.544080    1.384790
  F      0.103660   -0.566820    2.090410
  F     -1.064560   -1.436790    0.502030
  C      2.919510   -2.465910   -0.285270
  C      4.020230   -2.881350   -0.938180
  C      4.719460   -4.126460   -0.724280
  C      4.412980   -5.007970    0.310800
  C      5.104890   -6.198820    0.458540
  N      4.662110   -7.070740    1.515660
  O      4.075110   -6.565190    2.447510
  O      4.881120   -8.261590    1.409240
  C      6.148270   -6.568310   -0.413540
  C      6.441510   -5.672650   -1.449520
  C      5.754280   -4.491490   -1.599780
  C      6.914590   -7.780270   -0.224780
  C      7.465740   -8.479660   -1.235300
  C      8.197920   -9.703310   -1.153620
  N      8.202150  -10.636380   -0.149270
  C      7.465790  -10.635160    1.094230
  C      8.282800  -10.009400    2.223500
  C      9.048350  -11.721030   -0.448410
  O      9.204040  -12.676420    0.287180
  C      9.593450  -11.412180   -1.749000
  C      9.033050  -10.173600   -2.162530
  C      9.611240   -9.823930   -3.433280
  O      9.508810   -8.840660   -4.144550
  N     10.461290  -10.908480   -3.736180
  C     11.160120  -10.984030   -4.994550
  C     10.538800  -12.018340   -5.929530
  C     10.477180  -11.846340   -2.724520
  C     11.389190  -12.939100   -2.681680
  C     11.487610  -13.778980   -1.630640
  C     12.580010  -14.713370   -1.478370
  C     12.466330  -15.972510   -0.958610
  S     13.945810  -16.838560   -0.978510
  C     14.762660  -15.509040   -1.679490
  C     13.935510  -14.442650   -1.878190
  C     14.390420  -13.140030   -2.388060
  O     15.137210  -12.949540   -3.309630
  O     13.817600  -12.132120   -1.664670
  C     13.719160  -10.903650   -2.228150
  C     12.884820   -9.991160   -1.713590
  C     12.569430   -8.755620   -2.354870
  S     13.231000   -8.290710   -3.884210
  C     12.239110   -6.867670   -3.969220
  C     11.463400   -6.749240   -2.841100
  C     11.639810   -7.822400   -1.923710
  C     10.933300   -7.977130   -0.719640
  N     10.353740   -8.137870    0.256820
  C     10.567150   -5.590490   -2.555170
  F     11.102180   -4.417580   -2.939510
  F      9.370810   -5.667980   -3.168540
  F     10.292130   -5.453800   -1.249740
  C     12.341640   -6.044530   -5.153270
  C     11.343770   -5.368230   -5.710290
  H      1.670030    1.944260   -2.018230
  H      2.474530   -3.080410    0.480230
  H      4.432080   -2.251030   -1.717720
  H      3.626070   -4.792100    1.017220
  H      7.244150   -5.908980   -2.127260
  H      6.015970   -3.827610   -2.410400
  H      7.031310   -8.117620    0.791160
  H      7.378990   -8.114150   -2.251400
  H      7.269570  -11.684480    1.335140
  H      6.511560  -10.125370    0.954200
  H      9.120360  -10.656070    2.472570
  H      7.658750   -9.889010    3.104500
  H      8.682170   -9.042470    1.928070
  H     12.218700  -11.205640   -4.822890
  H     11.079110   -9.988290   -5.440930
  H     10.577070  -13.012740   -5.490540
  H     11.077040  -12.031160   -6.873180
  H      9.499180  -11.766300   -6.123740
  H     12.079780  -13.035410   -3.510310
  H     10.747050  -13.750700   -0.842470
  H     11.575610  -16.443060   -0.592830
  H     15.815480  -15.558240   -1.874590
  H     14.288510  -10.750620   -3.139680
  H     12.358710  -10.210290   -0.794790
  H     13.317410   -6.060750   -5.621850
  H     10.343170   -5.380380   -5.317780
  H     11.501850   -4.794050   -6.606130

 Total Charge           Charge          ....    0
 Multiplicity           Mult            ....    1
 Number of Electrons    NEL             ....  470
 Basis Dimension        Dim             .... 1029

ORBITAL ENERGIES
----------------

  NO   OCC          E(Eh)            E(eV)
   0   2.0000     -88.990422     -2421.5525
   1   2.0000     -88.985105     -2421.4078
   2   2.0000     -88.977366     -2421.1972
   3   2.0000     -24.810665      -675.1325
   4   2.0000     -24.808672      -675.0783
   5   2.0000     -24.806529      -675.0200
   6   2.0000     -24.801448      -674.8817
   7   2.0000     -24.799001      -674.8151
   8   2.0000     -24.798606      -674.8044
   9   2.0000     -19.292396      -524.9728
  10   2.0000     -19.249413      -523.8032
  11   2.0000     -19.248221      -523.7707
  12   2.0000     -19.232424      -523.3409
  13   2.0000     -19.185569      -522.0659
  14   2.0000     -19.185514      -522.0644
  15   2.0000     -14.654116      -398.7588
  16   2.0000     -14.450185      -393.2095
  17   2.0000     -14.446775      -393.1167
  18   2.0000     -14.412365      -392.1804
  19   2.0000     -14.409881      -392.1128
  20   2.0000     -10.528521      -286.4956
  21   2.0000     -10.527811      -286.4763
  22   2.0000     -10.428679      -283.7788
  23   2.0000     -10.369683      -282.1734
  24   2.0000     -10.366663      -282.0912
  25   2.0000     -10.357030      -281.8291
  26   2.0000     -10.342488      -281.4334
  27   2.0000     -10.339818      -281.3607
  28   2.0000     -10.336675      -281.2752
  29   2.0000     -10.335543      -281.2444
  30   2.0000     -10.334228      -281.2086
  31   2.0000     -10.333640      -281.1927
  32   2.0000     -10.333275      -281.1827
  33   2.0000     -10.332359      -281.1578
  34   2.0000     -10.326718      -281.0043
  35   2.0000     -10.320772      -280.8425
  36   2.0000     -10.318614      -280.7838
  37   2.0000     -10.315230      -280.6917
  38   2.0000     -10.314693      -280.6771
  39   2.0000     -10.314539      -280.6729
  40   2.0000     -10.310284      -280.5571
  41   2.0000     -10.309052      -280.5236
  42   2.0000     -10.308624      -280.5119
  43   2.0000     -10.306175      -280.4453
  44   2.0000     -10.304304      -280.3944
  45   2.0000     -10.303626      -280.3759
  46   2.0000     -10.303433      -280.3707
  47   2.0000     -10.301568      -280.3199
  48   2.0000     -10.299424      -280.2616
  49   2.0000     -10.299269      -280.2574
  50   2.0000     -10.299135      -280.2537
  51   2.0000     -10.296543      -280.1832
  52   2.0000     -10.292845      -280.0826
  53   2.0000     -10.291738      -280.0524
  54   2.0000     -10.291472      -280.0452
  55   2.0000     -10.290340      -280.0144
  56   2.0000     -10.289434      -279.9897
  57   2.0000     -10.287652      -279.9412
  58   2.0000     -10.283876      -279.8385
  59   2.0000     -10.264974      -279.3241
  60   2.0000     -10.253836      -279.0211
  61   2.0000     -10.253190      -279.0035
  62   2.0000     -10.239909      -278.6421
  63   2.0000      -8.086295      -220.0393
  64   2.0000      -8.080561      -219.8832
  65   2.0000      -8.073642      -219.6950
  66   2.0000      -6.055492      -164.7783
  67   2.0000      -6.051165      -164.6606
  68   2.0000      -6.049732      -164.6216
  69   2.0000      -6.048670      -164.5927
  70   2.0000      -6.045672      -164.5111
  71   2.0000      -6.042793      -164.4328
  72   2.0000      -6.042758      -164.4318
  73   2.0000      -6.038294      -164.3103
  74   2.0000      -6.036302      -164.2561
  75   2.0000      -1.396754       -38.0076
  76   2.0000      -1.394114       -37.9358
  77   2.0000      -1.329571       -36.1795
  78   2.0000      -1.298575       -35.3360
  79   2.0000      -1.298538       -35.3350
  80   2.0000      -1.295117       -35.2419
  81   2.0000      -1.290774       -35.1238
  82   2.0000      -1.224442       -33.3188
  83   2.0000      -1.147820       -31.2338
  84   2.0000      -1.131244       -30.7827
  85   2.0000      -1.127511       -30.6811
  86   2.0000      -1.120677       -30.4952
  87   2.0000      -1.057732       -28.7823
  88   2.0000      -1.048702       -28.5366
  89   2.0000      -1.026494       -27.9323
  90   2.0000      -1.024578       -27.8802
  91   2.0000      -1.003731       -27.3129
  92   2.0000      -0.995533       -27.0898
  93   2.0000      -0.993277       -27.0284
  94   2.0000      -0.990380       -26.9496
  95   2.0000      -0.936606       -25.4864
  96   2.0000      -0.928364       -25.2621
  97   2.0000      -0.923642       -25.1336
  98   2.0000      -0.911658       -24.8075
  99   2.0000      -0.907125       -24.6841
 100   2.0000      -0.903612       -24.5885
 101   2.0000      -0.899555       -24.4781
 102   2.0000      -0.894471       -24.3398
 103   2.0000      -0.884586       -24.0708
 104   2.0000      -0.872959       -23.7544
 105   2.0000      -0.863399       -23.4943
 106   2.0000      -0.860636       -23.4191
 107   2.0000      -0.844540       -22.9811
 108   2.0000      -0.839581       -22.8462
 109   2.0000      -0.836962       -22.7749
 110   2.0000      -0.812017       -22.0961
 111   2.0000      -0.804899       -21.9024
 112   2.0000      -0.793334       -21.5877
 113   2.0000      -0.791330       -21.5332
 114   2.0000      -0.781034       -21.2530
 115   2.0000      -0.769089       -20.9280
 116   2.0000      -0.760813       -20.7028
 117   2.0000      -0.752512       -20.4769
 118   2.0000      -0.742885       -20.2149
 119   2.0000      -0.733970       -19.9723
 120   2.0000      -0.722482       -19.6597
 121   2.0000      -0.715176       -19.4609
 122   2.0000      -0.714598       -19.4452
 123   2.0000      -0.701982       -19.1019
 124   2.0000      -0.701756       -19.0958
 125   2.0000      -0.700949       -19.0738
 126   2.0000      -0.690768       -18.7968
 127   2.0000      -0.681483       -18.5441
 128   2.0000      -0.680127       -18.5072
 129   2.0000      -0.677956       -18.4481
 130   2.0000      -0.677006       -18.4223
 131   2.0000      -0.675264       -18.3749
 132   2.0000      -0.674113       -18.3435
 133   2.0000      -0.670461       -18.2442
 134   2.0000      -0.669742       -18.2246
 135   2.0000      -0.665948       -18.1214
 136   2.0000      -0.651286       -17.7224
 137   2.0000      -0.645933       -17.5767
 138   2.0000      -0.641680       -17.4610
 139   2.0000      -0.633338       -17.2340
 140   2.0000      -0.629735       -17.1360
 141   2.0000      -0.624521       -16.9941
 142   2.0000      -0.615144       -16.7389
 143   2.0000      -0.599571       -16.3152
 144   2.0000      -0.597428       -16.2568
 145   2.0000      -0.592257       -16.1161
 146   2.0000      -0.589976       -16.0541
 147   2.0000      -0.589435       -16.0393
 148   2.0000      -0.580880       -15.8065
 149   2.0000      -0.579765       -15.7762
 150   2.0000      -0.572486       -15.5781
 151   2.0000      -0.570933       -15.5359
 152   2.0000      -0.568707       -15.4753
 153   2.0000      -0.566597       -15.4179
 154   2.0000      -0.565456       -15.3869
 155   2.0000      -0.560833       -15.2610
 156   2.0000      -0.558690       -15.2027
 157   2.0000      -0.557062       -15.1584
 158   2.0000      -0.555128       -15.1058
 159   2.0000      -0.553704       -15.0671
 160   2.0000      -0.548264       -14.9190
 161   2.0000      -0.543003       -14.7759
 162   2.0000      -0.540144       -14.6981
 163   2.0000      -0.533554       -14.5187
 164   2.0000      -0.529032       -14.3957
 165   2.0000      -0.528006       -14.3678
 166   2.0000      -0.526798       -14.3349
 167   2.0000      -0.526529       -14.3276
 168   2.0000      -0.525749       -14.3064
 169   2.0000      -0.521003       -14.1772
 170   2.0000      -0.519889       -14.1469
 171   2.0000      -0.516936       -14.0665
 172   2.0000      -0.515691       -14.0327
 173   2.0000      -0.509203       -13.8561
 174   2.0000      -0.506067       -13.7708
 175   2.0000      -0.504504       -13.7283
 176   2.0000      -0.501920       -13.6579
 177   2.0000      -0.501299       -13.6410
 178   2.0000      -0.500488       -13.6190
 179   2.0000      -0.499131       -13.5820
 180   2.0000      -0.496312       -13.5053
 181   2.0000      -0.494517       -13.4565
 182   2.0000      -0.492544       -13.4028
 183   2.0000      -0.491465       -13.3734
 184   2.0000      -0.490649       -13.3512
 185   2.0000      -0.489009       -13.3066
 186   2.0000      -0.487579       -13.2677
 187   2.0000      -0.487336       -13.2611
 188   2.0000      -0.480942       -13.0871
 189   2.0000      -0.475463       -12.9380
 190   2.0000      -0.471723       -12.8362
 191   2.0000      -0.465606       -12.6698
 192   2.0000      -0.464550       -12.6411
 193   2.0000      -0.460287       -12.5250
 194   2.0000      -0.458552       -12.4778
 195   2.0000      -0.455306       -12.3895
 196   2.0000      -0.453867       -12.3504
 197   2.0000      -0.451472       -12.2852
 198   2.0000      -0.450981       -12.2718
 199   2.0000      -0.449389       -12.2285
 200   2.0000      -0.445678       -12.1275
 201   2.0000      -0.445320       -12.1178
 202   2.0000      -0.443961       -12.0808
 203   2.0000      -0.440890       -11.9972
 204   2.0000      -0.439864       -11.9693
 205   2.0000      -0.438022       -11.9192
 206   2.0000      -0.434910       -11.8345
 207   2.0000      -0.432517       -11.7694
 208   2.0000      -0.430315       -11.7095
 209   2.0000      -0.421226       -11.4621
 210   2.0000      -0.418210       -11.3801
 211   2.0000      -0.415391       -11.3034
 212   2.0000      -0.413227       -11.2445
 213   2.0000      -0.408235       -11.1086
 214   2.0000      -0.404403       -11.0044
 215   2.0000      -0.402489       -10.9523
 216   2.0000      -0.393778       -10.7152
 217   2.0000      -0.386586       -10.5195
 218   2.0000      -0.383924       -10.4471
 219   2.0000      -0.381764       -10.3883
 220   2.0000      -0.369814       -10.0631
 221   2.0000      -0.365870        -9.9558
 222   2.0000      -0.352113        -9.5815
 223   2.0000      -0.351478        -9.5642
 224   2.0000      -0.348217        -9.4755
 225   2.0000      -0.345168        -9.3925
 226   2.0000      -0.341271        -9.2865
 227   2.0000      -0.334120        -9.0919
 228   2.0000      -0.331149        -9.0110
 229   2.0000      -0.326232        -8.8772
 230   2.0000      -0.312475        -8.5029
 231   2.0000      -0.308094        -8.3837
 232   2.0000      -0.287586        -7.8256
 233   2.0000      -0.284938        -7.7536
 234   2.0000      -0.235840        -6.4175
 235   0.0000      -0.082275        -2.2388
 236   0.0000      -0.057833        -1.5737
 237   0.0000      -0.053325        -1.4510
 238   0.0000      -0.048672        -1.3244
 239   0.0000      -0.016225        -0.4415

MULLIKEN ATOMIC CHARGES
-----------------------
   0 C :   -0.046921
   1 S :    0.148154
   2 C :   -0.131704
   3 C :   -0.007567
   4 C :   -0.107360
   5 C :   -0.156560
   6 N :    0.143078
   7 C :    0.521568
   8 F :   -0.147483
   9 F :   -0.155294
  10 F :   -0.155659
  11 C :    0.025124
  12 C :   -0.007787
  13 C :    0.113781
  14 C :   -0.061777
  15 C :    0.145147
  16 N :    0.250612
  17 O :   -0.224147
  18 O :   -0.237311
  19 C :    0.061106
  20 C :   -0.029779
  21 C :    0.014007
  22 C :    0.028179
  23 C :   -0.043853
  24 C :    0.107479
  25 N :   -0.251352
  26 C :    0.093299
  27 C :   -0.002526
  28 C :    0.155048
  29 O :   -0.209988
  30 C :   -0.064484
  31 C :   -0.040379
  32 C :    0.148327
  33 O :   -0.215623
  34 N :   -0.280584
  35 C :    0.095356
  36 C :    0.014588
  37 C :    0.101584
  38 C :   -0.013136
  39 C :    0.008559
  40 C :    0.107798
  41 C :   -0.119977
  42 S :    0.149919
  43 C :   -0.096768
  44 C :    0.030005
  45 C :    0.149063
  46 O :   -0.175404
  47 O :   -0.235778
  48 C :    0.092344
  49 C :    0.076551
  50 C :   -0.082349
  51 S :    0.140279
  52 C :   -0.130612
  53 C :    0.007319
  54 C :   -0.061117
  55 C :   -0.236523
  56 N :    0.160538
  57 C :    0.515148
  58 F :   -0.158906
  59 F :   -0.150118
  60 F :   -0.148842
  61 C :   -0.000612
  62 C :    0.008165
  63 H :    0.044424
  64 H :    0.012139
  65 H :   -0.006720
  66 H :    0.002820
  67 H :   -0.014974
  68 H :   -0.012382
  69 H :    0.013407
  70 H :    0.013550
  71 H :    0.028593
  72 H :    0.041799
  73 H :    0.021390
  74 H :    0.015643
  75 H :    0.038786
  76 H :    0.009361
  77 H :    0.041930
  78 H :    0.017272
  79 H :    0.021587
  80 H :    0.025965
  81 H :   -0.008082
  82 H :    0.035369
  83 H :    0.036722
  84 H :    0.039575
  85 H :    0.038841
  86 H :    0.032958
  87 H :    0.008632
  88 H :    0.043869
  89 H :    0.033678
Sum of atomic charges:   -0.0000000

LOEWDIN ATOMIC CHARGES
----------------------
   0 C :   -0.138048
   1 S :    0.480600
   2 C :   -0.139121
   3 C :   -0.102684
   4 C :   -0.092364
   5 C :   -0.040936
   6 N :   -0.035949
   7 C :    0.171841
   8 F :   -0.047907
   9 F :   -0.055812
  10 F :   -0.054875
  11 C :   -0.037214
  12 C :   -0.008271
  13 C :   -0.028119
  14 C :    0.015194
  15 C :   -0.023913
  16 N :    0.288108
  17 O :   -0.193335
  18 O :   -0.195869
  19 C :    0.000595
  20 C :    0.000231
  21 C :    0.010802
  22 C :    0.011432
  23 C :   -0.023657
  24 C :    0.082555
  25 N :    0.013748
  26 C :    0.035462
  27 C :   -0.066309
  28 C :    0.081302
  29 O :   -0.201300
  30 C :   -0.126398
  31 C :   -0.128736
  32 C :    0.073080
  33 O :   -0.217931
  34 N :   -0.003775
  35 C :    0.028683
  36 C :   -0.059681
  37 C :    0.073824
  38 C :   -0.051334
  39 C :    0.034913
  40 C :   -0.053141
  41 C :   -0.169144
  42 S :    0.477449
  43 C :   -0.150033
  44 C :   -0.102788
  45 C :    0.101625
  46 O :   -0.147591
  47 O :   -0.037375
  48 C :    0.068472
  49 C :   -0.065318
  50 C :   -0.131014
  51 S :    0.481357
  52 C :   -0.131043
  53 C :   -0.097879
  54 C :   -0.096858
  55 C :   -0.023491
  56 N :   -0.053419
  57 C :    0.176171
  58 F :   -0.057340
  59 F :   -0.054190
  60 F :   -0.042944
  61 C :   -0.057117
  62 C :   -0.001484
  63 H :    0.039123
  64 H :    0.034510
  65 H :    0.022471
  66 H :    0.039061
  67 H :    0.032061
  68 H :    0.034353
  69 H :    0.033590
  70 H :    0.041714
  71 H :    0.032714
  72 H :    0.027436
  73 H :    0.029902
  74 H :    0.027626
  75 H :    0.022047
  76 H :    0.013148
  77 H :    0.031791
  78 H :    0.023090
  79 H :    0.030187
  80 H :    0.031347
  81 H :    0.026521
  82 H :    0.041261
  83 H :    0.031418
  84 H :    0.033857
  85 H :    0.017971
  86 H :    0.051663
  87 H :    0.032380
  88 H :    0.025763
  89 H :    0.031258

  Mayer bond orders larger than 0.100000
B(  0-C ,  1-S ) :   1.1735 B(  0-C ,  4-C ) :   1.5847 B(  0-C , 63-H ) :   0.9735
B(  1-S ,  2-C ) :   1.1438 B(  2-C ,  3-C ) :   1.5353 B(  2-C , 11-C ) :   1.1240
B(  3-C ,  4-C ) :   1.2525 B(  3-C ,  7-C ) :   0.9508 B(  4-C ,  5-C ) :   1.0937
B(  5-C ,  6-N ) :   3.0421 B(  7-C ,  8-F ) :   1.1456 B(  7-C ,  9-F ) :   1.1753
B(  7-C , 10-F ) :   1.1704 B( 11-C , 12-C ) :   1.7030 B( 11-C , 64-H ) :   0.9627
B( 12-C , 13-C ) :   1.0750 B( 12-C , 65-H ) :   0.9785 B( 13-C , 14-C ) :   1.3045
B( 13-C , 21-C ) :   1.3078 B( 14-C , 15-C ) :   1.3878 B( 14-C , 66-H ) :   0.9868
B( 15-C , 16-N ) :   0.8806 B( 15-C , 19-C ) :   1.3351 B( 16-N , 17-O ) :   1.5576
B( 16-N , 18-O ) :   1.5011 B( 17-O , 18-O ) :   0.2633 B( 19-C , 20-C ) :   1.3453
B( 19-C , 22-C ) :   1.0562 B( 20-C , 21-C ) :   1.3970 B( 20-C , 67-H ) :   0.9853
B( 21-C , 68-H ) :   1.0008 B( 22-C , 23-C ) :   1.6934 B( 22-C , 69-H ) :   0.9448
B( 23-C , 24-C ) :   1.1476 B( 23-C , 70-H ) :   0.9516 B( 24-C , 25-N ) :   1.1945
B( 24-C , 31-C ) :   1.3419 B( 25-N , 26-C ) :   0.9317 B( 25-N , 28-C ) :   1.0604
B( 26-C , 27-C ) :   1.1171 B( 26-C , 71-H ) :   0.9295 B( 26-C , 72-H ) :   0.9483
B( 27-C , 73-H ) :   0.9581 B( 27-C , 74-H ) :   0.9662 B( 27-C , 75-H ) :   0.9553
B( 28-C , 29-O ) :   2.0348 B( 28-C , 30-C ) :   0.9815 B( 29-O , 82-H ) :   0.1050
B( 30-C , 31-C ) :   1.2236 B( 30-C , 37-C ) :   1.3787 B( 31-C , 32-C ) :   1.0026
B( 32-C , 33-O ) :   2.0904 B( 32-C , 34-N ) :   1.0340 B( 34-N , 35-C ) :   0.9488
B( 34-N , 37-C ) :   1.1430 B( 35-C , 36-C ) :   1.1213 B( 35-C , 76-H ) :   0.9432
B( 35-C , 77-H ) :   0.9242 B( 36-C , 78-H ) :   0.9674 B( 36-C , 79-H ) :   0.9670
B( 36-C , 80-H ) :   0.9633 B( 37-C , 38-C ) :   1.1635 B( 38-C , 39-C ) :   1.6869
B( 38-C , 81-H ) :   0.9389 B( 39-C , 40-C ) :   1.0505 B( 39-C , 82-H ) :   0.9427
B( 40-C , 41-C ) :   1.5322 B( 40-C , 44-C ) :   1.2411 B( 41-C , 42-S ) :   1.1767
B( 41-C , 83-H ) :   0.9694 B( 42-S , 43-C ) :   1.2036 B( 43-C , 44-C ) :   1.5604
B( 43-C , 84-H ) :   0.9711 B( 44-C , 45-C ) :   0.9278 B( 45-C , 46-O ) :   2.1599
B( 45-C , 47-O ) :   1.0810 B( 47-O , 48-C ) :   1.0379 B( 48-C , 49-C ) :   1.6995
B( 48-C , 85-H ) :   0.9762 B( 49-C , 50-C ) :   1.1708 B( 49-C , 86-H ) :   0.9410
B( 50-C , 51-S ) :   1.1210 B( 50-C , 54-C ) :   1.5090 B( 51-S , 52-C ) :   1.1419
B( 52-C , 53-C ) :   1.5734 B( 52-C , 61-C ) :   1.0584 B( 53-C , 54-C ) :   1.2693
B( 53-C , 57-C ) :   0.9259 B( 54-C , 55-C ) :   1.1430 B( 55-C , 56-N ) :   2.9558
B( 57-C , 58-F ) :   1.1686 B( 57-C , 59-F ) :   1.1269 B( 57-C , 60-F ) :   1.1597
B( 61-C , 62-C ) :   1.9609 B( 61-C , 87-H ) :   0.9502 B( 62-C , 88-H ) :   0.9523
B( 62-C , 89-H ) :   0.9487

-----------------------------------------------------------------------------
         ABSORPTION SPECTRUM VIA TRANSITION ELECTRIC DIPOLE MOMENTS
-----------------------------------------------------------------------------
State   Energy  Wavelength   fosc         T2         TX        TY        TZ
        (cm-1)    (nm)                  (au**2)     (au)      (au)      (au)
-----------------------------------------------------------------------------
   0   17730.0    564.0   0.694399736  12.89366  -2.47441   2.22655   1.34664
   1   20689.0    483.3   0.069082168   1.09926   0.53087  -0.87801  -0.21573
   2   24441.8    409.1   0.005677321   0.07647  -0.20688   0.13942   0.11930
   3   26170.6    382.1   0.065559922   0.82471  -0.23348   0.82025  -0.31206
   4   27448.5    364.3   0.054314559   0.65144  -0.15076  -0.79178   0.04245
   5   27748.3    360.4   0.007909883   0.09384  -0.21372   0.16156   0.14855
   6   29494.1    339.1   0.876832954   9.78717  -1.78506   2.56631   0.12146
   7   30105.8    332.2   0.044227687   0.48364  -0.48005   0.49994  -0.05699
   8   31054.4    322.0   0.014253229   0.15110  -0.04394  -0.21478   0.32100
   9   31754.1    314.9   0.020247009   0.20991   0.24323   0.24220  -0.30346
  10   32908.5    303.9   0.351842205   3.51978  -0.79615   1.64247  -0.43382
  11   33257.7    300.7   0.004459719   0.04415   0.10349  -0.02834  -0.18064
  12   33698.4    296.8   0.421786962   4.12059   0.90718  -1.80895   0.15910
  13   34030.3    293.9   0.119695413   1.15794  -0.47238   0.85156  -0.45787
  14   34732.3    287.9   0.222361682   2.10767  -0.45618   1.23187  -0.61810
  15   35111.4    284.8   0.268611537   2.51856   0.77029  -1.25265   0.59673
  16   35829.5    279.1   0.010694692   0.09827  -0.30542  -0.05966   0.03776
  17   36373.3    274.9   0.131482916   1.19004  -0.68734   0.80039  -0.27746
  18   36670.5    272.7   0.061418223   0.55139  -0.31371   0.56916  -0.35920
  19   37722.3    265.1   0.012142300   0.10597  -0.02884  -0.04949   0.32045
  20   38387.8    260.5   0.037493193   0.32154  -0.06637  -0.17641   0.53480
  21   38572.9    259.2   0.004003304   0.03417   0.13690  -0.05266   0.11248
  22   38875.0    257.2   0.057027594   0.48294   0.40512  -0.55888   0.08039
  23   39128.9    255.6   0.000823822   0.00693  -0.02846   0.03812  -0.06832
  24   39212.5    255.0   0.069470217   0.58324  -0.41262   0.60037  -0.22922
  25   39382.1    253.9   0.069825193   0.58370   0.37446  -0.66386  -0.05260
  26   39920.6    250.5   0.030289404   0.24979   0.24568  -0.30282   0.31261
  27   40218.5    248.6   0.005664050   0.04636  -0.19864   0.06031  -0.05716

FINAL SINGLE POINT ENERGY     -4169.521836468612

DIPOLE MOMENT
-------------
                                X             Y             Z
Electronic contribution:    -37.27930      55.36713      18.55944
Nuclear contribution   :     40.61392     -56.38992     -21.51827
                        -----------------------------------------
Total Dipole Moment    :      3.33461      -1.02279      -2.95883
                        -----------------------------------------
Magnitude (a.u.)       :      4.57388
Magnitude (Debye)      :     11.62588

Rotational constants in cm-1:     0.002661     0.000429     0.000387
Rotational constants in MHz :    79.765011    12.855064    11.610918

                             ****ORCA TERMINATED NORMALLY****
TOTAL RUN TIME: 0 days 0 hours 7 minutes 56 seconds 589 msec
