                         Program Version 4.2.0 -  RELEASE  -
|  1> # ORCA input file
|  2> # SCF done       -205.021273366841          0.000832762850
|  3> ! CAM-B3LYP def2-SVP def2/J RIJCOSX Grid4 TightSCF
|  4> %maxcore 5000
|  5> %tddft
|  6>     Mode sTDDFT
|  7>     Ethresh 5.0
|  8>     maxcore 5000
|  9> end
| 10>
| 11> %pal
| 12>   nprocs 6
| 13>   end
| 14> * xyz 0 1
| 15>    C        4.70266         1.97463        -0.45895
| 16>    S        5.74727         0.75008         0.10204
| 17>    C        4.56254         0.17650         1.24241
| 18>    C        3.42362         0.95350         1.18755
| 19>    C        3.50134         1.97802         0.20162
| 20>    C        2.47954         2.90196        -0.10682
| 21>    N        1.66940         3.65647        -0.39706
| 22>    C        2.26022         0.82329         2.11957
| 23>    F        2.64603         0.45323         3.35823
| 24>    F        1.59655         1.97274         2.27264
| 25>    F        1.36117        -0.08982         1.71849
| 26>    C        4.88351        -0.96429         2.04771
| 27>    C        3.99361        -1.89079         2.46316
| 28>    C        4.32140        -3.01610         3.27444
| 29>    C        3.74497        -4.27456         3.20911
| 30>    N        2.70223        -4.69787         2.36204
| 31>    O        2.25984        -5.81809         2.54156
| 32>    O        2.30959        -3.93259         1.49732
| 33>    C        4.41488        -5.16169         4.12366
| 34>    C        5.43048        -4.48490         4.71312
| 35>    C        5.40632        -3.11667         4.25820
| 36>    C        6.13413        -2.07222         4.79194
| 37>    C        5.68787        -0.72077         4.94964
| 38>    C        6.55604        -0.06359         5.76813
| 39>    C        7.63820        -0.94035         6.09846
| 40>    N        8.76923        -0.52123         6.82446
| 41>    O        8.69845         0.55542         7.38986
| 42>    O        9.75425        -1.24070         6.83346
| 43>    C        7.42179        -2.18607         5.51282
| 44>    C        8.29685        -3.28625         5.53339
| 45>    C        8.37091        -4.25235         4.56549
| 46>    C        9.21246        -5.37317         4.67864
| 47>    N        9.45600        -6.26826         3.66140
| 48>    C        8.96143        -6.18063         2.30820
| 49>    C        9.71176        -5.12923         1.49531
| 50>    C       10.33036        -7.29088         4.05441
| 51>    O       10.69489        -8.18722         3.31935
| 52>    C       10.61955        -7.00172         5.44542
| 53>    C        9.92182        -5.82960         5.79771
| 54>    C       10.16628        -5.56569         7.20206
| 55>    O        9.75503        -4.71225         7.95411
| 56>    N       11.04521        -6.59775         7.59745
| 57>    C       11.50388        -6.69418         8.96334
| 58>    C       10.69262        -7.71059         9.76290
| 59>    C       11.31159        -7.46537         6.57399
| 60>    C       12.14590        -8.60539         6.70404
| 61>    C       12.37790        -9.45288         5.67274
| 62>    C       13.20364       -10.63000         5.71941
| 63>    C       13.77029       -11.12714         6.89490
| 64>    C       14.55513       -12.26536         6.87911
| 65>    N       15.01488       -12.75995         8.15465
| 66>    O       15.04583       -11.97244         9.07502
| 67>    O       15.31245       -13.93225         8.23627
| 68>    C       14.83694       -12.95702         5.68668
| 69>    C       14.24741       -12.45908         4.51676
| 70>    C       13.44993       -11.33912         4.53098
| 71>    C       15.73751       -14.08741         5.64316
| 72>    C       15.56227       -15.14507         4.82999
| 73>    C       16.43835       -16.27147         4.74889
| 74>    S       15.87669       -17.72218         3.98585
| 75>    C       17.37417       -18.54963         4.26554
| 76>    C       18.25507       -17.73521         4.94255
| 77>    C       17.73873       -16.43637         5.20590
| 78>    C       18.49620       -15.39688         5.77926
| 79>    N       19.11989       -14.52850         6.19310
| 80>    C       19.60804       -18.16782         5.41629
| 81>    F       19.62114       -19.44359         5.83744
| 82>    F       20.54447       -18.08071         4.44871
| 83>    F       20.05775       -17.43854         6.44040
| 84>    C       17.50162       -19.90079         3.76637
| 85>    C       18.62042       -20.46866         3.32963
| 86>    H        5.00782         2.63897        -1.24311
| 87>    H        5.93732        -1.09713         2.25629
| 88>    H        2.97343        -1.86323         2.10302
| 89>    H        4.12184        -6.18212         4.28018
| 90>    H        6.07231        -4.85004         5.49044
| 91>    H        4.75207        -0.34367         4.58786
| 92>    H        6.47954         0.94603         6.12526
| 93>    H        9.00598        -3.31314         6.35385
| 94>    H        7.79196        -4.14485         3.65855
| 95>    H        7.88841        -5.96834         2.32622
| 96>    H        9.11657        -7.16817         1.86521
| 97>    H        9.61533        -4.14415         1.94645
| 98>    H        9.31370        -5.09326         0.48529
| 99>    H       10.76754        -5.38311         1.44344
|100>    H       11.37242        -5.69941         9.39755
|101>    H       12.56762        -6.94480         8.97494
|102>    H        9.64693        -7.41445         9.78806
|103>    H       11.06459        -7.75402        10.78238
|104>    H       10.76110        -8.70309         9.32270
|105>    H       12.60319        -8.77070         7.66799
|106>    H       11.91889        -9.24276         4.71522
|107>    H       13.59289       -10.65571         7.84934
|108>    H       14.45407       -12.95770         3.58247
|109>    H       13.01004       -10.98015         3.61251
|110>    H       16.57782       -14.07253         6.32148
|111>    H       14.66651       -15.22000         4.22628
|112>    H       16.56445       -20.43978         3.70910
|113>    H       19.56839       -19.96163         3.30920
|114>    H       18.61338       -21.47913         2.96126
|115> *
|116>
|117>                          ****END OF INPUT****

CARTESIAN COORDINATES (ANGSTROEM)
---------------------------------
  C      4.702660    1.974630   -0.458950
  S      5.747270    0.750080    0.102040
  C      4.562540    0.176500    1.242410
  C      3.423620    0.953500    1.187550
  C      3.501340    1.978020    0.201620
  C      2.479540    2.901960   -0.106820
  N      1.669400    3.656470   -0.397060
  C      2.260220    0.823290    2.119570
  F      2.646030    0.453230    3.358230
  F      1.596550    1.972740    2.272640
  F      1.361170   -0.089820    1.718490
  C      4.883510   -0.964290    2.047710
  C      3.993610   -1.890790    2.463160
  C      4.321400   -3.016100    3.274440
  C      3.744970   -4.274560    3.209110
  N      2.702230   -4.697870    2.362040
  O      2.259840   -5.818090    2.541560
  O      2.309590   -3.932590    1.497320
  C      4.414880   -5.161690    4.123660
  C      5.430480   -4.484900    4.713120
  C      5.406320   -3.116670    4.258200
  C      6.134130   -2.072220    4.791940
  C      5.687870   -0.720770    4.949640
  C      6.556040   -0.063590    5.768130
  C      7.638200   -0.940350    6.098460
  N      8.769230   -0.521230    6.824460
  O      8.698450    0.555420    7.389860
  O      9.754250   -1.240700    6.833460
  C      7.421790   -2.186070    5.512820
  C      8.296850   -3.286250    5.533390
  C      8.370910   -4.252350    4.565490
  C      9.212460   -5.373170    4.678640
  N      9.456000   -6.268260    3.661400
  C      8.961430   -6.180630    2.308200
  C      9.711760   -5.129230    1.495310
  C     10.330360   -7.290880    4.054410
  O     10.694890   -8.187220    3.319350
  C     10.619550   -7.001720    5.445420
  C      9.921820   -5.829600    5.797710
  C     10.166280   -5.565690    7.202060
  O      9.755030   -4.712250    7.954110
  N     11.045210   -6.597750    7.597450
  C     11.503880   -6.694180    8.963340
  C     10.692620   -7.710590    9.762900
  C     11.311590   -7.465370    6.573990
  C     12.145900   -8.605390    6.704040
  C     12.377900   -9.452880    5.672740
  C     13.203640  -10.630000    5.719410
  C     13.770290  -11.127140    6.894900
  C     14.555130  -12.265360    6.879110
  N     15.014880  -12.759950    8.154650
  O     15.045830  -11.972440    9.075020
  O     15.312450  -13.932250    8.236270
  C     14.836940  -12.957020    5.686680
  C     14.247410  -12.459080    4.516760
  C     13.449930  -11.339120    4.530980
  C     15.737510  -14.087410    5.643160
  C     15.562270  -15.145070    4.829990
  C     16.438350  -16.271470    4.748890
  S     15.876690  -17.722180    3.985850
  C     17.374170  -18.549630    4.265540
  C     18.255070  -17.735210    4.942550
  C     17.738730  -16.436370    5.205900
  C     18.496200  -15.396880    5.779260
  N     19.119890  -14.528500    6.193100
  C     19.608040  -18.167820    5.416290
  F     19.621140  -19.443590    5.837440
  F     20.544470  -18.080710    4.448710
  F     20.057750  -17.438540    6.440400
  C     17.501620  -19.900790    3.766370
  C     18.620420  -20.468660    3.329630
  H      5.007820    2.638970   -1.243110
  H      5.937320   -1.097130    2.256290
  H      2.973430   -1.863230    2.103020
  H      4.121840   -6.182120    4.280180
  H      6.072310   -4.850040    5.490440
  H      4.752070   -0.343670    4.587860
  H      6.479540    0.946030    6.125260
  H      9.005980   -3.313140    6.353850
  H      7.791960   -4.144850    3.658550
  H      7.888410   -5.968340    2.326220
  H      9.116570   -7.168170    1.865210
  H      9.615330   -4.144150    1.946450
  H      9.313700   -5.093260    0.485290
  H     10.767540   -5.383110    1.443440
  H     11.372420   -5.699410    9.397550
  H     12.567620   -6.944800    8.974940
  H      9.646930   -7.414450    9.788060
  H     11.064590   -7.754020   10.782380
  H     10.761100   -8.703090    9.322700
  H     12.603190   -8.770700    7.667990
  H     11.918890   -9.242760    4.715220
  H     13.592890  -10.655710    7.849340
  H     14.454070  -12.957700    3.582470
  H     13.010040  -10.980150    3.612510
  H     16.577820  -14.072530    6.321480
  H     14.666510  -15.220000    4.226280
  H     16.564450  -20.439780    3.709100
  H     19.568390  -19.961630    3.309200
  H     18.613380  -21.479130    2.961260

 Total Charge           Charge          ....    0
 Multiplicity           Mult            ....    1
 Number of Electrons    NEL             ....  516
 Basis Dimension        Dim             .... 1147

ORBITAL ENERGIES
----------------

  NO   OCC          E(Eh)            E(eV)
   0   2.0000     -88.999024     -2421.7866
   1   2.0000     -88.989522     -2421.5280
   2   2.0000     -24.813140      -675.1999
   3   2.0000     -24.812391      -675.1795
   4   2.0000     -24.810470      -675.1272
   5   2.0000     -24.804911      -674.9760
   6   2.0000     -24.801872      -674.8933
   7   2.0000     -24.801005      -674.8697
   8   2.0000     -19.255943      -523.9808
   9   2.0000     -19.254040      -523.9291
  10   2.0000     -19.245207      -523.6887
  11   2.0000     -19.244624      -523.6728
  12   2.0000     -19.236831      -523.4608
  13   2.0000     -19.236517      -523.4522
  14   2.0000     -19.211028      -522.7587
  15   2.0000     -19.202474      -522.5259
  16   2.0000     -14.660585      -398.9348
  17   2.0000     -14.653611      -398.7450
  18   2.0000     -14.646020      -398.5385
  19   2.0000     -14.470398      -393.7596
  20   2.0000     -14.466292      -393.6478
  21   2.0000     -14.414330      -392.2339
  22   2.0000     -14.413048      -392.1990
  23   2.0000     -10.536434      -286.7109
  24   2.0000     -10.527301      -286.4624
  25   2.0000     -10.391698      -282.7725
  26   2.0000     -10.386909      -282.6422
  27   2.0000     -10.360056      -281.9114
  28   2.0000     -10.349795      -281.6323
  29   2.0000     -10.347791      -281.5777
  30   2.0000     -10.346212      -281.5347
  31   2.0000     -10.341750      -281.4133
  32   2.0000     -10.341348      -281.4024
  33   2.0000     -10.340986      -281.3925
  34   2.0000     -10.339892      -281.3628
  35   2.0000     -10.338860      -281.3347
  36   2.0000     -10.338772      -281.3323
  37   2.0000     -10.337641      -281.3015
  38   2.0000     -10.332554      -281.1631
  39   2.0000     -10.332319      -281.1567
  40   2.0000     -10.328231      -281.0455
  41   2.0000     -10.327249      -281.0187
  42   2.0000     -10.326456      -280.9971
  43   2.0000     -10.325191      -280.9627
  44   2.0000     -10.320778      -280.8426
  45   2.0000     -10.320725      -280.8412
  46   2.0000     -10.320131      -280.8250
  47   2.0000     -10.316554      -280.7277
  48   2.0000     -10.315638      -280.7028
  49   2.0000     -10.314902      -280.6827
  50   2.0000     -10.314728      -280.6780
  51   2.0000     -10.314397      -280.6690
  52   2.0000     -10.313290      -280.6389
  53   2.0000     -10.310214      -280.5552
  54   2.0000     -10.309764      -280.5429
  55   2.0000     -10.309740      -280.5423
  56   2.0000     -10.309138      -280.5259
  57   2.0000     -10.307203      -280.4733
  58   2.0000     -10.306891      -280.4648
  59   2.0000     -10.306170      -280.4452
  60   2.0000     -10.305810      -280.4353
  61   2.0000     -10.305016      -280.4137
  62   2.0000     -10.302897      -280.3561
  63   2.0000     -10.300775      -280.2983
  64   2.0000     -10.295936      -280.1667
  65   2.0000     -10.291817      -280.0546
  66   2.0000     -10.287962      -279.9497
  67   2.0000     -10.282394      -279.7982
  68   2.0000     -10.276866      -279.6477
  69   2.0000     -10.275710      -279.6163
  70   2.0000     -10.274236      -279.5762
  71   2.0000      -8.095229      -220.2824
  72   2.0000      -8.085651      -220.0218
  73   2.0000      -6.064376      -165.0201
  74   2.0000      -6.059979      -164.9004
  75   2.0000      -6.057702      -164.8385
  76   2.0000      -6.054741      -164.7579
  77   2.0000      -6.050633      -164.6461
  78   2.0000      -6.047974      -164.5737
  79   2.0000      -1.403133       -38.1812
  80   2.0000      -1.394224       -37.9388
  81   2.0000      -1.336649       -36.3721
  82   2.0000      -1.324419       -36.0393
  83   2.0000      -1.316349       -35.8197
  84   2.0000      -1.305300       -35.5190
  85   2.0000      -1.302995       -35.4563
  86   2.0000      -1.296915       -35.2908
  87   2.0000      -1.292806       -35.1790
  88   2.0000      -1.155761       -31.4499
  89   2.0000      -1.151240       -31.3268
  90   2.0000      -1.142102       -31.0782
  91   2.0000      -1.141958       -31.0743
  92   2.0000      -1.133942       -30.8561
  93   2.0000      -1.081013       -29.4159
  94   2.0000      -1.070869       -29.1398
  95   2.0000      -1.034027       -28.1373
  96   2.0000      -1.028607       -27.9898
  97   2.0000      -1.025878       -27.9156
  98   2.0000      -1.005970       -27.3738
  99   2.0000      -1.004500       -27.3338
 100   2.0000      -0.995737       -27.0954
 101   2.0000      -0.994290       -27.0560
 102   2.0000      -0.947071       -25.7711
 103   2.0000      -0.942037       -25.6341
 104   2.0000      -0.931237       -25.3402
 105   2.0000      -0.929041       -25.2805
 106   2.0000      -0.924757       -25.1639
 107   2.0000      -0.915921       -24.9235
 108   2.0000      -0.909234       -24.7415
 109   2.0000      -0.902438       -24.5566
 110   2.0000      -0.902196       -24.5500
 111   2.0000      -0.895095       -24.3568
 112   2.0000      -0.887043       -24.1377
 113   2.0000      -0.883945       -24.0534
 114   2.0000      -0.875500       -23.8236
 115   2.0000      -0.865766       -23.5587
 116   2.0000      -0.853355       -23.2210
 117   2.0000      -0.838597       -22.8194
 118   2.0000      -0.834015       -22.6947
 119   2.0000      -0.830102       -22.5882
 120   2.0000      -0.811373       -22.0786
 121   2.0000      -0.806776       -21.9535
 122   2.0000      -0.806011       -21.9327
 123   2.0000      -0.785753       -21.3814
 124   2.0000      -0.781386       -21.2626
 125   2.0000      -0.773640       -21.0518
 126   2.0000      -0.772436       -21.0190
 127   2.0000      -0.753560       -20.5054
 128   2.0000      -0.743680       -20.2366
 129   2.0000      -0.737757       -20.0754
 130   2.0000      -0.736590       -20.0436
 131   2.0000      -0.724978       -19.7276
 132   2.0000      -0.722606       -19.6631
 133   2.0000      -0.721906       -19.6441
 134   2.0000      -0.716348       -19.4928
 135   2.0000      -0.708434       -19.2775
 136   2.0000      -0.707679       -19.2569
 137   2.0000      -0.697804       -18.9882
 138   2.0000      -0.691461       -18.8156
 139   2.0000      -0.687520       -18.7084
 140   2.0000      -0.685392       -18.6505
 141   2.0000      -0.679139       -18.4803
 142   2.0000      -0.678588       -18.4653
 143   2.0000      -0.676339       -18.4041
 144   2.0000      -0.667662       -18.1680
 145   2.0000      -0.664563       -18.0837
 146   2.0000      -0.662673       -18.0323
 147   2.0000      -0.661854       -18.0100
 148   2.0000      -0.647666       -17.6239
 149   2.0000      -0.643940       -17.5225
 150   2.0000      -0.638876       -17.3847
 151   2.0000      -0.637585       -17.3496
 152   2.0000      -0.634802       -17.2738
 153   2.0000      -0.632312       -17.2061
 154   2.0000      -0.630594       -17.1593
 155   2.0000      -0.626705       -17.0535
 156   2.0000      -0.623970       -16.9791
 157   2.0000      -0.619211       -16.8496
 158   2.0000      -0.614072       -16.7097
 159   2.0000      -0.608310       -16.5530
 160   2.0000      -0.604365       -16.4456
 161   2.0000      -0.599801       -16.3214
 162   2.0000      -0.596223       -16.2240
 163   2.0000      -0.594270       -16.1709
 164   2.0000      -0.589613       -16.0442
 165   2.0000      -0.585489       -15.9320
 166   2.0000      -0.584895       -15.9158
 167   2.0000      -0.579269       -15.7627
 168   2.0000      -0.577569       -15.7164
 169   2.0000      -0.571199       -15.5431
 170   2.0000      -0.569759       -15.5039
 171   2.0000      -0.566013       -15.4020
 172   2.0000      -0.563448       -15.3322
 173   2.0000      -0.561086       -15.2679
 174   2.0000      -0.557706       -15.1760
 175   2.0000      -0.554271       -15.0825
 176   2.0000      -0.551478       -15.0065
 177   2.0000      -0.548685       -14.9305
 178   2.0000      -0.545762       -14.8509
 179   2.0000      -0.544472       -14.8158
 180   2.0000      -0.543270       -14.7831
 181   2.0000      -0.542325       -14.7574
 182   2.0000      -0.540960       -14.7203
 183   2.0000      -0.539578       -14.6827
 184   2.0000      -0.539115       -14.6701
 185   2.0000      -0.532389       -14.4870
 186   2.0000      -0.530099       -14.4247
 187   2.0000      -0.527382       -14.3508
 188   2.0000      -0.524854       -14.2820
 189   2.0000      -0.523474       -14.2445
 190   2.0000      -0.520317       -14.1585
 191   2.0000      -0.516593       -14.0572
 192   2.0000      -0.515540       -14.0286
 193   2.0000      -0.513971       -13.9859
 194   2.0000      -0.512141       -13.9361
 195   2.0000      -0.510615       -13.8945
 196   2.0000      -0.506666       -13.7871
 197   2.0000      -0.505543       -13.7565
 198   2.0000      -0.500924       -13.6308
 199   2.0000      -0.500781       -13.6269
 200   2.0000      -0.497477       -13.5370
 201   2.0000      -0.495686       -13.4883
 202   2.0000      -0.493622       -13.4321
 203   2.0000      -0.491934       -13.3862
 204   2.0000      -0.489771       -13.3273
 205   2.0000      -0.489248       -13.3131
 206   2.0000      -0.487181       -13.2569
 207   2.0000      -0.485220       -13.2035
 208   2.0000      -0.483960       -13.1692
 209   2.0000      -0.480895       -13.0858
 210   2.0000      -0.478035       -13.0080
 211   2.0000      -0.472484       -12.8570
 212   2.0000      -0.471310       -12.8250
 213   2.0000      -0.467055       -12.7092
 214   2.0000      -0.465206       -12.6589
 215   2.0000      -0.463388       -12.6094
 216   2.0000      -0.461296       -12.5525
 217   2.0000      -0.457595       -12.4518
 218   2.0000      -0.457339       -12.4448
 219   2.0000      -0.454562       -12.3693
 220   2.0000      -0.452526       -12.3139
 221   2.0000      -0.451030       -12.2731
 222   2.0000      -0.447056       -12.1650
 223   2.0000      -0.445728       -12.1289
 224   2.0000      -0.442935       -12.0529
 225   2.0000      -0.441642       -12.0177
 226   2.0000      -0.440261       -11.9801
 227   2.0000      -0.438705       -11.9378
 228   2.0000      -0.433600       -11.7989
 229   2.0000      -0.427189       -11.6244
 230   2.0000      -0.417194       -11.3524
 231   2.0000      -0.411201       -11.1894
 232   2.0000      -0.405054       -11.0221
 233   2.0000      -0.401949       -10.9376
 234   2.0000      -0.396619       -10.7925
 235   2.0000      -0.392100       -10.6696
 236   2.0000      -0.390556       -10.6276
 237   2.0000      -0.388196       -10.5633
 238   2.0000      -0.383633       -10.4392
 239   2.0000      -0.382100       -10.3975
 240   2.0000      -0.377852       -10.2819
 241   2.0000      -0.373797       -10.1715
 242   2.0000      -0.372071       -10.1246
 243   2.0000      -0.365875        -9.9560
 244   2.0000      -0.364036        -9.9059
 245   2.0000      -0.362773        -9.8716
 246   2.0000      -0.359571        -9.7844
 247   2.0000      -0.359051        -9.7703
 248   2.0000      -0.349967        -9.5231
 249   2.0000      -0.348063        -9.4713
 250   2.0000      -0.346232        -9.4214
 251   2.0000      -0.342953        -9.3322
 252   2.0000      -0.331955        -9.0329
 253   2.0000      -0.330283        -8.9875
 254   2.0000      -0.314428        -8.5560
 255   2.0000      -0.291634        -7.9358
 256   2.0000      -0.287963        -7.8359
 257   2.0000      -0.246808        -6.7160
 258   0.0000      -0.143108        -3.8942
 259   0.0000      -0.098859        -2.6901
 260   0.0000      -0.074033        -2.0145
 261   0.0000      -0.061358        -1.6696
 262   0.0000      -0.050721        -1.3802

MULLIKEN ATOMIC CHARGES
-----------------------
   0 C :   -0.057469
   1 S :    0.181880
   2 C :   -0.167125
   3 C :    0.001054
   4 C :   -0.099557
   5 C :   -0.177189
   6 N :    0.147873
   7 C :    0.523312
   8 F :   -0.158028
   9 F :   -0.138030
  10 F :   -0.145674
  11 C :    0.020378
  12 C :   -0.004784
  13 C :    0.017175
  14 C :    0.090063
  15 N :    0.270573
  16 O :   -0.241180
  17 O :   -0.246445
  18 C :    0.010233
  19 C :    0.005124
  20 C :    0.003924
  21 C :    0.024743
  22 C :   -0.001026
  23 C :    0.024572
  24 C :    0.092541
  25 N :    0.270047
  26 O :   -0.249929
  27 O :   -0.242697
  28 C :    0.040826
  29 C :   -0.027238
  30 C :   -0.044812
  31 C :    0.120847
  32 N :   -0.254445
  33 C :    0.096222
  34 C :    0.004434
  35 C :    0.167925
  36 O :   -0.218464
  37 C :   -0.080535
  38 C :   -0.045511
  39 C :    0.160680
  40 O :   -0.177496
  41 N :   -0.258534
  42 C :    0.095173
  43 C :    0.005383
  44 C :    0.148611
  45 C :    0.001360
  46 C :    0.009702
  47 C :    0.103644
  48 C :   -0.059248
  49 C :    0.151958
  50 N :    0.244855
  51 O :   -0.226969
  52 O :   -0.222098
  53 C :    0.039554
  54 C :   -0.023993
  55 C :    0.020540
  56 C :    0.011433
  57 C :    0.035225
  58 C :   -0.086576
  59 S :    0.170786
  60 C :   -0.146255
  61 C :   -0.026162
  62 C :   -0.055395
  63 C :   -0.228879
  64 N :    0.145679
  65 C :    0.518259
  66 F :   -0.158835
  67 F :   -0.162768
  68 F :   -0.140318
  69 C :    0.008606
  70 C :    0.005165
  71 H :    0.048465
  72 H :    0.014903
  73 H :    0.033887
  74 H :    0.004758
  75 H :    0.011433
  76 H :   -0.002729
  77 H :    0.008943
  78 H :    0.050149
  79 H :    0.000136
  80 H :    0.025885
  81 H :    0.044411
  82 H :    0.015738
  83 H :    0.025481
  84 H :    0.030859
  85 H :    0.050160
  86 H :    0.031002
  87 H :    0.031091
  88 H :    0.030972
  89 H :    0.014150
  90 H :   -0.023521
  91 H :    0.011450
  92 H :    0.001115
  93 H :   -0.006164
  94 H :    0.009605
  95 H :    0.038896
  96 H :   -0.006728
  97 H :    0.010219
  98 H :    0.042026
  99 H :    0.036713
Sum of atomic charges:   -0.0000000

LOEWDIN ATOMIC CHARGES
----------------------
   0 C :   -0.140929
   1 S :    0.494531
   2 C :   -0.145221
   3 C :   -0.101291
   4 C :   -0.090100
   5 C :   -0.041941
   6 N :   -0.035091
   7 C :    0.172564
   8 F :   -0.060532
   9 F :   -0.034236
  10 F :   -0.050834
  11 C :   -0.038165
  12 C :    0.004455
  13 C :   -0.001787
  14 C :   -0.034548
  15 N :    0.283774
  16 O :   -0.206388
  17 O :   -0.208240
  18 C :   -0.000973
  19 C :   -0.035120
  20 C :    0.030164
  21 C :    0.050668
  22 C :   -0.044783
  23 C :    0.023584
  24 C :   -0.044842
  25 N :    0.283160
  26 O :   -0.213911
  27 O :   -0.207135
  28 C :    0.000729
  29 C :    0.021761
  30 C :   -0.020058
  31 C :    0.057174
  32 N :    0.001618
  33 C :    0.037000
  34 C :   -0.060506
  35 C :    0.077516
  36 O :   -0.208524
  37 C :   -0.125834
  38 C :   -0.097484
  39 C :    0.083890
  40 O :   -0.168488
  41 N :    0.003169
  42 C :    0.037564
  43 C :   -0.059751
  44 C :    0.091489
  45 C :   -0.047454
  46 C :    0.046739
  47 C :   -0.031977
  48 C :    0.020555
  49 C :   -0.023083
  50 N :    0.284948
  51 O :   -0.197087
  52 O :   -0.182631
  53 C :    0.002436
  54 C :   -0.006907
  55 C :    0.022748
  56 C :    0.012945
  57 C :   -0.045113
  58 C :   -0.137742
  59 S :    0.483719
  60 C :   -0.143456
  61 C :   -0.101698
  62 C :   -0.091901
  63 C :   -0.038052
  64 N :   -0.044306
  65 C :    0.172310
  66 F :   -0.054398
  67 F :   -0.064816
  68 F :   -0.034407
  69 C :   -0.058545
  70 C :   -0.001223
  71 H :    0.040129
  72 H :    0.031500
  73 H :    0.036705
  74 H :    0.038833
  75 H :    0.034735
  76 H :    0.029851
  77 H :    0.041081
  78 H :    0.045786
  79 H :    0.031332
  80 H :    0.023658
  81 H :    0.038347
  82 H :    0.021951
  83 H :    0.031618
  84 H :    0.033034
  85 H :    0.041139
  86 H :    0.026045
  87 H :    0.032939
  88 H :    0.034173
  89 H :    0.021487
  90 H :    0.029704
  91 H :    0.039132
  92 H :    0.037732
  93 H :    0.036408
  94 H :    0.042769
  95 H :    0.039671
  96 H :    0.029926
  97 H :    0.033201
  98 H :    0.024591
  99 H :    0.032819

  Mayer bond orders larger than 0.100000
B(  0-C ,  1-S ) :   1.1835 B(  0-C ,  4-C ) :   1.5640 B(  0-C , 71-H ) :   0.9742
B(  1-S ,  2-C ) :   1.1696 B(  2-C ,  3-C ) :   1.5305 B(  2-C , 11-C ) :   1.0936
B(  3-C ,  4-C ) :   1.2801 B(  3-C ,  7-C ) :   0.9377 B(  4-C ,  5-C ) :   1.0983
B(  5-C ,  6-N ) :   3.0468 B(  7-C ,  8-F ) :   1.1313 B(  7-C ,  9-F ) :   1.1766
B(  7-C , 10-F ) :   1.1654 B( 11-C , 12-C ) :   1.6802 B( 11-C , 72-H ) :   0.9472
B( 12-C , 13-C ) :   1.1639 B( 12-C , 73-H ) :   0.9295 B( 13-C , 14-C ) :   1.5273
B( 13-C , 20-C ) :   1.0393 B( 14-C , 15-N ) :   0.9382 B( 14-C , 18-C ) :   1.1303
B( 15-N , 16-O ) :   1.5348 B( 15-N , 17-O ) :   1.4974 B( 16-O , 17-O ) :   0.2661
B( 18-C , 19-C ) :   1.5761 B( 18-C , 74-H ) :   1.0147 B( 19-C , 20-C ) :   1.1322
B( 19-C , 75-H ) :   0.9967 B( 20-C , 21-C ) :   1.4692 B( 21-C , 22-C ) :   1.1557
B( 21-C , 28-C ) :   1.0023 B( 22-C , 23-C ) :   1.5479 B( 22-C , 76-H ) :   0.9979
B( 23-C , 24-C ) :   1.1406 B( 23-C , 77-H ) :   1.0130 B( 24-C , 25-N ) :   0.9453
B( 24-C , 28-C ) :   1.4812 B( 25-N , 26-O ) :   1.5237 B( 25-N , 27-O ) :   1.5002
B( 26-O , 27-O ) :   0.2624 B( 28-C , 29-C ) :   1.2129 B( 29-C , 30-C ) :   1.5064
B( 29-C , 78-H ) :   0.9276 B( 30-C , 31-C ) :   1.2023 B( 30-C , 79-H ) :   0.9480
B( 31-C , 32-N ) :   1.1492 B( 31-C , 38-C ) :   1.3263 B( 32-N , 33-C ) :   0.9450
B( 32-N , 35-C ) :   1.0734 B( 33-C , 34-C ) :   1.1204 B( 33-C , 80-H ) :   0.9490
B( 33-C , 81-H ) :   0.9283 B( 34-C , 82-H ) :   0.9681 B( 34-C , 83-H ) :   0.9678
B( 34-C , 84-H ) :   0.9634 B( 35-C , 36-O ) :   2.0119 B( 35-C , 37-C ) :   0.9906
B( 36-O , 91-H ) :   0.1201 B( 37-C , 38-C ) :   1.2842 B( 37-C , 44-C ) :   1.2998
B( 38-C , 39-C ) :   0.9674 B( 39-C , 40-O ) :   2.0873 B( 39-C , 41-N ) :   1.0358
B( 41-N , 42-C ) :   0.9392 B( 41-N , 44-C ) :   1.1869 B( 42-C , 43-C ) :   1.1212
B( 42-C , 85-H ) :   0.9279 B( 42-C , 86-H ) :   0.9496 B( 43-C , 87-H ) :   0.9636
B( 43-C , 88-H ) :   0.9679 B( 43-C , 89-H ) :   0.9681 B( 44-C , 45-C ) :   1.1564
B( 45-C , 46-C ) :   1.6045 B( 45-C , 90-H ) :   0.9565 B( 46-C , 47-C ) :   1.0772
B( 46-C , 91-H ) :   0.9634 B( 47-C , 48-C ) :   1.2812 B( 47-C , 55-C ) :   1.3137
B( 48-C , 49-C ) :   1.4013 B( 48-C , 92-H ) :   0.9851 B( 49-C , 50-N ) :   0.8775
B( 49-C , 53-C ) :   1.3380 B( 50-N , 51-O ) :   1.5536 B( 50-N , 52-O ) :   1.5310
B( 51-O , 52-O ) :   0.2670 B( 53-C , 54-C ) :   1.3494 B( 53-C , 56-C ) :   1.0649
B( 54-C , 55-C ) :   1.3829 B( 54-C , 93-H ) :   0.9909 B( 55-C , 94-H ) :   1.0019
B( 56-C , 57-C ) :   1.7559 B( 56-C , 95-H ) :   0.9279 B( 57-C , 58-C ) :   1.1194
B( 57-C , 96-H ) :   0.9464 B( 58-C , 59-S ) :   1.1341 B( 58-C , 62-C ) :   1.5161
B( 59-S , 60-C ) :   1.1522 B( 60-C , 61-C ) :   1.5577 B( 60-C , 69-C ) :   1.0567
B( 61-C , 62-C ) :   1.2804 B( 61-C , 65-C ) :   0.9325 B( 62-C , 63-C ) :   1.1237
B( 63-C , 64-N ) :   2.9754 B( 65-C , 66-F ) :   1.1661 B( 65-C , 67-F ) :   1.1481
B( 65-C , 68-F ) :   1.1722 B( 69-C , 70-C ) :   1.9615 B( 69-C , 97-H ) :   0.9507
B( 70-C , 98-H ) :   0.9548 B( 70-C , 99-H ) :   0.9481

-----------------------------------------------------------------------------
         ABSORPTION SPECTRUM VIA TRANSITION ELECTRIC DIPOLE MOMENTS
-----------------------------------------------------------------------------
State   Energy  Wavelength   fosc         T2         TX        TY        TZ
        (cm-1)    (nm)                  (au**2)     (au)      (au)      (au)
-----------------------------------------------------------------------------
   0    6800.3   1470.5   0.263437019  12.75334  -2.39633   2.50140  -0.86830
   1   13606.5    734.9   0.014943967   0.36157   0.41269  -0.09169  -0.42761
   2   16511.8    605.6   0.464807145   9.26734  -1.55341   2.53892  -0.63887
   3   18156.0    550.8   0.010758673   0.19508   0.36548  -0.15297  -0.19521
   4   22985.6    435.1   0.241540445   3.45946   0.96524  -1.54410  -0.37885
   5   23288.6    429.4   0.151895612   2.14722   0.86054  -1.18366   0.07518
   6   24019.9    416.3   0.033797554   0.46322  -0.37409   0.45707  -0.33818
   7   25018.8    399.7   0.027156423   0.35734   0.23664   0.53897   0.10418
   8   25235.1    396.3   0.040252128   0.52512  -0.03066  -0.61416   0.38338
   9   25814.5    387.4   0.098508400   1.25628  -0.36096   0.03534  -1.06054
  10   25990.3    384.8   0.073702831   0.93357   0.00631   0.47149   0.84334
  11   26320.5    379.9   0.085375119   1.06786   0.76766   0.24682  -0.64625
  12   26879.3    372.0   0.049828029   0.61028   0.35741  -0.49172   0.49067
  13   27863.9    358.9   0.032021554   0.37833  -0.00003   0.61043  -0.07560
  14   28436.9    351.7   0.468669321   5.42575  -1.12681   1.93080   0.65426
  15   28994.3    344.9   0.225347951   2.55868   1.39593  -0.68884   0.36820
  16   29307.2    341.2   0.023122898   0.25974   0.19331  -0.45588  -0.12060
  17   29546.2    338.5   0.089341879   0.99547   0.48676  -0.86644   0.08844
  18   30174.1    331.4   0.072391263   0.78982  -0.55702   0.69047  -0.05289
  19   30673.7    326.0   0.029704948   0.31881   0.15543  -0.49240  -0.22847
  20   30783.1    324.9   0.033775466   0.36121  -0.19416   0.20363   0.53108
  21   31323.0    319.3   0.022174059   0.23305   0.02584  -0.00109   0.48206
  22   31423.4    318.2   0.220100666   2.30592  -0.30947  -1.30368  -0.71453
  23   31601.0    316.4   0.015280169   0.15919   0.14482  -0.24242   0.28186
  24   31709.2    315.4   0.249812145   2.59361   0.06969   1.35908   0.86119
  25   32151.8    311.0   0.011615981   0.11894   0.23957   0.03253   0.24594
  26   32895.7    304.0   0.587582222   5.88037  -0.84202  -2.23960  -0.39444
  27   33072.1    302.4   0.011168007   0.11117   0.14453   0.26859   0.13469
  28   33477.5    298.7   0.180923821   1.77918   0.51609   1.21724   0.17653
  29   34350.4    291.1   0.071638340   0.68658  -0.76739  -0.19468  -0.24451
  30   34385.4    290.8   0.024274357   0.23241  -0.15517   0.37713  -0.25711
  31   34599.8    289.0   0.031991184   0.30439  -0.41417   0.03416  -0.36289
  32   35804.9    279.3   0.026694246   0.24544  -0.14388   0.41401   0.23094
  33   35894.9    278.6   0.011582938   0.10623   0.00709  -0.18383  -0.26905
  34   36550.9    273.6   0.052240610   0.47053  -0.13775   0.43860   0.50910
  35   36687.8    272.6   0.086037519   0.77204  -0.17393  -0.85597   0.09540
  36   36726.3    272.3   0.035076446   0.31442  -0.30757   0.29702  -0.36277
  37   37033.8    270.0   0.173555214   1.54282   0.60460  -1.07967  -0.10762
  38   37276.9    268.3   0.071547065   0.63187   0.72769   0.29611   0.12110
  39   37986.5    263.3   0.007233175   0.06269   0.10860   0.22557   0.00308
  40   38081.1    262.6   0.040114964   0.34679  -0.44969  -0.34173  -0.16670
  41   38114.0    262.4   0.033292176   0.28756  -0.15570  -0.33869   0.38550
  42   38639.7    258.8   0.051603514   0.43966  -0.45159  -0.36209  -0.32345
  43   39190.7    255.2   0.017185093   0.14436  -0.37288   0.07003   0.02044
  44   39529.9    253.0   0.162619257   1.35432  -0.57412   1.01132  -0.04400
  45   39782.1    251.4   0.162113261   1.34155  -0.28571   0.57392  -0.96464
  46   40018.1    249.9   0.004841256   0.03983   0.11352  -0.12748  -0.10339
  47   40054.3    249.7   0.039589780   0.32539   0.13290  -0.45986  -0.31025

FINAL SINGLE POINT ENERGY     -4222.319482051575

DIPOLE MOMENT
-------------
                                X             Y             Z
Electronic contribution:     -4.91155       2.64969     -11.64933
Nuclear contribution   :      5.76747      -5.01290       9.70626
                        -----------------------------------------
Total Dipole Moment    :      0.85592      -2.36321      -1.94307
                        -----------------------------------------
Magnitude (a.u.)       :      3.17693
Magnitude (Debye)      :      8.07511

Rotational constants in cm-1:     0.002292     0.000209     0.000200
Rotational constants in MHz :    68.703225     6.252748     6.009362

                             ****ORCA TERMINATED NORMALLY****
TOTAL RUN TIME: 0 days 0 hours 10 minutes 19 seconds 107 msec
