                         Program Version 4.2.0 -  RELEASE  -
|  1> # ORCA input file
|  2> # SCF done       -159.793763279040          0.000857112523
|  3> ! CAM-B3LYP def2-SVP def2/J RIJCOSX Grid4 TightSCF
|  4> %maxcore 5000
|  5> %tddft
|  6>     Mode sTDDFT
|  7>     Ethresh 5.0
|  8>     maxcore 5000
|  9> end
| 10>
| 11> %pal
| 12>   nprocs 6
| 13>   end
| 14> * xyz 0 1
| 15>    C        0.06826         0.96971         2.83631
| 16>    O       -0.07451        -0.33931         2.66308
| 17>    C       -1.28370        -0.69637         3.17236
| 18>    C       -1.91267         0.41915         3.68070
| 19>    C       -1.03417         1.51044         3.46148
| 20>    C       -1.29914         2.91088         3.83326
| 21>    O       -2.31764         3.23655         4.39512
| 22>    C       -0.21768         3.89329         3.45984
| 23>    C       -1.70191        -2.05595         3.09140
| 24>    C       -1.01238        -3.10636         2.53691
| 25>    C       -1.79998        -4.28732         2.65120
| 26>    C       -3.05478        -3.88277         3.31676
| 27>    C       -2.98284        -2.55014         3.57194
| 28>    C       -4.17909        -4.68023         3.56420
| 29>    N       -5.14349        -5.27614         3.74831
| 30>    C       -1.48484        -5.55365         2.21103
| 31>    C       -2.24571        -6.74135         2.37469
| 32>    C       -1.63484        -7.77590         1.68722
| 33>    C       -0.42171        -7.24690         1.08390
| 34>    C       -0.30829        -5.93186         1.41083
| 35>    C        0.74904        -5.10618         1.01359
| 36>    N        1.63825        -4.46546         0.66910
| 37>    C       -2.16550        -9.09009         1.62707
| 38>    N       -1.89705       -10.06388         0.69730
| 39>    C       -1.06846        -9.97892        -0.48305
| 40>    C       -1.61930        -8.99321        -1.50810
| 41>    C       -2.67034       -11.22248         0.91627
| 42>    O       -2.61778       -12.20163         0.20088
| 43>    C       -3.43779       -10.92830         2.10485
| 44>    C       -3.11119        -9.62070         2.51455
| 45>    C       -3.82164        -9.34621         3.74977
| 46>    O       -3.82460        -8.39581         4.49850
| 47>    N       -4.56745       -10.51982         3.98297
| 48>    C       -5.47461       -10.60432         5.10218
| 49>    C       -6.91320       -10.30658         4.68736
| 50>    C       -4.36261       -11.46859         3.01267
| 51>    C       -4.99601       -12.72765         2.98791
| 52>    C       -4.78030       -13.63569         1.99063
| 53>    C       -5.39879       -14.90104         1.89403
| 54>    C       -5.19847       -15.80322         0.86429
| 55>    C       -5.99430       -16.95992         1.08567
| 56>    C       -6.71477       -16.71839         2.35111
| 57>    C       -6.35415       -15.49512         2.81906
| 58>    C       -7.62013       -17.57566         2.98650
| 59>    N       -8.36454       -18.24777         3.54706
| 60>    C       -6.09559       -18.07810         0.28885
| 61>    C       -6.90447       -19.23118         0.50668
| 62>    C       -6.72839       -20.11014        -0.53820
| 63>    C       -5.77734       -19.52223        -1.47026
| 64>    C       -5.39152       -18.31325        -0.98635
| 65>    C       -4.48542       -17.45476        -1.61920
| 66>    N       -3.74112       -16.77218        -2.16649
| 67>    C       -7.40444       -21.36257        -0.65375
| 68>    O       -8.28318       -21.64954         0.33166
| 69>    C       -8.85660       -22.82407         0.05375
| 70>    C       -8.38261       -23.32824        -1.11607
| 71>    C       -7.42440       -22.39480        -1.60009
| 72>    C       -6.64077       -22.56731        -2.83047
| 73>    O       -5.63442       -21.94144        -3.07990
| 74>    C       -7.17025       -23.61718        -3.77649
| 75>    H        0.97998         1.41213         2.48405
| 76>    H       -2.87280         0.47675         4.14934
| 77>    H       -0.06011         3.87737         2.38388
| 78>    H        0.71498         3.62005         3.94771
| 79>    H       -0.51039         4.89279         3.76944
| 80>    H       -0.03476        -3.05477         2.10060
| 81>    H       -3.73892        -1.94760         4.03809
| 82>    H       -3.15191        -6.81480         2.94180
| 83>    H        0.29792        -7.80111         0.51310
| 84>    H       -1.06814       -10.98761        -0.90774
| 85>    H       -0.04271        -9.72825        -0.20180
| 86>    H       -2.61844        -9.29410        -1.81442
| 87>    H       -0.97687        -8.98186        -2.38426
| 88>    H       -1.67023        -7.98550        -1.10103
| 89>    H       -5.13945        -9.85004         5.81957
| 90>    H       -5.39370       -11.59176         5.56493
| 91>    H       -6.97755        -9.30187         4.27725
| 92>    H       -7.56609       -10.36970         5.55339
| 93>    H       -7.25839       -11.01217         3.93443
| 94>    H       -5.68089       -12.95929         3.79063
| 95>    H       -4.09148       -13.38690         1.19383
| 96>    H       -4.54701       -15.65264         0.02592
| 97>    H       -6.71404       -15.04179         3.72402
| 98>    H       -7.54846       -19.38208         1.35020
| 99>    H       -5.43916       -19.99060        -2.37380
|100>    H       -9.57989       -23.19545         0.75297
|101>    H       -8.66695       -24.25552        -1.56743
|102>    H       -8.22959       -23.46469        -3.96702
|103>    H       -7.03356       -24.60392        -3.33834
|104>    H       -6.61546       -23.56846        -4.70982
|105> *
|106>
|107>                          ****END OF INPUT****

CARTESIAN COORDINATES (ANGSTROEM)
---------------------------------
  C      0.068260    0.969710    2.836310
  O     -0.074510   -0.339310    2.663080
  C     -1.283700   -0.696370    3.172360
  C     -1.912670    0.419150    3.680700
  C     -1.034170    1.510440    3.461480
  C     -1.299140    2.910880    3.833260
  O     -2.317640    3.236550    4.395120
  C     -0.217680    3.893290    3.459840
  C     -1.701910   -2.055950    3.091400
  C     -1.012380   -3.106360    2.536910
  C     -1.799980   -4.287320    2.651200
  C     -3.054780   -3.882770    3.316760
  C     -2.982840   -2.550140    3.571940
  C     -4.179090   -4.680230    3.564200
  N     -5.143490   -5.276140    3.748310
  C     -1.484840   -5.553650    2.211030
  C     -2.245710   -6.741350    2.374690
  C     -1.634840   -7.775900    1.687220
  C     -0.421710   -7.246900    1.083900
  C     -0.308290   -5.931860    1.410830
  C      0.749040   -5.106180    1.013590
  N      1.638250   -4.465460    0.669100
  C     -2.165500   -9.090090    1.627070
  N     -1.897050  -10.063880    0.697300
  C     -1.068460   -9.978920   -0.483050
  C     -1.619300   -8.993210   -1.508100
  C     -2.670340  -11.222480    0.916270
  O     -2.617780  -12.201630    0.200880
  C     -3.437790  -10.928300    2.104850
  C     -3.111190   -9.620700    2.514550
  C     -3.821640   -9.346210    3.749770
  O     -3.824600   -8.395810    4.498500
  N     -4.567450  -10.519820    3.982970
  C     -5.474610  -10.604320    5.102180
  C     -6.913200  -10.306580    4.687360
  C     -4.362610  -11.468590    3.012670
  C     -4.996010  -12.727650    2.987910
  C     -4.780300  -13.635690    1.990630
  C     -5.398790  -14.901040    1.894030
  C     -5.198470  -15.803220    0.864290
  C     -5.994300  -16.959920    1.085670
  C     -6.714770  -16.718390    2.351110
  C     -6.354150  -15.495120    2.819060
  C     -7.620130  -17.575660    2.986500
  N     -8.364540  -18.247770    3.547060
  C     -6.095590  -18.078100    0.288850
  C     -6.904470  -19.231180    0.506680
  C     -6.728390  -20.110140   -0.538200
  C     -5.777340  -19.522230   -1.470260
  C     -5.391520  -18.313250   -0.986350
  C     -4.485420  -17.454760   -1.619200
  N     -3.741120  -16.772180   -2.166490
  C     -7.404440  -21.362570   -0.653750
  O     -8.283180  -21.649540    0.331660
  C     -8.856600  -22.824070    0.053750
  C     -8.382610  -23.328240   -1.116070
  C     -7.424400  -22.394800   -1.600090
  C     -6.640770  -22.567310   -2.830470
  O     -5.634420  -21.941440   -3.079900
  C     -7.170250  -23.617180   -3.776490
  H      0.979980    1.412130    2.484050
  H     -2.872800    0.476750    4.149340
  H     -0.060110    3.877370    2.383880
  H      0.714980    3.620050    3.947710
  H     -0.510390    4.892790    3.769440
  H     -0.034760   -3.054770    2.100600
  H     -3.738920   -1.947600    4.038090
  H     -3.151910   -6.814800    2.941800
  H      0.297920   -7.801110    0.513100
  H     -1.068140  -10.987610   -0.907740
  H     -0.042710   -9.728250   -0.201800
  H     -2.618440   -9.294100   -1.814420
  H     -0.976870   -8.981860   -2.384260
  H     -1.670230   -7.985500   -1.101030
  H     -5.139450   -9.850040    5.819570
  H     -5.393700  -11.591760    5.564930
  H     -6.977550   -9.301870    4.277250
  H     -7.566090  -10.369700    5.553390
  H     -7.258390  -11.012170    3.934430
  H     -5.680890  -12.959290    3.790630
  H     -4.091480  -13.386900    1.193830
  H     -4.547010  -15.652640    0.025920
  H     -6.714040  -15.041790    3.724020
  H     -7.548460  -19.382080    1.350200
  H     -5.439160  -19.990600   -2.373800
  H     -9.579890  -23.195450    0.752970
  H     -8.666950  -24.255520   -1.567430
  H     -8.229590  -23.464690   -3.967020
  H     -7.033560  -24.603920   -3.338340
  H     -6.615460  -23.568460   -4.709820

 Total Charge           Charge          ....    0
 Multiplicity           Mult            ....    1
 Number of Electrons    NEL             ....  408
 Basis Dimension        Dim             ....  990

ORBITAL ENERGIES
----------------

  NO   OCC          E(Eh)            E(eV)
   0   2.0000     -19.312880      -525.5302
   1   2.0000     -19.310946      -525.4776
   2   2.0000     -19.214642      -522.8570
   3   2.0000     -19.208308      -522.6846
   4   2.0000     -19.194668      -522.3135
   5   2.0000     -19.194326      -522.3042
   6   2.0000     -14.458531      -393.4366
   7   2.0000     -14.456712      -393.3871
   8   2.0000     -14.408789      -392.0831
   9   2.0000     -14.407505      -392.0481
  10   2.0000     -14.403722      -391.9452
  11   2.0000     -14.399865      -391.8402
  12   2.0000     -10.377233      -282.3789
  13   2.0000     -10.376794      -282.3669
  14   2.0000     -10.372249      -282.2432
  15   2.0000     -10.364963      -282.0450
  16   2.0000     -10.358074      -281.8575
  17   2.0000     -10.354184      -281.7517
  18   2.0000     -10.347783      -281.5775
  19   2.0000     -10.345834      -281.5245
  20   2.0000     -10.344403      -281.4855
  21   2.0000     -10.343124      -281.4507
  22   2.0000     -10.324109      -280.9333
  23   2.0000     -10.321982      -280.8754
  24   2.0000     -10.320710      -280.8408
  25   2.0000     -10.318345      -280.7764
  26   2.0000     -10.316554      -280.7277
  27   2.0000     -10.316352      -280.7222
  28   2.0000     -10.314585      -280.6741
  29   2.0000     -10.311130      -280.5801
  30   2.0000     -10.310799      -280.5711
  31   2.0000     -10.310607      -280.5659
  32   2.0000     -10.309883      -280.5462
  33   2.0000     -10.309686      -280.5408
  34   2.0000     -10.309580      -280.5379
  35   2.0000     -10.309570      -280.5377
  36   2.0000     -10.309442      -280.5342
  37   2.0000     -10.307357      -280.4774
  38   2.0000     -10.306881      -280.4645
  39   2.0000     -10.305551      -280.4283
  40   2.0000     -10.304794      -280.4077
  41   2.0000     -10.302053      -280.3331
  42   2.0000     -10.299955      -280.2760
  43   2.0000     -10.299172      -280.2547
  44   2.0000     -10.298729      -280.2427
  45   2.0000     -10.297505      -280.2094
  46   2.0000     -10.295289      -280.1491
  47   2.0000     -10.291514      -280.0463
  48   2.0000     -10.289703      -279.9970
  49   2.0000     -10.287629      -279.9406
  50   2.0000     -10.285959      -279.8952
  51   2.0000     -10.283930      -279.8400
  52   2.0000     -10.283884      -279.8387
  53   2.0000     -10.281428      -279.7719
  54   2.0000     -10.276132      -279.6278
  55   2.0000     -10.273615      -279.5593
  56   2.0000     -10.268587      -279.4225
  57   2.0000     -10.266673      -279.3704
  58   2.0000     -10.265498      -279.3384
  59   2.0000     -10.263515      -279.2844
  60   2.0000      -1.233376       -33.5619
  61   2.0000      -1.232478       -33.5374
  62   2.0000      -1.138160       -30.9709
  63   2.0000      -1.133053       -30.8319
  64   2.0000      -1.131624       -30.7931
  65   2.0000      -1.126132       -30.6436
  66   2.0000      -1.068158       -29.0661
  67   2.0000      -1.059783       -28.8382
  68   2.0000      -1.014768       -27.6132
  69   2.0000      -1.013730       -27.5850
  70   2.0000      -0.998568       -27.1724
  71   2.0000      -0.996942       -27.1282
  72   2.0000      -0.983286       -26.7566
  73   2.0000      -0.982663       -26.7396
  74   2.0000      -0.978858       -26.6361
  75   2.0000      -0.976643       -26.5758
  76   2.0000      -0.932499       -25.3746
  77   2.0000      -0.923189       -25.1212
  78   2.0000      -0.919774       -25.0283
  79   2.0000      -0.915831       -24.9210
  80   2.0000      -0.899341       -24.4723
  81   2.0000      -0.893809       -24.3218
  82   2.0000      -0.881815       -23.9954
  83   2.0000      -0.870345       -23.6833
  84   2.0000      -0.859706       -23.3938
  85   2.0000      -0.853794       -23.2329
  86   2.0000      -0.851224       -23.1630
  87   2.0000      -0.844427       -22.9780
  88   2.0000      -0.839678       -22.8488
  89   2.0000      -0.829412       -22.5694
  90   2.0000      -0.826983       -22.5034
  91   2.0000      -0.823261       -22.4021
  92   2.0000      -0.807379       -21.9699
  93   2.0000      -0.796330       -21.6693
  94   2.0000      -0.771510       -20.9939
  95   2.0000      -0.763410       -20.7734
  96   2.0000      -0.761597       -20.7241
  97   2.0000      -0.739955       -20.1352
  98   2.0000      -0.735743       -20.0206
  99   2.0000      -0.725819       -19.7505
 100   2.0000      -0.718424       -19.5493
 101   2.0000      -0.713696       -19.4207
 102   2.0000      -0.709395       -19.3036
 103   2.0000      -0.708184       -19.2707
 104   2.0000      -0.706485       -19.2244
 105   2.0000      -0.691007       -18.8032
 106   2.0000      -0.680176       -18.5085
 107   2.0000      -0.678789       -18.4708
 108   2.0000      -0.678422       -18.4608
 109   2.0000      -0.667897       -18.1744
 110   2.0000      -0.667196       -18.1553
 111   2.0000      -0.651654       -17.7324
 112   2.0000      -0.639871       -17.4118
 113   2.0000      -0.639002       -17.3881
 114   2.0000      -0.625632       -17.0243
 115   2.0000      -0.616263       -16.7694
 116   2.0000      -0.612862       -16.6768
 117   2.0000      -0.604560       -16.4509
 118   2.0000      -0.599954       -16.3256
 119   2.0000      -0.593005       -16.1365
 120   2.0000      -0.589761       -16.0482
 121   2.0000      -0.583518       -15.8783
 122   2.0000      -0.576294       -15.6817
 123   2.0000      -0.576201       -15.6792
 124   2.0000      -0.570255       -15.5174
 125   2.0000      -0.564851       -15.3704
 126   2.0000      -0.559354       -15.2208
 127   2.0000      -0.552946       -15.0464
 128   2.0000      -0.550172       -14.9710
 129   2.0000      -0.547748       -14.9050
 130   2.0000      -0.543839       -14.7986
 131   2.0000      -0.540181       -14.6991
 132   2.0000      -0.538064       -14.6415
 133   2.0000      -0.536192       -14.5905
 134   2.0000      -0.533859       -14.5271
 135   2.0000      -0.532681       -14.4950
 136   2.0000      -0.529947       -14.4206
 137   2.0000      -0.527663       -14.3584
 138   2.0000      -0.526511       -14.3271
 139   2.0000      -0.523072       -14.2335
 140   2.0000      -0.521809       -14.1991
 141   2.0000      -0.517888       -14.0925
 142   2.0000      -0.517317       -14.0769
 143   2.0000      -0.516601       -14.0574
 144   2.0000      -0.515160       -14.0182
 145   2.0000      -0.510211       -13.8835
 146   2.0000      -0.506049       -13.7703
 147   2.0000      -0.502705       -13.6793
 148   2.0000      -0.502053       -13.6615
 149   2.0000      -0.498796       -13.5729
 150   2.0000      -0.497686       -13.5427
 151   2.0000      -0.495950       -13.4955
 152   2.0000      -0.490737       -13.3536
 153   2.0000      -0.485268       -13.2048
 154   2.0000      -0.484031       -13.1711
 155   2.0000      -0.483393       -13.1538
 156   2.0000      -0.482152       -13.1200
 157   2.0000      -0.477792       -13.0014
 158   2.0000      -0.476543       -12.9674
 159   2.0000      -0.473950       -12.8968
 160   2.0000      -0.471369       -12.8266
 161   2.0000      -0.471046       -12.8178
 162   2.0000      -0.465600       -12.6696
 163   2.0000      -0.461425       -12.5560
 164   2.0000      -0.457956       -12.4616
 165   2.0000      -0.457587       -12.4516
 166   2.0000      -0.456544       -12.4232
 167   2.0000      -0.455770       -12.4021
 168   2.0000      -0.447907       -12.1882
 169   2.0000      -0.447326       -12.1724
 170   2.0000      -0.447051       -12.1649
 171   2.0000      -0.446231       -12.1426
 172   2.0000      -0.439984       -11.9726
 173   2.0000      -0.437570       -11.9069
 174   2.0000      -0.437393       -11.9021
 175   2.0000      -0.433256       -11.7895
 176   2.0000      -0.431637       -11.7454
 177   2.0000      -0.430069       -11.7028
 178   2.0000      -0.429805       -11.6956
 179   2.0000      -0.427677       -11.6377
 180   2.0000      -0.425838       -11.5876
 181   2.0000      -0.421706       -11.4752
 182   2.0000      -0.413291       -11.2462
 183   2.0000      -0.412701       -11.2302
 184   2.0000      -0.407651       -11.0927
 185   2.0000      -0.395014       -10.7489
 186   2.0000      -0.393285       -10.7018
 187   2.0000      -0.381241       -10.3741
 188   2.0000      -0.374691       -10.1959
 189   2.0000      -0.373459       -10.1623
 190   2.0000      -0.357037        -9.7155
 191   2.0000      -0.351081        -9.5534
 192   2.0000      -0.347705        -9.4615
 193   2.0000      -0.338359        -9.2072
 194   2.0000      -0.335989        -9.1427
 195   2.0000      -0.333102        -9.0642
 196   2.0000      -0.325795        -8.8653
 197   2.0000      -0.321125        -8.7383
 198   2.0000      -0.320270        -8.7150
 199   2.0000      -0.310670        -8.4538
 200   2.0000      -0.301987        -8.2175
 201   2.0000      -0.283899        -7.7253
 202   2.0000      -0.278883        -7.5888
 203   2.0000      -0.235171        -6.3993
 204   0.0000      -0.132413        -3.6031
 205   0.0000      -0.116989        -3.1834
 206   0.0000      -0.060400        -1.6436
 207   0.0000      -0.022396        -0.6094
 208   0.0000      -0.012151        -0.3306

MULLIKEN ATOMIC CHARGES
-----------------------
   0 C :    0.119395
   1 O :   -0.163480
   2 C :    0.142693
   3 C :   -0.073661
   4 C :    0.005307
   5 C :    0.008047
   6 O :   -0.167716
   7 C :    0.027853
   8 C :    0.122600
   9 C :   -0.125285
  10 C :    0.106250
  11 C :   -0.083143
  12 C :   -0.007878
  13 C :   -0.179125
  14 N :    0.147279
  15 C :    0.122345
  16 C :   -0.102952
  17 C :    0.031277
  18 C :   -0.030347
  19 C :   -0.098945
  20 C :   -0.181981
  21 N :    0.138517
  22 C :    0.152985
  23 N :   -0.258375
  24 C :    0.096698
  25 C :   -0.007510
  26 C :    0.163965
  27 O :   -0.199961
  28 C :   -0.073614
  29 C :   -0.051184
  30 C :    0.147975
  31 O :   -0.180390
  32 N :   -0.259841
  33 C :    0.098763
  34 C :    0.000363
  35 C :    0.157515
  36 C :   -0.030244
  37 C :    0.012514
  38 C :    0.104235
  39 C :   -0.097111
  40 C :    0.121498
  41 C :   -0.100340
  42 C :   -0.007096
  43 C :   -0.175267
  44 N :    0.133302
  45 C :    0.126497
  46 C :   -0.121327
  47 C :    0.061110
  48 C :    0.005586
  49 C :   -0.104290
  50 C :   -0.179297
  51 N :    0.139742
  52 C :    0.135822
  53 O :   -0.170411
  54 C :    0.162925
  55 C :   -0.035967
  56 C :   -0.022376
  57 C :    0.002528
  58 O :   -0.181162
  59 C :    0.030395
  60 H :    0.020715
  61 H :    0.001829
  62 H :    0.039735
  63 H :    0.038224
  64 H :    0.036497
  65 H :    0.004389
  66 H :    0.001574
  67 H :    0.025471
  68 H :   -0.011988
  69 H :    0.052783
  70 H :    0.024354
  71 H :    0.028394
  72 H :    0.028402
  73 H :    0.030525
  74 H :    0.048106
  75 H :    0.021396
  76 H :    0.040868
  77 H :    0.025809
  78 H :    0.013303
  79 H :   -0.030644
  80 H :    0.018056
  81 H :    0.020499
  82 H :   -0.003294
  83 H :    0.008417
  84 H :    0.017032
  85 H :    0.023461
  86 H :   -0.003679
  87 H :    0.041395
  88 H :    0.044179
  89 H :    0.038488
Sum of atomic charges:   -0.0000000

LOEWDIN ATOMIC CHARGES
----------------------
   0 C :    0.074273
   1 O :    0.039867
   2 C :    0.025286
   3 C :   -0.016305
   4 C :   -0.116243
   5 C :    0.079530
   6 O :   -0.140514
   7 C :   -0.077180
   8 C :   -0.017588
   9 C :   -0.032986
  10 C :    0.048486
  11 C :   -0.071853
  12 C :    0.054487
  13 C :   -0.033757
  14 N :   -0.050082
  15 C :    0.025089
  16 C :    0.014671
  17 C :   -0.039792
  18 C :    0.043781
  19 C :   -0.080438
  20 C :   -0.031380
  21 N :   -0.064141
  22 C :    0.071443
  23 N :    0.000427
  24 C :    0.035281
  25 C :   -0.061062
  26 C :    0.079995
  27 O :   -0.189880
  28 C :   -0.118440
  29 C :   -0.103933
  30 C :    0.082144
  31 O :   -0.174826
  32 N :    0.000110
  33 C :    0.036485
  34 C :   -0.060897
  35 C :    0.081554
  36 C :   -0.045088
  37 C :    0.040957
  38 C :   -0.025594
  39 C :    0.000233
  40 C :    0.029886
  41 C :   -0.077806
  42 C :    0.050309
  43 C :   -0.030666
  44 N :   -0.063425
  45 C :    0.044333
  46 C :   -0.016617
  47 C :   -0.025204
  48 C :    0.066140
  49 C :   -0.088658
  50 C :   -0.030705
  51 N :   -0.061511
  52 C :    0.063352
  53 O :    0.042043
  54 C :    0.054785
  55 C :   -0.062077
  56 C :   -0.101578
  57 C :    0.086950
  58 O :   -0.143065
  59 C :   -0.073075
  60 H :    0.029327
  61 H :    0.038789
  62 H :    0.042037
  63 H :    0.041739
  64 H :    0.041202
  65 H :    0.036360
  66 H :    0.038009
  67 H :    0.038704
  68 H :    0.034609
  69 H :    0.040868
  70 H :    0.019510
  71 H :    0.032998
  72 H :    0.033858
  73 H :    0.024055
  74 H :    0.039899
  75 H :    0.022003
  76 H :    0.036873
  77 H :    0.031547
  78 H :    0.020736
  79 H :    0.027459
  80 H :    0.043428
  81 H :    0.041928
  82 H :    0.034049
  83 H :    0.035441
  84 H :    0.036545
  85 H :    0.030234
  86 H :    0.033354
  87 H :    0.041041
  88 H :    0.046099
  89 H :    0.041769

  Mayer bond orders larger than 0.100000
B(  0-C ,  1-O ) :   1.1999 B(  0-C ,  4-C ) :   1.4805 B(  0-C , 60-H ) :   0.9956
B(  1-O ,  2-C ) :   1.1542 B(  2-C ,  3-C ) :   1.4914 B(  2-C ,  8-C ) :   1.0206
B(  3-C ,  4-C ) :   1.2198 B(  3-C , 61-H ) :   1.0175 B(  4-C ,  5-C ) :   0.9073
B(  5-C ,  6-O ) :   2.2342 B(  5-C ,  7-C ) :   1.0638 B(  7-C , 62-H ) :   0.9480
B(  7-C , 63-H ) :   0.9474 B(  7-C , 64-H ) :   0.9494 B(  8-C ,  9-C ) :   1.5389
B(  8-C , 12-C ) :   1.0672 B(  9-C , 10-C ) :   1.1134 B(  9-C , 65-H ) :   1.0169
B( 10-C , 11-C ) :   1.1032 B( 10-C , 15-C ) :   1.3814 B( 11-C , 12-C ) :   1.6818
B( 11-C , 13-C ) :   1.0844 B( 12-C , 66-H ) :   1.0168 B( 13-C , 14-N ) :   2.9811
B( 15-C , 16-C ) :   1.1228 B( 15-C , 19-C ) :   1.1075 B( 16-C , 17-C ) :   1.5381
B( 16-C , 67-H ) :   0.9912 B( 17-C , 18-C ) :   1.0304 B( 17-C , 22-C ) :   1.0428
B( 18-C , 19-C ) :   1.6563 B( 18-C , 68-H ) :   1.0291 B( 19-C , 20-C ) :   1.0845
B( 20-C , 21-N ) :   2.9707 B( 22-C , 23-N ) :   1.2009 B( 22-C , 29-C ) :   1.3645
B( 23-N , 24-C ) :   0.9411 B( 23-N , 26-C ) :   1.0467 B( 24-C , 25-C ) :   1.1165
B( 24-C , 69-H ) :   0.9218 B( 24-C , 70-H ) :   0.9516 B( 25-C , 71-H ) :   0.9616
B( 25-C , 72-H ) :   0.9662 B( 25-C , 73-H ) :   0.9666 B( 26-C , 27-O ) :   2.0242
B( 26-C , 28-C ) :   0.9951 B( 27-O , 80-H ) :   0.1130 B( 28-C , 29-C ) :   1.2628
B( 28-C , 35-C ) :   1.2986 B( 29-C , 30-C ) :   0.9665 B( 30-C , 31-O ) :   2.1037
B( 30-C , 32-N ) :   1.0370 B( 32-N , 33-C ) :   0.9436 B( 32-N , 35-C ) :   1.1724
B( 33-C , 34-C ) :   1.1211 B( 33-C , 74-H ) :   0.9265 B( 33-C , 75-H ) :   0.9501
B( 34-C , 76-H ) :   0.9638 B( 34-C , 77-H ) :   0.9679 B( 34-C , 78-H ) :   0.9682
B( 35-C , 36-C ) :   1.1742 B( 36-C , 37-C ) :   1.5346 B( 36-C , 79-H ) :   0.9654
B( 37-C , 38-C ) :   1.1329 B( 37-C , 80-H ) :   0.9572 B( 38-C , 39-C ) :   1.4939
B( 38-C , 42-C ) :   1.0385 B( 39-C , 40-C ) :   1.1150 B( 39-C , 81-H ) :   1.0111
B( 40-C , 41-C ) :   1.1046 B( 40-C , 45-C ) :   1.3974 B( 41-C , 42-C ) :   1.6849
B( 41-C , 43-C ) :   1.0908 B( 42-C , 82-H ) :   1.0151 B( 43-C , 44-N ) :   2.9682
B( 45-C , 46-C ) :   1.0954 B( 45-C , 49-C ) :   1.1059 B( 46-C , 47-C ) :   1.5391
B( 46-C , 83-H ) :   1.0128 B( 47-C , 48-C ) :   1.0777 B( 47-C , 52-C ) :   1.0524
B( 48-C , 49-C ) :   1.6491 B( 48-C , 84-H ) :   1.0060 B( 49-C , 50-C ) :   1.0939
B( 50-C , 51-N ) :   2.9688 B( 52-C , 53-O ) :   1.2124 B( 52-C , 56-C ) :   1.4413
B( 53-O , 54-C ) :   1.1421 B( 54-C , 55-C ) :   1.5437 B( 54-C , 85-H ) :   1.0044
B( 55-C , 56-C ) :   1.2263 B( 55-C , 86-H ) :   0.9930 B( 56-C , 57-C ) :   0.9296
B( 57-C , 58-O ) :   2.1407 B( 57-C , 59-C ) :   1.0673 B( 59-C , 87-H ) :   0.9553
B( 59-C , 88-H ) :   0.9386 B( 59-C , 89-H ) :   0.9492

-----------------------------------------------------------------------------
         ABSORPTION SPECTRUM VIA TRANSITION ELECTRIC DIPOLE MOMENTS
-----------------------------------------------------------------------------
State   Energy  Wavelength   fosc         T2         TX        TY        TZ
        (cm-1)    (nm)                  (au**2)     (au)      (au)      (au)
-----------------------------------------------------------------------------
   0    8169.6   1224.1   0.677261566  27.29183  -1.36479  -4.99767  -0.67268
   1   11711.9    853.8   0.107276858   3.01546   0.76084   1.41605   0.65679
   2   15649.9    639.0   0.059763115   1.25718   0.14977   0.81115   0.75946
   3   16163.2    618.7   0.125573644   2.55769  -0.26755   1.48158   0.53946
   4   19496.5    512.9   0.046094144   0.77833  -0.50193   0.01679   0.72534
   5   20418.5    489.8   0.094315114   1.52066  -0.74113  -0.92771   0.33278
   6   21891.3    456.8   0.293107261   4.40789  -1.17821  -1.68501   0.42479
   7   23917.9    418.1   0.012315966   0.16952  -0.02783  -0.35741  -0.20250
   8   24398.1    409.9   0.538135864   7.26125   0.38956   2.31239   1.32753
   9   25372.4    394.1   0.038711770   0.50229  -0.02268  -0.70022  -0.10713
  10   25575.5    391.0   0.056737660   0.73034  -0.12070  -0.52706  -0.66180
  11   25848.1    386.9   0.522857319   6.65931   0.06605  -2.42809  -0.87138
  12   26602.8    375.9   0.100575819   1.24464  -0.28782   1.02293   0.33972
  13   27518.4    363.4   0.001641494   0.01964   0.00276  -0.09129  -0.10629
  14   28142.6    355.3   0.003763636   0.04403  -0.00570   0.17929   0.10885
  15   28279.4    353.6   0.022658559   0.26378   0.17878   0.45820   0.14789
  16   29010.1    344.7   0.004275681   0.04852  -0.10101   0.08519   0.17624
  17   29531.5    338.6   0.065610209   0.73141   0.22958   0.80333   0.18264
  18   30997.2    322.6   0.036921640   0.39213  -0.02451   0.45813   0.42621
  19   31081.6    321.7   0.000006859   0.00007  -0.00611  -0.00536   0.00257
  20   32622.6    306.5   0.003269311   0.03299   0.05851   0.17100   0.01808
  21   33441.5    299.0   0.092310625   0.90874  -0.48343  -0.82110  -0.02904
  22   33654.5    297.1   0.388230740   3.79771  -0.06291  -1.60921  -1.09736
  23   34013.6    294.0   0.016433218   0.15905   0.33106  -0.22203   0.01243
  24   34054.0    293.7   0.052295690   0.50556   0.25326   0.65410   0.11651
  25   34953.8    286.1   0.036070408   0.33973  -0.45113   0.20941   0.30391
  26   35032.8    285.4   0.154066520   1.44780   0.11908   1.17071   0.25112
  27   35143.2    284.6   0.005061332   0.04741  -0.15742  -0.00714   0.15027
  28   35484.3    281.8   0.011165907   0.10359  -0.22636  -0.22238   0.05388
  29   35625.0    280.7   0.009803008   0.09059  -0.28515  -0.01590   0.09502
  30   36181.7    276.4   0.093055486   0.84670   0.44067   0.80161   0.09963
  31   36735.8    272.2   0.042022974   0.37659  -0.06392   0.43898   0.42404
  32   36909.6    270.9   0.000075887   0.00068  -0.00379   0.00699  -0.02477
  33   37116.5    269.4   0.008051410   0.07141   0.26053  -0.05657   0.01830
  34   37303.2    268.1   0.034943006   0.30838   0.16026   0.50682   0.16073
  35   37743.7    264.9   0.023639045   0.20619   0.05700  -0.40994  -0.18678
  36   38148.2    262.1   0.063583347   0.54871   0.49525   0.04928  -0.54864
  37   38223.5    261.6   0.111689644   0.96196  -0.44208  -0.85651  -0.18145
  38   38659.3    258.7   0.075789503   0.64540   0.04185   0.78883   0.14629
  39   38860.0    257.3   0.014105721   0.11950   0.07239  -0.23698  -0.24104
  40   39183.7    255.2   0.083514606   0.70167   0.54450   0.63400  -0.05686
  41   39334.1    254.2   0.046522140   0.38937  -0.05137   0.52263   0.33703
  42   39908.5    250.6   0.096457253   0.79569   0.39585  -0.30123  -0.74044
  43   40192.9    248.8   0.000006467   0.00005  -0.00088   0.00632   0.00350

FINAL SINGLE POINT ENERGY     -2623.572058185838

DIPOLE MOMENT
-------------
                                X             Y             Z
Electronic contribution:      3.53588      -5.53086       5.91089
Nuclear contribution   :     -4.18524       4.42128      -6.12433
                        -----------------------------------------
Total Dipole Moment    :     -0.64936      -1.10958      -0.21344
                        -----------------------------------------
Magnitude (a.u.)       :      1.30323
Magnitude (Debye)      :      3.31253

Rotational constants in cm-1:     0.004573     0.000316     0.000301
Rotational constants in MHz :   137.099870     9.483439     9.011985

                             ****ORCA TERMINATED NORMALLY****
TOTAL RUN TIME: 0 days 0 hours 7 minutes 45 seconds 742 msec
