                         Program Version 4.2.0 -  RELEASE  -
|  1> # ORCA input file
|  2> # SCF done       -168.475812747612          0.000740836538
|  3> ! CAM-B3LYP def2-SVP def2/J RIJCOSX Grid4 TightSCF
|  4> %maxcore 5000
|  5> %tddft
|  6>     Mode sTDDFT
|  7>     Ethresh 5.0
|  8>     maxcore 5000
|  9> end
| 10>
| 11> %pal
| 12>   nprocs 6
| 13>   end
| 14> * xyz 0 1
| 15>    C        0.65404         0.65785         2.88951
| 16>    O        0.32551        -0.59202         2.59624
| 17>    C       -0.80412        -0.89482         3.28827
| 18>    C       -1.19243         0.19767         4.03552
| 19>    C       -0.24208         1.21582         3.77746
| 20>    C       -0.17058         2.58743         4.30662
| 21>    O        0.72031         3.34219         3.99267
| 22>    C       -1.27794         2.97033         5.25388
| 23>    C       -1.38561        -2.18866         3.15468
| 24>    C       -0.93885        -3.22885         2.37582
| 25>    C       -1.80508        -4.34400         2.55553
| 26>    C       -2.85319        -3.90541         3.49838
| 27>    C       -2.59226        -2.61738         3.84367
| 28>    C       -3.98694        -4.62145         3.90155
| 29>    N       -4.95679        -5.14285         4.22846
| 30>    C       -1.71102        -5.59107         1.97795
| 31>    C       -2.51119        -6.72939         2.25701
| 32>    C       -2.15472        -7.76117         1.40611
| 33>    C       -1.07488        -7.27917         0.55873
| 34>    C       -0.78244        -5.99852         0.91084
| 35>    C        0.21519        -5.21686         0.31793
| 36>    N        1.04367        -4.60643        -0.19245
| 37>    C       -2.78095        -9.03334         1.43159
| 38>    N       -2.81668        -9.97706         0.43717
| 39>    C       -2.29110        -9.88957        -0.90570
| 40>    C       -2.99753        -8.82241        -1.73505
| 41>    C       -3.60463       -11.09095         0.80132
| 42>    O       -3.80461       -12.03154         0.06311
| 43>    C       -4.03651       -10.80292         2.15150
| 44>    C       -3.52279        -9.54123         2.50768
| 45>    C       -3.88516        -9.28157         3.88957
| 46>    O       -3.63437        -8.36836         4.64375
| 47>    N       -4.63327       -10.41403         4.26444
| 48>    C       -5.23395       -10.50590         5.57347
| 49>    C       -6.71047       -10.11998         5.54718
| 50>    C       -4.74642       -11.32557         3.24447
| 51>    C       -5.46917       -12.53013         3.34646
| 52>    C       -5.58431       -13.40226         2.30274
| 53>    C       -6.33651       -14.60237         2.32469
| 54>    C       -6.37777       -15.40971         1.15483
| 55>    C       -7.12946       -16.63313         1.08960
| 56>    N       -7.27143       -17.26599        -0.08778
| 57>    C       -6.60883       -16.83216        -1.12823
| 58>    C       -5.72908       -15.70197        -1.01962
| 59>    N       -5.67644       -15.00854         0.08652
| 60>    C       -4.94855       -15.30509        -2.13438
| 61>    N       -4.34378       -15.02736        -3.06622
| 62>    C       -6.79217       -17.47963        -2.37527
| 63>    N       -6.92000       -17.99485        -3.39027
| 64>    C       -7.78021       -17.15935         2.22456
| 65>    C       -7.77332       -16.35747         3.37834
| 66>    C       -7.07175       -15.09205         3.43079
| 67>    N       -7.20044       -14.51867         4.62892
| 68>    S       -8.09038       -15.46436         5.57707
| 69>    N       -8.36464       -16.64775         4.53963
| 70>    C       -8.40498       -18.44826         2.18453
| 71>    O       -9.49190       -18.70608         2.93365
| 72>    C       -9.88616       -19.95319         2.65336
| 73>    C       -9.07226       -20.52774         1.72262
| 74>    C       -8.08856       -19.55786         1.40824
| 75>    C       -6.89156       -19.73505         0.56055
| 76>    O       -5.80389       -19.31914         0.89180
| 77>    C       -7.12672       -20.52725        -0.69596
| 78>    H        1.52868         1.07782         2.43220
| 79>    H       -2.04523         0.25482         4.67931
| 80>    H       -1.27192         2.30531         6.11492
| 81>    H       -2.23936         2.87586         4.75349
| 82>    H       -1.13955         3.99558         5.58539
| 83>    H       -0.06645        -3.21728         1.75310
| 84>    H       -3.17651        -2.00538         4.50433
| 85>    H       -3.26622        -6.77580         3.01567
| 86>    H       -0.55534        -7.84452        -0.19059
| 87>    H       -2.46657       -10.87465        -1.34922
| 88>    H       -1.21251        -9.71744        -0.87344
| 89>    H       -4.06277        -9.03488        -1.78462
| 90>    H       -2.59730        -8.82244        -2.74493
| 91>    H       -2.86069        -7.83192        -1.30618
| 92>    H       -4.68399        -9.80425         6.20693
| 93>    H       -5.10172       -11.51826         5.96423
| 94>    H       -6.81924        -9.09976         5.18762
| 95>    H       -7.12269       -10.17995         6.55047
| 96>    H       -7.27468       -10.78335         4.89558
| 97>    H       -5.96132       -12.75978         4.27968
| 98>    H       -5.08723       -13.19108         1.36461
| 99>    H      -10.75178       -20.32181         3.16798
|100>    H       -9.14757       -21.52086         1.33098
|101>    H       -7.96840       -20.11390        -1.24606
|102>    H       -7.36277       -21.55627        -0.43153
|103>    H       -6.23626       -20.51442        -1.31857
|104> *
|105>
|106>                          ****END OF INPUT****

CARTESIAN COORDINATES (ANGSTROEM)
---------------------------------
  C      0.654040    0.657850    2.889510
  O      0.325510   -0.592020    2.596240
  C     -0.804120   -0.894820    3.288270
  C     -1.192430    0.197670    4.035520
  C     -0.242080    1.215820    3.777460
  C     -0.170580    2.587430    4.306620
  O      0.720310    3.342190    3.992670
  C     -1.277940    2.970330    5.253880
  C     -1.385610   -2.188660    3.154680
  C     -0.938850   -3.228850    2.375820
  C     -1.805080   -4.344000    2.555530
  C     -2.853190   -3.905410    3.498380
  C     -2.592260   -2.617380    3.843670
  C     -3.986940   -4.621450    3.901550
  N     -4.956790   -5.142850    4.228460
  C     -1.711020   -5.591070    1.977950
  C     -2.511190   -6.729390    2.257010
  C     -2.154720   -7.761170    1.406110
  C     -1.074880   -7.279170    0.558730
  C     -0.782440   -5.998520    0.910840
  C      0.215190   -5.216860    0.317930
  N      1.043670   -4.606430   -0.192450
  C     -2.780950   -9.033340    1.431590
  N     -2.816680   -9.977060    0.437170
  C     -2.291100   -9.889570   -0.905700
  C     -2.997530   -8.822410   -1.735050
  C     -3.604630  -11.090950    0.801320
  O     -3.804610  -12.031540    0.063110
  C     -4.036510  -10.802920    2.151500
  C     -3.522790   -9.541230    2.507680
  C     -3.885160   -9.281570    3.889570
  O     -3.634370   -8.368360    4.643750
  N     -4.633270  -10.414030    4.264440
  C     -5.233950  -10.505900    5.573470
  C     -6.710470  -10.119980    5.547180
  C     -4.746420  -11.325570    3.244470
  C     -5.469170  -12.530130    3.346460
  C     -5.584310  -13.402260    2.302740
  C     -6.336510  -14.602370    2.324690
  C     -6.377770  -15.409710    1.154830
  C     -7.129460  -16.633130    1.089600
  N     -7.271430  -17.265990   -0.087780
  C     -6.608830  -16.832160   -1.128230
  C     -5.729080  -15.701970   -1.019620
  N     -5.676440  -15.008540    0.086520
  C     -4.948550  -15.305090   -2.134380
  N     -4.343780  -15.027360   -3.066220
  C     -6.792170  -17.479630   -2.375270
  N     -6.920000  -17.994850   -3.390270
  C     -7.780210  -17.159350    2.224560
  C     -7.773320  -16.357470    3.378340
  C     -7.071750  -15.092050    3.430790
  N     -7.200440  -14.518670    4.628920
  S     -8.090380  -15.464360    5.577070
  N     -8.364640  -16.647750    4.539630
  C     -8.404980  -18.448260    2.184530
  O     -9.491900  -18.706080    2.933650
  C     -9.886160  -19.953190    2.653360
  C     -9.072260  -20.527740    1.722620
  C     -8.088560  -19.557860    1.408240
  C     -6.891560  -19.735050    0.560550
  O     -5.803890  -19.319140    0.891800
  C     -7.126720  -20.527250   -0.695960
  H      1.528680    1.077820    2.432200
  H     -2.045230    0.254820    4.679310
  H     -1.271920    2.305310    6.114920
  H     -2.239360    2.875860    4.753490
  H     -1.139550    3.995580    5.585390
  H     -0.066450   -3.217280    1.753100
  H     -3.176510   -2.005380    4.504330
  H     -3.266220   -6.775800    3.015670
  H     -0.555340   -7.844520   -0.190590
  H     -2.466570  -10.874650   -1.349220
  H     -1.212510   -9.717440   -0.873440
  H     -4.062770   -9.034880   -1.784620
  H     -2.597300   -8.822440   -2.744930
  H     -2.860690   -7.831920   -1.306180
  H     -4.683990   -9.804250    6.206930
  H     -5.101720  -11.518260    5.964230
  H     -6.819240   -9.099760    5.187620
  H     -7.122690  -10.179950    6.550470
  H     -7.274680  -10.783350    4.895580
  H     -5.961320  -12.759780    4.279680
  H     -5.087230  -13.191080    1.364610
  H    -10.751780  -20.321810    3.167980
  H     -9.147570  -21.520860    1.330980
  H     -7.968400  -20.113900   -1.246060
  H     -7.362770  -21.556270   -0.431530
  H     -6.236260  -20.514420   -1.318570

 Total Charge           Charge          ....    0
 Multiplicity           Mult            ....    1
 Number of Electrons    NEL             ....  436
 Basis Dimension        Dim             .... 1016

ORBITAL ENERGIES
----------------

  NO   OCC          E(Eh)            E(eV)
   0   2.0000     -89.050393     -2423.1844
   1   2.0000     -19.314787      -525.5821
   2   2.0000     -19.308034      -525.3983
   3   2.0000     -19.205376      -522.6048
   4   2.0000     -19.204401      -522.5783
   5   2.0000     -19.194596      -522.3115
   6   2.0000     -19.193148      -522.2721
   7   2.0000     -14.463199      -393.5637
   8   2.0000     -14.458566      -393.4376
   9   2.0000     -14.458391      -393.4328
  10   2.0000     -14.457897      -393.4194
  11   2.0000     -14.457767      -393.4158
  12   2.0000     -14.454696      -393.3323
  13   2.0000     -14.431339      -392.6967
  14   2.0000     -14.423931      -392.4951
  15   2.0000     -14.407143      -392.0383
  16   2.0000     -14.405722      -391.9996
  17   2.0000     -10.380884      -282.4782
  18   2.0000     -10.379115      -282.4301
  19   2.0000     -10.376613      -282.3620
  20   2.0000     -10.376463      -282.3579
  21   2.0000     -10.364952      -282.0447
  22   2.0000     -10.363780      -282.0128
  23   2.0000     -10.350180      -281.6427
  24   2.0000     -10.350088      -281.6402
  25   2.0000     -10.349754      -281.6311
  26   2.0000     -10.349735      -281.6306
  27   2.0000     -10.349040      -281.6117
  28   2.0000     -10.348106      -281.5863
  29   2.0000     -10.347752      -281.5766
  30   2.0000     -10.345470      -281.5146
  31   2.0000     -10.342011      -281.4204
  32   2.0000     -10.341238      -281.3994
  33   2.0000     -10.324984      -280.9571
  34   2.0000     -10.324880      -280.9543
  35   2.0000     -10.324831      -280.9529
  36   2.0000     -10.318874      -280.7908
  37   2.0000     -10.318219      -280.7730
  38   2.0000     -10.317270      -280.7472
  39   2.0000     -10.316919      -280.7376
  40   2.0000     -10.314843      -280.6811
  41   2.0000     -10.313039      -280.6321
  42   2.0000     -10.311118      -280.5798
  43   2.0000     -10.310912      -280.5742
  44   2.0000     -10.309131      -280.5257
  45   2.0000     -10.308888      -280.5191
  46   2.0000     -10.307610      -280.4843
  47   2.0000     -10.306923      -280.4656
  48   2.0000     -10.305782      -280.4346
  49   2.0000     -10.297662      -280.2136
  50   2.0000     -10.291362      -280.0422
  51   2.0000     -10.290298      -280.0132
  52   2.0000     -10.289291      -279.9858
  53   2.0000     -10.287458      -279.9360
  54   2.0000     -10.286345      -279.9057
  55   2.0000     -10.284299      -279.8500
  56   2.0000     -10.282476      -279.8004
  57   2.0000     -10.273078      -279.5447
  58   2.0000     -10.268699      -279.4255
  59   2.0000     -10.267230      -279.3855
  60   2.0000     -10.266780      -279.3733
  61   2.0000     -10.264648      -279.3153
  62   2.0000     -10.261886      -279.2401
  63   2.0000      -8.141681      -221.5464
  64   2.0000      -6.112690      -166.3347
  65   2.0000      -6.104870      -166.1220
  66   2.0000      -6.104665      -166.1164
  67   2.0000      -1.235306       -33.6144
  68   2.0000      -1.229900       -33.4673
  69   2.0000      -1.146849       -31.2074
  70   2.0000      -1.137549       -30.9543
  71   2.0000      -1.130855       -30.7721
  72   2.0000      -1.126443       -30.6521
  73   2.0000      -1.123671       -30.5766
  74   2.0000      -1.117925       -30.4203
  75   2.0000      -1.067539       -29.0492
  76   2.0000      -1.058912       -28.8144
  77   2.0000      -1.046771       -28.4841
  78   2.0000      -1.015692       -27.6384
  79   2.0000      -1.013453       -27.5775
  80   2.0000      -1.002469       -27.2786
  81   2.0000      -0.999471       -27.1970
  82   2.0000      -0.999256       -27.1911
  83   2.0000      -0.983380       -26.7591
  84   2.0000      -0.981148       -26.6984
  85   2.0000      -0.979911       -26.6647
  86   2.0000      -0.931648       -25.3514
  87   2.0000      -0.924020       -25.1438
  88   2.0000      -0.923169       -25.1207
  89   2.0000      -0.915249       -24.9052
  90   2.0000      -0.908957       -24.7340
  91   2.0000      -0.898516       -24.4499
  92   2.0000      -0.890122       -24.2215
  93   2.0000      -0.878424       -23.9031
  94   2.0000      -0.869386       -23.6572
  95   2.0000      -0.853928       -23.2366
  96   2.0000      -0.851427       -23.1685
  97   2.0000      -0.839378       -22.8406
  98   2.0000      -0.836737       -22.7688
  99   2.0000      -0.832877       -22.6637
 100   2.0000      -0.827919       -22.5288
 101   2.0000      -0.822281       -22.3754
 102   2.0000      -0.810304       -22.0495
 103   2.0000      -0.801608       -21.8129
 104   2.0000      -0.783548       -21.3214
 105   2.0000      -0.769218       -20.9315
 106   2.0000      -0.761771       -20.7289
 107   2.0000      -0.743407       -20.2291
 108   2.0000      -0.739678       -20.1276
 109   2.0000      -0.730366       -19.8743
 110   2.0000      -0.726601       -19.7718
 111   2.0000      -0.718791       -19.5593
 112   2.0000      -0.712228       -19.3807
 113   2.0000      -0.711946       -19.3730
 114   2.0000      -0.708721       -19.2853
 115   2.0000      -0.695620       -18.9288
 116   2.0000      -0.685192       -18.6450
 117   2.0000      -0.680487       -18.5170
 118   2.0000      -0.679581       -18.4923
 119   2.0000      -0.676185       -18.3999
 120   2.0000      -0.669235       -18.2108
 121   2.0000      -0.661924       -18.0119
 122   2.0000      -0.655447       -17.8356
 123   2.0000      -0.649550       -17.6752
 124   2.0000      -0.640693       -17.4341
 125   2.0000      -0.629763       -17.1367
 126   2.0000      -0.624402       -16.9908
 127   2.0000      -0.611930       -16.6515
 128   2.0000      -0.608391       -16.5552
 129   2.0000      -0.598947       -16.2982
 130   2.0000      -0.597346       -16.2546
 131   2.0000      -0.590031       -16.0556
 132   2.0000      -0.585412       -15.9299
 133   2.0000      -0.581734       -15.8298
 134   2.0000      -0.579693       -15.7742
 135   2.0000      -0.577169       -15.7056
 136   2.0000      -0.570043       -15.5117
 137   2.0000      -0.566601       -15.4180
 138   2.0000      -0.563018       -15.3205
 139   2.0000      -0.559837       -15.2339
 140   2.0000      -0.554104       -15.0779
 141   2.0000      -0.551264       -15.0007
 142   2.0000      -0.548297       -14.9199
 143   2.0000      -0.544489       -14.8163
 144   2.0000      -0.537359       -14.6223
 145   2.0000      -0.536626       -14.6023
 146   2.0000      -0.534809       -14.5529
 147   2.0000      -0.531200       -14.4547
 148   2.0000      -0.529419       -14.4062
 149   2.0000      -0.528666       -14.3857
 150   2.0000      -0.527694       -14.3593
 151   2.0000      -0.525652       -14.3037
 152   2.0000      -0.522116       -14.2075
 153   2.0000      -0.520406       -14.1610
 154   2.0000      -0.519061       -14.1244
 155   2.0000      -0.516581       -14.0569
 156   2.0000      -0.512802       -13.9540
 157   2.0000      -0.508474       -13.8363
 158   2.0000      -0.504269       -13.7219
 159   2.0000      -0.500940       -13.6313
 160   2.0000      -0.499622       -13.5954
 161   2.0000      -0.498677       -13.5697
 162   2.0000      -0.492631       -13.4052
 163   2.0000      -0.490475       -13.3465
 164   2.0000      -0.486171       -13.2294
 165   2.0000      -0.484742       -13.1905
 166   2.0000      -0.483182       -13.1480
 167   2.0000      -0.480661       -13.0795
 168   2.0000      -0.477894       -13.0042
 169   2.0000      -0.476889       -12.9768
 170   2.0000      -0.474103       -12.9010
 171   2.0000      -0.469868       -12.7858
 172   2.0000      -0.469262       -12.7693
 173   2.0000      -0.463729       -12.6187
 174   2.0000      -0.463642       -12.6163
 175   2.0000      -0.460414       -12.5285
 176   2.0000      -0.457457       -12.4480
 177   2.0000      -0.456807       -12.4303
 178   2.0000      -0.455259       -12.3882
 179   2.0000      -0.452074       -12.3016
 180   2.0000      -0.449992       -12.2449
 181   2.0000      -0.449117       -12.2211
 182   2.0000      -0.445457       -12.1215
 183   2.0000      -0.443962       -12.0808
 184   2.0000      -0.440824       -11.9954
 185   2.0000      -0.440308       -11.9814
 186   2.0000      -0.436905       -11.8888
 187   2.0000      -0.435266       -11.8442
 188   2.0000      -0.433041       -11.7837
 189   2.0000      -0.431806       -11.7500
 190   2.0000      -0.431293       -11.7361
 191   2.0000      -0.426453       -11.6044
 192   2.0000      -0.423115       -11.5136
 193   2.0000      -0.417238       -11.3536
 194   2.0000      -0.415271       -11.3001
 195   2.0000      -0.413862       -11.2618
 196   2.0000      -0.413047       -11.2396
 197   2.0000      -0.407562       -11.0903
 198   2.0000      -0.401629       -10.9289
 199   2.0000      -0.396278       -10.7833
 200   2.0000      -0.384928       -10.4744
 201   2.0000      -0.378224       -10.2920
 202   2.0000      -0.368861       -10.0372
 203   2.0000      -0.366731        -9.9792
 204   2.0000      -0.358554        -9.7568
 205   2.0000      -0.355630        -9.6772
 206   2.0000      -0.349956        -9.5228
 207   2.0000      -0.349482        -9.5099
 208   2.0000      -0.335369        -9.1258
 209   2.0000      -0.334281        -9.0962
 210   2.0000      -0.330923        -9.0049
 211   2.0000      -0.326554        -8.8860
 212   2.0000      -0.325767        -8.8646
 213   2.0000      -0.320529        -8.7220
 214   2.0000      -0.310402        -8.4465
 215   2.0000      -0.284793        -7.7496
 216   2.0000      -0.279165        -7.5965
 217   2.0000      -0.233128        -6.3437
 218   0.0000      -0.134697        -3.6653
 219   0.0000      -0.117990        -3.2107
 220   0.0000      -0.063274        -1.7218
 221   0.0000      -0.046751        -1.2722
 222   0.0000      -0.037553        -1.0219

MULLIKEN ATOMIC CHARGES
-----------------------
   0 C :    0.136880
   1 O :   -0.157591
   2 C :    0.145126
   3 C :   -0.084695
   4 C :   -0.001334
   5 C :    0.000400
   6 O :   -0.172459
   7 C :    0.038958
   8 C :    0.124643
   9 C :   -0.129518
  10 C :    0.108166
  11 C :   -0.079520
  12 C :   -0.014728
  13 C :   -0.178531
  14 N :    0.145406
  15 C :    0.122219
  16 C :   -0.107690
  17 C :    0.034682
  18 C :   -0.031122
  19 C :   -0.093265
  20 C :   -0.186419
  21 N :    0.144225
  22 C :    0.144909
  23 N :   -0.253929
  24 C :    0.093958
  25 C :   -0.005448
  26 C :    0.155337
  27 O :   -0.188731
  28 C :   -0.060757
  29 C :   -0.046453
  30 C :    0.145267
  31 O :   -0.185238
  32 N :   -0.257643
  33 C :    0.102883
  34 C :    0.002568
  35 C :    0.154234
  36 C :   -0.008308
  37 C :   -0.090381
  38 C :    0.110299
  39 C :   -0.066203
  40 C :   -0.027543
  41 N :    0.026112
  42 C :   -0.112687
  43 C :   -0.134288
  44 N :    0.077800
  45 C :   -0.184850
  46 N :    0.227044
  47 C :   -0.217371
  48 N :    0.236401
  49 C :    0.116424
  50 C :    0.021635
  51 C :    0.008430
  52 N :   -0.295404
  53 S :    0.548359
  54 N :   -0.254402
  55 C :    0.007401
  56 O :   -0.157004
  57 C :    0.155220
  58 C :   -0.044423
  59 C :    0.021809
  60 C :    0.001280
  61 O :   -0.193940
  62 C :    0.039769
  63 H :    0.034216
  64 H :   -0.010800
  65 H :    0.038094
  66 H :    0.037875
  67 H :    0.035668
  68 H :    0.007788
  69 H :   -0.004160
  70 H :    0.026276
  71 H :   -0.010796
  72 H :    0.055408
  73 H :    0.025449
  74 H :    0.028569
  75 H :    0.028970
  76 H :    0.028936
  77 H :    0.044588
  78 H :    0.024390
  79 H :    0.037438
  80 H :    0.019716
  81 H :    0.015575
  82 H :   -0.007192
  83 H :    0.030438
  84 H :    0.017466
  85 H :   -0.004831
  86 H :    0.048776
  87 H :    0.036860
  88 H :    0.039321
Sum of atomic charges:   -0.0000000

LOEWDIN ATOMIC CHARGES
----------------------
   0 C :    0.103745
   1 O :    0.046659
   2 C :    0.025554
   3 C :   -0.039281
   4 C :   -0.120776
   5 C :    0.078365
   6 O :   -0.146063
   7 C :   -0.076531
   8 C :   -0.018237
   9 C :   -0.032922
  10 C :    0.047883
  11 C :   -0.070480
  12 C :    0.050160
  13 C :   -0.033385
  14 N :   -0.051208
  15 C :    0.025543
  16 C :    0.015349
  17 C :   -0.039885
  18 C :    0.044237
  19 C :   -0.080077
  20 C :   -0.032163
  21 N :   -0.061710
  22 C :    0.073381
  23 N :    0.000102
  24 C :    0.035292
  25 C :   -0.060860
  26 C :    0.080210
  27 O :   -0.180081
  28 C :   -0.112712
  29 C :   -0.104178
  30 C :    0.081266
  31 O :   -0.178993
  32 N :    0.001453
  33 C :    0.037409
  34 C :   -0.060540
  35 C :    0.078271
  36 C :   -0.029643
  37 C :    0.029247
  38 C :   -0.024741
  39 C :    0.003972
  40 C :    0.003207
  41 N :    0.009113
  42 C :   -0.022228
  43 C :   -0.020827
  44 N :    0.018193
  45 C :   -0.030984
  46 N :   -0.004295
  47 C :   -0.033301
  48 N :   -0.008611
  49 C :   -0.022143
  50 C :   -0.040770
  51 C :   -0.034329
  52 N :   -0.286180
  53 S :    0.680501
  54 N :   -0.271423
  55 C :    0.043640
  56 O :    0.047714
  57 C :    0.055415
  58 C :   -0.062301
  59 C :   -0.076043
  60 C :    0.082085
  61 O :   -0.158173
  62 C :   -0.072395
  63 H :    0.036687
  64 H :    0.031471
  65 H :    0.042542
  66 H :    0.042507
  67 H :    0.040935
  68 H :    0.037219
  69 H :    0.035510
  70 H :    0.038554
  71 H :    0.034971
  72 H :    0.041786
  73 H :    0.020016
  74 H :    0.032956
  75 H :    0.034223
  76 H :    0.023544
  77 H :    0.038259
  78 H :    0.024133
  79 H :    0.035367
  80 H :    0.029668
  81 H :    0.022136
  82 H :    0.027713
  83 H :    0.039748
  84 H :    0.027906
  85 H :    0.033429
  86 H :    0.044407
  87 H :    0.044109
  88 H :    0.040712

  Mayer bond orders larger than 0.100000
B(  0-C ,  1-O ) :   1.2005 B(  0-C ,  4-C ) :   1.4788 B(  0-C , 63-H ) :   1.0022
B(  1-O ,  2-C ) :   1.1686 B(  2-C ,  3-C ) :   1.4984 B(  2-C ,  8-C ) :   1.0217
B(  3-C ,  4-C ) :   1.2181 B(  3-C , 64-H ) :   0.9995 B(  4-C ,  5-C ) :   0.9171
B(  5-C ,  6-O ) :   2.2295 B(  5-C ,  7-C ) :   1.0652 B(  7-C , 65-H ) :   0.9449
B(  7-C , 66-H ) :   0.9460 B(  7-C , 67-H ) :   0.9483 B(  8-C ,  9-C ) :   1.5336
B(  8-C , 12-C ) :   1.0670 B(  9-C , 10-C ) :   1.1145 B(  9-C , 68-H ) :   1.0201
B( 10-C , 11-C ) :   1.1006 B( 10-C , 15-C ) :   1.3771 B( 11-C , 12-C ) :   1.6818
B( 11-C , 13-C ) :   1.0841 B( 12-C , 69-H ) :   1.0164 B( 13-C , 14-N ) :   2.9825
B( 15-C , 16-C ) :   1.1217 B( 15-C , 19-C ) :   1.1079 B( 16-C , 17-C ) :   1.5370
B( 16-C , 70-H ) :   0.9920 B( 17-C , 18-C ) :   1.0295 B( 17-C , 22-C ) :   1.0443
B( 18-C , 19-C ) :   1.6551 B( 18-C , 71-H ) :   1.0298 B( 19-C , 20-C ) :   1.0859
B( 20-C , 21-N ) :   2.9755 B( 22-C , 23-N ) :   1.2098 B( 22-C , 29-C ) :   1.3539
B( 23-N , 24-C ) :   0.9393 B( 23-N , 26-C ) :   1.0382 B( 24-C , 25-C ) :   1.1175
B( 24-C , 72-H ) :   0.9220 B( 24-C , 73-H ) :   0.9516 B( 25-C , 74-H ) :   0.9614
B( 25-C , 75-H ) :   0.9663 B( 25-C , 76-H ) :   0.9663 B( 26-C , 27-O ) :   2.0437
B( 26-C , 28-C ) :   0.9889 B( 27-O , 83-H ) :   0.1009 B( 28-C , 29-C ) :   1.2683
B( 28-C , 35-C ) :   1.2904 B( 29-C , 30-C ) :   0.9659 B( 30-C , 31-O ) :   2.0988
B( 30-C , 32-N ) :   1.0433 B( 32-N , 33-C ) :   0.9416 B( 32-N , 35-C ) :   1.1712
B( 33-C , 34-C ) :   1.1243 B( 33-C , 77-H ) :   0.9267 B( 33-C , 78-H ) :   0.9494
B( 34-C , 79-H ) :   0.9635 B( 34-C , 80-H ) :   0.9675 B( 34-C , 81-H ) :   0.9676
B( 35-C , 36-C ) :   1.1654 B( 36-C , 37-C ) :   1.4959 B( 36-C , 82-H ) :   0.9498
B( 37-C , 38-C ) :   1.2218 B( 37-C , 83-H ) :   0.9444 B( 38-C , 39-C ) :   1.2204
B( 38-C , 49-C ) :   0.1408 B( 38-C , 51-C ) :   1.1589 B( 39-C , 40-C ) :   1.1074
B( 39-C , 44-N ) :   1.4555 B( 40-C , 41-N ) :   1.4168 B( 40-C , 49-C ) :   1.3330
B( 41-N , 42-C ) :   1.7074 B( 42-C , 43-C ) :   1.1846 B( 42-C , 47-C ) :   1.1618
B( 43-C , 44-N ) :   1.7629 B( 43-C , 45-C ) :   1.1444 B( 45-C , 46-N ) :   3.0396
B( 47-C , 48-N ) :   3.0310 B( 49-C , 50-C ) :   1.2254 B( 49-C , 55-C ) :   1.0429
B( 50-C , 51-C ) :   1.1066 B( 50-C , 54-N ) :   1.5321 B( 51-C , 52-N ) :   1.5047
B( 52-N , 53-S ) :   1.2699 B( 52-N , 54-N ) :   0.1532 B( 53-S , 54-N ) :   1.3011
B( 55-C , 56-O ) :   1.2157 B( 55-C , 59-C ) :   1.4948 B( 56-O , 57-C ) :   1.1573
B( 57-C , 58-C ) :   1.5193 B( 57-C , 84-H ) :   1.0062 B( 58-C , 59-C ) :   1.2537
B( 58-C , 85-H ) :   1.0030 B( 59-C , 60-C ) :   0.8894 B( 60-C , 61-O ) :   2.1910
B( 60-C , 62-C ) :   1.0511 B( 62-C , 86-H ) :   0.9507 B( 62-C , 87-H ) :   0.9407
B( 62-C , 88-H ) :   0.9480

-----------------------------------------------------------------------------
         ABSORPTION SPECTRUM VIA TRANSITION ELECTRIC DIPOLE MOMENTS
-----------------------------------------------------------------------------
State   Energy  Wavelength   fosc         T2         TX        TY        TZ
        (cm-1)    (nm)                  (au**2)     (au)      (au)      (au)
-----------------------------------------------------------------------------
   0    7084.5   1411.5   0.582397575  27.06370  -2.03374  -4.78642  -0.13326
   1   10446.4    957.3   0.010420650   0.32840   0.55187   0.04479  -0.14778
   2   15851.6    630.9   0.077631932   1.61229  -0.11946   1.13762   0.55122
   3   16926.6    590.8   0.173696764   3.37829   0.61731   1.68710   0.38848
   4   19990.5    500.2   0.121400522   1.99927  -0.82557  -1.04911   0.46593
   5   20865.2    479.3   0.168335176   2.65600   0.89499   1.31682  -0.34780
   6   22793.2    438.7   0.000681006   0.00984  -0.09036   0.01796  -0.03673
   7   23207.0    430.9   0.002349534   0.03333   0.03246   0.14431   0.10702
   8   23459.6    426.3   0.052782899   0.74071  -0.16407  -0.60687  -0.58780
   9   24618.3    406.2   0.005883776   0.07868  -0.04415   0.26608   0.07702
  10   24818.1    402.9   0.194724883   2.58302   0.57980   1.49248  -0.13916
  11   25221.8    396.5   0.049709050   0.64884   0.00554  -0.58326  -0.55552
  12   25571.6    391.1   0.012476494   0.16062  -0.19871  -0.29328  -0.18743
  13   25929.6    385.7   0.218625572   2.77575   0.04532   1.54657   0.61792
  14   26170.2    382.1   0.149551105   1.88130  -0.15612  -1.23765  -0.57021
  15   26918.5    371.5   0.000218910   0.00268   0.01098  -0.05056   0.00079
  16   27328.0    365.9   0.052535959   0.63289  -0.24983   0.03076   0.75467
  17   27815.8    359.5   0.000864249   0.01023   0.01334   0.01623   0.09893
  18   28460.5    351.4   0.040770895   0.47161   0.32648   0.57858  -0.17398
  19   29968.6    333.7   0.190629331   2.09410  -0.64317  -0.43262   1.22200
  20   30575.7    327.1   0.000011772   0.00013   0.00719   0.00866   0.00005
  21   30991.6    322.7   0.039992463   0.42482  -0.08595  -0.33894  -0.55005
  22   31379.2    318.7   0.514444288   5.39725  -0.05895  -1.33363  -1.90137
  23   31672.4    315.7   0.005142935   0.05346   0.04508   0.19252   0.11983
  24   32137.9    311.2   0.048307918   0.49485   0.09085   0.60183   0.35270
  25   33182.6    301.4   0.113172382   1.12281  -0.00437   0.93339   0.50158
  26   33709.4    296.7   0.036450948   0.35599   0.30544   0.43220  -0.27548
  27   33830.7    295.6   0.046490489   0.45241   0.37216   0.29423  -0.47680
  28   34125.0    293.0   0.071197211   0.68686   0.03725   0.73795   0.37536
  29   34338.9    291.2   0.078060436   0.74838   0.05321  -0.81989  -0.27078
  30   34467.3    290.1   0.208770494   1.99406   0.14128  -0.22156  -1.38745
  31   34719.0    288.0   0.052125752   0.49427  -0.43691   0.12641   0.53609
  32   35054.4    285.3   0.004163011   0.03910   0.17814  -0.08505  -0.01136
  33   35235.9    283.8   0.058112982   0.54295  -0.26632  -0.56786   0.38674
  34   35489.6    281.8   0.240953518   2.23516   0.72608   0.40759  -1.24171
  35   35760.2    279.6   0.085290511   0.78519   0.51403   0.72177   0.00280
  36   36005.4    277.7   0.034330167   0.31389   0.14978   0.36797   0.39504
  37   36472.4    274.2   0.007277545   0.06569   0.06639  -0.05288   0.24184
  38   36570.9    273.4   0.135536044   1.22010  -0.39059   0.15327   1.02179
  39   36660.4    272.8   0.000177482   0.00159  -0.02491   0.01351   0.02812
  40   37049.9    269.9   0.005327938   0.04734  -0.06376  -0.16887  -0.12150
  41   37375.0    267.6   0.047541742   0.41876   0.23988  -0.19281  -0.56925
  42   37668.0    265.5   0.028427296   0.24845  -0.06272   0.43014   0.24392
  43   38284.2    261.2   0.173601375   1.49283   0.27497   1.13631   0.35497
  44   38503.0    259.7   0.123611771   1.05692   0.67474   0.77192  -0.07606
  45   38705.5    258.4   0.035773377   0.30427  -0.26576   0.11917   0.46845
  46   39004.1    256.4   0.002744851   0.02317   0.06279  -0.13762   0.01696
  47   39121.3    255.6   0.000009009   0.00008   0.00575   0.00574  -0.00314
  48   39337.3    254.2   0.009985970   0.08357  -0.17346   0.17296   0.15352
  49   39585.1    252.6   0.103102169   0.85746   0.07346  -0.31616  -0.86724
  50   40077.6    249.5   0.203373244   1.67058   0.33985   1.18608   0.38510

FINAL SINGLE POINT ENERGY     -3161.895186401272

DIPOLE MOMENT
-------------
                                X             Y             Z
Electronic contribution:     -8.04244     -35.26735      -3.11302
Nuclear contribution   :      5.43819      34.30296       5.92993
                        -----------------------------------------
Total Dipole Moment    :     -2.60425      -0.96439       2.81692
                        -----------------------------------------
Magnitude (a.u.)       :      3.95565
Magnitude (Debye)      :     10.05447

Rotational constants in cm-1:     0.003355     0.000375     0.000343
Rotational constants in MHz :   100.575759    11.233484    10.269555

                             ****ORCA TERMINATED NORMALLY****
TOTAL RUN TIME: 0 days 0 hours 8 minutes 53 seconds 356 msec
