                         Program Version 4.2.0 -  RELEASE  -
|  1> # ORCA input file
|  2> # SCF done       -168.951817378135          0.000396073198
|  3> ! CAM-B3LYP def2-SVP def2/J RIJCOSX Grid4 TightSCF
|  4> %maxcore 5000
|  5> %tddft
|  6>     Mode sTDDFT
|  7>     Ethresh 5.0
|  8>     maxcore 5000
|  9> end
| 10>
| 11> %pal
| 12>   nprocs 6
| 13>   end
| 14> * xyz 0 1
| 15>    C        0.90058         2.03748        -6.65167
| 16>    S        2.18815         2.22017        -5.54271
| 17>    C        2.87569         0.70959        -6.04362
| 18>    C        4.12592         0.24504        -5.50651
| 19>    O        4.70513        -0.76155        -5.84920
| 20>    C        2.11084         0.11240        -7.03981
| 21>    C        0.98530         0.89169        -7.38173
| 22>    C        2.47106        -1.15632        -7.63678
| 23>    C        2.83626        -1.38530        -8.93876
| 24>    N        2.89344        -0.44376        -9.98538
| 25>    O        2.58657         0.71169        -9.74205
| 26>    O        3.25200        -0.84297       -11.07795
| 27>    C        3.26265        -2.76380        -9.08052
| 28>    C        3.21014        -3.35685        -7.86625
| 29>    C        2.70262        -2.41148        -6.90523
| 30>    C        2.36439        -2.59707        -5.57883
| 31>    C        1.37910        -1.83361        -4.87889
| 32>    C        1.25945        -2.31562        -3.61184
| 33>    C        2.22075        -3.35517        -3.41543
| 34>    N        2.23915        -4.07174        -2.20673
| 35>    O        2.88870        -5.10511        -2.12325
| 36>    O        1.56786        -3.62834        -1.28955
| 37>    C        2.93693        -3.55282        -4.60879
| 38>    C        4.09896        -4.29631        -4.87273
| 39>    C        4.96821        -4.78157        -3.92714
| 40>    C        6.07773        -5.57903        -4.23804
| 41>    N        7.00354        -5.98136        -3.30735
| 42>    C        6.96739        -5.71270        -1.88710
| 43>    C        5.93441        -6.57677        -1.16807
| 44>    C        8.01764        -6.76712        -3.87064
| 45>    O        8.95122        -7.22300        -3.24613
| 46>    C        7.66224        -6.85584        -5.27802
| 47>    C        6.47841        -6.13054        -5.47312
| 48>    C        6.09631        -6.26555        -6.86554
| 49>    O        5.14381        -5.84881        -7.49157
| 50>    N        7.10142        -7.06654        -7.42776
| 51>    C        7.09841        -7.38330        -8.83650
| 52>    C        8.04669        -6.48185        -9.62278
| 53>    C        8.05452        -7.42538        -6.50465
| 54>    C        9.17974        -8.21062        -6.80296
| 55>    C       10.14275        -8.51814        -5.87866
| 56>    C       11.29995        -9.27108        -6.15871
| 57>    C       12.32458        -9.53467        -5.26117
| 58>    C       13.33580       -10.29028        -5.90811
| 59>    C       12.86347       -10.50252        -7.29002
| 60>    C       11.65878        -9.89102        -7.42693
| 61>    C       13.51685       -11.20577        -8.30867
| 62>    N       14.01895       -11.77491        -9.17108
| 63>    C       14.53535       -10.72983        -5.38696
| 64>    C       15.54867       -11.46798        -6.05665
| 65>    C       16.59519       -11.68929        -5.18788
| 66>    C       16.25511       -11.08091        -3.90989
| 67>    C       15.02961       -10.50574        -4.01374
| 68>    C       14.37484        -9.82110        -2.98355
| 69>    N       13.86942        -9.26631        -2.11431
| 70>    C       17.80804       -12.37589        -5.45394
| 71>    S       19.03263       -12.54649        -4.23342
| 72>    C       20.05311       -13.41865        -5.32272
| 73>    C       21.35224       -13.90149        -4.90631
| 74>    O       22.11324       -14.51354        -5.61479
| 75>    C       19.45938       -13.56205        -6.56458
| 76>    C       18.20165       -12.97880        -6.64068
| 77>    H        0.14485         2.79578        -6.71400
| 78>    H        4.54311         0.90858        -4.72555
| 79>    H        0.27257         0.60634        -8.13335
| 80>    H        3.56509        -3.19494       -10.01529
| 81>    H        3.42315        -4.38920        -7.67650
| 82>    H        0.75785        -1.08215        -5.32507
| 83>    H        0.56328        -2.00400        -2.85600
| 84>    H        4.35621        -4.44322        -5.90984
| 85>    H        4.81834        -4.54345        -2.88750
| 86>    H        6.77043        -4.65004        -1.72284
| 87>    H        7.96847        -5.94660        -1.51395
| 88>    H        4.92420        -6.36161        -1.50833
| 89>    H        5.98709        -6.38642        -0.09990
| 90>    H        6.14448        -7.62938        -1.34165
| 91>    H        6.07282        -7.22390        -9.18046
| 92>    H        7.35375        -8.43752        -8.97378
| 93>    H        7.74773        -5.44249        -9.51243
| 94>    H        8.01114        -6.74246       -10.67675
| 95>    H        9.07055        -6.58563        -9.27010
| 96>    H        9.28175        -8.56706        -7.81751
| 97>    H       10.03696        -8.15463        -4.86452
| 98>    H       12.35227        -9.20831        -4.23988
| 99>    H       11.06749        -9.87492        -8.32335
|100>    H       15.49405       -11.79085        -7.07647
|101>    H       16.88725       -11.09688        -3.04128
|102>    H       21.60364       -13.65605        -3.85654
|103>    H       19.94905       -14.07892        -7.37026
|104>    H       17.58506       -12.98547        -7.52092
|105> *
|106>
|107>                          ****END OF INPUT****

CARTESIAN COORDINATES (ANGSTROEM)
---------------------------------
  C      0.900580    2.037480   -6.651670
  S      2.188150    2.220170   -5.542710
  C      2.875690    0.709590   -6.043620
  C      4.125920    0.245040   -5.506510
  O      4.705130   -0.761550   -5.849200
  C      2.110840    0.112400   -7.039810
  C      0.985300    0.891690   -7.381730
  C      2.471060   -1.156320   -7.636780
  C      2.836260   -1.385300   -8.938760
  N      2.893440   -0.443760   -9.985380
  O      2.586570    0.711690   -9.742050
  O      3.252000   -0.842970  -11.077950
  C      3.262650   -2.763800   -9.080520
  C      3.210140   -3.356850   -7.866250
  C      2.702620   -2.411480   -6.905230
  C      2.364390   -2.597070   -5.578830
  C      1.379100   -1.833610   -4.878890
  C      1.259450   -2.315620   -3.611840
  C      2.220750   -3.355170   -3.415430
  N      2.239150   -4.071740   -2.206730
  O      2.888700   -5.105110   -2.123250
  O      1.567860   -3.628340   -1.289550
  C      2.936930   -3.552820   -4.608790
  C      4.098960   -4.296310   -4.872730
  C      4.968210   -4.781570   -3.927140
  C      6.077730   -5.579030   -4.238040
  N      7.003540   -5.981360   -3.307350
  C      6.967390   -5.712700   -1.887100
  C      5.934410   -6.576770   -1.168070
  C      8.017640   -6.767120   -3.870640
  O      8.951220   -7.223000   -3.246130
  C      7.662240   -6.855840   -5.278020
  C      6.478410   -6.130540   -5.473120
  C      6.096310   -6.265550   -6.865540
  O      5.143810   -5.848810   -7.491570
  N      7.101420   -7.066540   -7.427760
  C      7.098410   -7.383300   -8.836500
  C      8.046690   -6.481850   -9.622780
  C      8.054520   -7.425380   -6.504650
  C      9.179740   -8.210620   -6.802960
  C     10.142750   -8.518140   -5.878660
  C     11.299950   -9.271080   -6.158710
  C     12.324580   -9.534670   -5.261170
  C     13.335800  -10.290280   -5.908110
  C     12.863470  -10.502520   -7.290020
  C     11.658780   -9.891020   -7.426930
  C     13.516850  -11.205770   -8.308670
  N     14.018950  -11.774910   -9.171080
  C     14.535350  -10.729830   -5.386960
  C     15.548670  -11.467980   -6.056650
  C     16.595190  -11.689290   -5.187880
  C     16.255110  -11.080910   -3.909890
  C     15.029610  -10.505740   -4.013740
  C     14.374840   -9.821100   -2.983550
  N     13.869420   -9.266310   -2.114310
  C     17.808040  -12.375890   -5.453940
  S     19.032630  -12.546490   -4.233420
  C     20.053110  -13.418650   -5.322720
  C     21.352240  -13.901490   -4.906310
  O     22.113240  -14.513540   -5.614790
  C     19.459380  -13.562050   -6.564580
  C     18.201650  -12.978800   -6.640680
  H      0.144850    2.795780   -6.714000
  H      4.543110    0.908580   -4.725550
  H      0.272570    0.606340   -8.133350
  H      3.565090   -3.194940  -10.015290
  H      3.423150   -4.389200   -7.676500
  H      0.757850   -1.082150   -5.325070
  H      0.563280   -2.004000   -2.856000
  H      4.356210   -4.443220   -5.909840
  H      4.818340   -4.543450   -2.887500
  H      6.770430   -4.650040   -1.722840
  H      7.968470   -5.946600   -1.513950
  H      4.924200   -6.361610   -1.508330
  H      5.987090   -6.386420   -0.099900
  H      6.144480   -7.629380   -1.341650
  H      6.072820   -7.223900   -9.180460
  H      7.353750   -8.437520   -8.973780
  H      7.747730   -5.442490   -9.512430
  H      8.011140   -6.742460  -10.676750
  H      9.070550   -6.585630   -9.270100
  H      9.281750   -8.567060   -7.817510
  H     10.036960   -8.154630   -4.864520
  H     12.352270   -9.208310   -4.239880
  H     11.067490   -9.874920   -8.323350
  H     15.494050  -11.790850   -7.076470
  H     16.887250  -11.096880   -3.041280
  H     21.603640  -13.656050   -3.856540
  H     19.949050  -14.078920   -7.370260
  H     17.585060  -12.985470   -7.520920

 Total Charge           Charge          ....    0
 Multiplicity           Mult            ....    1
 Number of Electrons    NEL             ....  442
 Basis Dimension        Dim             .... 1016

ORBITAL ENERGIES
----------------

  NO   OCC          E(Eh)            E(eV)
   0   2.0000     -88.982474     -2421.3362
   1   2.0000     -88.979658     -2421.2596
   2   2.0000     -19.241486      -523.5875
   3   2.0000     -19.238522      -523.5068
   4   2.0000     -19.237182      -523.4703
   5   2.0000     -19.235520      -523.4251
   6   2.0000     -19.221773      -523.0510
   7   2.0000     -19.214874      -522.8633
   8   2.0000     -19.208279      -522.6839
   9   2.0000     -19.201106      -522.4886
  10   2.0000     -14.648615      -398.6091
  11   2.0000     -14.646103      -398.5407
  12   2.0000     -14.467126      -393.6705
  13   2.0000     -14.461260      -393.5109
  14   2.0000     -14.416661      -392.2973
  15   2.0000     -14.412533      -392.1850
  16   2.0000     -10.389431      -282.7108
  17   2.0000     -10.383748      -282.5562
  18   2.0000     -10.370815      -282.2042
  19   2.0000     -10.364993      -282.0458
  20   2.0000     -10.352508      -281.7061
  21   2.0000     -10.348105      -281.5863
  22   2.0000     -10.331977      -281.1474
  23   2.0000     -10.330370      -281.1037
  24   2.0000     -10.329928      -281.0916
  25   2.0000     -10.328610      -281.0558
  26   2.0000     -10.326495      -280.9982
  27   2.0000     -10.325771      -280.9785
  28   2.0000     -10.323862      -280.9266
  29   2.0000     -10.323188      -280.9082
  30   2.0000     -10.322268      -280.8832
  31   2.0000     -10.320744      -280.8417
  32   2.0000     -10.320633      -280.8387
  33   2.0000     -10.320125      -280.8249
  34   2.0000     -10.319096      -280.7969
  35   2.0000     -10.318704      -280.7862
  36   2.0000     -10.316713      -280.7320
  37   2.0000     -10.316270      -280.7200
  38   2.0000     -10.316043      -280.7138
  39   2.0000     -10.314003      -280.6583
  40   2.0000     -10.313964      -280.6572
  41   2.0000     -10.312039      -280.6049
  42   2.0000     -10.311969      -280.6029
  43   2.0000     -10.308392      -280.5056
  44   2.0000     -10.307856      -280.4910
  45   2.0000     -10.307454      -280.4801
  46   2.0000     -10.304984      -280.4129
  47   2.0000     -10.301275      -280.3120
  48   2.0000     -10.300717      -280.2968
  49   2.0000     -10.297566      -280.2110
  50   2.0000     -10.296018      -280.1689
  51   2.0000     -10.294374      -280.1241
  52   2.0000     -10.294127      -280.1174
  53   2.0000     -10.293868      -280.1104
  54   2.0000     -10.292496      -280.0731
  55   2.0000     -10.290145      -280.0091
  56   2.0000     -10.282012      -279.7878
  57   2.0000     -10.278798      -279.7003
  58   2.0000     -10.278413      -279.6898
  59   2.0000     -10.277359      -279.6611
  60   2.0000     -10.274131      -279.5733
  61   2.0000     -10.256395      -279.0907
  62   2.0000      -8.077895      -219.8107
  63   2.0000      -8.075545      -219.7468
  64   2.0000      -6.046873      -164.5438
  65   2.0000      -6.044631      -164.4828
  66   2.0000      -6.042879      -164.4351
  67   2.0000      -6.040585      -164.3727
  68   2.0000      -6.040406      -164.3678
  69   2.0000      -6.038156      -164.3066
  70   2.0000      -1.319426       -35.9034
  71   2.0000      -1.315302       -35.7912
  72   2.0000      -1.148491       -31.2520
  73   2.0000      -1.139554       -31.0088
  74   2.0000      -1.136824       -30.9346
  75   2.0000      -1.134540       -30.8724
  76   2.0000      -1.131270       -30.7834
  77   2.0000      -1.127953       -30.6932
  78   2.0000      -1.077471       -29.3195
  79   2.0000      -1.067174       -29.0393
  80   2.0000      -1.024256       -27.8714
  81   2.0000      -1.018062       -27.7029
  82   2.0000      -1.010804       -27.5054
  83   2.0000      -1.002623       -27.2828
  84   2.0000      -1.001218       -27.2445
  85   2.0000      -0.991957       -26.9925
  86   2.0000      -0.991377       -26.9767
  87   2.0000      -0.983913       -26.7736
  88   2.0000      -0.939477       -25.5645
  89   2.0000      -0.923798       -25.1378
  90   2.0000      -0.914752       -24.8917
  91   2.0000      -0.909330       -24.7441
  92   2.0000      -0.890729       -24.2380
  93   2.0000      -0.883710       -24.0470
  94   2.0000      -0.879594       -23.9350
  95   2.0000      -0.875442       -23.8220
  96   2.0000      -0.868271       -23.6269
  97   2.0000      -0.858935       -23.3728
  98   2.0000      -0.856560       -23.3082
  99   2.0000      -0.853460       -23.2238
 100   2.0000      -0.846512       -23.0348
 101   2.0000      -0.836536       -22.7633
 102   2.0000      -0.827282       -22.5115
 103   2.0000      -0.819477       -22.2991
 104   2.0000      -0.807744       -21.9798
 105   2.0000      -0.787744       -21.4356
 106   2.0000      -0.775082       -21.0911
 107   2.0000      -0.766744       -20.8642
 108   2.0000      -0.763546       -20.7771
 109   2.0000      -0.747726       -20.3467
 110   2.0000      -0.735827       -20.0229
 111   2.0000      -0.735391       -20.0110
 112   2.0000      -0.726205       -19.7610
 113   2.0000      -0.719458       -19.5774
 114   2.0000      -0.715883       -19.4802
 115   2.0000      -0.704781       -19.1781
 116   2.0000      -0.701767       -19.0961
 117   2.0000      -0.686159       -18.6713
 118   2.0000      -0.679720       -18.4961
 119   2.0000      -0.679063       -18.4782
 120   2.0000      -0.672585       -18.3020
 121   2.0000      -0.663160       -18.0455
 122   2.0000      -0.659962       -17.9585
 123   2.0000      -0.652371       -17.7519
 124   2.0000      -0.649647       -17.6778
 125   2.0000      -0.640039       -17.4163
 126   2.0000      -0.635919       -17.3042
 127   2.0000      -0.632503       -17.2113
 128   2.0000      -0.629340       -17.1252
 129   2.0000      -0.627103       -17.0643
 130   2.0000      -0.625510       -17.0210
 131   2.0000      -0.619553       -16.8589
 132   2.0000      -0.606525       -16.5044
 133   2.0000      -0.604374       -16.4459
 134   2.0000      -0.603071       -16.4104
 135   2.0000      -0.598400       -16.2833
 136   2.0000      -0.594452       -16.1759
 137   2.0000      -0.590047       -16.0560
 138   2.0000      -0.587370       -15.9832
 139   2.0000      -0.582682       -15.8556
 140   2.0000      -0.577684       -15.7196
 141   2.0000      -0.574777       -15.6405
 142   2.0000      -0.566628       -15.4187
 143   2.0000      -0.562008       -15.2930
 144   2.0000      -0.552070       -15.0226
 145   2.0000      -0.549467       -14.9518
 146   2.0000      -0.548157       -14.9161
 147   2.0000      -0.545048       -14.8315
 148   2.0000      -0.541477       -14.7343
 149   2.0000      -0.538547       -14.6546
 150   2.0000      -0.535530       -14.5725
 151   2.0000      -0.531888       -14.4734
 152   2.0000      -0.530373       -14.4322
 153   2.0000      -0.529949       -14.4206
 154   2.0000      -0.528678       -14.3861
 155   2.0000      -0.522223       -14.2104
 156   2.0000      -0.519303       -14.1310
 157   2.0000      -0.517779       -14.0895
 158   2.0000      -0.514253       -13.9935
 159   2.0000      -0.512632       -13.9494
 160   2.0000      -0.511864       -13.9285
 161   2.0000      -0.511687       -13.9237
 162   2.0000      -0.507385       -13.8066
 163   2.0000      -0.506456       -13.7814
 164   2.0000      -0.504702       -13.7336
 165   2.0000      -0.501045       -13.6341
 166   2.0000      -0.496343       -13.5062
 167   2.0000      -0.494118       -13.4456
 168   2.0000      -0.488591       -13.2952
 169   2.0000      -0.488161       -13.2835
 170   2.0000      -0.486885       -13.2488
 171   2.0000      -0.482652       -13.1336
 172   2.0000      -0.480950       -13.0873
 173   2.0000      -0.476478       -12.9656
 174   2.0000      -0.472203       -12.8493
 175   2.0000      -0.470658       -12.8073
 176   2.0000      -0.468151       -12.7390
 177   2.0000      -0.465534       -12.6678
 178   2.0000      -0.465302       -12.6615
 179   2.0000      -0.464725       -12.6458
 180   2.0000      -0.463164       -12.6033
 181   2.0000      -0.458429       -12.4745
 182   2.0000      -0.454856       -12.3773
 183   2.0000      -0.454241       -12.3605
 184   2.0000      -0.448333       -12.1998
 185   2.0000      -0.445332       -12.1181
 186   2.0000      -0.442621       -12.0443
 187   2.0000      -0.442504       -12.0411
 188   2.0000      -0.442162       -12.0318
 189   2.0000      -0.439973       -11.9723
 190   2.0000      -0.438760       -11.9393
 191   2.0000      -0.436416       -11.8755
 192   2.0000      -0.434138       -11.8135
 193   2.0000      -0.429067       -11.6755
 194   2.0000      -0.423697       -11.5294
 195   2.0000      -0.422213       -11.4890
 196   2.0000      -0.403219       -10.9721
 197   2.0000      -0.391024       -10.6403
 198   2.0000      -0.389305       -10.5935
 199   2.0000      -0.386210       -10.5093
 200   2.0000      -0.379350       -10.3226
 201   2.0000      -0.377133       -10.2623
 202   2.0000      -0.373787       -10.1713
 203   2.0000      -0.369898       -10.0654
 204   2.0000      -0.362644        -9.8681
 205   2.0000      -0.358854        -9.7649
 206   2.0000      -0.353413        -9.6169
 207   2.0000      -0.350606        -9.5405
 208   2.0000      -0.347220        -9.4483
 209   2.0000      -0.344388        -9.3713
 210   2.0000      -0.341010        -9.2794
 211   2.0000      -0.338453        -9.2098
 212   2.0000      -0.331183        -9.0120
 213   2.0000      -0.330910        -9.0045
 214   2.0000      -0.328329        -8.9343
 215   2.0000      -0.327189        -8.9033
 216   2.0000      -0.311329        -8.4717
 217   2.0000      -0.305846        -8.3225
 218   2.0000      -0.293741        -7.9931
 219   2.0000      -0.284038        -7.7291
 220   2.0000      -0.237946        -6.4748
 221   0.0000      -0.144788        -3.9399
 222   0.0000      -0.126692        -3.4475
 223   0.0000      -0.079434        -2.1615
 224   0.0000      -0.052650        -1.4327
 225   0.0000      -0.046345        -1.2611

MULLIKEN ATOMIC CHARGES
-----------------------
   0 C :   -0.063826
   1 S :    0.151449
   2 C :   -0.184855
   3 C :    0.196755
   4 O :   -0.192977
   5 C :   -0.025556
   6 C :    0.090289
   7 C :    0.027362
   8 C :    0.089843
   9 N :    0.265679
  10 O :   -0.243675
  11 O :   -0.240219
  12 C :    0.013561
  13 C :    0.012962
  14 C :    0.085988
  15 C :    0.013905
  16 C :    0.015165
  17 C :    0.015185
  18 C :    0.042984
  19 N :    0.274422
  20 O :   -0.264003
  21 O :   -0.247007
  22 C :    0.074823
  23 C :    0.003876
  24 C :    0.032209
  25 C :    0.128776
  26 N :   -0.255418
  27 C :    0.094542
  28 C :   -0.007260
  29 C :    0.169002
  30 O :   -0.195262
  31 C :   -0.069278
  32 C :   -0.056682
  33 C :    0.167453
  34 O :   -0.205226
  35 N :   -0.254992
  36 C :    0.098574
  37 C :    0.002336
  38 C :    0.158032
  39 C :   -0.033524
  40 C :    0.015141
  41 C :    0.104265
  42 C :   -0.097981
  43 C :    0.121009
  44 C :   -0.098421
  45 C :   -0.009985
  46 C :   -0.170289
  47 N :    0.131156
  48 C :    0.119814
  49 C :   -0.136753
  50 C :    0.156250
  51 C :   -0.021856
  52 C :   -0.087857
  53 C :   -0.184561
  54 N :    0.146366
  55 C :   -0.096210
  56 S :    0.151443
  57 C :   -0.143636
  58 C :    0.189442
  59 O :   -0.178180
  60 C :    0.062950
  61 C :    0.014814
  62 H :    0.043925
  63 H :   -0.015154
  64 H :   -0.005965
  65 H :   -0.000682
  66 H :    0.013221
  67 H :   -0.009711
  68 H :    0.001142
  69 H :   -0.004221
  70 H :   -0.012852
  71 H :    0.026269
  72 H :    0.045542
  73 H :    0.040692
  74 H :    0.025979
  75 H :    0.022507
  76 H :    0.043619
  77 H :    0.025428
  78 H :    0.033528
  79 H :    0.028484
  80 H :    0.016627
  81 H :   -0.031376
  82 H :    0.019437
  83 H :    0.017788
  84 H :   -0.000743
  85 H :   -0.002541
  86 H :    0.008654
  87 H :   -0.021004
  88 H :    0.011954
  89 H :    0.007115
Sum of atomic charges:   -0.0000000

LOEWDIN ATOMIC CHARGES
----------------------
   0 C :   -0.157114
   1 S :    0.471773
   2 C :   -0.236891
   3 C :    0.091560
   4 O :   -0.142275
   5 C :   -0.025214
   6 C :   -0.039008
   7 C :    0.016149
   8 C :   -0.030454
   9 N :    0.283331
  10 O :   -0.207798
  11 O :   -0.205229
  12 C :    0.015757
  13 C :   -0.026381
  14 C :    0.054992
  15 C :    0.043418
  16 C :   -0.043785
  17 C :    0.011657
  18 C :   -0.056094
  19 N :    0.287010
  20 O :   -0.223326
  21 O :   -0.212225
  22 C :    0.011679
  23 C :    0.023185
  24 C :    0.002225
  25 C :    0.075116
  26 N :    0.007148
  27 C :    0.037348
  28 C :   -0.062509
  29 C :    0.080203
  30 O :   -0.185505
  31 C :   -0.106750
  32 C :   -0.102985
  33 C :    0.084941
  34 O :   -0.193179
  35 N :    0.002656
  36 C :    0.037097
  37 C :   -0.060402
  38 C :    0.075027
  39 C :   -0.041381
  40 C :    0.040156
  41 C :   -0.022474
  42 C :   -0.005642
  43 C :    0.031302
  44 C :   -0.076764
  45 C :    0.050749
  46 C :   -0.029661
  47 N :   -0.063455
  48 C :    0.040085
  49 C :   -0.029040
  50 C :   -0.025176
  51 C :    0.042353
  52 C :   -0.074256
  53 C :   -0.033223
  54 N :   -0.053304
  55 C :   -0.155591
  56 S :    0.464789
  57 C :   -0.233562
  58 C :    0.084209
  59 O :   -0.135010
  60 C :   -0.003565
  61 C :   -0.034376
  62 H :    0.031541
  63 H :   -0.001434
  64 H :    0.035733
  65 H :    0.037694
  66 H :    0.031952
  67 H :    0.030445
  68 H :    0.037242
  69 H :    0.040263
  70 H :    0.029545
  71 H :    0.024889
  72 H :    0.038120
  73 H :    0.027444
  74 H :    0.032958
  75 H :    0.029834
  76 H :    0.038131
  77 H :    0.023702
  78 H :    0.033952
  79 H :    0.032679
  80 H :    0.022275
  81 H :    0.027617
  82 H :    0.043932
  83 H :    0.041198
  84 H :    0.034517
  85 H :    0.033379
  86 H :    0.033702
  87 H :   -0.006888
  88 H :    0.043511
  89 H :    0.039754

  Mayer bond orders larger than 0.100000
B(  0-C ,  1-S ) :   1.2019 B(  0-C ,  6-C ) :   1.5238 B(  0-C , 62-H ) :   0.9687
B(  1-S ,  2-C ) :   1.1118 B(  2-C ,  3-C ) :   1.0325 B(  2-C ,  5-C ) :   1.4892
B(  3-C ,  4-O ) :   2.1071 B(  3-C , 63-H ) :   0.9519 B(  5-C ,  6-C ) :   1.3137
B(  5-C ,  7-C ) :   0.9702 B(  6-C , 64-H ) :   0.9986 B(  7-C ,  8-C ) :   1.6551
B(  7-C , 14-C ) :   1.0610 B(  8-C ,  9-N ) :   0.9294 B(  8-C , 12-C ) :   1.0883
B(  9-N , 10-O ) :   1.5136 B(  9-N , 11-O ) :   1.5321 B( 10-O , 11-O ) :   0.2685
B( 12-C , 13-C ) :   1.6252 B( 12-C , 65-H ) :   1.0137 B( 13-C , 14-C ) :   1.0900
B( 13-C , 66-H ) :   0.9892 B( 14-C , 15-C ) :   1.4718 B( 15-C , 16-C ) :   1.1557
B( 15-C , 22-C ) :   1.0361 B( 16-C , 17-C ) :   1.5344 B( 16-C , 67-H ) :   1.0036
B( 17-C , 18-C ) :   1.1608 B( 17-C , 68-H ) :   1.0103 B( 18-C , 19-N ) :   0.9588
B( 18-C , 22-C ) :   1.4093 B( 19-N , 20-O ) :   1.4658 B( 19-N , 21-O ) :   1.5326
B( 20-O , 21-O ) :   0.2450 B( 22-C , 23-C ) :   1.2176 B( 23-C , 24-C ) :   1.5216
B( 23-C , 69-H ) :   0.9398 B( 24-C , 25-C ) :   1.2369 B( 24-C , 70-H ) :   0.9378
B( 25-C , 26-N ) :   1.1627 B( 25-C , 32-C ) :   1.2619 B( 26-N , 27-C ) :   0.9357
B( 26-N , 29-C ) :   1.0692 B( 27-C , 28-C ) :   1.1180 B( 27-C , 71-H ) :   0.9497
B( 27-C , 72-H ) :   0.9285 B( 28-C , 73-H ) :   0.9643 B( 28-C , 74-H ) :   0.9663
B( 28-C , 75-H ) :   0.9609 B( 29-C , 30-O ) :   2.0410 B( 29-C , 31-C ) :   0.9737
B( 30-O , 82-H ) :   0.1092 B( 31-C , 32-C ) :   1.3143 B( 31-C , 38-C ) :   1.2924
B( 32-C , 33-C ) :   0.9922 B( 33-C , 34-O ) :   2.0110 B( 33-C , 35-N ) :   1.0661
B( 35-N , 36-C ) :   0.9438 B( 35-N , 38-C ) :   1.1571 B( 36-C , 37-C ) :   1.1182
B( 36-C , 76-H ) :   0.9281 B( 36-C , 77-H ) :   0.9498 B( 37-C , 78-H ) :   0.9637
B( 37-C , 79-H ) :   0.9682 B( 37-C , 80-H ) :   0.9686 B( 38-C , 39-C ) :   1.1898
B( 39-C , 40-C ) :   1.5180 B( 39-C , 81-H ) :   0.9607 B( 40-C , 41-C ) :   1.1468
B( 40-C , 82-H ) :   0.9581 B( 41-C , 42-C ) :   1.4769 B( 41-C , 45-C ) :   1.0372
B( 42-C , 43-C ) :   1.1290 B( 42-C , 83-H ) :   1.0115 B( 43-C , 44-C ) :   1.1035
B( 43-C , 48-C ) :   1.3805 B( 44-C , 45-C ) :   1.6892 B( 44-C , 46-C ) :   1.0879
B( 45-C , 84-H ) :   1.0138 B( 46-C , 47-N ) :   2.9672 B( 48-C , 49-C ) :   1.1360
B( 48-C , 52-C ) :   1.1075 B( 49-C , 50-C ) :   1.5612 B( 49-C , 85-H ) :   0.9997
B( 50-C , 51-C ) :   1.0402 B( 50-C , 55-C ) :   1.0980 B( 51-C , 52-C ) :   1.6868
B( 51-C , 86-H ) :   1.0117 B( 52-C , 53-C ) :   1.0847 B( 53-C , 54-N ) :   2.9727
B( 55-C , 56-S ) :   1.1559 B( 55-C , 57-C ) :   0.1015 B( 55-C , 61-C ) :   1.4563
B( 56-S , 57-C ) :   1.1151 B( 57-C , 58-C ) :   0.9999 B( 57-C , 60-C ) :   1.4622
B( 58-C , 59-O ) :   2.1852 B( 58-C , 87-H ) :   0.9561 B( 60-C , 61-C ) :   1.2993
B( 60-C , 88-H ) :   1.0010 B( 61-C , 89-H ) :   1.0009

-----------------------------------------------------------------------------
         ABSORPTION SPECTRUM VIA TRANSITION ELECTRIC DIPOLE MOMENTS
-----------------------------------------------------------------------------
State   Energy  Wavelength   fosc         T2         TX        TY        TZ
        (cm-1)    (nm)                  (au**2)     (au)      (au)      (au)
-----------------------------------------------------------------------------
   0    5995.5   1667.9   0.448943170  24.65154   3.99063  -2.95333  -0.06540
   1   10528.0    949.8   0.245506854   7.67701   2.54299  -1.09690  -0.08371
   2   14682.9    681.1   0.021437535   0.48066  -0.51232  -0.31410   0.34573
   3   15341.6    651.8   0.147235814   3.15950   1.49535  -0.68986   0.66896
   4   17246.1    579.8   0.028939940   0.55244   0.16230  -0.47630  -0.54702
   5   18563.5    538.7   0.139778700   2.47889   0.76611  -0.69601  -1.18639
   6   19553.7    511.4   0.056437803   0.95020   0.84376  -0.44324  -0.20448
   7   21169.2    472.4   0.059215304   0.92088   0.14212   0.22603  -0.92174
   8   22910.5    436.5   0.016142457   0.23196   0.44503  -0.18296   0.02074
   9   23022.9    434.4   0.037944617   0.54258  -0.54903  -0.10075   0.48063
  10   23402.4    427.3   0.357892475   5.03464   1.91807  -1.11209   0.34482
  11   24221.5    412.9   0.053061705   0.72120  -0.18603   0.53528  -0.63251
  12   24529.5    407.7   0.015656161   0.21012   0.29075   0.31095  -0.17000
  13   24768.1    403.7   0.010046294   0.13353   0.04721   0.35815  -0.05504
  14   25151.8    397.6   0.010199087   0.13350  -0.08278   0.31791   0.15993
  15   25385.6    393.9   0.463549257   6.01152   2.17510  -0.86940   0.72431
  16   25543.5    391.5   0.024874520   0.32059  -0.39251  -0.09686   0.39642
  17   26888.1    371.9   0.077221994   0.94549   0.10201   0.03738  -0.96627
  18   27273.9    366.7   0.080735658   0.97453  -0.81778   0.54453   0.09619
  19   27413.6    364.8   0.008486330   0.10191  -0.14359   0.19899   0.20420
  20   27650.7    361.7   0.001168965   0.01392   0.07923  -0.07306   0.04799
  21   28175.2    354.9   0.000010917   0.00013   0.00365   0.00936  -0.00517
  22   28293.9    353.4   0.280672036   3.26574  -0.23773  -0.66258   1.66440
  23   28786.0    347.4   0.042613063   0.48735  -0.00428   0.12208  -0.68733
  24   28876.4    346.3   0.039486388   0.45017  -0.26140  -0.13608   0.60276
  25   29707.5    336.6   0.026782188   0.29679  -0.41139   0.33337   0.12814
  26   29870.3    334.8   0.034670839   0.38212   0.51462  -0.02090   0.34183
  27   30225.1    330.9   0.181341764   1.97518  -1.01873   0.67385  -0.69520
  28   30458.6    328.3   0.014278319   0.15433   0.37198   0.02684   0.12344
  29   31365.3    318.8   0.048614412   0.51026   0.36978  -0.13529  -0.59600
  30   31559.0    316.9   0.316839670   3.30516   1.66047  -0.71339  -0.19769
  31   32063.3    311.9   0.000579009   0.00595   0.03222  -0.05495   0.04345
  32   32484.6    307.8   0.035291929   0.35766  -0.53592   0.25180  -0.08397
  33   32530.4    307.4   0.046250592   0.46806   0.12996  -0.39611   0.54246
  34   32616.2    306.6   0.024608607   0.24839  -0.42671   0.25069   0.05886
  35   32934.5    303.6   0.081326478   0.81294   0.80152  -0.15198  -0.38394
  36   33049.2    302.6   0.035993743   0.35854  -0.46422   0.33652   0.17263
  37   33357.2    299.8   0.181638573   1.79265  -0.47946   0.26286   1.22216
  38   33538.2    298.2   0.011910358   0.11691   0.06280   0.22386  -0.25071
  39   33726.4    296.5   0.038680177   0.37757   0.20585  -0.11149   0.56812
  40   33922.2    294.8   0.007718225   0.07490  -0.09906   0.00106   0.25513
  41   34380.7    290.9   0.015057747   0.14419  -0.23631   0.07041   0.28877
  42   34735.1    287.9   0.000455640   0.00432   0.04617  -0.03111   0.03491
  43   34908.7    286.5   0.004072043   0.03840   0.06207  -0.13685  -0.12579
  44   35196.4    284.1   0.056784599   0.53114   0.00263   0.17364   0.70780
  45   35303.8    283.3   0.027380927   0.25533   0.10320  -0.16694  -0.46563
  46   35721.0    279.9   0.120693860   1.11234  -0.93318   0.46618   0.15550
  47   35985.7    277.9   0.218941745   2.00297   1.25473  -0.60074   0.26024
  48   36123.0    276.8   0.000011699   0.00011  -0.00782  -0.00541   0.00402
  49   36259.8    275.8   0.037098884   0.33683   0.02110   0.01191  -0.57986
  50   36680.3    272.6   0.021984525   0.19731  -0.34982  -0.07825  -0.26232
  51   37021.8    270.1   0.104420846   0.92855  -0.82622   0.47009  -0.15787
  52   37275.3    268.3   0.099542197   0.87915   0.24571  -0.14257  -0.89356
  53   37628.4    265.8   0.000813153   0.00711   0.05377  -0.02503   0.05997
  54   37789.0    264.6   0.026459284   0.23051  -0.15165  -0.07564  -0.44921
  55   38103.6    262.4   0.003046923   0.02633  -0.14147  -0.04582   0.06490
  56   38334.4    260.9   0.038888185   0.33397  -0.34114   0.06239   0.46228
  57   38459.5    260.0   0.009186951   0.07864   0.14179   0.04472   0.23777
  58   38573.2    259.2   0.038006467   0.32438  -0.14706   0.53005  -0.14764
  59   38828.4    257.5   0.039007400   0.33073  -0.00804  -0.54873   0.17193
  60   38999.6    256.4   0.226501052   1.91199   0.21997  -0.52957   1.25824
  61   39515.7    253.1   0.000008588   0.00007   0.00121  -0.00689   0.00475
  62   39693.7    251.9   0.019781781   0.16407  -0.21020   0.21732  -0.26955
  63   39929.6    250.4   0.000616317   0.00508   0.06459   0.00853   0.02893
  64   40255.2    248.4   0.041606670   0.34026   0.38085   0.22167  -0.38220

FINAL SINGLE POINT ENERGY     -3492.483469195613

DIPOLE MOMENT
-------------
                                X             Y             Z
Electronic contribution:      6.36987       7.46969       1.49234
Nuclear contribution   :     -7.66080      -6.45205      -1.73229
                        -----------------------------------------
Total Dipole Moment    :     -1.29093       1.01764      -0.23994
                        -----------------------------------------
Magnitude (a.u.)       :      1.66122
Magnitude (Debye)      :      4.22249

Rotational constants in cm-1:     0.002830     0.000327     0.000309
Rotational constants in MHz :    84.853872     9.796836     9.262950

                             ****ORCA TERMINATED NORMALLY****
TOTAL RUN TIME: 0 days 0 hours 26 minutes 9 seconds 310 msec
