                         Program Version 4.2.0 -  RELEASE  -
|  1> # ORCA input file
|  2> # SCF done       -161.208659164220          0.000726799303
|  3> ! CAM-B3LYP def2-SVP def2/J RIJCOSX Grid4 TightSCF
|  4> %maxcore 5000
|  5> %tddft
|  6>     Mode sTDDFT
|  7>     Ethresh 5.0
|  8>     maxcore 5000
|  9> end
| 10>
| 11> %pal
| 12>   nprocs 6
| 13>   end
| 14> * xyz 0 1
| 15>    C       -1.79698         0.30831         4.56827
| 16>    C       -1.07935        -0.87007         4.49098
| 17>    C       -0.15877        -1.04658         3.45186
| 18>    C       -0.03949         0.00379         2.52703
| 19>    N       -0.70773         1.13046         2.61879
| 20>    C       -1.55799         1.29261         3.61851
| 21>    C        0.61397        -2.25512         3.30307
| 22>    C        1.80919        -2.40148         2.64766
| 23>    C        2.24237        -3.75667         2.76002
| 24>    C        1.18643        -4.46442         3.51145
| 25>    C        0.22454        -3.55927         3.82637
| 26>    C        1.10948        -5.83901         3.76682
| 27>    N        0.97823        -6.96348         3.96002
| 28>    C        3.41050        -4.30918         2.28904
| 29>    C        3.90649        -5.61757         2.53856
| 30>    C        5.08778        -5.80065         1.83971
| 31>    C        5.36887        -4.56779         1.12008
| 32>    C        4.39248        -3.66464         1.40265
| 33>    C        4.33431        -2.36352         0.89030
| 34>    N        4.31310        -1.30289         0.45026
| 35>    C        5.83830        -7.00280         1.88926
| 36>    N        6.79157        -7.43873         1.00804
| 37>    C        7.21232        -6.83699        -0.23633
| 38>    C        6.09548        -6.81202        -1.27465
| 39>    C        7.28483        -8.71646         1.36016
| 40>    O        8.08179        -9.33120         0.68799
| 41>    C        6.60652        -9.03435         2.59839
| 42>    C        5.71393        -7.98825         2.88381
| 43>    C        5.04927        -8.29586         4.14016
| 44>    O        4.24567        -7.68677         4.80826
| 45>    N        5.57701        -9.54800         4.50865
| 46>    C        5.10629       -10.23228         5.69001
| 47>    C        4.05618       -11.28679         5.34997
| 48>    C        6.51246       -10.00177         3.61399
| 49>    C        7.20980       -11.21561         3.74067
| 50>    C        8.26245       -11.55352         2.93204
| 51>    C        8.95030       -12.77921         2.98335
| 52>    C       10.29615       -12.98907         2.67524
| 53>    N       11.23484       -12.03299         2.24649
| 54>    O       12.32046       -12.44798         1.87794
| 55>    O       10.92573       -10.85378         2.28239
| 56>    C       10.64476       -14.34253         2.96515
| 57>    C        9.55338       -14.97606         3.48414
| 58>    C        8.44343       -14.07430         3.47497
| 59>    C        7.12133       -14.40848         3.69803
| 60>    C        5.97580       -13.82114         3.06520
| 61>    C        4.88528       -14.56053         3.38187
| 62>    C        5.27535       -15.62820         4.27169
| 63>    N        4.28684       -16.46066         4.82461
| 64>    O        3.13530       -16.06543         4.74865
| 65>    O        4.60334       -17.52111         5.33987
| 66>    C        6.64625       -15.56185         4.49034
| 67>    C        7.52046       -16.21900         5.40389
| 68>    C        7.39158       -17.46094         5.92432
| 69>    C        8.32753       -18.06515         6.83907
| 70>    C        9.63509       -17.61356         7.05577
| 71>    C       10.43709       -18.26666         7.97165
| 72>    C        9.92466       -19.37669         8.63046
| 73>    N        8.68942       -19.80974         8.44495
| 74>    C        7.91689       -19.18086         7.58935
| 75>    H       -2.50982         0.47206         5.36122
| 76>    H       -1.20580        -1.63518         5.24271
| 77>    H        0.61194        -0.08984         1.66891
| 78>    H       -2.06259         2.24829         3.65600
| 79>    H        2.37684        -1.62337         2.17719
| 80>    H       -0.69121        -3.76773         4.34780
| 81>    H        3.43889        -6.33618         3.18176
| 82>    H        6.22300        -4.37332         0.50110
| 83>    H        8.03432        -7.46348        -0.59601
| 84>    H        7.60567        -5.83474        -0.05065
| 85>    H        5.75147        -7.82361        -1.47639
| 86>    H        6.46888        -6.38247        -2.19997
| 87>    H        5.24905        -6.21985        -0.93335
| 88>    H        4.65871        -9.46392         6.32633
| 89>    H        5.95565       -10.67641         6.21586
| 90>    H        3.19878       -10.81503         4.87709
| 91>    H        3.72117       -11.77807         6.25884
| 92>    H        4.45703       -12.03945         4.67424
| 93>    H        6.91984       -11.88267         4.54025
| 94>    H        8.65676       -10.81207         2.24500
| 95>    H       11.62100       -14.75551         2.79386
| 96>    H        9.48903       -16.01964         3.72516
| 97>    H        6.01661       -13.01051         2.36454
| 98>    H        3.87616       -14.42339         3.04187
| 99>    H        8.39202       -15.63414         5.67114
|100>    H        6.53220       -18.06277         5.67098
|101>    H       10.02970       -16.78020         6.49255
|102>    H       11.44985       -17.94194         8.15247
|103>    H       10.52500       -19.94792         9.32512
|104>    H        6.90745       -19.55838         7.49234
|105> *
|106>
|107>                          ****END OF INPUT****

CARTESIAN COORDINATES (ANGSTROEM)
---------------------------------
  C     -1.796980    0.308310    4.568270
  C     -1.079350   -0.870070    4.490980
  C     -0.158770   -1.046580    3.451860
  C     -0.039490    0.003790    2.527030
  N     -0.707730    1.130460    2.618790
  C     -1.557990    1.292610    3.618510
  C      0.613970   -2.255120    3.303070
  C      1.809190   -2.401480    2.647660
  C      2.242370   -3.756670    2.760020
  C      1.186430   -4.464420    3.511450
  C      0.224540   -3.559270    3.826370
  C      1.109480   -5.839010    3.766820
  N      0.978230   -6.963480    3.960020
  C      3.410500   -4.309180    2.289040
  C      3.906490   -5.617570    2.538560
  C      5.087780   -5.800650    1.839710
  C      5.368870   -4.567790    1.120080
  C      4.392480   -3.664640    1.402650
  C      4.334310   -2.363520    0.890300
  N      4.313100   -1.302890    0.450260
  C      5.838300   -7.002800    1.889260
  N      6.791570   -7.438730    1.008040
  C      7.212320   -6.836990   -0.236330
  C      6.095480   -6.812020   -1.274650
  C      7.284830   -8.716460    1.360160
  O      8.081790   -9.331200    0.687990
  C      6.606520   -9.034350    2.598390
  C      5.713930   -7.988250    2.883810
  C      5.049270   -8.295860    4.140160
  O      4.245670   -7.686770    4.808260
  N      5.577010   -9.548000    4.508650
  C      5.106290  -10.232280    5.690010
  C      4.056180  -11.286790    5.349970
  C      6.512460  -10.001770    3.613990
  C      7.209800  -11.215610    3.740670
  C      8.262450  -11.553520    2.932040
  C      8.950300  -12.779210    2.983350
  C     10.296150  -12.989070    2.675240
  N     11.234840  -12.032990    2.246490
  O     12.320460  -12.447980    1.877940
  O     10.925730  -10.853780    2.282390
  C     10.644760  -14.342530    2.965150
  C      9.553380  -14.976060    3.484140
  C      8.443430  -14.074300    3.474970
  C      7.121330  -14.408480    3.698030
  C      5.975800  -13.821140    3.065200
  C      4.885280  -14.560530    3.381870
  C      5.275350  -15.628200    4.271690
  N      4.286840  -16.460660    4.824610
  O      3.135300  -16.065430    4.748650
  O      4.603340  -17.521110    5.339870
  C      6.646250  -15.561850    4.490340
  C      7.520460  -16.219000    5.403890
  C      7.391580  -17.460940    5.924320
  C      8.327530  -18.065150    6.839070
  C      9.635090  -17.613560    7.055770
  C     10.437090  -18.266660    7.971650
  C      9.924660  -19.376690    8.630460
  N      8.689420  -19.809740    8.444950
  C      7.916890  -19.180860    7.589350
  H     -2.509820    0.472060    5.361220
  H     -1.205800   -1.635180    5.242710
  H      0.611940   -0.089840    1.668910
  H     -2.062590    2.248290    3.656000
  H      2.376840   -1.623370    2.177190
  H     -0.691210   -3.767730    4.347800
  H      3.438890   -6.336180    3.181760
  H      6.223000   -4.373320    0.501100
  H      8.034320   -7.463480   -0.596010
  H      7.605670   -5.834740   -0.050650
  H      5.751470   -7.823610   -1.476390
  H      6.468880   -6.382470   -2.199970
  H      5.249050   -6.219850   -0.933350
  H      4.658710   -9.463920    6.326330
  H      5.955650  -10.676410    6.215860
  H      3.198780  -10.815030    4.877090
  H      3.721170  -11.778070    6.258840
  H      4.457030  -12.039450    4.674240
  H      6.919840  -11.882670    4.540250
  H      8.656760  -10.812070    2.245000
  H     11.621000  -14.755510    2.793860
  H      9.489030  -16.019640    3.725160
  H      6.016610  -13.010510    2.364540
  H      3.876160  -14.423390    3.041870
  H      8.392020  -15.634140    5.671140
  H      6.532200  -18.062770    5.670980
  H     10.029700  -16.780200    6.492550
  H     11.449850  -17.941940    8.152470
  H     10.525000  -19.947920    9.325120
  H      6.907450  -19.558380    7.492340

 Total Charge           Charge          ....    0
 Multiplicity           Mult            ....    1
 Number of Electrons    NEL             ....  410
 Basis Dimension        Dim             ....  990

ORBITAL ENERGIES
----------------

  NO   OCC          E(Eh)            E(eV)
   0   2.0000     -19.242354      -523.6111
   1   2.0000     -19.239759      -523.5404
   2   2.0000     -19.236277      -523.4457
   3   2.0000     -19.236173      -523.4429
   4   2.0000     -19.206620      -522.6387
   5   2.0000     -19.200506      -522.4723
   6   2.0000     -14.649976      -398.6461
   7   2.0000     -14.645458      -398.5232
   8   2.0000     -14.468815      -393.7165
   9   2.0000     -14.463352      -393.5678
  10   2.0000     -14.414390      -392.2355
  11   2.0000     -14.408817      -392.0838
  12   2.0000     -14.408746      -392.0819
  13   2.0000     -14.406535      -392.0217
  14   2.0000     -10.387785      -282.6660
  15   2.0000     -10.384329      -282.5720
  16   2.0000     -10.357311      -281.8368
  17   2.0000     -10.351772      -281.6860
  18   2.0000     -10.335346      -281.2391
  19   2.0000     -10.334526      -281.2168
  20   2.0000     -10.333721      -281.1948
  21   2.0000     -10.332699      -281.1670
  22   2.0000     -10.331630      -281.1379
  23   2.0000     -10.328103      -281.0420
  24   2.0000     -10.326688      -281.0035
  25   2.0000     -10.323962      -280.9293
  26   2.0000     -10.322654      -280.8937
  27   2.0000     -10.321452      -280.8610
  28   2.0000     -10.318964      -280.7933
  29   2.0000     -10.318028      -280.7678
  30   2.0000     -10.316241      -280.7192
  31   2.0000     -10.314731      -280.6781
  32   2.0000     -10.314530      -280.6726
  33   2.0000     -10.314290      -280.6661
  34   2.0000     -10.313900      -280.6555
  35   2.0000     -10.312834      -280.6265
  36   2.0000     -10.311537      -280.5912
  37   2.0000     -10.311279      -280.5842
  38   2.0000     -10.311261      -280.5837
  39   2.0000     -10.310494      -280.5628
  40   2.0000     -10.309740      -280.5423
  41   2.0000     -10.306602      -280.4569
  42   2.0000     -10.306478      -280.4535
  43   2.0000     -10.303192      -280.3641
  44   2.0000     -10.301046      -280.3057
  45   2.0000     -10.300984      -280.3040
  46   2.0000     -10.300325      -280.2861
  47   2.0000     -10.298274      -280.2303
  48   2.0000     -10.297600      -280.2119
  49   2.0000     -10.295055      -280.1427
  50   2.0000     -10.294617      -280.1308
  51   2.0000     -10.293356      -280.0965
  52   2.0000     -10.289568      -279.9934
  53   2.0000     -10.289518      -279.9920
  54   2.0000     -10.287950      -279.9494
  55   2.0000     -10.287925      -279.9487
  56   2.0000     -10.278896      -279.7030
  57   2.0000     -10.277942      -279.6770
  58   2.0000     -10.273254      -279.5494
  59   2.0000     -10.264635      -279.3149
  60   2.0000      -1.320300       -35.9272
  61   2.0000      -1.315603       -35.7994
  62   2.0000      -1.148075       -31.2407
  63   2.0000      -1.140003       -31.0211
  64   2.0000      -1.136773       -30.9332
  65   2.0000      -1.133044       -30.8317
  66   2.0000      -1.077870       -29.3303
  67   2.0000      -1.068454       -29.0741
  68   2.0000      -1.046126       -28.4665
  69   2.0000      -1.043560       -28.3967
  70   2.0000      -1.023273       -27.8447
  71   2.0000      -1.021659       -27.8008
  72   2.0000      -1.004677       -27.3386
  73   2.0000      -1.001825       -27.2610
  74   2.0000      -0.989666       -26.9302
  75   2.0000      -0.984429       -26.7877
  76   2.0000      -0.940850       -25.6018
  77   2.0000      -0.930918       -25.3316
  78   2.0000      -0.924089       -25.1457
  79   2.0000      -0.917920       -24.9779
  80   2.0000      -0.914696       -24.8901
  81   2.0000      -0.891827       -24.2678
  82   2.0000      -0.889009       -24.1912
  83   2.0000      -0.883701       -24.0467
  84   2.0000      -0.881062       -23.9749
  85   2.0000      -0.875311       -23.8184
  86   2.0000      -0.864017       -23.5111
  87   2.0000      -0.860884       -23.4258
  88   2.0000      -0.851531       -23.1713
  89   2.0000      -0.840595       -22.8737
  90   2.0000      -0.830037       -22.5865
  91   2.0000      -0.823223       -22.4010
  92   2.0000      -0.812457       -22.1081
  93   2.0000      -0.795418       -21.6444
  94   2.0000      -0.780931       -21.2502
  95   2.0000      -0.769686       -20.9442
  96   2.0000      -0.766319       -20.8526
  97   2.0000      -0.741699       -20.1826
  98   2.0000      -0.741003       -20.1637
  99   2.0000      -0.734874       -19.9969
 100   2.0000      -0.734271       -19.9805
 101   2.0000      -0.722398       -19.6574
 102   2.0000      -0.721316       -19.6280
 103   2.0000      -0.715813       -19.4783
 104   2.0000      -0.712026       -19.3752
 105   2.0000      -0.692277       -18.8378
 106   2.0000      -0.688350       -18.7309
 107   2.0000      -0.683069       -18.5872
 108   2.0000      -0.677541       -18.4368
 109   2.0000      -0.674442       -18.3525
 110   2.0000      -0.666822       -18.1451
 111   2.0000      -0.658874       -17.9289
 112   2.0000      -0.653986       -17.7959
 113   2.0000      -0.642702       -17.4888
 114   2.0000      -0.641735       -17.4625
 115   2.0000      -0.631238       -17.1769
 116   2.0000      -0.626616       -17.0511
 117   2.0000      -0.623187       -16.9578
 118   2.0000      -0.621577       -16.9140
 119   2.0000      -0.616720       -16.7818
 120   2.0000      -0.613025       -16.6813
 121   2.0000      -0.610678       -16.6174
 122   2.0000      -0.601364       -16.3640
 123   2.0000      -0.598229       -16.2786
 124   2.0000      -0.593121       -16.1396
 125   2.0000      -0.590586       -16.0707
 126   2.0000      -0.587419       -15.9845
 127   2.0000      -0.577617       -15.7177
 128   2.0000      -0.573356       -15.6018
 129   2.0000      -0.571272       -15.5451
 130   2.0000      -0.568372       -15.4662
 131   2.0000      -0.561813       -15.2877
 132   2.0000      -0.560491       -15.2517
 133   2.0000      -0.555134       -15.1060
 134   2.0000      -0.552631       -15.0379
 135   2.0000      -0.547402       -14.8956
 136   2.0000      -0.545077       -14.8323
 137   2.0000      -0.541041       -14.7225
 138   2.0000      -0.536367       -14.5953
 139   2.0000      -0.532481       -14.4895
 140   2.0000      -0.529288       -14.4027
 141   2.0000      -0.526376       -14.3234
 142   2.0000      -0.524452       -14.2711
 143   2.0000      -0.523437       -14.2434
 144   2.0000      -0.518701       -14.1146
 145   2.0000      -0.516089       -14.0435
 146   2.0000      -0.515566       -14.0293
 147   2.0000      -0.509841       -13.8735
 148   2.0000      -0.508871       -13.8471
 149   2.0000      -0.507601       -13.8125
 150   2.0000      -0.501013       -13.6332
 151   2.0000      -0.500579       -13.6214
 152   2.0000      -0.497286       -13.5318
 153   2.0000      -0.494559       -13.4576
 154   2.0000      -0.493561       -13.4305
 155   2.0000      -0.492299       -13.3961
 156   2.0000      -0.491061       -13.3624
 157   2.0000      -0.488195       -13.2845
 158   2.0000      -0.484874       -13.1941
 159   2.0000      -0.484292       -13.1783
 160   2.0000      -0.484185       -13.1754
 161   2.0000      -0.479139       -13.0380
 162   2.0000      -0.474182       -12.9031
 163   2.0000      -0.471559       -12.8318
 164   2.0000      -0.469918       -12.7871
 165   2.0000      -0.464824       -12.6485
 166   2.0000      -0.463015       -12.5993
 167   2.0000      -0.459007       -12.4902
 168   2.0000      -0.453516       -12.3408
 169   2.0000      -0.452207       -12.3052
 170   2.0000      -0.449078       -12.2200
 171   2.0000      -0.446519       -12.1504
 172   2.0000      -0.443777       -12.0758
 173   2.0000      -0.439475       -11.9587
 174   2.0000      -0.437178       -11.8962
 175   2.0000      -0.435317       -11.8456
 176   2.0000      -0.432821       -11.7777
 177   2.0000      -0.429946       -11.6994
 178   2.0000      -0.419821       -11.4239
 179   2.0000      -0.415121       -11.2960
 180   2.0000      -0.411041       -11.1850
 181   2.0000      -0.401493       -10.9252
 182   2.0000      -0.389643       -10.6027
 183   2.0000      -0.388676       -10.5764
 184   2.0000      -0.380533       -10.3548
 185   2.0000      -0.378425       -10.2975
 186   2.0000      -0.376712       -10.2509
 187   2.0000      -0.373717       -10.1694
 188   2.0000      -0.365360        -9.9419
 189   2.0000      -0.364641        -9.9224
 190   2.0000      -0.362349        -9.8600
 191   2.0000      -0.359714        -9.7883
 192   2.0000      -0.357584        -9.7304
 193   2.0000      -0.345246        -9.3946
 194   2.0000      -0.343621        -9.3504
 195   2.0000      -0.340304        -9.2602
 196   2.0000      -0.335521        -9.1300
 197   2.0000      -0.331851        -9.0301
 198   2.0000      -0.330321        -8.9885
 199   2.0000      -0.330054        -8.9812
 200   2.0000      -0.318830        -8.6758
 201   2.0000      -0.309899        -8.4328
 202   2.0000      -0.297387        -8.0923
 203   2.0000      -0.283075        -7.7028
 204   2.0000      -0.244183        -6.6446
 205   0.0000      -0.145121        -3.9490
 206   0.0000      -0.127043        -3.4570
 207   0.0000      -0.080168        -2.1815
 208   0.0000      -0.045627        -1.2416
 209   0.0000      -0.029442        -0.8011

MULLIKEN ATOMIC CHARGES
-----------------------
   0 C :    0.014343
   1 C :    0.018569
   2 C :    0.017431
   3 C :    0.001850
   4 N :   -0.057790
   5 C :    0.028628
   6 C :    0.115881
   7 C :   -0.114533
   8 C :    0.103524
   9 C :   -0.080829
  10 C :   -0.012942
  11 C :   -0.179087
  12 N :    0.145904
  13 C :    0.123088
  14 C :   -0.102297
  15 C :    0.030223
  16 C :   -0.025824
  17 C :   -0.097223
  18 C :   -0.185592
  19 N :    0.148342
  20 C :    0.160241
  21 N :   -0.257296
  22 C :    0.094431
  23 C :   -0.006133
  24 C :    0.155804
  25 O :   -0.183921
  26 C :   -0.053310
  27 C :   -0.056222
  28 C :    0.150244
  29 O :   -0.183545
  30 N :   -0.256991
  31 C :    0.097955
  32 C :    0.007370
  33 C :    0.141462
  34 C :   -0.050946
  35 C :   -0.023718
  36 C :    0.050559
  37 C :    0.093085
  38 N :    0.267920
  39 O :   -0.250662
  40 O :   -0.240706
  41 C :    0.019859
  42 C :   -0.024403
  43 C :    0.033359
  44 C :    0.000000
  45 C :   -0.008797
  46 C :    0.036123
  47 C :    0.055283
  48 N :    0.272472
  49 O :   -0.247081
  50 O :   -0.250071
  51 C :    0.086490
  52 C :   -0.088333
  53 C :    0.041301
  54 C :    0.021442
  55 C :    0.026013
  56 C :    0.011644
  57 C :    0.029040
  58 N :   -0.058154
  59 C :   -0.000638
  60 H :    0.000380
  61 H :   -0.005100
  62 H :    0.012967
  63 H :    0.011532
  64 H :    0.008474
  65 H :    0.001082
  66 H :    0.029972
  67 H :   -0.010282
  68 H :    0.054184
  69 H :    0.028041
  70 H :    0.028587
  71 H :    0.030035
  72 H :    0.029926
  73 H :    0.047633
  74 H :    0.022336
  75 H :    0.038220
  76 H :    0.026652
  77 H :    0.006513
  78 H :    0.001441
  79 H :    0.050761
  80 H :    0.007074
  81 H :    0.005699
  82 H :    0.012925
  83 H :    0.008965
  84 H :    0.009171
  85 H :    0.027971
  86 H :   -0.009384
  87 H :   -0.001506
  88 H :    0.011779
  89 H :    0.011116
Sum of atomic charges:   -0.0000000

LOEWDIN ATOMIC CHARGES
----------------------
   0 C :   -0.039451
   1 C :    0.013029
   2 C :   -0.050583
   3 C :    0.039468
   4 N :   -0.062170
   5 C :    0.030147
   6 C :    0.004549
   7 C :   -0.032419
   8 C :    0.056117
   9 C :   -0.074208
  10 C :    0.051127
  11 C :   -0.034792
  12 N :   -0.049015
  13 C :    0.025041
  14 C :    0.024936
  15 C :   -0.042568
  16 C :    0.044964
  17 C :   -0.079292
  18 C :   -0.032467
  19 N :   -0.058870
  20 C :    0.080867
  21 N :    0.000703
  22 C :    0.035570
  23 C :   -0.060717
  24 C :    0.082774
  25 O :   -0.172747
  26 C :   -0.105436
  27 C :   -0.105773
  28 C :    0.081315
  29 O :   -0.175536
  30 N :    0.002926
  31 C :    0.037726
  32 C :   -0.062441
  33 C :    0.070354
  34 C :   -0.022363
  35 C :    0.030338
  36 C :    0.004313
  37 C :   -0.044895
  38 N :    0.283706
  39 O :   -0.215504
  40 O :   -0.204758
  41 C :    0.023837
  42 C :   -0.051356
  43 C :    0.033785
  44 C :    0.043698
  45 C :   -0.048445
  46 C :    0.013633
  47 C :   -0.047873
  48 N :    0.286062
  49 O :   -0.211291
  50 O :   -0.209298
  51 C :    0.013717
  52 C :   -0.044972
  53 C :    0.034449
  54 C :   -0.056812
  55 C :    0.014758
  56 C :   -0.040630
  57 C :    0.029448
  58 N :   -0.065215
  59 C :    0.034860
  60 H :    0.035016
  61 H :    0.031904
  62 H :    0.027320
  63 H :    0.024736
  64 H :    0.035029
  65 H :    0.036676
  66 H :    0.039459
  67 H :    0.035506
  68 H :    0.041540
  69 H :    0.021105
  70 H :    0.033007
  71 H :    0.034744
  72 H :    0.024184
  73 H :    0.039540
  74 H :    0.023006
  75 H :    0.036133
  76 H :    0.033066
  77 H :    0.019547
  78 H :    0.033215
  79 H :    0.046011
  80 H :    0.040132
  81 H :    0.031471
  82 H :    0.033765
  83 H :    0.038377
  84 H :    0.031320
  85 H :    0.033316
  86 H :    0.029502
  87 H :    0.034059
  88 H :    0.024304
  89 H :    0.026688

  Mayer bond orders larger than 0.100000
B(  0-C ,  1-C ) :   1.4235 B(  0-C ,  5-C ) :   1.3765 B(  0-C , 60-H ) :   0.9748
B(  1-C ,  2-C ) :   1.3801 B(  1-C , 61-H ) :   0.9862 B(  2-C ,  3-C ) :   1.3299
B(  2-C ,  6-C ) :   1.0033 B(  3-C ,  4-N ) :   1.5825 B(  3-C , 62-H ) :   0.9855
B(  4-N ,  5-C ) :   1.5326 B(  5-C , 63-H ) :   0.9823 B(  6-C ,  7-C ) :   1.5937
B(  6-C , 10-C ) :   1.0473 B(  7-C ,  8-C ) :   1.1124 B(  7-C , 64-H ) :   1.0022
B(  8-C ,  9-C ) :   1.0985 B(  8-C , 13-C ) :   1.4053 B(  9-C , 10-C ) :   1.6797
B(  9-C , 11-C ) :   1.0856 B( 10-C , 65-H ) :   1.0159 B( 11-C , 12-N ) :   2.9844
B( 13-C , 14-C ) :   1.1106 B( 13-C , 17-C ) :   1.1063 B( 14-C , 15-C ) :   1.5412
B( 14-C , 66-H ) :   0.9891 B( 15-C , 16-C ) :   1.0289 B( 15-C , 20-C ) :   1.0452
B( 16-C , 17-C ) :   1.6608 B( 16-C , 67-H ) :   1.0278 B( 17-C , 18-C ) :   1.0843
B( 18-C , 19-N ) :   2.9793 B( 20-C , 21-N ) :   1.2133 B( 20-C , 27-C ) :   1.3481
B( 21-N , 22-C ) :   0.9386 B( 21-N , 24-C ) :   1.0299 B( 22-C , 23-C ) :   1.1175
B( 22-C , 68-H ) :   0.9220 B( 22-C , 69-H ) :   0.9508 B( 23-C , 70-H ) :   0.9612
B( 23-C , 71-H ) :   0.9663 B( 23-C , 72-H ) :   0.9668 B( 24-C , 25-O ) :   2.0680
B( 24-C , 26-C ) :   0.9804 B( 26-C , 27-C ) :   1.2775 B( 26-C , 33-C ) :   1.2946
B( 27-C , 28-C ) :   0.9663 B( 28-C , 29-O ) :   2.0918 B( 28-C , 30-N ) :   1.0453
B( 30-N , 31-C ) :   0.9384 B( 30-N , 33-C ) :   1.1712 B( 31-C , 32-C ) :   1.1203
B( 31-C , 73-H ) :   0.9269 B( 31-C , 74-H ) :   0.9493 B( 32-C , 75-H ) :   0.9599
B( 32-C , 76-H ) :   0.9656 B( 32-C , 77-H ) :   0.9660 B( 33-C , 34-C ) :   1.2000
B( 34-C , 35-C ) :   1.5096 B( 34-C , 78-H ) :   0.9534 B( 35-C , 36-C ) :   1.2041
B( 35-C , 79-H ) :   0.9260 B( 36-C , 37-C ) :   1.4747 B( 36-C , 43-C ) :   1.0157
B( 37-C , 38-N ) :   0.9421 B( 37-C , 41-C ) :   1.1570 B( 38-N , 39-O ) :   1.5234
B( 38-N , 40-O ) :   1.5042 B( 39-O , 40-O ) :   0.2635 B( 41-C , 42-C ) :   1.5331
B( 41-C , 80-H ) :   1.0127 B( 42-C , 43-C ) :   1.1517 B( 42-C , 81-H ) :   1.0045
B( 43-C , 44-C ) :   1.4821 B( 44-C , 45-C ) :   1.1322 B( 44-C , 51-C ) :   1.0264
B( 45-C , 46-C ) :   1.5706 B( 45-C , 82-H ) :   0.9971 B( 46-C , 47-C ) :   1.1255
B( 46-C , 83-H ) :   1.0067 B( 47-C , 48-N ) :   0.9535 B( 47-C , 51-C ) :   1.5220
B( 48-N , 49-O ) :   1.5362 B( 48-N , 50-O ) :   1.4817 B( 49-O , 50-O ) :   0.2565
B( 51-C , 52-C ) :   1.1317 B( 52-C , 53-C ) :   1.6794 B( 52-C , 84-H ) :   0.9475
B( 53-C , 54-C ) :   1.0571 B( 53-C , 85-H ) :   0.9649 B( 54-C , 55-C ) :   1.3659
B( 54-C , 59-C ) :   1.3121 B( 55-C , 56-C ) :   1.4421 B( 55-C , 86-H ) :   0.9825
B( 56-C , 57-C ) :   1.3665 B( 56-C , 87-H ) :   0.9733 B( 57-C , 58-N ) :   1.5395
B( 57-C , 88-H ) :   0.9824 B( 58-N , 59-C ) :   1.5773 B( 59-C , 89-H ) :   0.9886

-----------------------------------------------------------------------------
         ABSORPTION SPECTRUM VIA TRANSITION ELECTRIC DIPOLE MOMENTS
-----------------------------------------------------------------------------
State   Energy  Wavelength   fosc         T2         TX        TY        TZ
        (cm-1)    (nm)                  (au**2)     (au)      (au)      (au)
-----------------------------------------------------------------------------
   0    6421.2   1557.3   0.358502759  18.38037  -1.78518   3.82181  -0.76633
   1   10269.1    973.8   0.073585123   2.35903   1.34331  -0.68776  -0.28556
   2   12315.1    812.0   0.028971410   0.77448  -0.15648   0.50928  -0.70045
   3   16411.5    609.3   0.074375562   1.49196  -1.02851   0.56949   0.33137
   4   17284.9    578.5   0.014273569   0.27186   0.13213  -0.17649   0.47249
   5   19309.2    517.9   0.136654418   2.32989  -0.55679   1.30088  -0.57234
   6   20533.1    487.0   0.001914882   0.03070   0.15299   0.01609  -0.08388
   7   22653.4    441.4   0.008157276   0.11855   0.17728   0.08209   0.28351
   8   22937.5    436.0   0.011158241   0.16015  -0.01555  -0.20814  -0.34145
   9   24202.0    413.2   0.001328794   0.01808   0.10658  -0.08193  -0.00159
  10   25115.3    398.2   0.154757517   2.02856  -0.64700   1.26497  -0.09905
  11   25301.9    395.2   0.075141558   0.97769   0.92600   0.28534   0.19696
  12   25530.8    391.7   0.149958581   1.93367  -0.16271   1.11349  -0.81691
  13   25807.3    387.5   0.022579802   0.28804   0.40415  -0.34133  -0.09053
  14   26003.7    384.6   0.014932605   0.18905   0.23726  -0.19966   0.30478
  15   26098.9    383.2   0.022782837   0.28738  -0.08456   0.52895  -0.02099
  16   26417.0    378.5   0.222827346   2.77691   1.21066  -1.14122   0.09402
  17   26587.4    376.1   0.290262029   3.59410   1.30372  -1.35954  -0.21463
  18   26892.2    371.9   0.003191043   0.03906  -0.07666   0.13524   0.12206
  19   27225.2    367.3   0.178031151   2.15279   1.17012  -0.42104  -0.77868
  20   27579.7    362.6   0.003348428   0.03997  -0.05918  -0.18974   0.02155
  21   28270.2    353.7   0.051983667   0.60536  -0.63341  -0.45080   0.03042
  22   28394.6    352.2   0.202488107   2.34769  -0.63989  -0.27165   1.36544
  23   28929.6    345.7   0.093070177   1.05912  -0.99530   0.02167   0.26080
  24   29854.6    335.0   0.007943782   0.08760   0.16710   0.23677  -0.06014
  25   30818.6    324.5   0.001081968   0.01156  -0.06222  -0.08347  -0.02683
  26   31333.7    319.1   0.144506541   1.51828  -0.99599  -0.60288   0.40349
  27   31610.0    316.4   0.033427540   0.34814  -0.40650   0.42463   0.05087
  28   31809.2    314.4   0.031921893   0.33038   0.41371   0.29286  -0.27103
  29   32042.8    312.1   0.034506747   0.35453   0.51729  -0.01729  -0.29435
  30   32398.6    308.7   0.014750606   0.14989   0.28702   0.22142  -0.13593
  31   32789.9    305.0   0.118597101   1.19072  -1.08319   0.13160   0.00977
  32   33094.6    302.2   0.403500752   4.01386  -1.83919   0.27702   0.74466
  33   33287.9    300.4   0.038188889   0.37768  -0.55799   0.21461  -0.14237
  34   33687.3    296.8   0.068571261   0.67012   0.74045   0.34286  -0.06550
  35   33806.8    295.8   0.028814389   0.28060   0.50525  -0.15307   0.04341
  36   33893.7    295.0   0.197246685   1.91587  -1.34926  -0.28781  -0.11196
  37   34037.6    293.8   0.023289587   0.22526   0.38575  -0.25738  -0.10104
  38   35023.6    285.5   0.116071408   1.09104  -1.01566  -0.22653   0.09026
  39   35239.8    283.8   0.080109026   0.74838  -0.66769   0.53761   0.11641
  40   35364.5    282.8   0.002566838   0.02389  -0.02747   0.15212  -0.00049
  41   35690.4    280.2   0.039400750   0.36344   0.51642   0.10846  -0.29152
  42   36052.6    277.4   0.049324113   0.45040  -0.63747   0.17198   0.12020
  43   36160.8    276.5   0.027496659   0.25033   0.23565  -0.43152  -0.09269
  44   36167.3    276.5   0.050550597   0.46014  -0.51824   0.32313   0.29521
  45   36492.5    274.0   0.007498177   0.06764  -0.13623  -0.19938   0.09660
  46   36743.9    272.2   0.055143836   0.49407  -0.42661   0.43242  -0.35367
  47   36952.0    270.6   0.045119498   0.40198   0.07805  -0.43555   0.45407
  48   37113.5    269.4   0.112232401   0.99555   0.56767  -0.81887  -0.05246
  49   37233.3    268.6   0.050243606   0.44425  -0.58218   0.29087   0.14392
  50   38050.1    262.8   0.117064295   1.01285  -0.92976   0.36147  -0.13318
  51   39171.0    255.3   0.028807017   0.24211   0.35913   0.33451  -0.03514
  52   39485.0    253.3   0.067122650   0.55965  -0.20189  -0.70390   0.15300
  53   39598.5    252.5   0.287030283   2.38629   0.91028  -1.24133  -0.12957
  54   39767.7    251.5   0.011889303   0.09842   0.03422   0.02518   0.31084
  55   39869.3    250.8   0.036030649   0.29752   0.31506   0.36539  -0.25445
  56   40053.4    249.7   0.006267635   0.05152   0.02707  -0.15600   0.16262

FINAL SINGLE POINT ENERGY     -2656.637406144399

DIPOLE MOMENT
-------------
                                X             Y             Z
Electronic contribution:      2.87046       3.59681      -3.25542
Nuclear contribution   :     -3.00343      -3.25626       4.07417
                        -----------------------------------------
Total Dipole Moment    :     -0.13297       0.34055       0.81875
                        -----------------------------------------
Magnitude (a.u.)       :      0.89667
Magnitude (Debye)      :      2.27914

Rotational constants in cm-1:     0.002682     0.000479     0.000427
Rotational constants in MHz :    80.391920    14.372632    12.798222

                             ****ORCA TERMINATED NORMALLY****
TOTAL RUN TIME: 0 days 0 hours 8 minutes 6 seconds 756 msec
