                         Program Version 4.2.0 -  RELEASE  -
|  1> # ORCA input file
|  2> # SCF done       -133.257026551419          0.000851835943
|  3> ! CAM-B3LYP def2-SVP def2/J RIJCOSX Grid4 TightSCF
|  4> %maxcore 5000
|  5> %tddft
|  6>     Mode sTDDFT
|  7>     Ethresh 5.0
|  8>     maxcore 5000
|  9> end
| 10>
| 11> %pal
| 12>   nprocs 6
| 13>   end
| 14> * xyz 0 1
| 15>    C       -2.07265        -2.61047        -3.89125
| 16>    C       -1.21356        -3.02171        -2.89015
| 17>    C       -0.28883        -4.03662        -3.15896
| 18>    C       -0.29955        -4.57215        -4.45387
| 19>    N       -1.11583        -4.17866        -5.40647
| 20>    C       -1.98558        -3.21963        -5.13563
| 21>    C        0.63423        -4.52508        -2.16028
| 22>    S        1.82189        -5.73357        -2.55173
| 23>    C        2.43767        -5.75535        -0.92839
| 24>    C        1.73166        -4.84825        -0.13363
| 25>    C        0.72323        -4.16396        -0.83821
| 26>    C        1.95557        -4.61299         1.23157
| 27>    N        2.10126        -4.38537         2.34801
| 28>    C        3.49624        -6.63929        -0.61136
| 29>    C        4.06674        -6.76507         0.61768
| 30>    C        5.09820        -7.69358         0.88527
| 31>    N        5.66495        -7.86120         2.12622
| 32>    C        5.30234        -7.16991         3.34089
| 33>    C        4.02695        -7.73505         3.96027
| 34>    C        6.64661        -8.86630         2.12552
| 35>    O        7.27958        -9.18668         3.11235
| 36>    C        6.68013        -9.33449         0.75637
| 37>    C        5.72658        -8.59545         0.02132
| 38>    C        5.75861        -9.06170        -1.34867
| 39>    O        5.12520        -8.73263        -2.33330
| 40>    N        6.73367       -10.06824        -1.35033
| 41>    C        7.09694       -10.75840        -2.56544
| 42>    C        8.40824       -10.23637        -3.14677
| 43>    C        7.29483       -10.25051        -0.10544
| 44>    C        8.27104       -11.22651         0.17596
| 45>    C        8.81271       -11.40125         1.41692
| 46>    C        9.76573       -12.39886         1.72510
| 47>    C       10.33213       -13.35040         0.89811
| 48>    C       11.22381       -14.16077         1.65102
| 49>    C       11.18043       -13.64032         3.03283
| 50>    C       10.31420       -12.59554         3.06070
| 51>    C       11.89135       -14.12988         4.13365
| 52>    N       12.46106       -14.51171         5.05585
| 53>    C       11.96782       -15.22507         1.19621
| 54>    C       12.85058       -16.06054         1.94676
| 55>    C       13.38021       -17.01897         1.12181
| 56>    C       12.84185       -16.80951        -0.21119
| 57>    C       11.99190       -15.74671        -0.18121
| 58>    C       11.27739       -15.25819        -1.27779
| 59>    N       10.70246       -14.87386        -2.19659
| 60>    C       14.31254       -18.06264         1.48137
| 61>    C       14.45459       -18.49436         2.80542
| 62>    C       15.36648       -19.48914         3.09870
| 63>    C       16.10199       -20.04164         2.05801
| 64>    N       15.99154       -19.63496         0.80476
| 65>    C       15.13383       -18.67630         0.52568
| 66>    H       -2.79557        -1.83045        -3.71040
| 67>    H       -1.25702        -2.56084        -1.91511
| 68>    H        0.39103        -5.36184        -4.72422
| 69>    H       -2.63484        -2.93139        -5.95094
| 70>    H        0.08867        -3.43607        -0.36505
| 71>    H        3.85322        -7.25886        -1.42461
| 72>    H        3.72550        -6.14833         1.43459
| 73>    H        5.19097        -6.10198         3.13589
| 74>    H        6.13921        -7.31289         4.03015
| 75>    H        3.18249        -7.62691         3.28352
| 76>    H        3.80257        -7.20348         4.88035
| 77>    H        4.15886        -8.78997         4.18867
| 78>    H        6.28236       -10.57363        -3.27124
| 79>    H        7.15861       -11.83299        -2.37299
| 80>    H        8.31775        -9.17806        -3.37956
| 81>    H        8.64360       -10.77551        -4.05987
| 82>    H        9.22782       -10.36776        -2.44389
| 83>    H        8.58512       -11.86923        -0.63326
| 84>    H        8.49963       -10.75427         2.22584
| 85>    H       10.14412       -13.48019        -0.14859
| 86>    H       10.05404       -11.99738         3.91452
| 87>    H       13.06496       -15.92409         2.98795
| 88>    H       13.06233       -17.41421        -1.07120
| 89>    H       13.84047       -18.06431         3.58252
| 90>    H       15.49443       -19.84299         4.10978
| 91>    H       16.80785       -20.84308         2.22971
| 92>    H       15.11163       -18.36503        -0.51008
| 93> *
| 94>
| 95>                          ****END OF INPUT****

CARTESIAN COORDINATES (ANGSTROEM)
---------------------------------
  C     -2.072650   -2.610470   -3.891250
  C     -1.213560   -3.021710   -2.890150
  C     -0.288830   -4.036620   -3.158960
  C     -0.299550   -4.572150   -4.453870
  N     -1.115830   -4.178660   -5.406470
  C     -1.985580   -3.219630   -5.135630
  C      0.634230   -4.525080   -2.160280
  S      1.821890   -5.733570   -2.551730
  C      2.437670   -5.755350   -0.928390
  C      1.731660   -4.848250   -0.133630
  C      0.723230   -4.163960   -0.838210
  C      1.955570   -4.612990    1.231570
  N      2.101260   -4.385370    2.348010
  C      3.496240   -6.639290   -0.611360
  C      4.066740   -6.765070    0.617680
  C      5.098200   -7.693580    0.885270
  N      5.664950   -7.861200    2.126220
  C      5.302340   -7.169910    3.340890
  C      4.026950   -7.735050    3.960270
  C      6.646610   -8.866300    2.125520
  O      7.279580   -9.186680    3.112350
  C      6.680130   -9.334490    0.756370
  C      5.726580   -8.595450    0.021320
  C      5.758610   -9.061700   -1.348670
  O      5.125200   -8.732630   -2.333300
  N      6.733670  -10.068240   -1.350330
  C      7.096940  -10.758400   -2.565440
  C      8.408240  -10.236370   -3.146770
  C      7.294830  -10.250510   -0.105440
  C      8.271040  -11.226510    0.175960
  C      8.812710  -11.401250    1.416920
  C      9.765730  -12.398860    1.725100
  C     10.332130  -13.350400    0.898110
  C     11.223810  -14.160770    1.651020
  C     11.180430  -13.640320    3.032830
  C     10.314200  -12.595540    3.060700
  C     11.891350  -14.129880    4.133650
  N     12.461060  -14.511710    5.055850
  C     11.967820  -15.225070    1.196210
  C     12.850580  -16.060540    1.946760
  C     13.380210  -17.018970    1.121810
  C     12.841850  -16.809510   -0.211190
  C     11.991900  -15.746710   -0.181210
  C     11.277390  -15.258190   -1.277790
  N     10.702460  -14.873860   -2.196590
  C     14.312540  -18.062640    1.481370
  C     14.454590  -18.494360    2.805420
  C     15.366480  -19.489140    3.098700
  C     16.101990  -20.041640    2.058010
  N     15.991540  -19.634960    0.804760
  C     15.133830  -18.676300    0.525680
  H     -2.795570   -1.830450   -3.710400
  H     -1.257020   -2.560840   -1.915110
  H      0.391030   -5.361840   -4.724220
  H     -2.634840   -2.931390   -5.950940
  H      0.088670   -3.436070   -0.365050
  H      3.853220   -7.258860   -1.424610
  H      3.725500   -6.148330    1.434590
  H      5.190970   -6.101980    3.135890
  H      6.139210   -7.312890    4.030150
  H      3.182490   -7.626910    3.283520
  H      3.802570   -7.203480    4.880350
  H      4.158860   -8.789970    4.188670
  H      6.282360  -10.573630   -3.271240
  H      7.158610  -11.832990   -2.372990
  H      8.317750   -9.178060   -3.379560
  H      8.643600  -10.775510   -4.059870
  H      9.227820  -10.367760   -2.443890
  H      8.585120  -11.869230   -0.633260
  H      8.499630  -10.754270    2.225840
  H     10.144120  -13.480190   -0.148590
  H     10.054040  -11.997380    3.914520
  H     13.064960  -15.924090    2.987950
  H     13.062330  -17.414210   -1.071200
  H     13.840470  -18.064310    3.582520
  H     15.494430  -19.842990    4.109780
  H     16.807850  -20.843080    2.229710
  H     15.111630  -18.365030   -0.510080

 Total Charge           Charge          ....    0
 Multiplicity           Mult            ....    1
 Number of Electrons    NEL             ....  354
 Basis Dimension        Dim             ....  853

ORBITAL ENERGIES
----------------

  NO   OCC          E(Eh)            E(eV)
   0   2.0000     -88.981408     -2421.3072
   1   2.0000     -19.197361      -522.3868
   2   2.0000     -19.194174      -522.3000
   3   2.0000     -14.457282      -393.4026
   4   2.0000     -14.456293      -393.3757
   5   2.0000     -14.418862      -392.3572
   6   2.0000     -14.410015      -392.1165
   7   2.0000     -14.409995      -392.1159
   8   2.0000     -14.408221      -392.0676
   9   2.0000     -14.404367      -391.9628
  10   2.0000     -10.379074      -282.4290
  11   2.0000     -10.377148      -282.3765
  12   2.0000     -10.343914      -281.4722
  13   2.0000     -10.341635      -281.4102
  14   2.0000     -10.334209      -281.2081
  15   2.0000     -10.327856      -281.0352
  16   2.0000     -10.324595      -280.9465
  17   2.0000     -10.322957      -280.9019
  18   2.0000     -10.321877      -280.8726
  19   2.0000     -10.320001      -280.8215
  20   2.0000     -10.315144      -280.6893
  21   2.0000     -10.314713      -280.6776
  22   2.0000     -10.314291      -280.6661
  23   2.0000     -10.312837      -280.6266
  24   2.0000     -10.310959      -280.5755
  25   2.0000     -10.310643      -280.5669
  26   2.0000     -10.310064      -280.5511
  27   2.0000     -10.308546      -280.5098
  28   2.0000     -10.308292      -280.5029
  29   2.0000     -10.307430      -280.4794
  30   2.0000     -10.307345      -280.4771
  31   2.0000     -10.306980      -280.4672
  32   2.0000     -10.306281      -280.4482
  33   2.0000     -10.303969      -280.3852
  34   2.0000     -10.303841      -280.3818
  35   2.0000     -10.302482      -280.3448
  36   2.0000     -10.301871      -280.3282
  37   2.0000     -10.300926      -280.3025
  38   2.0000     -10.298603      -280.2392
  39   2.0000     -10.297299      -280.2038
  40   2.0000     -10.294925      -280.1391
  41   2.0000     -10.294263      -280.1211
  42   2.0000     -10.294255      -280.1209
  43   2.0000     -10.289626      -279.9949
  44   2.0000     -10.283797      -279.8363
  45   2.0000     -10.283063      -279.8164
  46   2.0000     -10.282236      -279.7939
  47   2.0000     -10.268436      -279.4183
  48   2.0000     -10.266234      -279.3584
  49   2.0000     -10.262919      -279.2682
  50   2.0000     -10.260620      -279.2057
  51   2.0000      -8.076744      -219.7794
  52   2.0000      -6.045898      -164.5173
  53   2.0000      -6.041712      -164.4033
  54   2.0000      -6.039119      -164.3328
  55   2.0000      -1.138087       -30.9689
  56   2.0000      -1.131175       -30.7808
  57   2.0000      -1.067992       -29.0615
  58   2.0000      -1.059389       -28.8274
  59   2.0000      -1.046669       -28.4813
  60   2.0000      -1.040492       -28.3132
  61   2.0000      -1.019340       -27.7376
  62   2.0000      -1.015308       -27.6279
  63   2.0000      -1.000136       -27.2151
  64   2.0000      -0.996403       -27.1135
  65   2.0000      -0.985788       -26.8246
  66   2.0000      -0.980891       -26.6914
  67   2.0000      -0.933557       -25.4034
  68   2.0000      -0.928628       -25.2693
  69   2.0000      -0.916426       -24.9372
  70   2.0000      -0.909008       -24.7354
  71   2.0000      -0.905953       -24.6522
  72   2.0000      -0.883025       -24.0283
  73   2.0000      -0.876379       -23.8475
  74   2.0000      -0.872843       -23.7513
  75   2.0000      -0.865407       -23.5489
  76   2.0000      -0.859289       -23.3825
  77   2.0000      -0.848306       -23.0836
  78   2.0000      -0.839970       -22.8567
  79   2.0000      -0.835148       -22.7255
  80   2.0000      -0.821181       -22.3455
  81   2.0000      -0.802396       -21.8343
  82   2.0000      -0.788215       -21.4484
  83   2.0000      -0.768887       -20.9225
  84   2.0000      -0.761099       -20.7105
  85   2.0000      -0.744881       -20.2692
  86   2.0000      -0.736242       -20.0342
  87   2.0000      -0.734824       -19.9956
  88   2.0000      -0.727029       -19.7835
  89   2.0000      -0.719379       -19.5753
  90   2.0000      -0.711106       -19.3502
  91   2.0000      -0.705492       -19.1974
  92   2.0000      -0.703579       -19.1454
  93   2.0000      -0.693209       -18.8632
  94   2.0000      -0.679199       -18.4819
  95   2.0000      -0.674661       -18.3585
  96   2.0000      -0.665235       -18.1020
  97   2.0000      -0.660893       -17.9838
  98   2.0000      -0.651975       -17.7411
  99   2.0000      -0.641590       -17.4585
 100   2.0000      -0.625871       -17.0308
 101   2.0000      -0.618058       -16.8182
 102   2.0000      -0.614252       -16.7146
 103   2.0000      -0.604057       -16.4372
 104   2.0000      -0.602184       -16.3862
 105   2.0000      -0.593528       -16.1507
 106   2.0000      -0.591374       -16.0921
 107   2.0000      -0.582320       -15.8457
 108   2.0000      -0.576386       -15.6843
 109   2.0000      -0.574309       -15.6277
 110   2.0000      -0.569215       -15.4891
 111   2.0000      -0.560421       -15.2498
 112   2.0000      -0.548391       -14.9225
 113   2.0000      -0.544615       -14.8197
 114   2.0000      -0.541186       -14.7264
 115   2.0000      -0.534117       -14.5341
 116   2.0000      -0.532891       -14.5007
 117   2.0000      -0.531468       -14.4620
 118   2.0000      -0.528897       -14.3920
 119   2.0000      -0.524996       -14.2859
 120   2.0000      -0.523298       -14.2397
 121   2.0000      -0.522129       -14.2078
 122   2.0000      -0.520277       -14.1574
 123   2.0000      -0.518775       -14.1166
 124   2.0000      -0.512985       -13.9590
 125   2.0000      -0.510357       -13.8875
 126   2.0000      -0.508896       -13.8478
 127   2.0000      -0.504161       -13.7189
 128   2.0000      -0.498058       -13.5529
 129   2.0000      -0.497606       -13.5405
 130   2.0000      -0.496833       -13.5195
 131   2.0000      -0.495271       -13.4770
 132   2.0000      -0.488543       -13.2939
 133   2.0000      -0.485038       -13.1986
 134   2.0000      -0.482653       -13.1337
 135   2.0000      -0.481594       -13.1048
 136   2.0000      -0.476507       -12.9664
 137   2.0000      -0.474250       -12.9050
 138   2.0000      -0.469897       -12.7865
 139   2.0000      -0.468467       -12.7476
 140   2.0000      -0.466223       -12.6866
 141   2.0000      -0.460320       -12.5259
 142   2.0000      -0.457137       -12.4393
 143   2.0000      -0.453982       -12.3535
 144   2.0000      -0.449046       -12.2192
 145   2.0000      -0.448181       -12.1956
 146   2.0000      -0.446395       -12.1470
 147   2.0000      -0.445612       -12.1257
 148   2.0000      -0.444198       -12.0872
 149   2.0000      -0.440637       -11.9903
 150   2.0000      -0.440242       -11.9796
 151   2.0000      -0.438037       -11.9196
 152   2.0000      -0.435732       -11.8569
 153   2.0000      -0.433251       -11.7894
 154   2.0000      -0.431044       -11.7293
 155   2.0000      -0.425456       -11.5773
 156   2.0000      -0.421383       -11.4664
 157   2.0000      -0.416649       -11.3376
 158   2.0000      -0.412730       -11.2309
 159   2.0000      -0.402139       -10.9428
 160   2.0000      -0.396775       -10.7968
 161   2.0000      -0.383597       -10.4382
 162   2.0000      -0.367937       -10.0121
 163   2.0000      -0.363192        -9.8830
 164   2.0000      -0.352658        -9.5963
 165   2.0000      -0.349435        -9.5086
 166   2.0000      -0.347291        -9.4503
 167   2.0000      -0.341030        -9.2799
 168   2.0000      -0.336617        -9.1598
 169   2.0000      -0.334189        -9.0938
 170   2.0000      -0.329074        -8.9546
 171   2.0000      -0.325229        -8.8499
 172   2.0000      -0.319458        -8.6929
 173   2.0000      -0.302846        -8.2409
 174   2.0000      -0.293822        -7.9953
 175   2.0000      -0.286667        -7.8006
 176   2.0000      -0.235358        -6.4044
 177   0.0000      -0.128704        -3.5022
 178   0.0000      -0.086526        -2.3545
 179   0.0000      -0.039694        -1.0801
 180   0.0000      -0.014853        -0.4042
 181   0.0000      -0.003496        -0.0951

MULLIKEN ATOMIC CHARGES
-----------------------
   0 C :    0.017189
   1 C :    0.011801
   2 C :    0.082128
   3 C :   -0.034860
   4 N :   -0.056724
   5 C :    0.024277
   6 C :   -0.047640
   7 S :    0.169924
   8 C :   -0.058174
   9 C :   -0.070410
  10 C :    0.000869
  11 C :   -0.169063
  12 N :    0.112218
  13 C :    0.061745
  14 C :   -0.041554
  15 C :    0.142112
  16 N :   -0.254025
  17 C :    0.091591
  18 C :    0.009265
  19 C :    0.163136
  20 O :   -0.205950
  21 C :   -0.059643
  22 C :   -0.070009
  23 C :    0.164746
  24 O :   -0.212933
  25 N :   -0.254502
  26 C :    0.092456
  27 C :    0.004645
  28 C :    0.143355
  29 C :   -0.011595
  30 C :    0.001845
  31 C :    0.111460
  32 C :   -0.125323
  33 C :    0.118159
  34 C :   -0.089292
  35 C :    0.001641
  36 C :   -0.176306
  37 N :    0.130714
  38 C :    0.112110
  39 C :   -0.125304
  40 C :    0.117901
  41 C :   -0.011430
  42 C :   -0.100973
  43 C :   -0.167835
  44 N :    0.121028
  45 C :    0.031304
  46 C :    0.026297
  47 C :    0.016452
  48 C :    0.025783
  49 N :   -0.062334
  50 C :   -0.017110
  51 H :   -0.000593
  52 H :   -0.007603
  53 H :    0.012781
  54 H :    0.010388
  55 H :   -0.006625
  56 H :    0.005006
  57 H :   -0.014814
  58 H :    0.037754
  59 H :    0.042414
  60 H :    0.018401
  61 H :    0.029491
  62 H :    0.024448
  63 H :    0.044654
  64 H :    0.033001
  65 H :    0.027063
  66 H :    0.030745
  67 H :    0.017758
  68 H :   -0.013834
  69 H :    0.004367
  70 H :   -0.000980
  71 H :    0.010582
  72 H :    0.000523
  73 H :    0.001900
  74 H :    0.004128
  75 H :   -0.000263
  76 H :    0.010011
  77 H :   -0.003869
Sum of atomic charges:    0.0000000

LOEWDIN ATOMIC CHARGES
----------------------
   0 C :   -0.037063
   1 C :    0.014698
   2 C :   -0.061831
   3 C :    0.015281
   4 N :   -0.061799
   5 C :    0.023507
   6 C :   -0.154888
   7 S :    0.491326
   8 C :   -0.143939
   9 C :   -0.101193
  10 C :   -0.027988
  11 C :   -0.025534
  12 N :   -0.061668
  13 C :    0.003140
  14 C :   -0.035729
  15 C :    0.078348
  16 N :    0.003947
  17 C :    0.036649
  18 C :   -0.058944
  19 C :    0.081426
  20 O :   -0.196543
  21 C :   -0.110118
  22 C :   -0.118860
  23 C :    0.078707
  24 O :   -0.203929
  25 N :    0.002418
  26 C :    0.036530
  27 C :   -0.059960
  28 C :    0.070001
  29 C :   -0.019285
  30 C :    0.019796
  31 C :   -0.018229
  32 C :   -0.023154
  33 C :    0.038621
  34 C :   -0.083214
  35 C :    0.062607
  36 C :   -0.029139
  37 N :   -0.066787
  38 C :    0.037536
  39 C :   -0.028485
  40 C :   -0.006416
  41 C :    0.051691
  42 C :   -0.084748
  43 C :   -0.027340
  44 N :   -0.073485
  45 C :   -0.048289
  46 C :    0.023505
  47 C :   -0.037902
  48 C :    0.026482
  49 N :   -0.066870
  50 C :    0.023598
  51 H :    0.035257
  52 H :    0.031761
  53 H :    0.015853
  54 H :    0.024077
  55 H :    0.037497
  56 H :    0.037223
  57 H :    0.035621
  58 H :    0.028375
  59 H :    0.037500
  60 H :    0.023512
  61 H :    0.034071
  62 H :    0.029785
  63 H :    0.038141
  64 H :    0.026185
  65 H :    0.031102
  66 H :    0.034041
  67 H :    0.023024
  68 H :    0.034809
  69 H :    0.037446
  70 H :    0.030686
  71 H :    0.042323
  72 H :    0.032755
  73 H :    0.036647
  74 H :    0.037195
  75 H :    0.035194
  76 H :    0.023549
  77 H :    0.019889

  Mayer bond orders larger than 0.100000
B(  0-C ,  1-C ) :   1.4349 B(  0-C ,  5-C ) :   1.3711 B(  0-C , 51-H ) :   0.9735
B(  1-C ,  2-C ) :   1.3870 B(  1-C , 52-H ) :   0.9849 B(  2-C ,  3-C ) :   1.3192
B(  2-C ,  6-C ) :   1.0573 B(  3-C ,  4-N ) :   1.5891 B(  3-C , 53-H ) :   0.9815
B(  4-N ,  5-C ) :   1.5394 B(  5-C , 54-H ) :   0.9819 B(  6-C ,  7-S ) :   1.1357
B(  6-C , 10-C ) :   1.5076 B(  7-S ,  8-C ) :   1.1414 B(  8-C ,  9-C ) :   1.4349
B(  8-C , 13-C ) :   1.1598 B(  9-C , 10-C ) :   1.2870 B(  9-C , 11-C ) :   1.1192
B( 10-C , 55-H ) :   1.0005 B( 11-C , 12-N ) :   2.9638 B( 13-C , 14-C ) :   1.6037
B( 13-C , 56-H ) :   0.9213 B( 14-C , 15-C ) :   1.1791 B( 14-C , 57-H ) :   0.9468
B( 15-C , 16-N ) :   1.1668 B( 15-C , 22-C ) :   1.3139 B( 16-N , 17-C ) :   0.9381
B( 16-N , 19-C ) :   1.0646 B( 17-C , 18-C ) :   1.1248 B( 17-C , 58-H ) :   0.9478
B( 17-C , 59-H ) :   0.9278 B( 18-C , 60-H ) :   0.9674 B( 18-C , 61-H ) :   0.9671
B( 18-C , 62-H ) :   0.9632 B( 19-C , 20-O ) :   2.0289 B( 19-C , 21-C ) :   0.9812
B( 20-O , 69-H ) :   0.1113 B( 21-C , 22-C ) :   1.2721 B( 21-C , 28-C ) :   1.3196
B( 22-C , 23-C ) :   0.9859 B( 23-C , 24-O ) :   2.0183 B( 23-C , 25-N ) :   1.0722
B( 24-O , 56-H ) :   0.1189 B( 25-N , 26-C ) :   0.9405 B( 25-N , 28-C ) :   1.1540
B( 26-C , 27-C ) :   1.1229 B( 26-C , 63-H ) :   0.9278 B( 26-C , 64-H ) :   0.9493
B( 27-C , 65-H ) :   0.9634 B( 27-C , 66-H ) :   0.9675 B( 27-C , 67-H ) :   0.9684
B( 28-C , 29-C ) :   1.1717 B( 29-C , 30-C ) :   1.5639 B( 29-C , 68-H ) :   0.9646
B( 30-C , 31-C ) :   1.1180 B( 30-C , 69-H ) :   0.9574 B( 31-C , 32-C ) :   1.5178
B( 31-C , 35-C ) :   1.0325 B( 32-C , 33-C ) :   1.1412 B( 32-C , 70-H ) :   0.9938
B( 33-C , 34-C ) :   1.0980 B( 33-C , 38-C ) :   1.4062 B( 34-C , 35-C ) :   1.6638
B( 34-C , 36-C ) :   1.0899 B( 35-C , 71-H ) :   1.0276 B( 36-C , 37-N ) :   2.9666
B( 38-C , 39-C ) :   1.1127 B( 38-C , 42-C ) :   1.1095 B( 39-C , 40-C ) :   1.5883
B( 39-C , 72-H ) :   0.9994 B( 40-C , 41-C ) :   1.0669 B( 40-C , 45-C ) :   0.9987
B( 41-C , 42-C ) :   1.6539 B( 41-C , 73-H ) :   1.0160 B( 42-C , 43-C ) :   1.0922
B( 43-C , 44-N ) :   2.9569 B( 45-C , 46-C ) :   1.3840 B( 45-C , 50-C ) :   1.3320
B( 46-C , 47-C ) :   1.4303 B( 46-C , 74-H ) :   0.9879 B( 47-C , 48-C ) :   1.3637
B( 47-C , 75-H ) :   0.9752 B( 48-C , 49-N ) :   1.5416 B( 48-C , 76-H ) :   0.9826
B( 49-N , 50-C ) :   1.5752 B( 50-C , 77-H ) :   0.9865

-----------------------------------------------------------------------------
         ABSORPTION SPECTRUM VIA TRANSITION ELECTRIC DIPOLE MOMENTS
-----------------------------------------------------------------------------
State   Energy  Wavelength   fosc         T2         TX        TY        TZ
        (cm-1)    (nm)                  (au**2)     (au)      (au)      (au)
-----------------------------------------------------------------------------
   0    9597.1   1042.0   0.744926074  25.55350   3.43420  -3.70856   0.07971
   1   16793.4    595.5   0.012910424   0.25309   0.16867   0.16987   0.44248
   2   17135.7    583.6   0.334135448   6.41943  -1.83039   1.74908  -0.09914
   3   19034.1    525.4   0.007322483   0.12665  -0.25566   0.24301   0.04721
   4   24068.4    415.5   0.267271216   3.65579  -1.37886   1.08327  -0.76227
   5   24654.1    405.6   0.111740709   1.49210   0.86065  -0.60144   0.62422
   6   26024.2    384.3   0.597591794   7.55967   1.70216  -2.15239  -0.17186
   7   26874.7    372.1   0.003165863   0.03878   0.07472   0.10944   0.14568
   8   27125.6    368.7   0.127056529   1.54203   0.75734  -0.40332   0.89766
   9   27503.6    363.6   0.001793179   0.02146   0.06516  -0.13107   0.00619
  10   30266.5    330.4   0.014791882   0.16089  -0.24434   0.13461  -0.28822
  11   30315.7    329.9   0.049650015   0.53917   0.57582  -0.31283   0.33128
  12   30662.8    326.1   0.303268204   3.25605   1.12687  -0.74759   1.19471
  13   31503.1    317.4   0.010971683   0.11466  -0.14717   0.00620  -0.30489
  14   32125.9    311.3   0.032042819   0.32836   0.26555  -0.05917   0.50432
  15   33929.2    294.7   0.038084897   0.36953   0.25854  -0.03982   0.54873
  16   34030.7    293.9   0.110327677   1.06731   0.68910  -0.56894   0.51841
  17   34434.1    290.4   0.017365921   0.16603   0.24249  -0.02376   0.32659
  18   34742.6    287.8   0.000764404   0.00724   0.05607   0.04790   0.04248
  19   34967.6    286.0   0.000528735   0.00498  -0.00356  -0.05592   0.04288
  20   35656.7    280.5   0.153252211   1.41495  -0.49516   0.14853  -1.07131
  21   36611.3    273.1   0.000183557   0.00165  -0.03210   0.02488  -0.00104
  22   36985.9    270.4   0.019788252   0.17614  -0.19390   0.33954   0.15248
  23   37503.9    266.6   0.020086915   0.17632  -0.15093   0.01833  -0.39142
  24   38179.7    261.9   0.182398751   1.57277   0.82966  -0.73040   0.59242
  25   38263.1    261.3   0.021832820   0.18785  -0.29167   0.24223  -0.21000
  26   39207.4    255.1   0.002544073   0.02136   0.02190  -0.00634   0.14437
  27   39853.4    250.9   0.000604533   0.00499  -0.03428  -0.06116   0.00887
  28   40095.2    249.4   0.204626746   1.68014  -0.83545   0.98959  -0.05357

FINAL SINGLE POINT ENERGY     -2507.641999531168

DIPOLE MOMENT
-------------
                                X             Y             Z
Electronic contribution:      0.97234      -1.05492      -1.27092
Nuclear contribution   :     -2.36133       1.98622       1.00449
                        -----------------------------------------
Total Dipole Moment    :     -1.38899       0.93130      -0.26642
                        -----------------------------------------
Magnitude (a.u.)       :      1.69340
Magnitude (Debye)      :      4.30429

Rotational constants in cm-1:     0.005312     0.000456     0.000423
Rotational constants in MHz :   159.246777    13.673637    12.674037

                             ****ORCA TERMINATED NORMALLY****
TOTAL RUN TIME: 0 days 0 hours 5 minutes 59 seconds 360 msec
