                         Program Version 4.2.0 -  RELEASE  -
|  1> # ORCA input file
|  2> # SCF done       -168.018438786213          0.000731287128
|  3> ! CAM-B3LYP def2-SVP def2/J RIJCOSX Grid4 TightSCF
|  4> %maxcore 5000
|  5> %tddft
|  6>     Mode sTDDFT
|  7>     Ethresh 5.0
|  8>     maxcore 5000
|  9> end
| 10>
| 11> %pal
| 12>   nprocs 6
| 13>   end
| 14> * xyz 0 1
| 15>    C        3.31437         1.93936        -1.87296
| 16>    C        2.81886         2.29135        -0.69170
| 17>    C        3.52285         2.95355         0.39698
| 18>    C        4.89042         3.22521         0.35100
| 19>    C        5.54720         3.86162         1.39058
| 20>    O        6.88503         4.16691         1.39895
| 21>    C        7.65150         3.83610         0.26800
| 22>    C        4.82316         4.23535         2.52797
| 23>    C        5.52127         4.92778         3.67396
| 24>    C        6.40762         3.95982         4.47077
| 25>    N        5.44629         3.41538         5.41008
| 26>    C        4.56316         4.49504         5.79230
| 27>    C        4.96368         5.27220         7.08250
| 28>    C        3.81249         5.57133         7.97504
| 29>    C        2.45818         5.68840         7.60132
| 30>    C        1.73234         5.99166         8.73144
| 31>    C        0.26943         6.23062         8.90387
| 32>    C       -0.59727         5.01340         8.43259
| 33>    N       -1.60352         5.52844         7.51013
| 34>    C       -0.95230         6.68596         6.94516
| 35>    C       -1.83447         7.78193         6.35545
| 36>    C       -2.18840         7.56159         4.93148
| 37>    C       -3.40439         7.19549         4.53551
| 38>    C       -3.80007         6.91362         3.16283
| 39>    C       -3.22743         7.57872         2.08297
| 40>    C       -3.61653         7.29353         0.78145
| 41>    O       -3.11763         7.89826        -0.33648
| 42>    C       -2.12149         8.87803        -0.17770
| 43>    C       -4.58770         6.31897         0.56642
| 44>    C       -5.16874         5.65325         1.62800
| 45>    C       -4.79359         5.94450         2.93355
| 46>    O       -5.30558         5.34173         4.04274
| 47>    C       -6.22304         4.28028         3.89432
| 48>    C       -6.55026         3.75459         5.29620
| 49>    C       -7.67307         2.71369         5.23813
| 50>    C       -9.05078         3.31772         4.98854
| 51>    C       -5.27392         3.18654         5.93179
| 52>    C       -5.35757         3.06229         7.44780
| 53>    S       -0.79287         9.29966         6.57897
| 54>    C        0.43978         8.44459         7.64582
| 55>    N       -0.27825         7.29849         8.07881
| 56>    N        2.60537         6.07496         9.76819
| 57>    C        3.87972         5.82669         9.34080
| 58>    C        5.02809         5.85585        10.20371
| 59>    C        5.01311         6.04610        11.52144
| 60>    S        5.74713         6.83644         6.51148
| 61>    C        4.61018         6.75034         5.05503
| 62>    N        4.54222         5.39885         4.65050
| 63>    C        3.46944         3.96489         2.58460
| 64>    C        2.80021         3.33762         1.54204
| 65>    O        1.46265         3.07903         1.56092
| 66>    C        0.71385         3.57194         2.65236
| 67>    C       -0.77978         3.33700         2.40740
| 68>    C       -1.60263         4.00585         3.51618
| 69>    C       -1.43796         3.35307         4.88403
| 70>    C       -1.20230         3.82463         1.01264
| 71>    C       -0.82102         5.26706         0.70340
| 72>    H        2.69947         1.45260        -2.61044
| 73>    H        4.33649         2.11690        -2.16196
| 74>    H        1.77932         2.08738        -0.47599
| 75>    H        5.43593         2.92379        -0.52722
| 76>    H        7.66708         2.75512         0.09281
| 77>    H        8.66201         4.17775         0.48826
| 78>    H        7.28642         4.34467        -0.63053
| 79>    H        6.11369         5.75665         3.27639
| 80>    H        7.23083         4.50924         4.95307
| 81>    H        6.82085         3.16560         3.85090
| 82>    H        5.86974         2.95373         6.20497
| 83>    H        3.56633         4.06268         5.96009
| 84>    H        5.73639         4.72728         7.62887
| 85>    H        2.05319         5.55886         6.61630
| 86>    H        0.07043         6.47161         9.95810
| 87>    H       -1.06178         4.48539         9.26303
| 88>    H        0.03826         4.31368         7.88321
| 89>    H       -2.42534         5.83215         8.02621
| 90>    H       -0.24075         6.33427         6.17299
| 91>    H       -2.72837         7.91376         6.97045
| 92>    H       -1.37780         7.68846         4.22744
| 93>    H       -4.17525         7.02842         5.27529
| 94>    H       -2.49121         8.33847         2.29033
| 95>    H       -1.87909         9.21689        -1.18382
| 96>    H       -1.22205         8.46425         0.28964
| 97>    H       -2.48116         9.72745         0.41223
| 98>    H       -4.88200         6.09824        -0.44699
| 99>    H       -5.92111         4.90779         1.42438
|100>    H       -5.78061         3.47586         3.28937
|101>    H       -7.13348         4.63622         3.39549
|102>    H       -6.88310         4.60863         5.89513
|103>    H       -7.70089         2.17839         6.18811
|104>    H       -7.44492         1.98503         4.45644
|105>    H       -9.28846         4.05080         5.75618
|106>    H       -9.81119         2.54033         5.01150
|107>    H       -9.10120         3.80821         4.01988
|108>    H       -4.44717         3.85438         5.68550
|109>    H       -5.05912         2.20904         5.49372
|110>    H       -5.57432         4.02962         7.89592
|111>    H       -4.40920         2.70664         7.84370
|112>    H       -6.13476         2.36413         7.74996
|113>    H        0.70435         9.10070         8.47573
|114>    H        1.33141         8.23392         7.03421
|115>    H        2.35836         6.29440        10.71836
|116>    H        5.97412         5.71730         9.69936
|117>    H        4.10488         6.19185        12.08292
|118>    H        5.92336         6.06179        12.09290
|119>    H        4.97540         7.40473         4.26793
|120>    H        3.63791         7.09961         5.41218
|121>    H        2.94778         4.26619         3.47531
|122>    H        0.89436         4.64768         2.77698
|123>    H        1.02520         3.05696         3.57066
|124>    H       -0.96237         2.25727         2.44372
|125>    H       -2.65681         3.96963         3.23533
|126>    H       -1.32826         5.05888         3.59272
|127>    H       -1.76602         2.31632         4.85687
|128>    H       -2.02375         3.88974         5.62663
|129>    H       -0.40093         3.37412         5.20899
|130>    H       -2.28637         3.71756         0.92808
|131>    H       -0.74158         3.17560         0.26635
|132>    H       -1.19004         5.93691         1.47609
|133>    H       -1.26381         5.56727        -0.24379
|134>    H        0.25791         5.37315         0.62001
|135> *
|136>
|137>                          ****END OF INPUT****

CARTESIAN COORDINATES (ANGSTROEM)
---------------------------------
  C      3.314370    1.939360   -1.872960
  C      2.818860    2.291350   -0.691700
  C      3.522850    2.953550    0.396980
  C      4.890420    3.225210    0.351000
  C      5.547200    3.861620    1.390580
  O      6.885030    4.166910    1.398950
  C      7.651500    3.836100    0.268000
  C      4.823160    4.235350    2.527970
  C      5.521270    4.927780    3.673960
  C      6.407620    3.959820    4.470770
  N      5.446290    3.415380    5.410080
  C      4.563160    4.495040    5.792300
  C      4.963680    5.272200    7.082500
  C      3.812490    5.571330    7.975040
  C      2.458180    5.688400    7.601320
  C      1.732340    5.991660    8.731440
  C      0.269430    6.230620    8.903870
  C     -0.597270    5.013400    8.432590
  N     -1.603520    5.528440    7.510130
  C     -0.952300    6.685960    6.945160
  C     -1.834470    7.781930    6.355450
  C     -2.188400    7.561590    4.931480
  C     -3.404390    7.195490    4.535510
  C     -3.800070    6.913620    3.162830
  C     -3.227430    7.578720    2.082970
  C     -3.616530    7.293530    0.781450
  O     -3.117630    7.898260   -0.336480
  C     -2.121490    8.878030   -0.177700
  C     -4.587700    6.318970    0.566420
  C     -5.168740    5.653250    1.628000
  C     -4.793590    5.944500    2.933550
  O     -5.305580    5.341730    4.042740
  C     -6.223040    4.280280    3.894320
  C     -6.550260    3.754590    5.296200
  C     -7.673070    2.713690    5.238130
  C     -9.050780    3.317720    4.988540
  C     -5.273920    3.186540    5.931790
  C     -5.357570    3.062290    7.447800
  S     -0.792870    9.299660    6.578970
  C      0.439780    8.444590    7.645820
  N     -0.278250    7.298490    8.078810
  N      2.605370    6.074960    9.768190
  C      3.879720    5.826690    9.340800
  C      5.028090    5.855850   10.203710
  C      5.013110    6.046100   11.521440
  S      5.747130    6.836440    6.511480
  C      4.610180    6.750340    5.055030
  N      4.542220    5.398850    4.650500
  C      3.469440    3.964890    2.584600
  C      2.800210    3.337620    1.542040
  O      1.462650    3.079030    1.560920
  C      0.713850    3.571940    2.652360
  C     -0.779780    3.337000    2.407400
  C     -1.602630    4.005850    3.516180
  C     -1.437960    3.353070    4.884030
  C     -1.202300    3.824630    1.012640
  C     -0.821020    5.267060    0.703400
  H      2.699470    1.452600   -2.610440
  H      4.336490    2.116900   -2.161960
  H      1.779320    2.087380   -0.475990
  H      5.435930    2.923790   -0.527220
  H      7.667080    2.755120    0.092810
  H      8.662010    4.177750    0.488260
  H      7.286420    4.344670   -0.630530
  H      6.113690    5.756650    3.276390
  H      7.230830    4.509240    4.953070
  H      6.820850    3.165600    3.850900
  H      5.869740    2.953730    6.204970
  H      3.566330    4.062680    5.960090
  H      5.736390    4.727280    7.628870
  H      2.053190    5.558860    6.616300
  H      0.070430    6.471610    9.958100
  H     -1.061780    4.485390    9.263030
  H      0.038260    4.313680    7.883210
  H     -2.425340    5.832150    8.026210
  H     -0.240750    6.334270    6.172990
  H     -2.728370    7.913760    6.970450
  H     -1.377800    7.688460    4.227440
  H     -4.175250    7.028420    5.275290
  H     -2.491210    8.338470    2.290330
  H     -1.879090    9.216890   -1.183820
  H     -1.222050    8.464250    0.289640
  H     -2.481160    9.727450    0.412230
  H     -4.882000    6.098240   -0.446990
  H     -5.921110    4.907790    1.424380
  H     -5.780610    3.475860    3.289370
  H     -7.133480    4.636220    3.395490
  H     -6.883100    4.608630    5.895130
  H     -7.700890    2.178390    6.188110
  H     -7.444920    1.985030    4.456440
  H     -9.288460    4.050800    5.756180
  H     -9.811190    2.540330    5.011500
  H     -9.101200    3.808210    4.019880
  H     -4.447170    3.854380    5.685500
  H     -5.059120    2.209040    5.493720
  H     -5.574320    4.029620    7.895920
  H     -4.409200    2.706640    7.843700
  H     -6.134760    2.364130    7.749960
  H      0.704350    9.100700    8.475730
  H      1.331410    8.233920    7.034210
  H      2.358360    6.294400   10.718360
  H      5.974120    5.717300    9.699360
  H      4.104880    6.191850   12.082920
  H      5.923360    6.061790   12.092900
  H      4.975400    7.404730    4.267930
  H      3.637910    7.099610    5.412180
  H      2.947780    4.266190    3.475310
  H      0.894360    4.647680    2.776980
  H      1.025200    3.056960    3.570660
  H     -0.962370    2.257270    2.443720
  H     -2.656810    3.969630    3.235330
  H     -1.328260    5.058880    3.592720
  H     -1.766020    2.316320    4.856870
  H     -2.023750    3.889740    5.626630
  H     -0.400930    3.374120    5.208990
  H     -2.286370    3.717560    0.928080
  H     -0.741580    3.175600    0.266350
  H     -1.190040    5.936910    1.476090
  H     -1.263810    5.567270   -0.243790
  H      0.257910    5.373150    0.620010

 Total Charge           Charge          ....    0
 Multiplicity           Mult            ....    1
 Number of Electrons    NEL             ....  438
 Basis Dimension        Dim             .... 1121

ORBITAL ENERGIES
----------------

  NO   OCC          E(Eh)            E(eV)
   0   2.0000     -88.898810     -2419.0596
   1   2.0000     -88.891473     -2418.8599
   2   2.0000     -19.233573      -523.3721
   3   2.0000     -19.229666      -523.2658
   4   2.0000     -19.227590      -523.2093
   5   2.0000     -19.221688      -523.0487
   6   2.0000     -14.453308      -393.2945
   7   2.0000     -14.397634      -391.7795
   8   2.0000     -14.395946      -391.7336
   9   2.0000     -14.395582      -391.7237
  10   2.0000     -14.378087      -391.2476
  11   2.0000     -10.319541      -280.8090
  12   2.0000     -10.314307      -280.6666
  13   2.0000     -10.313096      -280.6336
  14   2.0000     -10.311789      -280.5980
  15   2.0000     -10.311604      -280.5930
  16   2.0000     -10.311529      -280.5910
  17   2.0000     -10.308938      -280.5205
  18   2.0000     -10.308911      -280.5197
  19   2.0000     -10.308891      -280.5192
  20   2.0000     -10.305961      -280.4395
  21   2.0000     -10.304451      -280.3984
  22   2.0000     -10.303681      -280.3774
  23   2.0000     -10.297209      -280.2013
  24   2.0000     -10.294343      -280.1233
  25   2.0000     -10.292904      -280.0842
  26   2.0000     -10.290428      -280.0168
  27   2.0000     -10.289179      -279.9828
  28   2.0000     -10.287632      -279.9407
  29   2.0000     -10.283759      -279.8353
  30   2.0000     -10.273019      -279.5431
  31   2.0000     -10.271432      -279.4999
  32   2.0000     -10.264169      -279.3022
  33   2.0000     -10.261054      -279.2175
  34   2.0000     -10.260034      -279.1897
  35   2.0000     -10.259288      -279.1694
  36   2.0000     -10.258736      -279.1544
  37   2.0000     -10.258152      -279.1385
  38   2.0000     -10.257283      -279.1149
  39   2.0000     -10.256223      -279.0860
  40   2.0000     -10.255575      -279.0684
  41   2.0000     -10.254980      -279.0522
  42   2.0000     -10.252134      -278.9748
  43   2.0000     -10.251149      -278.9479
  44   2.0000     -10.250214      -278.9225
  45   2.0000     -10.249236      -278.8959
  46   2.0000     -10.247576      -278.8507
  47   2.0000     -10.246168      -278.8124
  48   2.0000     -10.245443      -278.7927
  49   2.0000     -10.245323      -278.7894
  50   2.0000     -10.244652      -278.7712
  51   2.0000     -10.240856      -278.6679
  52   2.0000     -10.240138      -278.6483
  53   2.0000     -10.237125      -278.5663
  54   2.0000     -10.233276      -278.4616
  55   2.0000     -10.228211      -278.3238
  56   2.0000     -10.227499      -278.3044
  57   2.0000      -7.995044      -217.5562
  58   2.0000      -7.987465      -217.3500
  59   2.0000      -5.965771      -162.3369
  60   2.0000      -5.961793      -162.2286
  61   2.0000      -5.957726      -162.1180
  62   2.0000      -5.954386      -162.0271
  63   2.0000      -5.953890      -162.0136
  64   2.0000      -5.946676      -161.8173
  65   2.0000      -1.138473       -30.9794
  66   2.0000      -1.130783       -30.7702
  67   2.0000      -1.130637       -30.7662
  68   2.0000      -1.126532       -30.6545
  69   2.0000      -1.075978       -29.2788
  70   2.0000      -1.064355       -28.9626
  71   2.0000      -1.058841       -28.8125
  72   2.0000      -0.966270       -26.2936
  73   2.0000      -0.953982       -25.9592
  74   2.0000      -0.939320       -25.5602
  75   2.0000      -0.931458       -25.3463
  76   2.0000      -0.911976       -24.8161
  77   2.0000      -0.903628       -24.5890
  78   2.0000      -0.899908       -24.4877
  79   2.0000      -0.885595       -24.0983
  80   2.0000      -0.879625       -23.9358
  81   2.0000      -0.868480       -23.6325
  82   2.0000      -0.864347       -23.5201
  83   2.0000      -0.844041       -22.9675
  84   2.0000      -0.834786       -22.7157
  85   2.0000      -0.829287       -22.5660
  86   2.0000      -0.825081       -22.4516
  87   2.0000      -0.820999       -22.3405
  88   2.0000      -0.812328       -22.1046
  89   2.0000      -0.810840       -22.0641
  90   2.0000      -0.809140       -22.0178
  91   2.0000      -0.799917       -21.7668
  92   2.0000      -0.797114       -21.6906
  93   2.0000      -0.789024       -21.4704
  94   2.0000      -0.785433       -21.3727
  95   2.0000      -0.778434       -21.1823
  96   2.0000      -0.766861       -20.8674
  97   2.0000      -0.755153       -20.5488
  98   2.0000      -0.747025       -20.3276
  99   2.0000      -0.721464       -19.6320
 100   2.0000      -0.715995       -19.4832
 101   2.0000      -0.709863       -19.3163
 102   2.0000      -0.705046       -19.1853
 103   2.0000      -0.700338       -19.0572
 104   2.0000      -0.697917       -18.9913
 105   2.0000      -0.684038       -18.6136
 106   2.0000      -0.681995       -18.5580
 107   2.0000      -0.677789       -18.4436
 108   2.0000      -0.670892       -18.2559
 109   2.0000      -0.669108       -18.2074
 110   2.0000      -0.665587       -18.1116
 111   2.0000      -0.651383       -17.7250
 112   2.0000      -0.648450       -17.6452
 113   2.0000      -0.646066       -17.5804
 114   2.0000      -0.643476       -17.5099
 115   2.0000      -0.637934       -17.3591
 116   2.0000      -0.634344       -17.2614
 117   2.0000      -0.628349       -17.0982
 118   2.0000      -0.625665       -17.0252
 119   2.0000      -0.611374       -16.6363
 120   2.0000      -0.608206       -16.5501
 121   2.0000      -0.596404       -16.2290
 122   2.0000      -0.594543       -16.1783
 123   2.0000      -0.589994       -16.0545
 124   2.0000      -0.586546       -15.9607
 125   2.0000      -0.582549       -15.8520
 126   2.0000      -0.576766       -15.6946
 127   2.0000      -0.571946       -15.5634
 128   2.0000      -0.565015       -15.3748
 129   2.0000      -0.556794       -15.1511
 130   2.0000      -0.553315       -15.0565
 131   2.0000      -0.550408       -14.9774
 132   2.0000      -0.545749       -14.8506
 133   2.0000      -0.543510       -14.7896
 134   2.0000      -0.541151       -14.7255
 135   2.0000      -0.538477       -14.6527
 136   2.0000      -0.537340       -14.6218
 137   2.0000      -0.533339       -14.5129
 138   2.0000      -0.531364       -14.4592
 139   2.0000      -0.529033       -14.3957
 140   2.0000      -0.520035       -14.1509
 141   2.0000      -0.517910       -14.0931
 142   2.0000      -0.515293       -14.0218
 143   2.0000      -0.514044       -13.9879
 144   2.0000      -0.510813       -13.8999
 145   2.0000      -0.509046       -13.8518
 146   2.0000      -0.505055       -13.7432
 147   2.0000      -0.504661       -13.7325
 148   2.0000      -0.503964       -13.7136
 149   2.0000      -0.500721       -13.6253
 150   2.0000      -0.499966       -13.6048
 151   2.0000      -0.494986       -13.4692
 152   2.0000      -0.494169       -13.4470
 153   2.0000      -0.488968       -13.3055
 154   2.0000      -0.487118       -13.2552
 155   2.0000      -0.484544       -13.1851
 156   2.0000      -0.480813       -13.0836
 157   2.0000      -0.479452       -13.0465
 158   2.0000      -0.478384       -13.0175
 159   2.0000      -0.476290       -12.9605
 160   2.0000      -0.472154       -12.8480
 161   2.0000      -0.469922       -12.7872
 162   2.0000      -0.467479       -12.7207
 163   2.0000      -0.463154       -12.6031
 164   2.0000      -0.462277       -12.5792
 165   2.0000      -0.459372       -12.5001
 166   2.0000      -0.458377       -12.4731
 167   2.0000      -0.451882       -12.2963
 168   2.0000      -0.449519       -12.2320
 169   2.0000      -0.446118       -12.1395
 170   2.0000      -0.444829       -12.1044
 171   2.0000      -0.439597       -11.9620
 172   2.0000      -0.438896       -11.9430
 173   2.0000      -0.435702       -11.8561
 174   2.0000      -0.433859       -11.8059
 175   2.0000      -0.433125       -11.7859
 176   2.0000      -0.430481       -11.7140
 177   2.0000      -0.427782       -11.6405
 178   2.0000      -0.425676       -11.5832
 179   2.0000      -0.424066       -11.5394
 180   2.0000      -0.423456       -11.5228
 181   2.0000      -0.421582       -11.4718
 182   2.0000      -0.418390       -11.3850
 183   2.0000      -0.416909       -11.3447
 184   2.0000      -0.413900       -11.2628
 185   2.0000      -0.411063       -11.1856
 186   2.0000      -0.409916       -11.1544
 187   2.0000      -0.406118       -11.0510
 188   2.0000      -0.405249       -11.0274
 189   2.0000      -0.402988       -10.9659
 190   2.0000      -0.400848       -10.9076
 191   2.0000      -0.390817       -10.6347
 192   2.0000      -0.389924       -10.6104
 193   2.0000      -0.387255       -10.5378
 194   2.0000      -0.384223       -10.4552
 195   2.0000      -0.378000       -10.2859
 196   2.0000      -0.377298       -10.2668
 197   2.0000      -0.376373       -10.2416
 198   2.0000      -0.372198       -10.1280
 199   2.0000      -0.371260       -10.1025
 200   2.0000      -0.366742        -9.9796
 201   2.0000      -0.364552        -9.9200
 202   2.0000      -0.358550        -9.7566
 203   2.0000      -0.356825        -9.7097
 204   2.0000      -0.351306        -9.5595
 205   2.0000      -0.342277        -9.3138
 206   2.0000      -0.335387        -9.1263
 207   2.0000      -0.316423        -8.6103
 208   2.0000      -0.312800        -8.5117
 209   2.0000      -0.295679        -8.0458
 210   2.0000      -0.291236        -7.9249
 211   2.0000      -0.290172        -7.8960
 212   2.0000      -0.283707        -7.7200
 213   2.0000      -0.278908        -7.5895
 214   2.0000      -0.277037        -7.5386
 215   2.0000      -0.267968        -7.2918
 216   2.0000      -0.249072        -6.7776
 217   2.0000      -0.246023        -6.6946
 218   2.0000      -0.240421        -6.5422
 219   0.0000       0.009092         0.2474
 220   0.0000       0.015359         0.4179
 221   0.0000       0.017427         0.4742
 222   0.0000       0.061908         1.6846
 223   0.0000       0.066131         1.7995

MULLIKEN ATOMIC CHARGES
-----------------------
   0 C :   -0.021118
   1 C :    0.009740
   2 C :    0.039618
   3 C :   -0.166283
   4 C :    0.220560
   5 O :   -0.333256
   6 C :    0.187651
   7 C :   -0.008513
   8 C :    0.076996
   9 C :    0.226246
  10 N :   -0.254178
  11 C :    0.240021
  12 C :   -0.191861
  13 C :    0.095987
  14 C :   -0.128873
  15 C :    0.013034
  16 C :    0.102030
  17 C :    0.181649
  18 N :   -0.203782
  19 C :    0.168821
  20 C :   -0.075062
  21 C :    0.058576
  22 C :    0.020061
  23 C :    0.009511
  24 C :   -0.136227
  25 C :    0.245125
  26 O :   -0.319312
  27 C :    0.179043
  28 C :   -0.016843
  29 C :   -0.085595
  30 C :    0.220935
  31 O :   -0.322635
  32 C :    0.222124
  33 C :   -0.095807
  34 C :    0.008530
  35 C :    0.023371
  36 C :   -0.006099
  37 C :    0.029672
  38 S :   -0.089460
  39 C :    0.135989
  40 N :   -0.371973
  41 N :   -0.020554
  42 C :   -0.015185
  43 C :    0.021628
  44 C :   -0.049069
  45 S :   -0.078450
  46 C :    0.097738
  47 N :   -0.347296
  48 C :   -0.121289
  49 C :    0.237706
  50 O :   -0.317971
  51 C :    0.186085
  52 C :   -0.077900
  53 C :   -0.020189
  54 C :    0.012679
  55 C :    0.044869
  56 C :   -0.012535
  57 H :    0.013304
  58 H :   -0.000959
  59 H :   -0.004768
  60 H :   -0.063173
  61 H :    0.020620
  62 H :    0.029618
  63 H :    0.018783
  64 H :    0.006742
  65 H :   -0.012288
  66 H :    0.005419
  67 H :    0.097478
  68 H :    0.006874
  69 H :    0.017621
  70 H :   -0.026947
  71 H :   -0.030695
  72 H :    0.012680
  73 H :    0.011954
  74 H :    0.100963
  75 H :   -0.006609
  76 H :    0.022338
  77 H :    0.001641
  78 H :   -0.007669
  79 H :   -0.034794
  80 H :    0.032285
  81 H :    0.020782
  82 H :    0.020010
  83 H :   -0.023021
  84 H :   -0.025102
  85 H :    0.001224
  86 H :    0.007364
  87 H :   -0.009672
  88 H :   -0.000772
  89 H :   -0.003684
  90 H :    0.009900
  91 H :    0.012275
  92 H :    0.006708
  93 H :    0.030364
  94 H :   -0.009543
  95 H :   -0.000257
  96 H :    0.010035
  97 H :    0.002316
  98 H :    0.039762
  99 H :    0.037458
 100 H :    0.112039
 101 H :   -0.014110
 102 H :   -0.009564
 103 H :    0.018405
 104 H :    0.045760
 105 H :    0.042776
 106 H :   -0.038560
 107 H :    0.003975
 108 H :    0.016997
 109 H :   -0.013236
 110 H :    0.005148
 111 H :    0.008442
 112 H :   -0.006441
 113 H :    0.043159
 114 H :   -0.011254
 115 H :   -0.009415
 116 H :    0.006269
 117 H :    0.005413
 118 H :    0.014192
 119 H :    0.014756
Sum of atomic charges:   -0.0000000

LOEWDIN ATOMIC CHARGES
----------------------
   0 C :   -0.060921
   1 C :   -0.013142
   2 C :   -0.051774
   3 C :   -0.055660
   4 C :    0.035318
   5 O :   -0.117185
   6 C :    0.074163
   7 C :   -0.036500
   8 C :    0.042963
   9 C :    0.031338
  10 N :   -0.102901
  11 C :    0.069677
  12 C :   -0.138866
  13 C :   -0.072869
  14 C :   -0.096585
  15 C :   -0.022997
  16 C :    0.011573
  17 C :    0.038372
  18 N :   -0.080014
  19 C :    0.053925
  20 C :   -0.114908
  21 C :   -0.041544
  22 C :   -0.011434
  23 C :   -0.042253
  24 C :   -0.057702
  25 C :    0.042811
  26 O :   -0.110161
  27 C :    0.074325
  28 C :   -0.036640
  29 C :   -0.064046
  30 C :    0.043004
  31 O :   -0.098284
  32 C :    0.088079
  33 C :   -0.038628
  34 C :   -0.031477
  35 C :   -0.056908
  36 C :   -0.033615
  37 C :   -0.055631
  38 S :    0.200772
  39 C :   -0.062045
  40 N :   -0.142373
  41 N :    0.100929
  42 C :   -0.034996
  43 C :   -0.022242
  44 C :   -0.075781
  45 S :    0.171291
  46 C :   -0.061000
  47 N :   -0.102693
  48 C :   -0.058018
  49 C :    0.049376
  50 O :   -0.099815
  51 C :    0.083700
  52 C :   -0.039486
  53 C :   -0.030062
  54 C :   -0.062293
  55 C :   -0.030474
  56 C :   -0.063591
  57 H :    0.021806
  58 H :    0.012697
  59 H :    0.029928
  60 H :    0.023189
  61 H :    0.013527
  62 H :    0.025863
  63 H :    0.013380
  64 H :    0.027393
  65 H :   -0.000965
  66 H :    0.018391
  67 H :    0.056265
  68 H :    0.011497
  69 H :    0.021177
  70 H :    0.016405
  71 H :    0.015137
  72 H :    0.023538
  73 H :    0.023083
  74 H :    0.055770
  75 H :    0.001418
  76 H :    0.022519
  77 H :    0.018107
  78 H :    0.026624
  79 H :    0.027060
  80 H :    0.027206
  81 H :    0.013535
  82 H :    0.012901
  83 H :    0.031672
  84 H :    0.028637
  85 H :    0.010363
  86 H :    0.009228
  87 H :    0.019444
  88 H :    0.021598
  89 H :    0.018955
  90 H :    0.022835
  91 H :    0.025026
  92 H :    0.017908
  93 H :    0.024838
  94 H :    0.017639
  95 H :    0.018708
  96 H :    0.024303
  97 H :    0.016752
  98 H :    0.017895
  99 H :   -0.001901
 100 H :    0.083508
 101 H :    0.032456
 102 H :    0.009979
 103 H :    0.025055
 104 H :    0.022285
 105 H :    0.008953
 106 H :    0.024939
 107 H :    0.008173
 108 H :    0.011578
 109 H :    0.019663
 110 H :    0.022484
 111 H :    0.016432
 112 H :    0.016795
 113 H :    0.021322
 114 H :    0.011374
 115 H :    0.017504
 116 H :    0.020304
 117 H :    0.016196
 118 H :    0.024829
 119 H :    0.020710

  Mayer bond orders larger than 0.100000
B(  0-C ,  1-C ) :   1.9424 B(  0-C , 57-H ) :   0.9497 B(  0-C , 58-H ) :   0.9453
B(  1-C ,  2-C ) :   1.0961 B(  1-C , 59-H ) :   0.9610 B(  2-C ,  3-C ) :   1.3128
B(  2-C , 49-C ) :   1.3646 B(  3-C ,  4-C ) :   1.3141 B(  3-C , 60-H ) :   0.9944
B(  4-C ,  5-O ) :   1.1263 B(  4-C ,  7-C ) :   1.3896 B(  5-O ,  6-C ) :   0.9746
B(  6-C , 61-H ) :   0.9676 B(  6-C , 62-H ) :   0.9781 B(  6-C , 63-H ) :   0.9679
B(  7-C ,  8-C ) :   0.9575 B(  7-C , 48-C ) :   1.4148 B(  8-C ,  9-C ) :   1.0723
B(  8-C , 47-N ) :   1.0075 B(  8-C , 64-H ) :   0.9049 B(  9-C , 10-N ) :   1.0072
B(  9-C , 65-H ) :   0.9234 B(  9-C , 66-H ) :   0.9400 B( 10-N , 11-C ) :   1.0814
B( 10-N , 67-H ) :   0.9521 B( 11-C , 12-C ) :   0.9181 B( 11-C , 47-N ) :   1.0049
B( 11-C , 68-H ) :   0.9306 B( 12-C , 13-C ) :   0.9090 B( 12-C , 45-S ) :   1.0584
B( 12-C , 69-H ) :   0.9088 B( 13-C , 14-C ) :   1.3260 B( 13-C , 42-C ) :   1.4386
B( 14-C , 15-C ) :   1.4532 B( 14-C , 70-H ) :   0.9984 B( 15-C , 16-C ) :   0.9638
B( 15-C , 41-N ) :   1.2566 B( 15-C , 42-C ) :   0.1105 B( 16-C , 17-C ) :   1.0259
B( 16-C , 40-N ) :   1.0626 B( 16-C , 71-H ) :   0.8983 B( 17-C , 18-N ) :   1.0896
B( 17-C , 72-H ) :   0.9461 B( 17-C , 73-H ) :   0.9346 B( 18-N , 19-C ) :   1.0900
B( 18-N , 74-H ) :   0.9285 B( 19-C , 20-C ) :   0.9792 B( 19-C , 40-N ) :   0.9431
B( 19-C , 75-H ) :   0.9140 B( 20-C , 21-C ) :   0.9701 B( 20-C , 38-S ) :   0.9926
B( 20-C , 76-H ) :   0.9121 B( 21-C , 22-C ) :   1.8502 B( 21-C , 77-H ) :   0.9499
B( 22-C , 23-C ) :   1.0417 B( 22-C , 78-H ) :   0.9586 B( 23-C , 24-C ) :   1.3587
B( 23-C , 30-C ) :   1.3629 B( 24-C , 25-C ) :   1.2879 B( 24-C , 79-H ) :   0.9955
B( 25-C , 26-O ) :   1.1158 B( 25-C , 28-C ) :   1.3810 B( 26-O , 27-C ) :   0.9749
B( 27-C , 80-H ) :   0.9783 B( 27-C , 81-H ) :   0.9675 B( 27-C , 82-H ) :   0.9681
B( 28-C , 29-C ) :   1.3321 B( 28-C , 83-H ) :   0.9985 B( 29-C , 30-C ) :   1.3120
B( 29-C , 84-H ) :   1.0007 B( 30-C , 31-O ) :   1.1368 B( 31-O , 32-C ) :   0.9535
B( 32-C , 33-C ) :   1.0264 B( 32-C , 85-H ) :   0.9350 B( 32-C , 86-H ) :   0.9466
B( 33-C , 34-C ) :   1.0417 B( 33-C , 36-C ) :   1.0562 B( 33-C , 87-H ) :   0.9237
B( 34-C , 35-C ) :   1.0979 B( 34-C , 88-H ) :   0.9449 B( 34-C , 89-H ) :   0.9407
B( 35-C , 90-H ) :   0.9698 B( 35-C , 91-H ) :   0.9643 B( 35-C , 92-H ) :   0.9697
B( 36-C , 37-C ) :   1.1041 B( 36-C , 93-H ) :   0.9392 B( 36-C , 94-H ) :   0.9386
B( 37-C , 95-H ) :   0.9692 B( 37-C , 96-H ) :   0.9654 B( 37-C , 97-H ) :   0.9662
B( 38-S , 39-C ) :   0.9745 B( 39-C , 40-N ) :   1.0164 B( 39-C , 98-H ) :   0.9561
B( 39-C , 99-H ) :   0.9294 B( 41-N , 42-C ) :   1.2078 B( 41-N ,100-H ) :   0.9272
B( 42-C , 43-C ) :   1.1310 B( 43-C , 44-C ) :   1.9092 B( 43-C ,101-H ) :   0.9463
B( 44-C ,102-H ) :   0.9664 B( 44-C ,103-H ) :   0.9406 B( 45-S , 46-C ) :   0.9683
B( 46-C , 47-N ) :   1.0559 B( 46-C ,104-H ) :   0.9563 B( 46-C ,105-H ) :   0.9476
B( 48-C , 49-C ) :   1.2341 B( 48-C ,106-H ) :   0.9854 B( 49-C , 50-O ) :   1.1428
B( 50-O , 51-C ) :   0.9621 B( 51-C , 52-C ) :   1.0158 B( 51-C ,107-H ) :   0.9356
B( 51-C ,108-H ) :   0.9497 B( 52-C , 53-C ) :   1.0417 B( 52-C , 55-C ) :   1.0616
B( 52-C ,109-H ) :   0.9144 B( 53-C , 54-C ) :   1.1048 B( 53-C ,110-H ) :   0.9423
B( 53-C ,111-H ) :   0.9362 B( 54-C ,112-H ) :   0.9610 B( 54-C ,113-H ) :   0.9456
B( 54-C ,114-H ) :   0.9596 B( 55-C , 56-C ) :   1.1042 B( 55-C ,115-H ) :   0.9409
B( 55-C ,116-H ) :   0.9384 B( 56-C ,117-H ) :   0.9693 B( 56-C ,118-H ) :   0.9572
B( 56-C ,119-H ) :   0.9581

-----------------------------------------------------------------------------
         ABSORPTION SPECTRUM VIA TRANSITION ELECTRIC DIPOLE MOMENTS
-----------------------------------------------------------------------------
State   Energy  Wavelength   fosc         T2         TX        TY        TZ
        (cm-1)    (nm)                  (au**2)     (au)      (au)      (au)
-----------------------------------------------------------------------------
   0   35730.9    279.9   0.255082640   2.35024  -0.95503  -0.67065  -0.99418
   1   40065.8    249.6   0.736612944   6.05258   0.10532   1.03746   2.22826

FINAL SINGLE POINT ENERGY     -3158.535082554970

DIPOLE MOMENT
-------------
                                X             Y             Z
Electronic contribution:     48.93221      29.27922       8.94143
Nuclear contribution   :    -49.08194     -29.56767      -7.55984
                        -----------------------------------------
Total Dipole Moment    :     -0.14973      -0.28846       1.38159
                        -----------------------------------------
Magnitude (a.u.)       :      1.41930
Magnitude (Debye)      :      3.60758

Rotational constants in cm-1:     0.001554     0.000984     0.000729
Rotational constants in MHz :    46.578797    29.506553    21.867321

                             ****ORCA TERMINATED NORMALLY****
TOTAL RUN TIME: 0 days 0 hours 8 minutes 50 seconds 888 msec
