                         Program Version 4.2.0 -  RELEASE  -
|  1> # ORCA input file
|  2> # SCF done       -202.516666231014          0.000819911806
|  3> ! CAM-B3LYP def2-SVP def2/J RIJCOSX Grid4 TightSCF
|  4> %maxcore 5000
|  5> %tddft
|  6>     Mode sTDDFT
|  7>     Ethresh 5.0
|  8>     maxcore 5000
|  9> end
| 10>
| 11> %pal
| 12>   nprocs 6
| 13>   end
| 14> * xyz 0 1
| 15>    C        3.87648         9.53952        -0.69549
| 16>    S        4.66304         9.31841         0.80153
| 17>    C        3.84000         7.81960         1.04032
| 18>    C        4.15082         7.01183         2.22266
| 19>    O        4.74698         7.41126         3.18677
| 20>    O        3.71065         5.75105         2.09315
| 21>    C        2.98339         7.52395         0.01462
| 22>    C        3.01949         8.50811        -0.99781
| 23>    O        2.29442         8.55686        -2.14692
| 24>    C        1.84313         7.50457        -2.82754
| 25>    C        0.80143         7.63702        -3.73382
| 26>    N        0.26180         8.83295        -4.20507
| 27>    O       -0.74904         8.77835        -4.88503
| 28>    O        0.83397         9.88030        -3.92760
| 29>    C        0.36754         6.32826        -4.14065
| 30>    C        1.11478         5.39879        -3.49046
| 31>    C        2.12883         6.05737        -2.72145
| 32>    C        3.17756         5.38930        -2.11109
| 33>    C        3.07854         4.06989        -1.57276
| 34>    C        4.14254         3.85350        -0.74532
| 35>    C        5.01934         4.97683        -0.81067
| 36>    N        6.18127         5.09489        -0.05040
| 37>    O        6.84677         6.12120        -0.15158
| 38>    O        6.45765         4.18241         0.71318
| 39>    C        4.49373         5.91056        -1.71899
| 40>    C        5.13841         7.03004        -2.25738
| 41>    C        4.71309         7.67464        -3.39482
| 42>    C        5.05991         8.94417        -3.87435
| 43>    N        5.98453         9.86233        -3.42491
| 44>    C        7.06619         9.65616        -2.48812
| 45>    C        8.14203         8.73409        -3.05271
| 46>    C        5.87316        11.08596        -4.10771
| 47>    O        6.58715        12.04535        -3.89053
| 48>    C        4.77202        10.89727        -5.03095
| 49>    C        4.31776         9.58235        -4.88151
| 50>    C        3.17578         9.38872        -5.75662
| 51>    O        2.48969         8.41573        -5.97485
| 52>    N        3.01522        10.63523        -6.39066
| 53>    C        1.94618        10.86608        -7.33604
| 54>    C        0.80145        11.66437        -6.71808
| 55>    C        3.94650        11.54277        -5.97218
| 56>    C        4.03271        12.86045        -6.47016
| 57>    C        5.04584        13.69753        -6.10835
| 58>    C        5.29174        15.01450        -6.56114
| 59>    S        6.45936        15.93578        -5.65700
| 60>    C        6.23425        17.33127        -6.65405
| 61>    C        5.28914        17.07688        -7.64819
| 62>    C        4.78248        15.77157        -7.61755
| 63>    C        3.89074        15.24583        -8.70087
| 64>    N        4.41786        13.95327        -9.22953
| 65>    O        5.60725        13.86319        -9.38203
| 66>    O        3.60226        13.11022        -9.51311
| 67>    C        3.86921        16.19868        -9.90310
| 68>    C        3.61648        17.62087        -9.42663
| 69>    C        4.81693        18.11916        -8.61957
| 70>    N        4.36688        19.32419        -7.85576
| 71>    O        4.91141        20.36940        -8.10849
| 72>    O        3.48652        19.16241        -7.05187
| 73>    C        6.97630        18.52404        -6.45215
| 74>    C        7.84898        18.70901        -5.43309
| 75>    C        8.60384        19.88894        -5.23350
| 76>    S        8.49494        21.27715        -6.27153
| 77>    C        9.67045        22.13560        -5.33190
| 78>    C       10.13052        23.50025        -5.64311
| 79>    O       10.98058        24.04245        -4.99012
| 80>    O        9.55466        24.10906        -6.68921
| 81>    C       10.11780        21.38293        -4.27299
| 82>    C        9.52059        20.11543        -4.20822
| 83>    O        9.76992        19.17425        -3.27785
| 84>    H        4.05664        10.40809        -1.29650
| 85>    H        3.97808         5.22734         2.86572
| 86>    H        2.35180         6.65513         0.01351
| 87>    H       -0.41283         6.16556        -4.85838
| 88>    H        1.06161         4.33600        -3.61934
| 89>    H        2.23019         3.42568        -1.69500
| 90>    H        4.32168         2.99522        -0.12603
| 91>    H        6.02944         7.34795        -1.73654
| 92>    H        3.94273         7.20255        -3.99421
| 93>    H        6.67637         9.27048        -1.54310
| 94>    H        7.48986        10.64835        -2.30689
| 95>    H        7.72828         7.76507        -3.32088
| 96>    H        8.91650         8.58296        -2.30681
| 97>    H        8.58973         9.17722        -3.93928
| 98>    H        1.58234         9.87584        -7.62237
| 99>    H        2.34736        11.36480        -8.22405
|100>    H        0.45427        11.17453        -5.81276
|101>    H       -0.02325        11.72053        -7.42237
|102>    H        1.11189        12.67339        -6.45643
|103>    H        3.25452        13.16623        -7.14836
|104>    H        5.74637        13.34334        -5.36090
|105>    H        2.87034        15.06328        -8.34694
|106>    H        3.08965        15.88998       -10.60069
|107>    H        4.83402        16.15086       -10.41483
|108>    H        2.72997        17.64107        -8.78747
|109>    H        3.44471        18.27766       -10.28015
|110>    H        5.62976        18.45177        -9.27453
|111>    H        6.84695        19.32563        -7.16700
|112>    H        8.00880        17.93040        -4.69881
|113>    H        8.87517        23.57374        -7.12166
|114>    H       10.85119        21.75398        -3.57885
|115>    H       10.42553        19.49649        -2.64738
|116> *
|117>
|118>                          ****END OF INPUT****

CARTESIAN COORDINATES (ANGSTROEM)
---------------------------------
  C      3.876480    9.539520   -0.695490
  S      4.663040    9.318410    0.801530
  C      3.840000    7.819600    1.040320
  C      4.150820    7.011830    2.222660
  O      4.746980    7.411260    3.186770
  O      3.710650    5.751050    2.093150
  C      2.983390    7.523950    0.014620
  C      3.019490    8.508110   -0.997810
  O      2.294420    8.556860   -2.146920
  C      1.843130    7.504570   -2.827540
  C      0.801430    7.637020   -3.733820
  N      0.261800    8.832950   -4.205070
  O     -0.749040    8.778350   -4.885030
  O      0.833970    9.880300   -3.927600
  C      0.367540    6.328260   -4.140650
  C      1.114780    5.398790   -3.490460
  C      2.128830    6.057370   -2.721450
  C      3.177560    5.389300   -2.111090
  C      3.078540    4.069890   -1.572760
  C      4.142540    3.853500   -0.745320
  C      5.019340    4.976830   -0.810670
  N      6.181270    5.094890   -0.050400
  O      6.846770    6.121200   -0.151580
  O      6.457650    4.182410    0.713180
  C      4.493730    5.910560   -1.718990
  C      5.138410    7.030040   -2.257380
  C      4.713090    7.674640   -3.394820
  C      5.059910    8.944170   -3.874350
  N      5.984530    9.862330   -3.424910
  C      7.066190    9.656160   -2.488120
  C      8.142030    8.734090   -3.052710
  C      5.873160   11.085960   -4.107710
  O      6.587150   12.045350   -3.890530
  C      4.772020   10.897270   -5.030950
  C      4.317760    9.582350   -4.881510
  C      3.175780    9.388720   -5.756620
  O      2.489690    8.415730   -5.974850
  N      3.015220   10.635230   -6.390660
  C      1.946180   10.866080   -7.336040
  C      0.801450   11.664370   -6.718080
  C      3.946500   11.542770   -5.972180
  C      4.032710   12.860450   -6.470160
  C      5.045840   13.697530   -6.108350
  C      5.291740   15.014500   -6.561140
  S      6.459360   15.935780   -5.657000
  C      6.234250   17.331270   -6.654050
  C      5.289140   17.076880   -7.648190
  C      4.782480   15.771570   -7.617550
  C      3.890740   15.245830   -8.700870
  N      4.417860   13.953270   -9.229530
  O      5.607250   13.863190   -9.382030
  O      3.602260   13.110220   -9.513110
  C      3.869210   16.198680   -9.903100
  C      3.616480   17.620870   -9.426630
  C      4.816930   18.119160   -8.619570
  N      4.366880   19.324190   -7.855760
  O      4.911410   20.369400   -8.108490
  O      3.486520   19.162410   -7.051870
  C      6.976300   18.524040   -6.452150
  C      7.848980   18.709010   -5.433090
  C      8.603840   19.888940   -5.233500
  S      8.494940   21.277150   -6.271530
  C      9.670450   22.135600   -5.331900
  C     10.130520   23.500250   -5.643110
  O     10.980580   24.042450   -4.990120
  O      9.554660   24.109060   -6.689210
  C     10.117800   21.382930   -4.272990
  C      9.520590   20.115430   -4.208220
  O      9.769920   19.174250   -3.277850
  H      4.056640   10.408090   -1.296500
  H      3.978080    5.227340    2.865720
  H      2.351800    6.655130    0.013510
  H     -0.412830    6.165560   -4.858380
  H      1.061610    4.336000   -3.619340
  H      2.230190    3.425680   -1.695000
  H      4.321680    2.995220   -0.126030
  H      6.029440    7.347950   -1.736540
  H      3.942730    7.202550   -3.994210
  H      6.676370    9.270480   -1.543100
  H      7.489860   10.648350   -2.306890
  H      7.728280    7.765070   -3.320880
  H      8.916500    8.582960   -2.306810
  H      8.589730    9.177220   -3.939280
  H      1.582340    9.875840   -7.622370
  H      2.347360   11.364800   -8.224050
  H      0.454270   11.174530   -5.812760
  H     -0.023250   11.720530   -7.422370
  H      1.111890   12.673390   -6.456430
  H      3.254520   13.166230   -7.148360
  H      5.746370   13.343340   -5.360900
  H      2.870340   15.063280   -8.346940
  H      3.089650   15.889980  -10.600690
  H      4.834020   16.150860  -10.414830
  H      2.729970   17.641070   -8.787470
  H      3.444710   18.277660  -10.280150
  H      5.629760   18.451770   -9.274530
  H      6.846950   19.325630   -7.167000
  H      8.008800   17.930400   -4.698810
  H      8.875170   23.573740   -7.121660
  H     10.851190   21.753980   -3.578850
  H     10.425530   19.496490   -2.647380

 Total Charge           Charge          ....    0
 Multiplicity           Mult            ....    1
 Number of Electrons    NEL             ....  514
 Basis Dimension        Dim             .... 1138

ORBITAL ENERGIES
----------------

  NO   OCC          E(Eh)            E(eV)
   0   2.0000     -88.985149     -2421.4090
   1   2.0000     -88.981868     -2421.3197
   2   2.0000     -88.973673     -2421.0967
   3   2.0000     -19.296853      -525.0941
   4   2.0000     -19.277121      -524.5571
   5   2.0000     -19.269934      -524.3615
   6   2.0000     -19.268282      -524.3166
   7   2.0000     -19.267950      -524.3076
   8   2.0000     -19.266160      -524.2589
   9   2.0000     -19.265977      -524.2539
  10   2.0000     -19.265971      -524.2537
  11   2.0000     -19.223729      -523.1043
  12   2.0000     -19.222034      -523.0581
  13   2.0000     -19.221911      -523.0548
  14   2.0000     -19.221393      -523.0407
  15   2.0000     -19.210453      -522.7430
  16   2.0000     -19.205234      -522.6010
  17   2.0000     -19.204947      -522.5932
  18   2.0000     -19.194480      -522.3084
  19   2.0000     -14.665389      -399.0655
  20   2.0000     -14.662576      -398.9890
  21   2.0000     -14.631385      -398.1402
  22   2.0000     -14.631312      -398.1382
  23   2.0000     -14.464342      -393.5948
  24   2.0000     -14.457680      -393.4135
  25   2.0000     -10.416086      -283.4361
  26   2.0000     -10.410430      -283.2822
  27   2.0000     -10.390204      -282.7318
  28   2.0000     -10.379695      -282.4459
  29   2.0000     -10.377258      -282.3795
  30   2.0000     -10.364428      -282.0304
  31   2.0000     -10.361931      -281.9625
  32   2.0000     -10.359700      -281.9018
  33   2.0000     -10.358680      -281.8740
  34   2.0000     -10.353827      -281.7420
  35   2.0000     -10.338783      -281.3326
  36   2.0000     -10.335714      -281.2491
  37   2.0000     -10.329810      -281.0884
  38   2.0000     -10.328218      -281.0451
  39   2.0000     -10.322867      -280.8995
  40   2.0000     -10.322551      -280.8909
  41   2.0000     -10.321729      -280.8685
  42   2.0000     -10.321273      -280.8561
  43   2.0000     -10.318097      -280.7697
  44   2.0000     -10.316685      -280.7313
  45   2.0000     -10.315533      -280.6999
  46   2.0000     -10.315289      -280.6933
  47   2.0000     -10.313509      -280.6449
  48   2.0000     -10.312822      -280.6262
  49   2.0000     -10.311329      -280.5855
  50   2.0000     -10.309498      -280.5357
  51   2.0000     -10.307739      -280.4879
  52   2.0000     -10.306726      -280.4603
  53   2.0000     -10.306400      -280.4514
  54   2.0000     -10.304518      -280.4002
  55   2.0000     -10.304122      -280.3894
  56   2.0000     -10.304069      -280.3880
  57   2.0000     -10.303150      -280.3630
  58   2.0000     -10.303037      -280.3599
  59   2.0000     -10.296855      -280.1917
  60   2.0000     -10.295863      -280.1647
  61   2.0000     -10.294080      -280.1161
  62   2.0000     -10.289329      -279.9869
  63   2.0000     -10.282086      -279.7898
  64   2.0000     -10.277356      -279.6611
  65   2.0000     -10.273587      -279.5585
  66   2.0000     -10.271693      -279.5070
  67   2.0000     -10.259378      -279.1719
  68   2.0000     -10.250648      -278.9343
  69   2.0000      -8.080618      -219.8848
  70   2.0000      -8.077446      -219.7985
  71   2.0000      -8.068673      -219.5598
  72   2.0000      -6.049849      -164.6248
  73   2.0000      -6.046474      -164.5329
  74   2.0000      -6.045974      -164.5193
  75   2.0000      -6.042652      -164.4289
  76   2.0000      -6.042536      -164.4258
  77   2.0000      -6.039758      -164.3502
  78   2.0000      -6.037902      -164.2997
  79   2.0000      -6.033624      -164.1832
  80   2.0000      -6.031051      -164.1132
  81   2.0000      -1.349564       -36.7235
  82   2.0000      -1.347594       -36.6699
  83   2.0000      -1.300361       -35.3846
  84   2.0000      -1.299073       -35.3496
  85   2.0000      -1.207985       -32.8710
  86   2.0000      -1.192752       -32.4564
  87   2.0000      -1.191698       -32.4278
  88   2.0000      -1.173794       -31.9406
  89   2.0000      -1.170665       -31.8554
  90   2.0000      -1.168878       -31.8068
  91   2.0000      -1.147403       -31.2224
  92   2.0000      -1.134193       -30.8630
  93   2.0000      -1.116013       -30.3683
  94   2.0000      -1.115710       -30.3600
  95   2.0000      -1.105670       -30.0868
  96   2.0000      -1.097453       -29.8632
  97   2.0000      -1.076691       -29.2983
  98   2.0000      -1.061009       -28.8715
  99   2.0000      -1.030252       -28.0346
 100   2.0000      -1.007345       -27.4113
 101   2.0000      -1.006519       -27.3888
 102   2.0000      -1.001379       -27.2489
 103   2.0000      -0.982418       -26.7330
 104   2.0000      -0.978633       -26.6300
 105   2.0000      -0.956709       -26.0334
 106   2.0000      -0.936097       -25.4725
 107   2.0000      -0.928215       -25.2580
 108   2.0000      -0.916637       -24.9430
 109   2.0000      -0.912441       -24.8288
 110   2.0000      -0.902879       -24.5686
 111   2.0000      -0.875767       -23.8308
 112   2.0000      -0.872758       -23.7490
 113   2.0000      -0.870480       -23.6870
 114   2.0000      -0.866388       -23.5756
 115   2.0000      -0.864976       -23.5372
 116   2.0000      -0.851844       -23.1798
 117   2.0000      -0.850822       -23.1520
 118   2.0000      -0.847399       -23.0589
 119   2.0000      -0.841732       -22.9047
 120   2.0000      -0.826296       -22.4847
 121   2.0000      -0.820286       -22.3211
 122   2.0000      -0.814368       -22.1601
 123   2.0000      -0.794155       -21.6101
 124   2.0000      -0.791908       -21.5489
 125   2.0000      -0.766868       -20.8675
 126   2.0000      -0.759867       -20.6770
 127   2.0000      -0.757984       -20.6258
 128   2.0000      -0.750321       -20.4173
 129   2.0000      -0.748499       -20.3677
 130   2.0000      -0.731341       -19.9008
 131   2.0000      -0.729519       -19.8512
 132   2.0000      -0.717636       -19.5279
 133   2.0000      -0.712390       -19.3851
 134   2.0000      -0.710426       -19.3317
 135   2.0000      -0.708058       -19.2672
 136   2.0000      -0.707267       -19.2457
 137   2.0000      -0.699178       -19.0256
 138   2.0000      -0.697991       -18.9933
 139   2.0000      -0.680719       -18.5233
 140   2.0000      -0.675739       -18.3878
 141   2.0000      -0.668041       -18.1783
 142   2.0000      -0.662201       -18.0194
 143   2.0000      -0.660491       -17.9729
 144   2.0000      -0.657656       -17.8957
 145   2.0000      -0.653385       -17.7795
 146   2.0000      -0.652344       -17.7512
 147   2.0000      -0.646854       -17.6018
 148   2.0000      -0.639102       -17.3908
 149   2.0000      -0.637398       -17.3445
 150   2.0000      -0.635545       -17.2941
 151   2.0000      -0.629646       -17.1335
 152   2.0000      -0.628605       -17.1052
 153   2.0000      -0.625836       -17.0299
 154   2.0000      -0.624200       -16.9853
 155   2.0000      -0.617235       -16.7958
 156   2.0000      -0.614558       -16.7230
 157   2.0000      -0.614293       -16.7157
 158   2.0000      -0.610993       -16.6260
 159   2.0000      -0.607738       -16.5374
 160   2.0000      -0.604613       -16.4524
 161   2.0000      -0.601647       -16.3716
 162   2.0000      -0.599415       -16.3109
 163   2.0000      -0.591990       -16.1089
 164   2.0000      -0.586871       -15.9696
 165   2.0000      -0.584875       -15.9153
 166   2.0000      -0.577264       -15.7082
 167   2.0000      -0.573270       -15.5995
 168   2.0000      -0.571006       -15.5379
 169   2.0000      -0.569411       -15.4945
 170   2.0000      -0.565044       -15.3756
 171   2.0000      -0.557506       -15.1705
 172   2.0000      -0.555785       -15.1237
 173   2.0000      -0.552432       -15.0325
 174   2.0000      -0.551964       -15.0197
 175   2.0000      -0.551270       -15.0008
 176   2.0000      -0.549946       -14.9648
 177   2.0000      -0.544169       -14.8076
 178   2.0000      -0.542262       -14.7557
 179   2.0000      -0.540338       -14.7033
 180   2.0000      -0.536082       -14.5875
 181   2.0000      -0.534354       -14.5405
 182   2.0000      -0.532991       -14.5034
 183   2.0000      -0.529429       -14.4065
 184   2.0000      -0.528594       -14.3838
 185   2.0000      -0.526708       -14.3325
 186   2.0000      -0.525516       -14.3000
 187   2.0000      -0.523037       -14.2326
 188   2.0000      -0.516498       -14.0546
 189   2.0000      -0.514418       -13.9980
 190   2.0000      -0.512845       -13.9552
 191   2.0000      -0.508288       -13.8312
 192   2.0000      -0.502022       -13.6607
 193   2.0000      -0.500378       -13.6160
 194   2.0000      -0.499151       -13.5826
 195   2.0000      -0.497765       -13.5449
 196   2.0000      -0.496717       -13.5164
 197   2.0000      -0.494551       -13.4574
 198   2.0000      -0.492257       -13.3950
 199   2.0000      -0.487000       -13.2520
 200   2.0000      -0.482303       -13.1241
 201   2.0000      -0.481140       -13.0925
 202   2.0000      -0.478716       -13.0265
 203   2.0000      -0.477963       -13.0060
 204   2.0000      -0.474880       -12.9221
 205   2.0000      -0.470345       -12.7987
 206   2.0000      -0.468303       -12.7432
 207   2.0000      -0.467260       -12.7148
 208   2.0000      -0.461238       -12.5509
 209   2.0000      -0.459155       -12.4942
 210   2.0000      -0.458030       -12.4636
 211   2.0000      -0.455790       -12.4027
 212   2.0000      -0.454733       -12.3739
 213   2.0000      -0.451663       -12.2904
 214   2.0000      -0.450187       -12.2502
 215   2.0000      -0.448663       -12.2088
 216   2.0000      -0.442819       -12.0497
 217   2.0000      -0.442708       -12.0467
 218   2.0000      -0.439634       -11.9631
 219   2.0000      -0.436267       -11.8714
 220   2.0000      -0.434100       -11.8125
 221   2.0000      -0.432972       -11.7818
 222   2.0000      -0.426341       -11.6013
 223   2.0000      -0.424787       -11.5590
 224   2.0000      -0.420169       -11.4334
 225   2.0000      -0.417262       -11.3543
 226   2.0000      -0.405621       -11.0375
 227   2.0000      -0.403711       -10.9855
 228   2.0000      -0.402805       -10.9609
 229   2.0000      -0.400854       -10.9078
 230   2.0000      -0.398906       -10.8548
 231   2.0000      -0.395757       -10.7691
 232   2.0000      -0.392656       -10.6847
 233   2.0000      -0.389714       -10.6047
 234   2.0000      -0.380976       -10.3669
 235   2.0000      -0.374329       -10.1860
 236   2.0000      -0.370419       -10.0796
 237   2.0000      -0.369467       -10.0537
 238   2.0000      -0.362718        -9.8701
 239   2.0000      -0.361838        -9.8461
 240   2.0000      -0.361723        -9.8430
 241   2.0000      -0.361077        -9.8254
 242   2.0000      -0.360065        -9.7979
 243   2.0000      -0.350095        -9.5266
 244   2.0000      -0.349341        -9.5060
 245   2.0000      -0.348958        -9.4956
 246   2.0000      -0.341671        -9.2973
 247   2.0000      -0.337612        -9.1869
 248   2.0000      -0.337007        -9.1704
 249   2.0000      -0.328511        -8.9392
 250   2.0000      -0.325350        -8.8532
 251   2.0000      -0.323268        -8.7966
 252   2.0000      -0.318392        -8.6639
 253   2.0000      -0.293616        -7.9897
 254   2.0000      -0.275732        -7.5030
 255   2.0000      -0.270182        -7.3520
 256   2.0000      -0.234990        -6.3944
 257   0.0000      -0.132309        -3.6003
 258   0.0000      -0.093822        -2.5530
 259   0.0000      -0.065777        -1.7899
 260   0.0000      -0.042987        -1.1697
 261   0.0000      -0.040065        -1.0902

MULLIKEN ATOMIC CHARGES
-----------------------
   0 C :   -0.114712
   1 S :    0.209013
   2 C :   -0.228020
   3 C :    0.171465
   4 O :   -0.176820
   5 O :   -0.180535
   6 C :    0.066277
   7 C :    0.201738
   8 O :   -0.182717
   9 C :    0.099062
  10 C :    0.092269
  11 N :    0.283563
  12 O :   -0.258585
  13 O :   -0.258383
  14 C :    0.043120
  15 C :   -0.009447
  16 C :   -0.026506
  17 C :   -0.004338
  18 C :   -0.003114
  19 C :    0.034466
  20 C :    0.068446
  21 N :    0.276089
  22 O :   -0.272910
  23 O :   -0.269365
  24 C :    0.030493
  25 C :   -0.028000
  26 C :   -0.005714
  27 C :    0.092260
  28 N :   -0.270453
  29 C :    0.094572
  30 C :    0.004806
  31 C :    0.169385
  32 O :   -0.218940
  33 C :   -0.086369
  34 C :   -0.007422
  35 C :    0.180004
  36 O :   -0.181605
  37 N :   -0.253005
  38 C :    0.084554
  39 C :    0.003026
  40 C :    0.160474
  41 C :   -0.037263
  42 C :    0.070068
  43 C :   -0.130011
  44 S :    0.178749
  45 C :   -0.077398
  46 C :   -0.034579
  47 C :    0.010203
  48 C :    0.091953
  49 N :    0.193520
  50 O :   -0.197704
  51 O :   -0.226857
  52 C :    0.065817
  53 C :    0.060306
  54 C :    0.133288
  55 N :    0.185229
  56 O :   -0.222672
  57 O :   -0.206226
  58 C :   -0.039948
  59 C :    0.032706
  60 C :   -0.144731
  61 S :    0.109647
  62 C :   -0.154709
  63 C :    0.184829
  64 O :   -0.168184
  65 O :   -0.153605
  66 C :   -0.034096
  67 C :    0.191524
  68 O :   -0.173131
  69 H :    0.037443
  70 H :    0.200259
  71 H :    0.020007
  72 H :   -0.000175
  73 H :   -0.014816
  74 H :   -0.016802
  75 H :   -0.004939
  76 H :    0.015879
  77 H :    0.030283
  78 H :    0.030199
  79 H :    0.040693
  80 H :    0.023425
  81 H :    0.032027
  82 H :    0.020826
  83 H :    0.042248
  84 H :    0.037987
  85 H :    0.032534
  86 H :    0.021275
  87 H :   -0.001269
  88 H :   -0.028211
  89 H :    0.013441
  90 H :    0.052098
  91 H :    0.035473
  92 H :    0.035119
  93 H :    0.040229
  94 H :    0.034167
  95 H :    0.032176
  96 H :    0.002401
  97 H :    0.018899
  98 H :    0.184110
  99 H :    0.002447
 100 H :    0.195717
Sum of atomic charges:   -0.0000000

LOEWDIN ATOMIC CHARGES
----------------------
   0 C :   -0.188953
   1 S :    0.511112
   2 C :   -0.220533
   3 C :    0.057748
   4 O :   -0.171514
   5 O :   -0.036936
   6 C :   -0.043510
   7 C :    0.000882
   8 O :    0.009824
   9 C :    0.078554
  10 C :   -0.091323
  11 N :    0.294584
  12 O :   -0.223589
  13 O :   -0.230483
  14 C :    0.031609
  15 C :   -0.059144
  16 C :   -0.007095
  17 C :    0.035861
  18 C :   -0.057812
  19 C :    0.033306
  20 C :   -0.078287
  21 N :    0.287507
  22 O :   -0.241659
  23 O :   -0.232727
  24 C :    0.009943
  25 C :   -0.010013
  26 C :    0.004755
  27 C :    0.040444
  28 N :   -0.000202
  29 C :    0.033050
  30 C :   -0.059475
  31 C :    0.075484
  32 O :   -0.209346
  33 C :   -0.129578
  34 C :   -0.063567
  35 C :    0.092958
  36 O :   -0.168320
  37 N :    0.013746
  38 C :    0.034460
  39 C :   -0.064852
  40 C :    0.112731
  41 C :   -0.060647
  42 C :    0.024921
  43 C :   -0.171138
  44 S :    0.498732
  45 C :   -0.144925
  46 C :   -0.076313
  47 C :   -0.049625
  48 C :    0.015699
  49 N :    0.275776
  50 O :   -0.177496
  51 O :   -0.195721
  52 C :   -0.015403
  53 C :   -0.020393
  54 C :    0.020115
  55 N :    0.271759
  56 O :   -0.196694
  57 O :   -0.183876
  58 C :   -0.070921
  59 C :   -0.004533
  60 C :   -0.204093
  61 S :    0.440368
  62 C :   -0.219522
  63 C :    0.062581
  64 O :   -0.154958
  65 O :   -0.027409
  66 C :   -0.053063
  67 C :    0.026281
  68 O :   -0.037514
  69 H :    0.032868
  70 H :    0.106634
  71 H :    0.041478
  72 H :    0.038367
  73 H :    0.028059
  74 H :    0.027294
  75 H :    0.036447
  76 H :    0.035528
  77 H :    0.047286
  78 H :    0.017260
  79 H :    0.036258
  80 H :    0.023953
  81 H :    0.036180
  82 H :    0.029067
  83 H :    0.038378
  84 H :    0.024747
  85 H :    0.025887
  86 H :    0.030678
  87 H :    0.014684
  88 H :    0.022955
  89 H :    0.039774
  90 H :    0.043880
  91 H :    0.040368
  92 H :    0.034831
  93 H :    0.035317
  94 H :    0.039718
  95 H :    0.041336
  96 H :    0.020605
  97 H :    0.037268
  98 H :    0.082884
  99 H :    0.042040
 100 H :    0.106341

  Mayer bond orders larger than 0.100000
B(  0-C ,  1-S ) :   1.1746 B(  0-C ,  7-C ) :   1.5329 B(  0-C , 69-H ) :   0.9628
B(  1-S ,  2-C ) :   1.1730 B(  2-C ,  3-C ) :   0.9676 B(  2-C ,  6-C ) :   1.4958
B(  3-C ,  4-O ) :   2.1906 B(  3-C ,  5-O ) :   1.2728 B(  5-O , 70-H ) :   0.9372
B(  6-C ,  7-C ) :   1.2448 B(  6-C , 71-H ) :   0.9932 B(  7-C ,  8-O ) :   1.0132
B(  8-O ,  9-C ) :   1.2097 B(  9-C , 10-C ) :   1.5073 B(  9-C , 16-C ) :   1.0075
B( 10-C , 11-N ) :   0.9654 B( 10-C , 14-C ) :   1.1468 B( 11-N , 12-O ) :   1.5158
B( 11-N , 13-O ) :   1.4940 B( 12-O , 13-O ) :   0.2380 B( 14-C , 15-C ) :   1.5665
B( 14-C , 72-H ) :   1.0131 B( 15-C , 16-C ) :   1.1448 B( 15-C , 73-H ) :   1.0076
B( 16-C , 17-C ) :   1.4557 B( 17-C , 18-C ) :   1.1805 B( 17-C , 24-C ) :   1.0059
B( 18-C , 19-C ) :   1.5062 B( 18-C , 74-H ) :   1.0094 B( 19-C , 20-C ) :   1.1756
B( 19-C , 75-H ) :   1.0070 B( 20-C , 21-N ) :   0.9906 B( 20-C , 24-C ) :   1.3849
B( 21-N , 22-O ) :   1.4751 B( 21-N , 23-O ) :   1.5120 B( 22-O , 23-O ) :   0.2373
B( 24-C , 25-C ) :   1.2920 B( 25-C , 26-C ) :   1.3838 B( 25-C , 76-H ) :   0.9541
B( 26-C , 27-C ) :   1.2835 B( 26-C , 77-H ) :   0.9224 B( 27-C , 28-N ) :   1.1419
B( 27-C , 34-C ) :   1.3017 B( 28-N , 29-C ) :   0.9364 B( 28-N , 31-C ) :   1.0787
B( 29-C , 30-C ) :   1.1220 B( 29-C , 78-H ) :   0.9452 B( 29-C , 79-H ) :   0.9224
B( 30-C , 80-H ) :   0.9669 B( 30-C , 81-H ) :   0.9676 B( 30-C , 82-H ) :   0.9627
B( 31-C , 32-O ) :   2.0043 B( 31-C , 33-C ) :   0.9919 B( 32-O , 89-H ) :   0.1262
B( 33-C , 34-C ) :   1.3244 B( 33-C , 40-C ) :   1.2345 B( 34-C , 35-C ) :   0.9484
B( 35-C , 36-O ) :   2.1016 B( 35-C , 37-N ) :   1.0367 B( 37-N , 38-C ) :   0.9274
B( 37-N , 40-C ) :   1.2066 B( 38-C , 39-C ) :   1.1209 B( 38-C , 83-H ) :   0.9265
B( 38-C , 84-H ) :   0.9444 B( 39-C , 85-H ) :   0.9385 B( 39-C , 86-H ) :   0.9639
B( 39-C , 87-H ) :   0.9653 B( 40-C , 41-C ) :   1.2244 B( 41-C , 42-C ) :   1.5570
B( 41-C , 88-H ) :   0.9390 B( 42-C , 43-C ) :   1.1738 B( 42-C , 89-H ) :   0.9158
B( 43-C , 44-S ) :   1.1357 B( 43-C , 47-C ) :   1.4506 B( 44-S , 45-C ) :   1.1522
B( 45-C , 46-C ) :   1.4487 B( 45-C , 58-C ) :   1.1673 B( 46-C , 47-C ) :   1.3761
B( 46-C , 54-C ) :   0.9889 B( 47-C , 48-C ) :   0.9710 B( 48-C , 49-N ) :   0.8384
B( 48-C , 52-C ) :   1.0672 B( 48-C , 90-H ) :   0.8910 B( 49-N , 50-O ) :   1.6031
B( 49-N , 51-O ) :   1.5092 B( 50-O , 51-O ) :   0.2706 B( 52-C , 53-C ) :   1.0984
B( 52-C , 91-H ) :   0.9254 B( 52-C , 92-H ) :   0.9263 B( 53-C , 54-C ) :   1.0581
B( 53-C , 93-H ) :   0.9225 B( 53-C , 94-H ) :   0.9270 B( 54-C , 55-N ) :   0.8357
B( 54-C , 95-H ) :   0.8894 B( 55-N , 56-O ) :   1.5403 B( 55-N , 57-O ) :   1.5942
B( 56-O , 57-O ) :   0.2693 B( 58-C , 59-C ) :   1.6239 B( 58-C , 96-H ) :   0.9531
B( 59-C , 60-C ) :   1.1865 B( 59-C , 97-H ) :   0.9761 B( 60-C , 61-S ) :   1.1099
B( 60-C , 62-C ) :   0.1006 B( 60-C , 67-C ) :   1.4257 B( 61-S , 62-C ) :   1.1175
B( 62-C , 63-C ) :   0.9304 B( 62-C , 66-C ) :   1.5218 B( 63-C , 64-O ) :   2.2006
B( 63-C , 65-O ) :   1.2450 B( 65-O , 98-H ) :   0.9486 B( 66-C , 67-C ) :   1.1986
B( 66-C , 99-H ) :   1.0066 B( 67-C , 68-O ) :   1.2509 B( 68-O ,100-H ) :   0.9551

-----------------------------------------------------------------------------
         ABSORPTION SPECTRUM VIA TRANSITION ELECTRIC DIPOLE MOMENTS
-----------------------------------------------------------------------------
State   Energy  Wavelength   fosc         T2         TX        TY        TZ
        (cm-1)    (nm)                  (au**2)     (au)      (au)      (au)
-----------------------------------------------------------------------------
   0    5778.4   1730.6   0.211234401  12.03469   0.94374   2.96628  -1.53140
   1   10746.2    930.6   0.038813926   1.18908   0.51855   0.71684  -0.63743
   2   15186.3    658.5   0.544221796  11.79772  -0.01331  -3.18054   1.29681
   3   16655.4    600.4   0.017445359   0.34483   0.15091  -0.55144   0.13404
   4   18738.5    533.7   0.431276933   7.57701  -1.28309  -2.42010  -0.27170
   5   20894.9    478.6   0.010633414   0.16754  -0.15903  -0.14179  -0.34949
   6   22126.4    451.9   0.121534176   1.80827  -0.92776  -0.68154  -0.69501
   7   22732.2    439.9   0.107585767   1.55808   0.61603   1.00446   0.41189
   8   22987.3    435.0   0.002584999   0.03702  -0.09522   0.10213   0.13237
   9   24284.4    411.8   0.160370398   2.17406  -1.07039   0.22088  -0.98972
  10   25004.4    399.9   0.184225048   2.42554   0.71145   1.33166   0.38218
  11   25460.7    392.8   0.226479630   2.92842   1.30682   0.45574   1.00646
  12   25524.5    391.8   0.012429289   0.16031  -0.36241   0.09035   0.14425
  13   26186.3    381.9   0.035173775   0.44220   0.65275   0.08213   0.09686
  14   26295.0    380.3   0.010881314   0.13623   0.36411  -0.05965   0.01000
  15   26563.6    376.5   0.119546168   1.48158  -0.91941  -0.71630  -0.35097
  16   26837.3    372.6   0.087036099   1.06767  -0.81755  -0.59280  -0.21880
  17   28325.0    353.0   0.129305569   1.50288   0.53242  -0.84460   0.71137
  18   28354.3    352.7   0.102106131   1.18552  -0.38215   0.88861  -0.49985
  19   28797.7    347.3   0.120009190   1.37193   0.47719  -0.84411   0.65704
  20   28874.7    346.3   0.171347799   1.95361   0.17372  -1.20646   0.68401
  21   29463.8    339.4   0.012267600   0.13707   0.22770   0.28537  -0.06155
  22   30272.2    330.3   0.026379101   0.28687   0.00041   0.38710  -0.37017
  23   30443.1    328.5   0.060970165   0.65933  -0.11278  -0.66709   0.44900
  24   30848.0    324.2   0.035812439   0.38219  -0.53996  -0.12314  -0.27473
  25   31117.1    321.4   0.008506315   0.08999  -0.15918  -0.23439  -0.09858
  26   31205.1    320.5   0.013648640   0.14399   0.32240   0.00960   0.19990
  27   31515.7    317.3   0.039758712   0.41532  -0.50651   0.09567  -0.38679
  28   31675.1    315.7   0.236250837   2.45545   1.11617   0.24333   1.07257
  29   32221.2    310.4   0.009429109   0.09634  -0.24011  -0.16135   0.11247
  30   32642.0    306.4   0.001572067   0.01586   0.10029  -0.05170  -0.05589
  31   32696.7    305.8   0.013506950   0.13600  -0.00108   0.30238   0.21110
  32   33257.0    300.7   0.010668543   0.10561  -0.04960  -0.28780   0.14254
  33   33349.4    299.9   0.028826430   0.28456  -0.35188   0.25463  -0.30969
  34   33554.1    298.0   0.003997297   0.03922  -0.09005  -0.00723  -0.17623
  35   33694.3    296.8   0.057454532   0.56136   0.46998  -0.36742   0.45331
  36   34009.5    294.0   0.024435451   0.23653  -0.03241   0.17761  -0.45160
  37   34336.3    291.2   0.104925293   1.00601  -0.67874   0.39786  -0.62212
  38   34826.8    287.1   0.037182318   0.35148  -0.49644  -0.23482  -0.22335
  39   34983.6    285.8   0.000568897   0.00535  -0.06391  -0.00867  -0.03455
  40   35579.0    281.1   0.010225771   0.09462   0.20922   0.21374  -0.07183
  41   35775.8    279.5   0.070333274   0.64721  -0.51273   0.45321  -0.42300
  42   35964.0    278.1   0.002028167   0.01857  -0.13211  -0.02101   0.02592
  43   36356.2    275.1   0.057332488   0.51916  -0.59296  -0.07901  -0.40163
  44   36382.8    274.9   0.058332094   0.52782  -0.20848   0.66982  -0.18895
  45   37108.8    269.5   0.010126012   0.08983  -0.21074   0.18569  -0.10461
  46   37466.2    266.9   0.074157185   0.65161  -0.19420   0.64932  -0.43849
  47   37546.9    266.3   0.055621475   0.48769  -0.53737   0.29008  -0.33880
  48   38014.9    263.1   0.002175596   0.01884  -0.10104  -0.05209   0.07693
  49   38145.6    262.2   0.017609517   0.15198   0.08915   0.35261  -0.14035
  50   38319.5    261.0   0.072036709   0.61888   0.65453   0.42890   0.08074
  51   38576.1    259.2   0.204093266   1.74175   0.53144  -1.00318   0.67302
  52   39285.2    254.5   0.015116842   0.12668  -0.22661  -0.17672   0.21000
  53   39476.2    253.3   0.070522149   0.58812   0.36437   0.47466   0.47964
  54   39841.0    251.0   0.005738234   0.04742  -0.21545   0.02752   0.01545

FINAL SINGLE POINT ENERGY     -4417.934198927227

DIPOLE MOMENT
-------------
                                X             Y             Z
Electronic contribution:      8.04806       9.83784      18.18453
Nuclear contribution   :     -8.57833      -9.22616     -20.23950
                        -----------------------------------------
Total Dipole Moment    :     -0.53027       0.61168      -2.05497
                        -----------------------------------------
Magnitude (a.u.)       :      2.20867
Magnitude (Debye)      :      5.61400

Rotational constants in cm-1:     0.001746     0.000411     0.000355
Rotational constants in MHz :    52.349962    12.314278    10.657315

                             ****ORCA TERMINATED NORMALLY****
TOTAL RUN TIME: 0 days 0 hours 13 minutes 12 seconds 967 msec
