                         Program Version 4.2.0 -  RELEASE  -
|  1> # ORCA input file
|  2> # SCF done       -160.710846268289          0.000856590900
|  3> ! CAM-B3LYP def2-SVP def2/J RIJCOSX Grid4 TightSCF
|  4> %maxcore 5000
|  5> %tddft
|  6>     Mode sTDDFT
|  7>     Ethresh 5.0
|  8>     maxcore 5000
|  9> end
| 10>
| 11> %pal
| 12>   nprocs 6
| 13>   end
| 14> * xyz 0 1
| 15>    C        0.71689        -0.08180        -1.18020
| 16>    C       -0.01758        -0.29487        -2.27898
| 17>    C       -0.47796         0.97803        -2.83712
| 18>    C       -0.00563         1.99760        -2.09574
| 19>    C        0.76858         1.38119        -0.92765
| 20>    O        1.21647         1.95940         0.02519
| 21>    C       -0.21899         3.41184        -2.13907
| 22>    C       -1.43075         4.08790        -2.08706
| 23>    N       -2.72383         3.56540        -2.19444
| 24>    O       -3.65320         4.33998        -2.00857
| 25>    O       -2.87116         2.39403        -2.50812
| 26>    C       -1.18483         5.48085        -1.80133
| 27>    C        0.15243         5.68127        -1.76481
| 28>    C        0.82071         4.43319        -2.04752
| 29>    C        2.16174         4.24678        -2.32918
| 30>    C        2.86138         3.00684        -2.40137
| 31>    C        4.20269         3.24461        -2.28859
| 32>    C        4.42575         4.64851        -2.23347
| 33>    N        5.70598         5.20660        -2.18303
| 34>    O        6.65390         4.43766        -2.13956
| 35>    O        5.82658         6.42757        -2.17412
| 36>    C        3.18870         5.31038        -2.38185
| 37>    C        3.05016         6.65706        -2.71369
| 38>    C        2.01225         7.21898        -3.43558
| 39>    C        1.95597         8.57297        -3.76885
| 40>    C        2.96343         9.52763        -3.50756
| 41>    C        2.61690        10.73633        -4.08895
| 42>    O        3.26772        11.90093        -4.07676
| 43>    C        4.49701        11.95420        -3.37888
| 44>    C        1.33710        10.60760        -4.72116
| 45>    C        0.93383         9.22757        -4.58355
| 46>    C       -0.13911         8.63768        -5.22526
| 47>    C       -0.88595         7.48084        -4.88467
| 48>    C       -1.84567         7.29376        -5.85436
| 49>    O       -2.80644         6.40018        -5.97142
| 50>    C       -2.95632         5.42506        -4.95824
| 51>    C       -1.66852         8.31037        -6.89950
| 52>    C       -0.68109         9.12721        -6.51420
| 53>    C        0.62047        11.72488        -5.15811
| 54>    C       -0.73864        11.80160        -5.36149
| 55>    C       -1.41311        12.93910        -5.82330
| 56>    C       -2.79577        13.05456        -5.96951
| 57>    C       -3.11325        14.33897        -6.44865
| 58>    C       -1.82564        15.04434        -6.61241
| 59>    C       -0.82614        14.20163        -6.24313
| 60>    C       -1.63323        16.35064        -7.07537
| 61>    N       -1.43264        17.41651        -7.45488
| 62>    C       -4.36898        14.86929        -6.70423
| 63>    C       -4.68350        16.18200        -7.11417
| 64>    C       -6.06173        16.30982        -7.22551
| 65>    C       -6.65520        15.02439        -6.88690
| 66>    C       -5.65747        14.15715        -6.57398
| 67>    C       -5.83384        12.81791        -6.21358
| 68>    N       -5.99751        11.71718        -5.92599
| 69>    C       -6.78101        17.46868        -7.59129
| 70>    C       -6.30127        18.70147        -7.92617
| 71>    C       -7.40186        19.59427        -8.22445
| 72>    C       -8.57539        18.95055        -8.08499
| 73>    C       -8.29666        17.55447        -7.67459
| 74>    O       -9.09375        16.67865        -7.45423
| 75>    H        1.17685        -0.79922        -0.52851
| 76>    H       -0.26092        -1.24431        -2.72115
| 77>    H       -1.08131         1.05027        -3.72196
| 78>    H       -1.96711         6.19298        -1.61933
| 79>    H        0.65026         6.60039        -1.52763
| 80>    H        2.40756         2.03808        -2.47155
| 81>    H        4.99090         2.51595        -2.25664
| 82>    H        3.90894         7.27247        -2.48510
| 83>    H        1.23461         6.57303        -3.81103
| 84>    H        3.87086         9.32833        -2.97099
| 85>    H        4.85906        12.97449        -3.48768
| 86>    H        5.22349        11.25903        -3.80746
| 87>    H        4.35644        11.72525        -2.31931
| 88>    H       -0.80759         6.93940        -3.96284
| 89>    H       -3.71462         4.72961        -5.31231
| 90>    H       -3.29481         5.88028        -4.02427
| 91>    H       -2.01545         4.89414        -4.78768
| 92>    H       -2.25434         8.33945        -7.79688
| 93>    H       -0.24846         9.93287        -7.07370
| 94>    H        1.20896        12.62875        -5.24983
| 95>    H       -1.35548        10.94616        -5.11962
| 96>    H       -3.50577        12.28381        -5.74274
| 97>    H        0.22338        14.42868        -6.25916
| 98>    H       -3.96625        16.95704        -7.29581
| 99>    H       -7.70903        14.82132        -6.89284
|100>    H       -5.26834        18.99465        -7.97114
|101>    H       -7.26283        20.62120        -8.51343
|102>    H       -9.56745        19.33161        -8.23217
|103> *
|104>
|105>                          ****END OF INPUT****

CARTESIAN COORDINATES (ANGSTROEM)
---------------------------------
  C      0.716890   -0.081800   -1.180200
  C     -0.017580   -0.294870   -2.278980
  C     -0.477960    0.978030   -2.837120
  C     -0.005630    1.997600   -2.095740
  C      0.768580    1.381190   -0.927650
  O      1.216470    1.959400    0.025190
  C     -0.218990    3.411840   -2.139070
  C     -1.430750    4.087900   -2.087060
  N     -2.723830    3.565400   -2.194440
  O     -3.653200    4.339980   -2.008570
  O     -2.871160    2.394030   -2.508120
  C     -1.184830    5.480850   -1.801330
  C      0.152430    5.681270   -1.764810
  C      0.820710    4.433190   -2.047520
  C      2.161740    4.246780   -2.329180
  C      2.861380    3.006840   -2.401370
  C      4.202690    3.244610   -2.288590
  C      4.425750    4.648510   -2.233470
  N      5.705980    5.206600   -2.183030
  O      6.653900    4.437660   -2.139560
  O      5.826580    6.427570   -2.174120
  C      3.188700    5.310380   -2.381850
  C      3.050160    6.657060   -2.713690
  C      2.012250    7.218980   -3.435580
  C      1.955970    8.572970   -3.768850
  C      2.963430    9.527630   -3.507560
  C      2.616900   10.736330   -4.088950
  O      3.267720   11.900930   -4.076760
  C      4.497010   11.954200   -3.378880
  C      1.337100   10.607600   -4.721160
  C      0.933830    9.227570   -4.583550
  C     -0.139110    8.637680   -5.225260
  C     -0.885950    7.480840   -4.884670
  C     -1.845670    7.293760   -5.854360
  O     -2.806440    6.400180   -5.971420
  C     -2.956320    5.425060   -4.958240
  C     -1.668520    8.310370   -6.899500
  C     -0.681090    9.127210   -6.514200
  C      0.620470   11.724880   -5.158110
  C     -0.738640   11.801600   -5.361490
  C     -1.413110   12.939100   -5.823300
  C     -2.795770   13.054560   -5.969510
  C     -3.113250   14.338970   -6.448650
  C     -1.825640   15.044340   -6.612410
  C     -0.826140   14.201630   -6.243130
  C     -1.633230   16.350640   -7.075370
  N     -1.432640   17.416510   -7.454880
  C     -4.368980   14.869290   -6.704230
  C     -4.683500   16.182000   -7.114170
  C     -6.061730   16.309820   -7.225510
  C     -6.655200   15.024390   -6.886900
  C     -5.657470   14.157150   -6.573980
  C     -5.833840   12.817910   -6.213580
  N     -5.997510   11.717180   -5.925990
  C     -6.781010   17.468680   -7.591290
  C     -6.301270   18.701470   -7.926170
  C     -7.401860   19.594270   -8.224450
  C     -8.575390   18.950550   -8.084990
  C     -8.296660   17.554470   -7.674590
  O     -9.093750   16.678650   -7.454230
  H      1.176850   -0.799220   -0.528510
  H     -0.260920   -1.244310   -2.721150
  H     -1.081310    1.050270   -3.721960
  H     -1.967110    6.192980   -1.619330
  H      0.650260    6.600390   -1.527630
  H      2.407560    2.038080   -2.471550
  H      4.990900    2.515950   -2.256640
  H      3.908940    7.272470   -2.485100
  H      1.234610    6.573030   -3.811030
  H      3.870860    9.328330   -2.970990
  H      4.859060   12.974490   -3.487680
  H      5.223490   11.259030   -3.807460
  H      4.356440   11.725250   -2.319310
  H     -0.807590    6.939400   -3.962840
  H     -3.714620    4.729610   -5.312310
  H     -3.294810    5.880280   -4.024270
  H     -2.015450    4.894140   -4.787680
  H     -2.254340    8.339450   -7.796880
  H     -0.248460    9.932870   -7.073700
  H      1.208960   12.628750   -5.249830
  H     -1.355480   10.946160   -5.119620
  H     -3.505770   12.283810   -5.742740
  H      0.223380   14.428680   -6.259160
  H     -3.966250   16.957040   -7.295810
  H     -7.709030   14.821320   -6.892840
  H     -5.268340   18.994650   -7.971140
  H     -7.262830   20.621200   -8.513430
  H     -9.567450   19.331610   -8.232170

 Total Charge           Charge          ....    0
 Multiplicity           Mult            ....    1
 Number of Electrons    NEL             ....  408
 Basis Dimension        Dim             ....  980

ORBITAL ENERGIES
----------------

  NO   OCC          E(Eh)            E(eV)
   0   2.0000     -19.290368      -524.9176
   1   2.0000     -19.276437      -524.5385
   2   2.0000     -19.238234      -523.4990
   3   2.0000     -19.236897      -523.4626
   4   2.0000     -19.236656      -523.4560
   5   2.0000     -19.231764      -523.3229
   6   2.0000     -19.217476      -522.9341
   7   2.0000     -19.217389      -522.9317
   8   2.0000     -14.645238      -398.5172
   9   2.0000     -14.627808      -398.0429
  10   2.0000     -14.409561      -392.1041
  11   2.0000     -14.399603      -391.8331
  12   2.0000     -10.374225      -282.2970
  13   2.0000     -10.372108      -282.2394
  14   2.0000     -10.370451      -282.1943
  15   2.0000     -10.355862      -281.7973
  16   2.0000     -10.342005      -281.4203
  17   2.0000     -10.337236      -281.2905
  18   2.0000     -10.329178      -281.0712
  19   2.0000     -10.324411      -280.9415
  20   2.0000     -10.322206      -280.8815
  21   2.0000     -10.316224      -280.7187
  22   2.0000     -10.315817      -280.7077
  23   2.0000     -10.315657      -280.7033
  24   2.0000     -10.313259      -280.6381
  25   2.0000     -10.313071      -280.6329
  26   2.0000     -10.311826      -280.5990
  27   2.0000     -10.311409      -280.5877
  28   2.0000     -10.310757      -280.5700
  29   2.0000     -10.307361      -280.4775
  30   2.0000     -10.307269      -280.4750
  31   2.0000     -10.306427      -280.4521
  32   2.0000     -10.304071      -280.3880
  33   2.0000     -10.303680      -280.3774
  34   2.0000     -10.303423      -280.3704
  35   2.0000     -10.302423      -280.3432
  36   2.0000     -10.302227      -280.3379
  37   2.0000     -10.301890      -280.3287
  38   2.0000     -10.300544      -280.2920
  39   2.0000     -10.300375      -280.2875
  40   2.0000     -10.299568      -280.2655
  41   2.0000     -10.299060      -280.2517
  42   2.0000     -10.296947      -280.1942
  43   2.0000     -10.296347      -280.1778
  44   2.0000     -10.295443      -280.1532
  45   2.0000     -10.294878      -280.1379
  46   2.0000     -10.294220      -280.1200
  47   2.0000     -10.293952      -280.1127
  48   2.0000     -10.293058      -280.0884
  49   2.0000     -10.292772      -280.0806
  50   2.0000     -10.291735      -280.0524
  51   2.0000     -10.290599      -280.0214
  52   2.0000     -10.284526      -279.8562
  53   2.0000     -10.281987      -279.7871
  54   2.0000     -10.281795      -279.7819
  55   2.0000     -10.279496      -279.7193
  56   2.0000     -10.276513      -279.6381
  57   2.0000     -10.275881      -279.6209
  58   2.0000     -10.272901      -279.5399
  59   2.0000     -10.271470      -279.5009
  60   2.0000      -1.314554       -35.7708
  61   2.0000      -1.295389       -35.2493
  62   2.0000      -1.195393       -32.5283
  63   2.0000      -1.182257       -32.1709
  64   2.0000      -1.148116       -31.2418
  65   2.0000      -1.143729       -31.1225
  66   2.0000      -1.131078       -30.7782
  67   2.0000      -1.111928       -30.2571
  68   2.0000      -1.011026       -27.5114
  69   2.0000      -1.009144       -27.4602
  70   2.0000      -1.004313       -27.3287
  71   2.0000      -0.995452       -27.0876
  72   2.0000      -0.989230       -26.9183
  73   2.0000      -0.982812       -26.7437
  74   2.0000      -0.979224       -26.6460
  75   2.0000      -0.978864       -26.6363
  76   2.0000      -0.967422       -26.3249
  77   2.0000      -0.965660       -26.2770
  78   2.0000      -0.922657       -25.1068
  79   2.0000      -0.903495       -24.5853
  80   2.0000      -0.900339       -24.4995
  81   2.0000      -0.874292       -23.7907
  82   2.0000      -0.873160       -23.7599
  83   2.0000      -0.871269       -23.7084
  84   2.0000      -0.859252       -23.3814
  85   2.0000      -0.857033       -23.3211
  86   2.0000      -0.845951       -23.0195
  87   2.0000      -0.839731       -22.8502
  88   2.0000      -0.830154       -22.5896
  89   2.0000      -0.824412       -22.4334
  90   2.0000      -0.816709       -22.2238
  91   2.0000      -0.807689       -21.9783
  92   2.0000      -0.804972       -21.9044
  93   2.0000      -0.786717       -21.4077
  94   2.0000      -0.780709       -21.2442
  95   2.0000      -0.771985       -21.0068
  96   2.0000      -0.757551       -20.6140
  97   2.0000      -0.756179       -20.5767
  98   2.0000      -0.748543       -20.3689
  99   2.0000      -0.728529       -19.8243
 100   2.0000      -0.721204       -19.6250
 101   2.0000      -0.709148       -19.2969
 102   2.0000      -0.699891       -19.0450
 103   2.0000      -0.691156       -18.8073
 104   2.0000      -0.681281       -18.5386
 105   2.0000      -0.675025       -18.3684
 106   2.0000      -0.668558       -18.1924
 107   2.0000      -0.667951       -18.1759
 108   2.0000      -0.661016       -17.9871
 109   2.0000      -0.654757       -17.8168
 110   2.0000      -0.651507       -17.7284
 111   2.0000      -0.645816       -17.5735
 112   2.0000      -0.645196       -17.5567
 113   2.0000      -0.636972       -17.3329
 114   2.0000      -0.633379       -17.2351
 115   2.0000      -0.628584       -17.1046
 116   2.0000      -0.627916       -17.0865
 117   2.0000      -0.624446       -16.9920
 118   2.0000      -0.616241       -16.7688
 119   2.0000      -0.609608       -16.5883
 120   2.0000      -0.607484       -16.5305
 121   2.0000      -0.607063       -16.5190
 122   2.0000      -0.603343       -16.4178
 123   2.0000      -0.596566       -16.2334
 124   2.0000      -0.590392       -16.0654
 125   2.0000      -0.585776       -15.9398
 126   2.0000      -0.582970       -15.8634
 127   2.0000      -0.580087       -15.7850
 128   2.0000      -0.577933       -15.7264
 129   2.0000      -0.567785       -15.4502
 130   2.0000      -0.564665       -15.3653
 131   2.0000      -0.561624       -15.2826
 132   2.0000      -0.560841       -15.2613
 133   2.0000      -0.556257       -15.1365
 134   2.0000      -0.549619       -14.9559
 135   2.0000      -0.544156       -14.8072
 136   2.0000      -0.539941       -14.6925
 137   2.0000      -0.535711       -14.5774
 138   2.0000      -0.529803       -14.4167
 139   2.0000      -0.528011       -14.3679
 140   2.0000      -0.526158       -14.3175
 141   2.0000      -0.524083       -14.2610
 142   2.0000      -0.521598       -14.1934
 143   2.0000      -0.517763       -14.0890
 144   2.0000      -0.516812       -14.0632
 145   2.0000      -0.513308       -13.9678
 146   2.0000      -0.512240       -13.9388
 147   2.0000      -0.510556       -13.8929
 148   2.0000      -0.507376       -13.8064
 149   2.0000      -0.505486       -13.7550
 150   2.0000      -0.502266       -13.6674
 151   2.0000      -0.500695       -13.6246
 152   2.0000      -0.497015       -13.5245
 153   2.0000      -0.494169       -13.4470
 154   2.0000      -0.490642       -13.3510
 155   2.0000      -0.485726       -13.2173
 156   2.0000      -0.484906       -13.1950
 157   2.0000      -0.483884       -13.1671
 158   2.0000      -0.482838       -13.1387
 159   2.0000      -0.481517       -13.1027
 160   2.0000      -0.479721       -13.0539
 161   2.0000      -0.478388       -13.0176
 162   2.0000      -0.476837       -12.9754
 163   2.0000      -0.473754       -12.8915
 164   2.0000      -0.471701       -12.8356
 165   2.0000      -0.466036       -12.6815
 166   2.0000      -0.463231       -12.6052
 167   2.0000      -0.458867       -12.4864
 168   2.0000      -0.453594       -12.3429
 169   2.0000      -0.447225       -12.1696
 170   2.0000      -0.440726       -11.9928
 171   2.0000      -0.439543       -11.9606
 172   2.0000      -0.436726       -11.8839
 173   2.0000      -0.433396       -11.7933
 174   2.0000      -0.431584       -11.7440
 175   2.0000      -0.431438       -11.7400
 176   2.0000      -0.431004       -11.7282
 177   2.0000      -0.425817       -11.5871
 178   2.0000      -0.414022       -11.2661
 179   2.0000      -0.413471       -11.2511
 180   2.0000      -0.412661       -11.2291
 181   2.0000      -0.410909       -11.1814
 182   2.0000      -0.400517       -10.8986
 183   2.0000      -0.391531       -10.6541
 184   2.0000      -0.385459       -10.4889
 185   2.0000      -0.377340       -10.2679
 186   2.0000      -0.372776       -10.1437
 187   2.0000      -0.366657        -9.9772
 188   2.0000      -0.362999        -9.8777
 189   2.0000      -0.359435        -9.7807
 190   2.0000      -0.349882        -9.5208
 191   2.0000      -0.346897        -9.4396
 192   2.0000      -0.345449        -9.4002
 193   2.0000      -0.344601        -9.3771
 194   2.0000      -0.333314        -9.0699
 195   2.0000      -0.327435        -8.9100
 196   2.0000      -0.326534        -8.8854
 197   2.0000      -0.320471        -8.7205
 198   2.0000      -0.316661        -8.6168
 199   2.0000      -0.291956        -7.9445
 200   2.0000      -0.289438        -7.8760
 201   2.0000      -0.284124        -7.7314
 202   2.0000      -0.269097        -7.3225
 203   2.0000      -0.227463        -6.1896
 204   0.0000      -0.141743        -3.8570
 205   0.0000      -0.112447        -3.0598
 206   0.0000      -0.102166        -2.7801
 207   0.0000      -0.074310        -2.0221
 208   0.0000      -0.072997        -1.9863

MULLIKEN ATOMIC CHARGES
-----------------------
   0 C :   -0.017222
   1 C :    0.048415
   2 C :    0.065766
   3 C :   -0.142599
   4 C :    0.102643
   5 O :   -0.103972
   6 C :    0.073300
   7 C :    0.041088
   8 N :    0.269976
   9 O :   -0.260176
  10 O :   -0.252183
  11 C :    0.003332
  12 C :   -0.032779
  13 C :    0.042728
  14 C :    0.054263
  15 C :   -0.006803
  16 C :    0.024776
  17 C :    0.069101
  18 N :    0.278700
  19 O :   -0.266714
  20 O :   -0.281712
  21 C :    0.032074
  22 C :   -0.053478
  23 C :   -0.022931
  24 C :    0.082260
  25 C :   -0.138584
  26 C :    0.215358
  27 O :   -0.285442
  28 C :    0.173028
  29 C :    0.004054
  30 C :    0.099436
  31 C :   -0.014311
  32 C :   -0.144470
  33 C :    0.214857
  34 O :   -0.239119
  35 C :    0.149488
  36 C :    0.017729
  37 C :    0.014233
  38 C :   -0.023960
  39 C :   -0.026936
  40 C :    0.114356
  41 C :   -0.121447
  42 C :    0.129608
  43 C :   -0.100796
  44 C :   -0.016347
  45 C :   -0.168604
  46 N :    0.128218
  47 C :    0.124181
  48 C :   -0.142019
  49 C :    0.111884
  50 C :   -0.024016
  51 C :   -0.088200
  52 C :   -0.176650
  53 N :    0.123350
  54 C :   -0.022415
  55 C :   -0.027319
  56 C :    0.072714
  57 C :   -0.029603
  58 C :    0.138766
  59 O :   -0.118400
  60 H :    0.002430
  61 H :    0.008093
  62 H :   -0.002261
  63 H :   -0.000111
  64 H :    0.010544
  65 H :   -0.012369
  66 H :    0.006373
  67 H :    0.016805
  68 H :    0.013797
  69 H :   -0.000900
  70 H :    0.047988
  71 H :    0.038917
  72 H :    0.035211
  73 H :   -0.041033
  74 H :    0.056859
  75 H :    0.056275
  76 H :    0.043161
  77 H :    0.001755
  78 H :    0.015028
  79 H :   -0.002351
  80 H :    0.020490
  81 H :   -0.002820
  82 H :   -0.000906
  83 H :   -0.010422
  84 H :    0.012142
  85 H :    0.010666
  86 H :    0.008218
  87 H :   -0.002053
Sum of atomic charges:   -0.0000000

LOEWDIN ATOMIC CHARGES
----------------------
   0 C :   -0.055131
   1 C :    0.022617
   2 C :    0.035397
   3 C :   -0.082838
   4 C :    0.086866
   5 O :   -0.087964
   6 C :    0.011770
   7 C :   -0.052445
   8 N :    0.285371
   9 O :   -0.224311
  10 O :   -0.214322
  11 C :   -0.027800
  12 C :   -0.034841
  13 C :    0.009132
  14 C :    0.055757
  15 C :   -0.061245
  16 C :    0.045163
  17 C :   -0.084512
  18 N :    0.286694
  19 O :   -0.231608
  20 O :   -0.247186
  21 C :    0.025190
  22 C :   -0.016825
  23 C :    0.023917
  24 C :   -0.022230
  25 C :   -0.038108
  26 C :    0.056079
  27 O :   -0.078642
  28 C :    0.085454
  29 C :   -0.047310
  30 C :   -0.005645
  31 C :    0.063892
  32 C :   -0.153292
  33 C :    0.102293
  34 O :   -0.034253
  35 C :    0.081767
  36 C :   -0.019650
  37 C :    0.001552
  38 C :    0.002102
  39 C :   -0.011573
  40 C :   -0.014857
  41 C :   -0.035265
  42 C :    0.030592
  43 C :   -0.073681
  44 C :    0.046514
  45 C :   -0.028449
  46 N :   -0.068646
  47 C :    0.030994
  48 C :   -0.029352
  49 C :   -0.012091
  50 C :    0.052644
  51 C :   -0.088466
  52 C :   -0.027540
  53 N :   -0.074697
  54 C :   -0.060106
  55 C :    0.020797
  56 C :    0.023653
  57 C :   -0.054696
  58 C :    0.099382
  59 O :   -0.090723
  60 H :    0.033545
  61 H :    0.033269
  62 H :    0.030407
  63 H :    0.032205
  64 H :    0.031965
  65 H :    0.028132
  66 H :    0.039310
  67 H :    0.033335
  68 H :    0.035494
  69 H :    0.033271
  70 H :    0.033479
  71 H :    0.023338
  72 H :    0.022289
  73 H :    0.023006
  74 H :    0.037989
  75 H :    0.027499
  76 H :    0.021849
  77 H :    0.036732
  78 H :    0.034916
  79 H :    0.035245
  80 H :    0.040256
  81 H :    0.034098
  82 H :    0.034719
  83 H :    0.029865
  84 H :    0.037512
  85 H :    0.034375
  86 H :    0.034080
  87 H :    0.032533

  Mayer bond orders larger than 0.100000
B(  0-C ,  1-C ) :   1.7283 B(  0-C ,  4-C ) :   0.9701 B(  0-C , 60-H ) :   1.0123
B(  1-C ,  2-C ) :   1.0017 B(  1-C , 61-H ) :   1.0007 B(  2-C ,  3-C ) :   1.7574
B(  2-C , 62-H ) :   1.0061 B(  3-C ,  4-C ) :   0.9081 B(  3-C ,  6-C ) :   0.9948
B(  4-C ,  5-O ) :   2.2345 B(  6-C ,  7-C ) :   1.5669 B(  6-C , 13-C ) :   1.1041
B(  7-C ,  8-N ) :   0.9537 B(  7-C , 11-C ) :   1.1380 B(  8-N ,  9-O ) :   1.4986
B(  8-N , 10-O ) :   1.5089 B(  9-O , 10-O ) :   0.2520 B( 11-C , 12-C ) :   1.5625
B( 11-C , 63-H ) :   1.0084 B( 12-C , 13-C ) :   1.1007 B( 12-C , 64-H ) :   0.9936
B( 13-C , 14-C ) :   1.4803 B( 14-C , 15-C ) :   1.1796 B( 14-C , 21-C ) :   0.9853
B( 15-C , 16-C ) :   1.5038 B( 15-C , 65-H ) :   0.9867 B( 16-C , 17-C ) :   1.1753
B( 16-C , 66-H ) :   1.0107 B( 17-C , 18-N ) :   0.9909 B( 17-C , 21-C ) :   1.3871
B( 18-N , 19-O ) :   1.5215 B( 18-N , 20-O ) :   1.4673 B( 19-O , 20-O ) :   0.2361
B( 21-C , 22-C ) :   1.3138 B( 22-C , 23-C ) :   1.4001 B( 22-C , 67-H ) :   0.9444
B( 23-C , 24-C ) :   1.2717 B( 23-C , 68-H ) :   0.9600 B( 24-C , 25-C ) :   1.2919
B( 24-C , 30-C ) :   1.1072 B( 25-C , 26-C ) :   1.2636 B( 25-C , 69-H ) :   1.0159
B( 26-C , 27-O ) :   1.2103 B( 26-C , 29-C ) :   1.2782 B( 27-O , 28-C ) :   0.9386
B( 28-C , 70-H ) :   0.9801 B( 28-C , 71-H ) :   0.9714 B( 28-C , 72-H ) :   0.9710
B( 29-C , 30-C ) :   1.1014 B( 29-C , 38-C ) :   1.2511 B( 30-C , 31-C ) :   1.4329
B( 31-C , 32-C ) :   1.1810 B( 31-C , 37-C ) :   1.0326 B( 32-C , 33-C ) :   1.4343
B( 32-C , 73-H ) :   1.0005 B( 33-C , 34-O ) :   1.2794 B( 33-C , 36-C ) :   1.0520
B( 34-O , 35-C ) :   0.9136 B( 35-C , 74-H ) :   0.9768 B( 35-C , 75-H ) :   0.9698
B( 35-C , 76-H ) :   0.9637 B( 36-C , 37-C ) :   1.7088 B( 36-C , 77-H ) :   1.0158
B( 37-C , 78-H ) :   0.9979 B( 38-C , 39-C ) :   1.4655 B( 38-C , 79-H ) :   0.9603
B( 39-C , 40-C ) :   1.2052 B( 39-C , 80-H ) :   0.9612 B( 40-C , 41-C ) :   1.4281
B( 40-C , 44-C ) :   1.0421 B( 41-C , 42-C ) :   1.1765 B( 41-C , 81-H ) :   1.0102
B( 42-C , 43-C ) :   1.1004 B( 42-C , 47-C ) :   1.3332 B( 43-C , 44-C ) :   1.6839
B( 43-C , 45-C ) :   1.0882 B( 44-C , 82-H ) :   1.0160 B( 45-C , 46-N ) :   2.9666
B( 47-C , 48-C ) :   1.1607 B( 47-C , 51-C ) :   1.1109 B( 48-C , 49-C ) :   1.5070
B( 48-C , 83-H ) :   1.0020 B( 49-C , 50-C ) :   1.0684 B( 49-C , 54-C ) :   1.0888
B( 50-C , 51-C ) :   1.6218 B( 50-C , 84-H ) :   1.0234 B( 51-C , 52-C ) :   1.0918
B( 52-C , 53-N ) :   2.9602 B( 54-C , 55-C ) :   1.6718 B( 54-C , 58-C ) :   0.8923
B( 55-C , 56-C ) :   1.0204 B( 55-C , 85-H ) :   1.0051 B( 56-C , 57-C ) :   1.7051
B( 56-C , 86-H ) :   1.0006 B( 57-C , 58-C ) :   0.9889 B( 57-C , 87-H ) :   1.0154
B( 58-C , 59-O ) :   2.1833

-----------------------------------------------------------------------------
         ABSORPTION SPECTRUM VIA TRANSITION ELECTRIC DIPOLE MOMENTS
-----------------------------------------------------------------------------
State   Energy  Wavelength   fosc         T2         TX        TY        TZ
        (cm-1)    (nm)                  (au**2)     (au)      (au)      (au)
-----------------------------------------------------------------------------
   0    4661.1   2145.4   0.339411871  23.97237   2.28243  -3.94654   1.78541
   1    9992.3   1000.8   0.046959614   1.54716  -0.91104  -0.77892   0.33232
   2   11062.5    904.0   0.327650471   9.75064   2.54717  -1.73041   0.51790
   3   13372.0    747.8   0.049350544   1.21499   0.65529  -0.88150   0.09245
   4   14988.1    667.2   0.002055823   0.04516  -0.04501   0.06718   0.19651
   5   15855.5    630.7   0.104861382   2.17727   1.01234   0.98068   0.43671
   6   16693.4    599.0   0.042847929   0.84501  -0.78152   0.46237  -0.14301
   7   18849.4    530.5   0.034860092   0.60885  -0.63315   0.36052  -0.27926
   8   19922.7    501.9   0.017446895   0.28830   0.18501  -0.45116   0.22477
   9   20130.9    496.7   0.315563319   5.16058  -0.88642   1.95629  -0.74012
  10   20878.2    479.0   0.025424486   0.40090  -0.14691  -0.58033  -0.20624
  11   21416.3    466.9   0.018307204   0.28142   0.48683  -0.20747   0.03699
  12   22209.2    450.3   0.008844126   0.13110   0.00898   0.34740   0.10165
  13   22917.5    436.3   0.034109338   0.48998  -0.07322  -0.64561   0.26041
  14   22941.3    435.9   0.341302819   4.89775   1.35840  -1.66223   0.53806
  15   23109.5    432.7   0.029606657   0.42177   0.44425   0.34858   0.32077
  16   23476.0    426.0   0.146108609   2.04893   1.25376  -0.50933   0.46648
  17   24108.0    414.8   0.000982799   0.01342   0.08903   0.06532   0.03505
  18   24174.3    413.7   0.123758828   1.68538   0.94078   0.81589   0.36693
  19   24306.4    411.4   0.027093504   0.36696  -0.55861   0.21206   0.09970
  20   24733.0    404.3   0.020568019   0.27377  -0.08801   0.51044  -0.07400
  21   25299.9    395.3   0.007792206   0.10140   0.26652  -0.00271   0.17422
  22   25613.8    390.4   0.036140598   0.46451  -0.56962  -0.03264  -0.37280
  23   25869.3    386.6   0.086455112   1.10023   1.01678  -0.22294   0.12919
  24   26148.8    382.4   0.007918011   0.09969  -0.29500  -0.11230   0.00696
  25   27612.5    362.2   0.077765291   0.92716  -0.92563  -0.26332   0.03202
  26   27821.6    359.4   0.182858625   2.16376   1.23767  -0.75126   0.25992
  27   28143.1    355.3   0.002986248   0.03493   0.13580  -0.12840   0.00219
  28   28473.1    351.2   0.032478144   0.37552   0.53716  -0.28913   0.05811
  29   28795.5    347.3   0.006697440   0.07657   0.21323   0.17604   0.01070
  30   29228.7    342.1   0.082570048   0.93001  -0.27816   0.86295  -0.32855
  31   29506.7    338.9   0.082084851   0.91584  -0.89782   0.32281   0.07447
  32   29783.8    335.8   0.089122650   0.98511   0.94056   0.31615  -0.02243
  33   30006.7    333.3   0.010870779   0.11927  -0.31988  -0.12165   0.04630
  34   30389.2    329.1   0.088012518   0.95346  -0.52536  -0.81717  -0.09844
  35   30746.8    325.2   0.002734853   0.02928   0.09699  -0.11886  -0.07582
  36   31154.1    321.0   0.026852740   0.28376  -0.47997  -0.22858  -0.03371
  37   31428.9    318.2   0.067530438   0.70737  -0.67917   0.19523  -0.45605
  38   31556.6    316.9   0.000058041   0.00061  -0.00674   0.00919  -0.02181
  39   31608.1    316.4   0.110567333   1.15161  -1.06430  -0.10215  -0.09192
  40   31939.6    313.1   0.033799757   0.34839  -0.52058  -0.22102  -0.16892
  41   32103.5    311.5   0.038019790   0.38988  -0.41618   0.01737  -0.46516
  42   32847.4    304.4   0.066606479   0.66756  -0.80715  -0.10048  -0.07730
  43   32967.3    303.3   0.080359934   0.80248  -0.85050   0.21371  -0.18291
  44   33099.5    302.1   0.164287412   1.63402  -1.15250   0.16640  -0.52733
  45   33438.9    299.1   0.044825923   0.44132   0.58816  -0.08487  -0.29696
  46   33980.3    294.3   0.014697471   0.14239  -0.03190   0.35984   0.10904
  47   34178.1    292.6   0.006964907   0.06709   0.17619   0.13843  -0.12994
  48   34462.2    290.2   0.001330727   0.01271  -0.08980   0.05097  -0.04529
  49   34592.7    289.1   0.003669534   0.03492   0.15985  -0.09623   0.01047
  50   34954.8    286.1   0.028731597   0.27060  -0.46756   0.20424   0.10134
  51   35381.4    282.6   0.366398672   3.40922   1.82309  -0.26898   0.11496
  52   35521.4    281.5   0.052782852   0.48919   0.60740   0.34590   0.02474
  53   35742.2    279.8   0.038265626   0.35245  -0.39192  -0.44391   0.04249
  54   36112.4    276.9   0.061406654   0.55980  -0.65599   0.25531  -0.25357
  55   36311.8    275.4   0.001455252   0.01319  -0.07087  -0.00589   0.09020
  56   36338.8    275.2   0.011418395   0.10345   0.28384  -0.06189  -0.13801
  57   36505.4    273.9   0.043714421   0.39422   0.60132   0.11108   0.14249
  58   36642.1    272.9   0.016253613   0.14603  -0.32326  -0.19409  -0.06217
  59   37078.7    269.7   0.000502840   0.00446   0.02834   0.02786   0.05372
  60   37132.2    269.3   0.004214427   0.03736  -0.03561   0.18134  -0.05667
  61   37513.5    266.6   0.016031112   0.14069  -0.28059  -0.24560   0.04040
  62   37582.9    266.1   0.015888780   0.13918   0.35914   0.10007   0.01350
  63   37717.7    265.1   0.065355508   0.57044  -0.73778  -0.14647   0.06829
  64   37976.0    263.3   0.159256332   1.38058  -1.14192  -0.22571  -0.16021
  65   38040.0    262.9   0.028707899   0.24845  -0.10577   0.47471   0.10915
  66   38144.3    262.2   0.047700353   0.41169  -0.59456  -0.22983   0.07329
  67   38231.7    261.6   0.016811995   0.14477   0.32175   0.20294  -0.00768
  68   38583.1    259.2   0.077782316   0.66368  -0.77701   0.20581  -0.13257
  69   39003.4    256.4   0.036043507   0.30423   0.37408   0.32311   0.24473
  70   39517.3    253.1   0.012006662   0.10003   0.30420   0.07811   0.03722
  71   39723.4    251.7   0.004179319   0.03464   0.06741  -0.15998   0.06707
  72   39908.2    250.6   0.002366518   0.01952   0.10879  -0.08761  -0.00332
  73   40124.3    249.2   0.001857855   0.01524   0.12137  -0.01554   0.01647
  74   40179.6    248.9   0.009443258   0.07737  -0.23638   0.01799   0.14552

FINAL SINGLE POINT ENERGY     -2662.873664961849

DIPOLE MOMENT
-------------
                                X             Y             Z
Electronic contribution:     -6.38708      -0.94772       2.15228
Nuclear contribution   :      6.77514       1.91250      -3.62200
                        -----------------------------------------
Total Dipole Moment    :      0.38806       0.96478      -1.46972
                        -----------------------------------------
Magnitude (a.u.)       :      1.80041
Magnitude (Debye)      :      4.57627

Rotational constants in cm-1:     0.002522     0.000507     0.000434
Rotational constants in MHz :    75.600266    15.200299    13.003905

                             ****ORCA TERMINATED NORMALLY****
TOTAL RUN TIME: 0 days 0 hours 8 minutes 40 seconds 989 msec
