                         Program Version 4.2.0 -  RELEASE  -
|  1> # ORCA input file
|  2> # SCF done       -140.119936110604          0.000875639852
|  3> ! CAM-B3LYP def2-SVP def2/J RIJCOSX Grid4 TightSCF
|  4> %maxcore 5000
|  5> %tddft
|  6>     Mode sTDDFT
|  7>     Ethresh 5.0
|  8>     maxcore 5000
|  9> end
| 10>
| 11> %pal
| 12>   nprocs 6
| 13>   end
| 14> * xyz 0 1
| 15>    C       -0.98095        -2.07573         0.19282
| 16>    S       -1.37313        -0.54025        -0.42996
| 17>    C       -1.45440         0.13599         1.17053
| 18>    C       -1.18121        -0.81040         2.14154
| 19>    C       -0.91170        -2.08241         1.56029
| 20>    N       -0.60309        -3.25449         2.31747
| 21>    O       -0.41334        -4.27516         1.69090
| 22>    O       -0.55325        -3.14632         3.52142
| 23>    C       -1.18628        -0.53826         3.52350
| 24>    N       -1.21438        -0.25920         4.63470
| 25>    C       -1.79493         1.51098         1.30773
| 26>    S       -1.86641         2.39462         2.81868
| 27>    C       -2.36051         3.76496         1.82662
| 28>    N       -2.41802         3.47048         0.55486
| 29>    N       -2.10677         2.24249         0.27150
| 30>    C       -2.69307         5.02380         2.39325
| 31>    C       -3.17592         6.03926         1.63479
| 32>    C       -3.58903         7.27859         2.18559
| 33>    N       -4.17232         8.28513         1.44978
| 34>    C       -4.45960         8.26230         0.03544
| 35>    C       -5.71432         7.45140        -0.27810
| 36>    C       -4.54730         9.37347         2.25202
| 37>    O       -5.09437        10.37169         1.82226
| 38>    C       -4.12835         8.99841         3.58404
| 39>    C       -3.53877         7.71214         3.50842
| 40>    C       -3.11846         7.33678         4.84177
| 41>    O       -2.57876         6.33900         5.27382
| 42>    N       -3.49101         8.42962         5.64390
| 43>    C       -3.18576         8.46159         7.05421
| 44>    C       -1.98299         9.35269         7.35341
| 45>    C       -4.10127         9.42079         4.91275
| 46>    C       -4.64136        10.60216         5.47920
| 47>    C       -5.27929        11.54006         4.73501
| 48>    C       -5.89624        12.69904         5.26995
| 49>    S       -5.88129        13.09424         6.96250
| 50>    C       -6.84195        14.50148         6.69818
| 51>    C       -7.29378        15.29810         7.81587
| 52>    O       -8.06538        16.22464         7.73344
| 53>    C       -7.14117        14.66401         5.34658
| 54>    C       -6.61486        13.63896         4.55351
| 55>    C       -7.93198        15.75831         4.81534
| 56>    S       -9.30142        15.42121         3.81598
| 57>    C       -9.67174        17.08610         3.66100
| 58>    C       -8.79107        17.88051         4.33968
| 59>    C       -7.78405        17.11360         4.99805
| 60>    N       -6.71678        17.72171         5.72514
| 61>    O       -5.75379        17.02973         5.98975
| 62>    O       -6.83154        18.89199         6.00138
| 63>    C       -8.87913        19.29003         4.34016
| 64>    N       -9.00958        20.42540         4.27646
| 65>    H       -0.81351        -2.91996        -0.44794
| 66>    H       -2.57421         5.13344         3.46205
| 67>    H       -3.27529         5.88322         0.57064
| 68>    H       -3.59564         7.86703        -0.50491
| 69>    H       -4.61418         9.30441        -0.25802
| 70>    H       -5.59923         6.41654         0.03583
| 71>    H       -5.90661         7.47301        -1.34698
| 72>    H       -6.57088         7.87812         0.23801
| 73>    H       -2.95813         7.42986         7.33614
| 74>    H       -4.06536         8.79333         7.61303
| 75>    H       -1.10739         8.98508         6.82411
| 76>    H       -1.77377         9.34070         8.41924
| 77>    H       -2.16875        10.37893         7.04436
| 78>    H       -4.56339        10.73811         6.54938
| 79>    H       -5.35654        11.41461         3.66204
| 80>    H       -6.88506        14.96798         8.78746
| 81>    H       -6.73922        13.58331         3.48666
| 82>    H      -10.51637        17.40145         3.08072
| 83> *
| 84>
| 85>                          ****END OF INPUT****

CARTESIAN COORDINATES (ANGSTROEM)
---------------------------------
  C     -0.980950   -2.075730    0.192820
  S     -1.373130   -0.540250   -0.429960
  C     -1.454400    0.135990    1.170530
  C     -1.181210   -0.810400    2.141540
  C     -0.911700   -2.082410    1.560290
  N     -0.603090   -3.254490    2.317470
  O     -0.413340   -4.275160    1.690900
  O     -0.553250   -3.146320    3.521420
  C     -1.186280   -0.538260    3.523500
  N     -1.214380   -0.259200    4.634700
  C     -1.794930    1.510980    1.307730
  S     -1.866410    2.394620    2.818680
  C     -2.360510    3.764960    1.826620
  N     -2.418020    3.470480    0.554860
  N     -2.106770    2.242490    0.271500
  C     -2.693070    5.023800    2.393250
  C     -3.175920    6.039260    1.634790
  C     -3.589030    7.278590    2.185590
  N     -4.172320    8.285130    1.449780
  C     -4.459600    8.262300    0.035440
  C     -5.714320    7.451400   -0.278100
  C     -4.547300    9.373470    2.252020
  O     -5.094370   10.371690    1.822260
  C     -4.128350    8.998410    3.584040
  C     -3.538770    7.712140    3.508420
  C     -3.118460    7.336780    4.841770
  O     -2.578760    6.339000    5.273820
  N     -3.491010    8.429620    5.643900
  C     -3.185760    8.461590    7.054210
  C     -1.982990    9.352690    7.353410
  C     -4.101270    9.420790    4.912750
  C     -4.641360   10.602160    5.479200
  C     -5.279290   11.540060    4.735010
  C     -5.896240   12.699040    5.269950
  S     -5.881290   13.094240    6.962500
  C     -6.841950   14.501480    6.698180
  C     -7.293780   15.298100    7.815870
  O     -8.065380   16.224640    7.733440
  C     -7.141170   14.664010    5.346580
  C     -6.614860   13.638960    4.553510
  C     -7.931980   15.758310    4.815340
  S     -9.301420   15.421210    3.815980
  C     -9.671740   17.086100    3.661000
  C     -8.791070   17.880510    4.339680
  C     -7.784050   17.113600    4.998050
  N     -6.716780   17.721710    5.725140
  O     -5.753790   17.029730    5.989750
  O     -6.831540   18.891990    6.001380
  C     -8.879130   19.290030    4.340160
  N     -9.009580   20.425400    4.276460
  H     -0.813510   -2.919960   -0.447940
  H     -2.574210    5.133440    3.462050
  H     -3.275290    5.883220    0.570640
  H     -3.595640    7.867030   -0.504910
  H     -4.614180    9.304410   -0.258020
  H     -5.599230    6.416540    0.035830
  H     -5.906610    7.473010   -1.346980
  H     -6.570880    7.878120    0.238010
  H     -2.958130    7.429860    7.336140
  H     -4.065360    8.793330    7.613030
  H     -1.107390    8.985080    6.824110
  H     -1.773770    9.340700    8.419240
  H     -2.168750   10.378930    7.044360
  H     -4.563390   10.738110    6.549380
  H     -5.356540   11.414610    3.662040
  H     -6.885060   14.967980    8.787460
  H     -6.739220   13.583310    3.486660
  H    -10.516370   17.401450    3.080720

 Total Charge           Charge          ....    0
 Multiplicity           Mult            ....    1
 Number of Electrons    NEL             ....  380
 Basis Dimension        Dim             ....  806

ORBITAL ENERGIES
----------------

  NO   OCC          E(Eh)            E(eV)
   0   2.0000     -89.010027     -2422.0860
   1   2.0000     -89.002349     -2421.8770
   2   2.0000     -88.993294     -2421.6307
   3   2.0000     -88.990361     -2421.5508
   4   2.0000     -19.257250      -524.0164
   5   2.0000     -19.254193      -523.9332
   6   2.0000     -19.250531      -523.8336
   7   2.0000     -19.245244      -523.6897
   8   2.0000     -19.225831      -523.1614
   9   2.0000     -19.205952      -522.6205
  10   2.0000     -19.202330      -522.5220
  11   2.0000     -14.665977      -399.0815
  12   2.0000     -14.657604      -398.8537
  13   2.0000     -14.466654      -393.6577
  14   2.0000     -14.464592      -393.6016
  15   2.0000     -14.461615      -393.5205
  16   2.0000     -14.453956      -393.3121
  17   2.0000     -14.422958      -392.4687
  18   2.0000     -14.405361      -391.9898
  19   2.0000     -10.387781      -282.6659
  20   2.0000     -10.385037      -282.5912
  21   2.0000     -10.375792      -282.3396
  22   2.0000     -10.367943      -282.1261
  23   2.0000     -10.361233      -281.9435
  24   2.0000     -10.358970      -281.8819
  25   2.0000     -10.357180      -281.8332
  26   2.0000     -10.353938      -281.7450
  27   2.0000     -10.352945      -281.7180
  28   2.0000     -10.351194      -281.6703
  29   2.0000     -10.349238      -281.6171
  30   2.0000     -10.349196      -281.6159
  31   2.0000     -10.348188      -281.5885
  32   2.0000     -10.339090      -281.3410
  33   2.0000     -10.337736      -281.3041
  34   2.0000     -10.335643      -281.2471
  35   2.0000     -10.325933      -280.9829
  36   2.0000     -10.325185      -280.9626
  37   2.0000     -10.324767      -280.9512
  38   2.0000     -10.319644      -280.8118
  39   2.0000     -10.316922      -280.7377
  40   2.0000     -10.312235      -280.6102
  41   2.0000     -10.308649      -280.5126
  42   2.0000     -10.308499      -280.5085
  43   2.0000     -10.308399      -280.5058
  44   2.0000     -10.307989      -280.4946
  45   2.0000     -10.306698      -280.4595
  46   2.0000     -10.275164      -279.6014
  47   2.0000     -10.273957      -279.5686
  48   2.0000     -10.273381      -279.5529
  49   2.0000     -10.271086      -279.4905
  50   2.0000      -8.105012      -220.5486
  51   2.0000      -8.098044      -220.3590
  52   2.0000      -8.088723      -220.1053
  53   2.0000      -8.085905      -220.0287
  54   2.0000      -6.074298      -165.2900
  55   2.0000      -6.069764      -165.1667
  56   2.0000      -6.067438      -165.1034
  57   2.0000      -6.067215      -165.0973
  58   2.0000      -6.062770      -164.9763
  59   2.0000      -6.060596      -164.9172
  60   2.0000      -6.057540      -164.8340
  61   2.0000      -6.054818      -164.7600
  62   2.0000      -6.053863      -164.7340
  63   2.0000      -6.051059      -164.6577
  64   2.0000      -6.050946      -164.6546
  65   2.0000      -6.048498      -164.5880
  66   2.0000      -1.339227       -36.4422
  67   2.0000      -1.331307       -36.2267
  68   2.0000      -1.162916       -31.6445
  69   2.0000      -1.158690       -31.5296
  70   2.0000      -1.150684       -31.3117
  71   2.0000      -1.146846       -31.2073
  72   2.0000      -1.139445       -31.0059
  73   2.0000      -1.139215       -30.9996
  74   2.0000      -1.076884       -29.3035
  75   2.0000      -1.068008       -29.0620
  76   2.0000      -1.047230       -28.4966
  77   2.0000      -1.038515       -28.2594
  78   2.0000      -1.015333       -27.6286
  79   2.0000      -1.003662       -27.3110
  80   2.0000      -0.987076       -26.8597
  81   2.0000      -0.964469       -26.2445
  82   2.0000      -0.944750       -25.7079
  83   2.0000      -0.940523       -25.5929
  84   2.0000      -0.930558       -25.3218
  85   2.0000      -0.920635       -25.0517
  86   2.0000      -0.918305       -24.9884
  87   2.0000      -0.902819       -24.5670
  88   2.0000      -0.898443       -24.4479
  89   2.0000      -0.886325       -24.1181
  90   2.0000      -0.880927       -23.9712
  91   2.0000      -0.870587       -23.6899
  92   2.0000      -0.851741       -23.1771
  93   2.0000      -0.830862       -22.6089
  94   2.0000      -0.822911       -22.3925
  95   2.0000      -0.805282       -21.9128
  96   2.0000      -0.793579       -21.5944
  97   2.0000      -0.786080       -21.3903
  98   2.0000      -0.771033       -20.9809
  99   2.0000      -0.754238       -20.5239
 100   2.0000      -0.752192       -20.4682
 101   2.0000      -0.735153       -20.0045
 102   2.0000      -0.723959       -19.6999
 103   2.0000      -0.722604       -19.6630
 104   2.0000      -0.721044       -19.6206
 105   2.0000      -0.715275       -19.4636
 106   2.0000      -0.704313       -19.1653
 107   2.0000      -0.691498       -18.8166
 108   2.0000      -0.686827       -18.6895
 109   2.0000      -0.662107       -18.0169
 110   2.0000      -0.653438       -17.7810
 111   2.0000      -0.648957       -17.6590
 112   2.0000      -0.648058       -17.6346
 113   2.0000      -0.644792       -17.5457
 114   2.0000      -0.643538       -17.5115
 115   2.0000      -0.631043       -17.1716
 116   2.0000      -0.623126       -16.9561
 117   2.0000      -0.618239       -16.8231
 118   2.0000      -0.606449       -16.5023
 119   2.0000      -0.605390       -16.4735
 120   2.0000      -0.602975       -16.4078
 121   2.0000      -0.597737       -16.2653
 122   2.0000      -0.596653       -16.2357
 123   2.0000      -0.585243       -15.9253
 124   2.0000      -0.584230       -15.8977
 125   2.0000      -0.577665       -15.7191
 126   2.0000      -0.573023       -15.5928
 127   2.0000      -0.566263       -15.4088
 128   2.0000      -0.563415       -15.3313
 129   2.0000      -0.556562       -15.1448
 130   2.0000      -0.551289       -15.0013
 131   2.0000      -0.545276       -14.8377
 132   2.0000      -0.542529       -14.7630
 133   2.0000      -0.541223       -14.7274
 134   2.0000      -0.539620       -14.6838
 135   2.0000      -0.537779       -14.6337
 136   2.0000      -0.527854       -14.3636
 137   2.0000      -0.525482       -14.2991
 138   2.0000      -0.524604       -14.2752
 139   2.0000      -0.523734       -14.2515
 140   2.0000      -0.519740       -14.1428
 141   2.0000      -0.514710       -14.0060
 142   2.0000      -0.509439       -13.8625
 143   2.0000      -0.503690       -13.7061
 144   2.0000      -0.501921       -13.6580
 145   2.0000      -0.500294       -13.6137
 146   2.0000      -0.489936       -13.3318
 147   2.0000      -0.484493       -13.1837
 148   2.0000      -0.482425       -13.1274
 149   2.0000      -0.481141       -13.0925
 150   2.0000      -0.479469       -13.0470
 151   2.0000      -0.476667       -12.9708
 152   2.0000      -0.475613       -12.9421
 153   2.0000      -0.467093       -12.7102
 154   2.0000      -0.465129       -12.6568
 155   2.0000      -0.458130       -12.4663
 156   2.0000      -0.455391       -12.3918
 157   2.0000      -0.452441       -12.3115
 158   2.0000      -0.449511       -12.2318
 159   2.0000      -0.448251       -12.1975
 160   2.0000      -0.445469       -12.1218
 161   2.0000      -0.437991       -11.9183
 162   2.0000      -0.436074       -11.8662
 163   2.0000      -0.434449       -11.8219
 164   2.0000      -0.433928       -11.8078
 165   2.0000      -0.433635       -11.7998
 166   2.0000      -0.419281       -11.4092
 167   2.0000      -0.418017       -11.3748
 168   2.0000      -0.406718       -11.0674
 169   2.0000      -0.399321       -10.8661
 170   2.0000      -0.396382       -10.7861
 171   2.0000      -0.393709       -10.7134
 172   2.0000      -0.393197       -10.6994
 173   2.0000      -0.386264       -10.5108
 174   2.0000      -0.382263       -10.4019
 175   2.0000      -0.380894       -10.3647
 176   2.0000      -0.376311       -10.2399
 177   2.0000      -0.366650        -9.9770
 178   2.0000      -0.365357        -9.9419
 179   2.0000      -0.361716        -9.8428
 180   2.0000      -0.358259        -9.7487
 181   2.0000      -0.357278        -9.7220
 182   2.0000      -0.345862        -9.4114
 183   2.0000      -0.345195        -9.3932
 184   2.0000      -0.343515        -9.3475
 185   2.0000      -0.328977        -8.9519
 186   2.0000      -0.327395        -8.9089
 187   2.0000      -0.315295        -8.5796
 188   2.0000      -0.309401        -8.4192
 189   2.0000      -0.249355        -6.7853
 190   0.0000      -0.109728        -2.9859
 191   0.0000      -0.081333        -2.2132
 192   0.0000      -0.064491        -1.7549
 193   0.0000      -0.060641        -1.6501
 194   0.0000      -0.041251        -1.1225

MULLIKEN ATOMIC CHARGES
-----------------------
   0 C :   -0.108319
   1 S :    0.255764
   2 C :   -0.055970
   3 C :   -0.053781
   4 C :    0.193043
   5 N :    0.258992
   6 O :   -0.238753
   7 O :   -0.211532
   8 C :   -0.240993
   9 N :    0.194519
  10 C :   -0.149633
  11 S :    0.173196
  12 C :   -0.077411
  13 N :   -0.051896
  14 N :   -0.050885
  15 C :    0.057857
  16 C :   -0.021952
  17 C :    0.136154
  18 N :   -0.254168
  19 C :    0.097002
  20 C :    0.002008
  21 C :    0.166015
  22 O :   -0.215628
  23 C :   -0.068206
  24 C :   -0.058447
  25 C :    0.166974
  26 O :   -0.200231
  27 N :   -0.256528
  28 C :    0.096814
  29 C :    0.000556
  30 C :    0.135762
  31 C :   -0.031851
  32 C :    0.040297
  33 C :   -0.048426
  34 S :    0.155203
  35 C :   -0.142513
  36 C :    0.187033
  37 O :   -0.191006
  38 C :    0.111089
  39 C :   -0.019274
  40 C :   -0.239384
  41 S :    0.206071
  42 C :   -0.069725
  43 C :   -0.112810
  44 C :    0.312017
  45 N :    0.257988
  46 O :   -0.243733
  47 O :   -0.203242
  48 C :   -0.166784
  49 N :    0.152197
  50 H :    0.054417
  51 H :    0.016419
  52 H :    0.006664
  53 H :    0.030121
  54 H :    0.042739
  55 H :    0.020351
  56 H :    0.027808
  57 H :    0.027222
  58 H :    0.047801
  59 H :    0.025220
  60 H :    0.031251
  61 H :    0.029169
  62 H :    0.016883
  63 H :   -0.015460
  64 H :    0.022811
  65 H :   -0.011887
  66 H :    0.007504
  67 H :    0.047496
Sum of atomic charges:   -0.0000000

LOEWDIN ATOMIC CHARGES
----------------------
   0 C :   -0.140399
   1 S :    0.547537
   2 C :   -0.161717
   3 C :   -0.090172
   4 C :   -0.057084
   5 N :    0.282683
   6 O :   -0.201546
   7 O :   -0.172792
   8 C :   -0.053355
   9 N :   -0.024201
  10 C :   -0.179685
  11 S :    0.455518
  12 C :   -0.143460
  13 N :   -0.076167
  14 N :   -0.077844
  15 C :   -0.015488
  16 C :   -0.005283
  17 C :    0.068234
  18 N :    0.003751
  19 C :    0.037220
  20 C :   -0.060328
  21 C :    0.079269
  22 O :   -0.205614
  23 C :   -0.121799
  24 C :   -0.112457
  25 C :    0.082527
  26 O :   -0.191575
  27 N :    0.001008
  28 C :    0.036737
  29 C :   -0.060407
  30 C :    0.079510
  31 C :   -0.049511
  32 C :    0.017048
  33 C :   -0.155680
  34 S :    0.480403
  35 C :   -0.214048
  36 C :    0.089811
  37 O :   -0.138773
  38 C :   -0.051354
  39 C :   -0.029690
  40 C :   -0.140894
  41 S :    0.510826
  42 C :   -0.141506
  43 C :   -0.085861
  44 C :   -0.040396
  45 N :    0.288773
  46 O :   -0.203104
  47 O :   -0.160610
  48 C :   -0.038246
  49 N :   -0.033750
  50 H :    0.045424
  51 H :    0.038616
  52 H :    0.038398
  53 H :    0.026315
  54 H :    0.037755
  55 H :    0.024123
  56 H :    0.032631
  57 H :    0.031208
  58 H :    0.039410
  59 H :    0.023464
  60 H :    0.033193
  61 H :    0.032981
  62 H :    0.022304
  63 H :    0.023770
  64 H :    0.044911
  65 H :   -0.000724
  66 H :    0.039887
  67 H :    0.040273

  Mayer bond orders larger than 0.100000
B(  0-C ,  1-S ) :   1.1983 B(  0-C ,  4-C ) :   1.5381 B(  0-C , 50-H ) :   0.9525
B(  1-S ,  2-C ) :   1.1560 B(  2-C ,  3-C ) :   1.5274 B(  2-C , 10-C ) :   1.1431
B(  3-C ,  4-C ) :   1.2500 B(  3-C ,  8-C ) :   1.1312 B(  4-C ,  5-N ) :   0.9077
B(  5-N ,  6-O ) :   1.5375 B(  5-N ,  7-O ) :   1.5432 B(  6-O ,  7-O ) :   0.2785
B(  8-C ,  9-N ) :   2.9897 B( 10-C , 11-S ) :   1.1351 B( 10-C , 14-N ) :   1.6890
B( 11-S , 12-C ) :   1.0957 B( 12-C , 13-N ) :   1.6513 B( 12-C , 15-C ) :   1.1121
B( 13-N , 14-N ) :   1.2572 B( 15-C , 16-C ) :   1.6571 B( 15-C , 51-H ) :   0.9251
B( 16-C , 17-C ) :   1.1315 B( 16-C , 52-H ) :   0.9700 B( 17-C , 18-N ) :   1.1579
B( 17-C , 24-C ) :   1.3497 B( 18-N , 19-C ) :   0.9436 B( 18-N , 21-C ) :   1.0699
B( 19-C , 20-C ) :   1.1200 B( 19-C , 53-H ) :   0.9506 B( 19-C , 54-H ) :   0.9290
B( 20-C , 55-H ) :   0.9690 B( 20-C , 56-H ) :   0.9678 B( 20-C , 57-H ) :   0.9639
B( 21-C , 22-O ) :   2.0143 B( 21-C , 23-C ) :   0.9882 B( 22-O , 64-H ) :   0.1206
B( 23-C , 24-C ) :   1.2572 B( 23-C , 30-C ) :   1.3376 B( 24-C , 25-C ) :   0.9780
B( 25-C , 26-O ) :   2.0422 B( 25-C , 27-N ) :   1.0559 B( 26-O , 51-H ) :   0.1066
B( 27-N , 28-C ) :   0.9433 B( 27-N , 30-C ) :   1.1642 B( 28-C , 29-C ) :   1.1191
B( 28-C , 58-H ) :   0.9283 B( 28-C , 59-H ) :   0.9498 B( 29-C , 60-H ) :   0.9640
B( 29-C , 61-H ) :   0.9681 B( 29-C , 62-H ) :   0.9691 B( 30-C , 31-C ) :   1.1703
B( 31-C , 32-C ) :   1.5849 B( 31-C , 63-H ) :   0.9611 B( 32-C , 33-C ) :   1.1495
B( 32-C , 64-H ) :   0.9515 B( 33-C , 34-S ) :   1.1449 B( 33-C , 39-C ) :   1.4266
B( 34-S , 35-C ) :   1.1259 B( 35-C , 36-C ) :   1.0090 B( 35-C , 38-C ) :   1.4772
B( 36-C , 37-O ) :   2.1294 B( 36-C , 65-H ) :   0.9550 B( 38-C , 39-C ) :   1.3030
B( 38-C , 40-C ) :   0.9908 B( 39-C , 66-H ) :   1.0105 B( 40-C , 41-S ) :   1.2111
B( 40-C , 44-C ) :   1.5175 B( 41-S , 42-C ) :   1.1601 B( 42-C , 43-C ) :   1.5733
B( 42-C , 67-H ) :   0.9747 B( 43-C , 44-C ) :   1.2579 B( 43-C , 48-C ) :   1.0943
B( 44-C , 45-N ) :   0.9081 B( 45-N , 46-O ) :   1.5107 B( 45-N , 47-O ) :   1.5490
B( 46-O , 47-O ) :   0.2726 B( 48-C , 49-N ) :   3.0413

-----------------------------------------------------------------------------
         ABSORPTION SPECTRUM VIA TRANSITION ELECTRIC DIPOLE MOMENTS
-----------------------------------------------------------------------------
State   Energy  Wavelength   fosc         T2         TX        TY        TZ
        (cm-1)    (nm)                  (au**2)     (au)      (au)      (au)
-----------------------------------------------------------------------------
   0   14931.7    669.7   0.915791960  20.19119  -1.28859   3.70041   2.19948
   1   22115.2    452.2   0.022192749   0.33037  -0.05604  -0.50760   0.26377
   2   26018.0    384.3   0.006400045   0.08098   0.16026  -0.23356   0.02736
   3   26601.4    375.9   0.014916906   0.18461   0.07899  -0.32627   0.26817
   4   26931.4    371.3   0.029853388   0.36493  -0.19113   0.07997   0.56746
   5   28371.4    352.5   0.432071473   5.01361   0.87328  -2.00037  -0.49950
   6   28531.0    350.5   0.013203541   0.15235  -0.23263   0.09983   0.29710
   7   29005.0    344.8   0.647140315   7.34515  -0.83503   2.57464  -0.13817
   8   29173.1    342.8   0.016302675   0.18397   0.15213  -0.40042   0.02214
   9   30030.7    333.0   0.019687674   0.21583  -0.33103   0.24642   0.21335
  10   30839.5    324.3   0.146037028   1.55895   0.60623  -1.01208   0.40880
  11   32057.5    311.9   0.002470602   0.02537  -0.06352   0.14265  -0.03146
  12   32734.3    305.5   0.295610142   2.97298  -0.78807   1.43111  -0.55124
  13   34107.9    293.2   0.024935141   0.24068   0.41246  -0.26356   0.03295
  14   35919.1    278.4   0.118998218   1.09066   0.50477  -0.88943  -0.21160
  15   36350.1    275.1   0.093490409   0.84672   0.16993  -0.90425  -0.01319
  16   37446.0    267.1   0.039072770   0.34351   0.24615  -0.46894   0.25103
  17   37609.6    265.9   0.059939099   0.52467  -0.26935   0.65609  -0.14719
  18   37808.1    264.5   0.025259875   0.21995   0.08221  -0.45662   0.06850
  19   37879.2    264.0   0.016407925   0.14260  -0.33763   0.01504   0.16848
  20   38300.1    261.1   0.033403932   0.28713   0.22577  -0.46617   0.13725
  21   38507.5    259.7   0.026966717   0.23055   0.09048   0.21916   0.41753
  22   38544.5    259.4   0.013763857   0.11756  -0.18116  -0.28718  -0.04760
  23   39459.8    253.4   0.103098510   0.86015   0.28535  -0.86613  -0.16894
  24   39761.5    251.5   0.012253915   0.10146   0.01408   0.25697  -0.18769

FINAL SINGLE POINT ENERGY     -3746.110679928691

DIPOLE MOMENT
-------------
                                X             Y             Z
Electronic contribution:     -0.33422     -10.71258      -1.02615
Nuclear contribution   :     -0.28810       8.91790      -0.90148
                        -----------------------------------------
Total Dipole Moment    :     -0.62231      -1.79468      -1.92763
                        -----------------------------------------
Magnitude (a.u.)       :      2.70627
Magnitude (Debye)      :      6.87880

Rotational constants in cm-1:     0.005705     0.000393     0.000374
Rotational constants in MHz :   171.041510    11.768261    11.218909

                             ****ORCA TERMINATED NORMALLY****
TOTAL RUN TIME: 0 days 0 hours 4 minutes 17 seconds 583 msec
