                         Program Version 4.2.0 -  RELEASE  -
|  1> # ORCA input file
|  2> # SCF done       -136.483082765627          0.000595938383
|  3> ! CAM-B3LYP def2-SVP def2/J RIJCOSX Grid4 TightSCF
|  4> %maxcore 5000
|  5> %tddft
|  6>     Mode sTDDFT
|  7>     Ethresh 5.0
|  8>     maxcore 5000
|  9> end
| 10>
| 11> %pal
| 12>   nprocs 6
| 13>   end
| 14> * xyz 0 1
| 15>    C        0.35070        -0.65259         1.89982
| 16>    O       -0.24509         0.48024         2.30175
| 17>    C       -0.08627         1.28741         1.22312
| 18>    N        0.54944         0.67375         0.26802
| 19>    N        0.82562        -0.56295         0.70492
| 20>    C       -0.58693         2.64112         1.20318
| 21>    C       -0.34333         3.44320         0.09456
| 22>    C       -0.84965         4.73245         0.03791
| 23>    N       -0.48409         5.47790        -1.14695
| 24>    O        0.68313         5.44796        -1.46140
| 25>    O       -1.35164         6.05912        -1.76215
| 26>    C       -1.57507         5.28551         1.10864
| 27>    C       -1.74617         4.46864         2.23925
| 28>    C       -1.29357         3.17180         2.28585
| 29>    C       -2.07491         6.64193         1.22074
| 30>    C       -2.67971         7.39166         0.27770
| 31>    C       -3.11567         8.72390         0.54647
| 32>    N       -3.66041         9.54366        -0.41054
| 33>    C       -3.84247         9.24358        -1.81182
| 34>    C       -2.52933         9.28820        -2.58831
| 35>    C       -3.98544        10.80968         0.10618
| 36>    O       -4.47794        11.70122        -0.55728
| 37>    C       -3.61605        10.73433         1.50212
| 38>    C       -3.08563         9.43701         1.73970
| 39>    C       -2.73843         9.35144         3.13835
| 40>    O       -2.27072         8.44968         3.80977
| 41>    N       -3.07927        10.60916         3.66058
| 42>    C       -2.82734        10.93396         5.04325
| 43>    C       -1.54708        11.74874         5.21361
| 44>    C       -3.59409        11.44684         2.69489
| 45>    C       -4.00150        12.78616         2.95019
| 46>    C       -4.49769        13.58412         1.97811
| 47>    C       -4.90773        14.95692         2.12974
| 48>    C       -5.48847        15.60389         1.03567
| 49>    C       -5.87856        16.92904         1.11179
| 50>    N       -6.41765        17.52188        -0.08798
| 51>    O       -6.94594        16.77772        -0.88409
| 52>    O       -6.30340        18.72111        -0.23421
| 53>    C       -5.71651        17.68090         2.28974
| 54>    C       -5.13998        17.01773         3.38055
| 55>    C       -4.74313        15.70300         3.30691
| 56>    C       -6.16579        19.05211         2.41652
| 57>    C       -5.57678        19.96012         3.20925
| 58>    C       -6.04707        21.30675         3.32976
| 59>    O       -7.14742        21.76354         2.67834
| 60>    C       -7.20416        23.04176         3.07458
| 61>    N       -6.25056        23.35223         3.88614
| 62>    N       -5.50894        22.24844         4.05338
| 63>    H        0.39090        -1.50024         2.55119
| 64>    H        0.24051         3.05112        -0.72392
| 65>    H       -2.26545         4.88561         3.08871
| 66>    H       -1.46559         2.56419         3.16092
| 67>    H       -1.99273         7.05200         2.22140
| 68>    H       -2.85946         7.00735        -0.71329
| 69>    H       -4.52133        10.01255        -2.19172
| 70>    H       -4.32005         8.26603        -1.91920
| 71>    H       -2.03770        10.24613        -2.43583
| 72>    H       -2.73244         9.16772        -3.64848
| 73>    H       -1.85901         8.49202        -2.27569
| 74>    H       -2.72236         9.97749         5.56326
| 75>    H       -3.68860        11.46551         5.45802
| 76>    H       -0.69638        11.18183         4.84391
| 77>    H       -1.38713        11.96829         6.26566
| 78>    H       -1.60167        12.68540         4.66292
| 79>    H       -3.89789        13.14529         3.96349
| 80>    H       -4.60500        13.17647         0.98158
| 81>    H       -5.62871        15.07259         0.10526
| 82>    H       -5.02743        17.55599         4.30877
| 83>    H       -4.29578        15.24609         4.17554
| 84>    H       -7.01327        19.36030         1.81962
| 85>    H       -4.68569        19.75249         3.78067
| 86>    H       -7.98396        23.68175         2.71804
| 87> *
| 88>
| 89>                          ****END OF INPUT****

CARTESIAN COORDINATES (ANGSTROEM)
---------------------------------
  C      0.350700   -0.652590    1.899820
  O     -0.245090    0.480240    2.301750
  C     -0.086270    1.287410    1.223120
  N      0.549440    0.673750    0.268020
  N      0.825620   -0.562950    0.704920
  C     -0.586930    2.641120    1.203180
  C     -0.343330    3.443200    0.094560
  C     -0.849650    4.732450    0.037910
  N     -0.484090    5.477900   -1.146950
  O      0.683130    5.447960   -1.461400
  O     -1.351640    6.059120   -1.762150
  C     -1.575070    5.285510    1.108640
  C     -1.746170    4.468640    2.239250
  C     -1.293570    3.171800    2.285850
  C     -2.074910    6.641930    1.220740
  C     -2.679710    7.391660    0.277700
  C     -3.115670    8.723900    0.546470
  N     -3.660410    9.543660   -0.410540
  C     -3.842470    9.243580   -1.811820
  C     -2.529330    9.288200   -2.588310
  C     -3.985440   10.809680    0.106180
  O     -4.477940   11.701220   -0.557280
  C     -3.616050   10.734330    1.502120
  C     -3.085630    9.437010    1.739700
  C     -2.738430    9.351440    3.138350
  O     -2.270720    8.449680    3.809770
  N     -3.079270   10.609160    3.660580
  C     -2.827340   10.933960    5.043250
  C     -1.547080   11.748740    5.213610
  C     -3.594090   11.446840    2.694890
  C     -4.001500   12.786160    2.950190
  C     -4.497690   13.584120    1.978110
  C     -4.907730   14.956920    2.129740
  C     -5.488470   15.603890    1.035670
  C     -5.878560   16.929040    1.111790
  N     -6.417650   17.521880   -0.087980
  O     -6.945940   16.777720   -0.884090
  O     -6.303400   18.721110   -0.234210
  C     -5.716510   17.680900    2.289740
  C     -5.139980   17.017730    3.380550
  C     -4.743130   15.703000    3.306910
  C     -6.165790   19.052110    2.416520
  C     -5.576780   19.960120    3.209250
  C     -6.047070   21.306750    3.329760
  O     -7.147420   21.763540    2.678340
  C     -7.204160   23.041760    3.074580
  N     -6.250560   23.352230    3.886140
  N     -5.508940   22.248440    4.053380
  H      0.390900   -1.500240    2.551190
  H      0.240510    3.051120   -0.723920
  H     -2.265450    4.885610    3.088710
  H     -1.465590    2.564190    3.160920
  H     -1.992730    7.052000    2.221400
  H     -2.859460    7.007350   -0.713290
  H     -4.521330   10.012550   -2.191720
  H     -4.320050    8.266030   -1.919200
  H     -2.037700   10.246130   -2.435830
  H     -2.732440    9.167720   -3.648480
  H     -1.859010    8.492020   -2.275690
  H     -2.722360    9.977490    5.563260
  H     -3.688600   11.465510    5.458020
  H     -0.696380   11.181830    4.843910
  H     -1.387130   11.968290    6.265660
  H     -1.601670   12.685400    4.662920
  H     -3.897890   13.145290    3.963490
  H     -4.605000   13.176470    0.981580
  H     -5.628710   15.072590    0.105260
  H     -5.027430   17.555990    4.308770
  H     -4.295780   15.246090    4.175540
  H     -7.013270   19.360300    1.819620
  H     -4.685690   19.752490    3.780670
  H     -7.983960   23.681750    2.718040

 Total Charge           Charge          ....    0
 Multiplicity           Mult            ....    1
 Number of Electrons    NEL             ....  336
 Basis Dimension        Dim             ....  792

ORBITAL ENERGIES
----------------

  NO   OCC          E(Eh)            E(eV)
   0   2.0000     -19.330057      -525.9976
   1   2.0000     -19.317113      -525.6454
   2   2.0000     -19.259200      -524.0695
   3   2.0000     -19.256494      -523.9958
   4   2.0000     -19.248875      -523.7885
   5   2.0000     -19.247489      -523.7508
   6   2.0000     -19.195920      -522.3475
   7   2.0000     -19.194146      -522.2993
   8   2.0000     -14.660527      -398.9332
   9   2.0000     -14.653585      -398.7443
  10   2.0000     -14.458370      -393.4322
  11   2.0000     -14.455535      -393.3551
  12   2.0000     -14.441405      -392.9706
  13   2.0000     -14.441329      -392.9685
  14   2.0000     -14.430436      -392.6721
  15   2.0000     -14.429782      -392.6543
  16   2.0000     -10.381279      -282.4890
  17   2.0000     -10.378296      -282.4078
  18   2.0000     -10.376281      -282.3529
  19   2.0000     -10.373622      -282.2806
  20   2.0000     -10.368097      -282.1303
  21   2.0000     -10.363532      -282.0060
  22   2.0000     -10.346278      -281.5365
  23   2.0000     -10.343062      -281.4490
  24   2.0000     -10.340502      -281.3794
  25   2.0000     -10.339074      -281.3405
  26   2.0000     -10.323594      -280.9193
  27   2.0000     -10.320552      -280.8365
  28   2.0000     -10.318964      -280.7933
  29   2.0000     -10.314991      -280.6852
  30   2.0000     -10.310840      -280.5722
  31   2.0000     -10.307364      -280.4776
  32   2.0000     -10.306970      -280.4669
  33   2.0000     -10.304995      -280.4132
  34   2.0000     -10.304491      -280.3994
  35   2.0000     -10.304132      -280.3897
  36   2.0000     -10.302186      -280.3367
  37   2.0000     -10.301765      -280.3253
  38   2.0000     -10.301744      -280.3247
  39   2.0000     -10.300828      -280.2998
  40   2.0000     -10.297849      -280.2187
  41   2.0000     -10.296115      -280.1715
  42   2.0000     -10.295691      -280.1600
  43   2.0000     -10.292566      -280.0750
  44   2.0000     -10.270672      -279.4792
  45   2.0000     -10.263704      -279.2896
  46   2.0000     -10.263292      -279.2784
  47   2.0000     -10.255036      -279.0537
  48   2.0000      -1.338528       -36.4232
  49   2.0000      -1.329755       -36.1845
  50   2.0000      -1.273972       -34.6666
  51   2.0000      -1.261829       -34.3361
  52   2.0000      -1.157263       -31.4907
  53   2.0000      -1.148387       -31.2492
  54   2.0000      -1.137286       -30.9471
  55   2.0000      -1.130465       -30.7615
  56   2.0000      -1.092534       -29.7294
  57   2.0000      -1.080701       -29.4074
  58   2.0000      -1.067309       -29.0430
  59   2.0000      -1.058862       -28.8131
  60   2.0000      -1.004166       -27.3247
  61   2.0000      -0.998856       -27.1803
  62   2.0000      -0.951371       -25.8881
  63   2.0000      -0.945957       -25.7408
  64   2.0000      -0.933308       -25.3966
  65   2.0000      -0.927442       -25.2370
  66   2.0000      -0.912872       -24.8405
  67   2.0000      -0.907604       -24.6972
  68   2.0000      -0.902822       -24.5670
  69   2.0000      -0.891535       -24.2599
  70   2.0000      -0.875506       -23.8237
  71   2.0000      -0.865557       -23.5530
  72   2.0000      -0.852055       -23.1856
  73   2.0000      -0.821687       -22.3593
  74   2.0000      -0.813493       -22.1363
  75   2.0000      -0.800427       -21.7807
  76   2.0000      -0.799019       -21.7424
  77   2.0000      -0.790127       -21.5004
  78   2.0000      -0.762186       -20.7401
  79   2.0000      -0.760604       -20.6971
  80   2.0000      -0.749870       -20.4050
  81   2.0000      -0.749403       -20.3923
  82   2.0000      -0.742684       -20.2095
  83   2.0000      -0.719644       -19.5825
  84   2.0000      -0.716197       -19.4887
  85   2.0000      -0.715393       -19.4668
  86   2.0000      -0.710408       -19.3312
  87   2.0000      -0.699618       -19.0376
  88   2.0000      -0.686440       -18.6790
  89   2.0000      -0.669272       -18.2118
  90   2.0000      -0.661701       -18.0058
  91   2.0000      -0.656026       -17.8514
  92   2.0000      -0.653654       -17.7868
  93   2.0000      -0.648883       -17.6570
  94   2.0000      -0.643016       -17.4973
  95   2.0000      -0.641141       -17.4463
  96   2.0000      -0.626601       -17.0507
  97   2.0000      -0.624152       -16.9840
  98   2.0000      -0.620685       -16.8897
  99   2.0000      -0.615661       -16.7530
 100   2.0000      -0.607516       -16.5314
 101   2.0000      -0.606464       -16.5027
 102   2.0000      -0.603549       -16.4234
 103   2.0000      -0.599331       -16.3086
 104   2.0000      -0.593900       -16.1608
 105   2.0000      -0.591998       -16.1091
 106   2.0000      -0.588048       -16.0016
 107   2.0000      -0.582949       -15.8629
 108   2.0000      -0.581154       -15.8140
 109   2.0000      -0.571566       -15.5531
 110   2.0000      -0.567235       -15.4353
 111   2.0000      -0.555171       -15.1070
 112   2.0000      -0.552379       -15.0310
 113   2.0000      -0.551132       -14.9971
 114   2.0000      -0.546894       -14.8818
 115   2.0000      -0.543078       -14.7779
 116   2.0000      -0.539214       -14.6728
 117   2.0000      -0.535266       -14.5653
 118   2.0000      -0.533494       -14.5171
 119   2.0000      -0.530053       -14.4235
 120   2.0000      -0.520465       -14.1626
 121   2.0000      -0.517585       -14.0842
 122   2.0000      -0.513579       -13.9752
 123   2.0000      -0.511882       -13.9290
 124   2.0000      -0.504442       -13.7266
 125   2.0000      -0.497739       -13.5442
 126   2.0000      -0.495755       -13.4902
 127   2.0000      -0.488402       -13.2901
 128   2.0000      -0.485253       -13.2044
 129   2.0000      -0.481276       -13.0962
 130   2.0000      -0.477635       -12.9971
 131   2.0000      -0.475293       -12.9334
 132   2.0000      -0.465946       -12.6790
 133   2.0000      -0.464544       -12.6409
 134   2.0000      -0.461705       -12.5636
 135   2.0000      -0.458788       -12.4842
 136   2.0000      -0.455167       -12.3857
 137   2.0000      -0.447779       -12.1847
 138   2.0000      -0.444307       -12.0902
 139   2.0000      -0.442886       -12.0515
 140   2.0000      -0.442136       -12.0311
 141   2.0000      -0.436747       -11.8845
 142   2.0000      -0.434107       -11.8126
 143   2.0000      -0.431120       -11.7314
 144   2.0000      -0.423006       -11.5106
 145   2.0000      -0.420436       -11.4407
 146   2.0000      -0.419296       -11.4096
 147   2.0000      -0.409148       -11.1335
 148   2.0000      -0.407720       -11.0946
 149   2.0000      -0.397181       -10.8078
 150   2.0000      -0.394102       -10.7241
 151   2.0000      -0.391878       -10.6635
 152   2.0000      -0.390319       -10.6211
 153   2.0000      -0.388678       -10.5765
 154   2.0000      -0.385700       -10.4954
 155   2.0000      -0.376353       -10.2411
 156   2.0000      -0.357010        -9.7147
 157   2.0000      -0.353076        -9.6077
 158   2.0000      -0.351972        -9.5776
 159   2.0000      -0.351520        -9.5654
 160   2.0000      -0.350143        -9.5279
 161   2.0000      -0.341130        -9.2826
 162   2.0000      -0.336384        -9.1535
 163   2.0000      -0.335126        -9.1192
 164   2.0000      -0.318059        -8.6548
 165   2.0000      -0.312784        -8.5113
 166   2.0000      -0.298779        -8.1302
 167   2.0000      -0.243680        -6.6309
 168   0.0000      -0.091957        -2.5023
 169   0.0000      -0.062707        -1.7063
 170   0.0000      -0.046784        -1.2731
 171   0.0000      -0.039133        -1.0649
 172   0.0000      -0.026211        -0.7132

MULLIKEN ATOMIC CHARGES
-----------------------
   0 C :    0.166985
   1 O :   -0.185666
   2 C :    0.078501
   3 N :   -0.080696
   4 N :   -0.074876
   5 C :    0.044723
   6 C :   -0.024163
   7 C :    0.115154
   8 N :    0.244018
   9 O :   -0.211375
  10 O :   -0.224288
  11 C :    0.106022
  12 C :   -0.022812
  13 C :    0.032711
  14 C :   -0.061632
  15 C :    0.006247
  16 C :    0.106699
  17 N :   -0.253997
  18 C :    0.097237
  19 C :    0.001957
  20 C :    0.167567
  21 O :   -0.210626
  22 C :   -0.065850
  23 C :   -0.058075
  24 C :    0.166571
  25 O :   -0.219858
  26 N :   -0.258127
  27 C :    0.101894
  28 C :    0.003945
  29 C :    0.126918
  30 C :    0.005153
  31 C :    0.003498
  32 C :    0.109107
  33 C :   -0.070370
  34 C :    0.156130
  35 N :    0.242182
  36 O :   -0.224680
  37 O :   -0.232093
  38 C :    0.056556
  39 C :   -0.029830
  40 C :    0.019338
  41 C :    0.019743
  42 C :    0.006495
  43 C :    0.076436
  44 O :   -0.188414
  45 C :    0.167447
  46 N :   -0.090309
  47 N :   -0.083157
  48 H :    0.037458
  49 H :    0.022951
  50 H :    0.006611
  51 H :    0.002749
  52 H :    0.036130
  53 H :    0.007057
  54 H :    0.042731
  55 H :    0.026065
  56 H :    0.020710
  57 H :    0.024033
  58 H :    0.024565
  59 H :    0.041976
  60 H :    0.022564
  61 H :    0.031257
  62 H :    0.024126
  63 H :    0.012920
  64 H :   -0.034318
  65 H :    0.011514
  66 H :    0.021878
  67 H :   -0.009091
  68 H :   -0.015901
  69 H :    0.027853
  70 H :    0.020278
  71 H :    0.035543
Sum of atomic charges:   -0.0000000

LOEWDIN ATOMIC CHARGES
----------------------
   0 C :    0.049325
   1 O :    0.012615
   2 C :    0.029115
   3 N :   -0.083613
   4 N :   -0.071350
   5 C :   -0.047170
   6 C :    0.030240
   7 C :   -0.015689
   8 N :    0.285756
   9 O :   -0.179422
  10 O :   -0.187114
  11 C :   -0.002504
  12 C :    0.003468
  13 C :    0.010663
  14 C :    0.007961
  15 C :   -0.027697
  16 C :    0.076516
  17 N :    0.005036
  18 C :    0.036647
  19 C :   -0.061878
  20 C :    0.081155
  21 O :   -0.199153
  22 C :   -0.121389
  23 C :   -0.123132
  24 C :    0.080764
  25 O :   -0.207889
  26 N :   -0.000659
  27 C :    0.035959
  28 C :   -0.061172
  29 C :    0.076564
  30 C :   -0.045636
  31 C :    0.032709
  32 C :   -0.026384
  33 C :    0.020833
  34 C :   -0.023908
  35 N :    0.283476
  36 O :   -0.192515
  37 O :   -0.192351
  38 C :   -0.004031
  39 C :   -0.004638
  40 C :    0.013265
  41 C :    0.009364
  42 C :   -0.032988
  43 C :    0.022124
  44 O :    0.012473
  45 C :    0.048407
  46 N :   -0.078643
  47 N :   -0.087419
  48 H :    0.031133
  49 H :    0.050152
  50 H :    0.042957
  51 H :    0.038445
  52 H :    0.041438
  53 H :    0.028950
  54 H :    0.036854
  55 H :    0.024787
  56 H :    0.028993
  57 H :    0.032276
  58 H :    0.021873
  59 H :    0.037633
  60 H :    0.022288
  61 H :    0.033280
  62 H :    0.030732
  63 H :    0.020994
  64 H :    0.024953
  65 H :    0.038939
  66 H :    0.048875
  67 H :    0.035810
  68 H :    0.031753
  69 H :    0.035541
  70 H :    0.045372
  71 H :    0.029883

  Mayer bond orders larger than 0.100000
B(  0-C ,  1-O ) :   1.1298 B(  0-C ,  4-N ) :   1.7611 B(  0-C , 48-H ) :   0.9922
B(  1-O ,  2-C ) :   1.1829 B(  2-C ,  3-N ) :   1.7750 B(  2-C ,  5-C ) :   1.0124
B(  3-N ,  4-N ) :   1.1776 B(  5-C ,  6-C ) :   1.3522 B(  5-C , 13-C ) :   1.3195
B(  6-C ,  7-C ) :   1.3631 B(  6-C , 49-H ) :   1.0014 B(  7-C ,  8-N ) :   0.8555
B(  7-C , 11-C ) :   1.3834 B(  8-N ,  9-O ) :   1.5744 B(  8-N , 10-O ) :   1.5080
B(  9-O , 10-O ) :   0.2704 B( 11-C , 12-C ) :   1.3335 B( 11-C , 14-C ) :   1.0294
B( 12-C , 13-C ) :   1.3901 B( 12-C , 50-H ) :   0.9972 B( 13-C , 51-H ) :   1.0000
B( 14-C , 15-C ) :   1.7002 B( 14-C , 52-H ) :   0.9321 B( 15-C , 16-C ) :   1.1324
B( 15-C , 53-H ) :   0.9498 B( 16-C , 17-N ) :   1.1715 B( 16-C , 23-C ) :   1.3503
B( 17-N , 18-C ) :   0.9387 B( 17-N , 20-C ) :   1.0649 B( 18-C , 19-C ) :   1.1201
B( 18-C , 54-H ) :   0.9278 B( 18-C , 55-H ) :   0.9493 B( 19-C , 56-H ) :   0.9624
B( 19-C , 57-H ) :   0.9664 B( 19-C , 58-H ) :   0.9620 B( 20-C , 21-O ) :   2.0181
B( 20-C , 22-C ) :   0.9846 B( 21-O , 65-H ) :   0.1178 B( 22-C , 23-C ) :   1.2409
B( 22-C , 29-C ) :   1.3650 B( 23-C , 24-C ) :   0.9886 B( 24-C , 25-O ) :   2.0114
B( 24-C , 26-N ) :   1.0659 B( 25-O , 52-H ) :   0.1157 B( 26-N , 27-C ) :   0.9480
B( 26-N , 29-C ) :   1.1536 B( 27-C , 28-C ) :   1.1209 B( 27-C , 59-H ) :   0.9269
B( 27-C , 60-H ) :   0.9498 B( 28-C , 61-H ) :   0.9637 B( 28-C , 62-H ) :   0.9678
B( 28-C , 63-H ) :   0.9684 B( 29-C , 30-C ) :   1.1436 B( 30-C , 31-C ) :   1.6179
B( 30-C , 64-H ) :   0.9569 B( 31-C , 32-C ) :   1.0737 B( 31-C , 65-H ) :   0.9656
B( 32-C , 33-C ) :   1.2896 B( 32-C , 40-C ) :   1.3096 B( 33-C , 34-C ) :   1.3574
B( 33-C , 66-H ) :   1.0069 B( 34-C , 35-N ) :   0.8753 B( 34-C , 38-C ) :   1.3542
B( 35-N , 36-O ) :   1.5615 B( 35-N , 37-O ) :   1.5204 B( 36-O , 37-O ) :   0.2681
B( 38-C , 39-C ) :   1.3433 B( 38-C , 41-C ) :   1.0428 B( 39-C , 40-C ) :   1.4194
B( 39-C , 67-H ) :   0.9871 B( 40-C , 68-H ) :   0.9905 B( 41-C , 42-C ) :   1.7324
B( 41-C , 69-H ) :   0.9544 B( 42-C , 43-C ) :   1.1087 B( 42-C , 70-H ) :   0.9610
B( 43-C , 44-O ) :   1.1568 B( 43-C , 47-N ) :   1.7186 B( 44-O , 45-C ) :   1.1385
B( 45-C , 46-N ) :   1.7566 B( 45-C , 71-H ) :   0.9916 B( 46-N , 47-N ) :   1.1836

-----------------------------------------------------------------------------
         ABSORPTION SPECTRUM VIA TRANSITION ELECTRIC DIPOLE MOMENTS
-----------------------------------------------------------------------------
State   Energy  Wavelength   fosc         T2         TX        TY        TZ
        (cm-1)    (nm)                  (au**2)     (au)      (au)      (au)
-----------------------------------------------------------------------------
   0   17142.2    583.4   0.854091113  16.40260  -0.97685   3.66142   1.42912
   1   24243.0    412.5   0.005035254   0.06838  -0.17779  -0.19145   0.01066
   2   26717.3    374.3   0.009718588   0.11975  -0.23049   0.24343   0.08583
   3   27273.0    366.7   0.015699141   0.18950   0.02151  -0.43435  -0.01951
   4   28739.9    347.9   0.032357308   0.37065   0.00704   0.60707   0.04551
   5   29443.6    339.6   0.012535092   0.14016  -0.19197   0.31916   0.03796
   6   29996.8    333.4   0.782024287   8.58265  -0.78204   2.81532   0.21213
   7   32334.6    309.3   0.109117669   1.11097   0.60862  -0.86042   0.01490
   8   33180.0    301.4   0.382463564   3.79480  -0.61933   1.74106  -0.61639
   9   33420.7    299.2   0.457827998   4.50985  -0.87926   1.84828  -0.56622
  10   34129.4    293.0   0.027280363   0.26315  -0.02638   0.35401   0.37031
  11   35680.7    280.3   0.165137287   1.52366   0.00474  -1.02245   0.69154
  12   36504.4    273.9   0.015581908   0.14052   0.14148  -0.12654   0.32326
  13   36946.6    270.7   0.034519081   0.30758   0.12456  -0.11902   0.52716
  14   38220.0    261.6   0.162336176   1.39830   0.50584  -0.16184   1.05652
  15   38598.3    259.1   0.002777713   0.02369  -0.00168   0.14985   0.03512
  16   39223.6    254.9   0.005320959   0.04466   0.09959  -0.16144   0.09317
  17   39849.4    250.9   0.002128608   0.01759   0.01364  -0.11709  -0.06074
  18   39913.5    250.5   0.002003654   0.01653   0.12643   0.00668   0.02233

FINAL SINGLE POINT ENERGY     -2270.658511244294

DIPOLE MOMENT
-------------
                                X             Y             Z
Electronic contribution:     -3.59426      -1.90686      -7.26439
Nuclear contribution   :      2.69487       0.16426       9.80650
                        -----------------------------------------
Total Dipole Moment    :     -0.89939      -1.74260       2.54211
                        -----------------------------------------
Magnitude (a.u.)       :      3.21059
Magnitude (Debye)      :      8.16068

Rotational constants in cm-1:     0.006901     0.000511     0.000484
Rotational constants in MHz :   206.887502    15.309672    14.506788

                             ****ORCA TERMINATED NORMALLY****
TOTAL RUN TIME: 0 days 0 hours 4 minutes 25 seconds 636 msec
