                         Program Version 4.2.0 -  RELEASE  -
|  1> # ORCA input file
|  2> # SCF done       -140.769235270413          0.000906529124
|  3> ! CAM-B3LYP def2-SVP def2/J RIJCOSX Grid4 TightSCF
|  4> %maxcore 5000
|  5> %tddft
|  6>     Mode sTDDFT
|  7>     Ethresh 5.0
|  8>     maxcore 5000
|  9> end
| 10>
| 11> %pal
| 12>   nprocs 6
| 13>   end
| 14> * xyz 0 1
| 15>    C       -1.64761         0.99999         0.73245
| 16>    S       -2.33123        -0.40948         1.40822
| 17>    C       -1.97417        -1.34840        -0.01490
| 18>    C       -1.34186        -0.56402        -0.95856
| 19>    C       -1.15712         0.77077        -0.52234
| 20>    O       -0.58101         1.78199        -1.22987
| 21>    C        0.00598         1.65758        -2.42784
| 22>    O        0.45073         2.62925        -2.96676
| 23>    C        0.12639         0.30567        -3.12808
| 24>    O        0.76013         0.19445        -4.13758
| 25>    S       -0.72781        -1.12420        -2.50778
| 26>    C       -2.33000        -2.74021        -0.06379
| 27>    C       -2.52214        -3.46805        -1.25300
| 28>    N       -2.81599        -4.74042        -1.25346
| 29>    C       -2.94908        -5.36639        -0.08183
| 30>    N       -2.84179        -4.75793         1.10517
| 31>    C       -2.54163        -3.48229         1.10840
| 32>    C       -3.23215        -6.77648        -0.15787
| 33>    N       -3.48764        -7.60677         0.90351
| 34>    C       -3.48733        -7.27644         2.30882
| 35>    C       -2.07261        -7.25074         2.87845
| 36>    C       -3.72625        -8.92475         0.48058
| 37>    O       -3.98088        -9.83950         1.24214
| 38>    C       -3.60752        -8.87059        -0.95758
| 39>    C       -3.30431        -7.53091        -1.31985
| 40>    C       -3.17681        -7.47530        -2.76562
| 41>    O       -2.92413        -6.59158        -3.54662
| 42>    N       -3.41648        -8.81232        -3.17556
| 43>    C       -3.42701        -9.16219        -4.57481
| 44>    C       -4.84794        -9.25507        -5.12615
| 45>    C       -3.67510        -9.64136        -2.11538
| 46>    C       -3.93622       -11.03456        -2.24896
| 47>    C       -4.17494       -11.83006        -1.18225
| 48>    C       -4.41901       -13.24462        -1.24424
| 49>    C       -4.36845       -14.02704        -0.07572
| 50>    N       -4.55313       -15.32599        -0.07570
| 51>    C       -4.79934       -15.90476        -1.24938
| 52>    N       -4.90850       -15.26248        -2.41617
| 53>    C       -4.72922       -13.96240        -2.41116
| 54>    C       -4.97834       -17.33147        -1.30184
| 55>    S       -5.37804       -18.07488        -2.80725
| 56>    C       -5.40016       -19.62742        -2.09193
| 57>    C       -5.11114       -19.58495        -0.75576
| 58>    C       -4.86828       -18.27158        -0.29299
| 59>    O       -4.55225       -17.91800         0.97464
| 60>    C       -4.40932       -18.76229         2.00367
| 61>    O       -4.11990       -18.33295         3.08329
| 62>    C       -4.60432       -20.27450         1.85578
| 63>    O       -4.46613       -20.99810         2.79952
| 64>    S       -5.04116       -20.99531         0.29105
| 65>    H       -1.63049         1.92436         1.27197
| 66>    H       -2.45738        -3.00114        -2.22562
| 67>    H       -2.45201        -3.01647         2.08311
| 68>    H       -4.07064        -8.05897         2.80225
| 69>    H       -3.96714        -6.30713         2.44822
| 70>    H       -1.58587        -8.20980         2.71852
| 71>    H       -2.11225        -7.05288         3.94556
| 72>    H       -1.48935        -6.46933         2.39872
| 73>    H       -2.88654       -10.10111        -4.72472
| 74>    H       -2.88842        -8.36088        -5.08855
| 75>    H       -5.42456       -10.01269        -4.59958
| 76>    H       -4.81774        -9.50798        -6.18234
| 77>    H       -5.35078        -8.29808        -5.01227
| 78>    H       -3.91656       -11.44730        -3.24724
| 79>    H       -4.16168       -11.39912        -0.18904
| 80>    H       -4.16230       -13.57412         0.88561
| 81>    H       -4.85472       -13.47388        -3.36878
| 82>    H       -5.62064       -20.49929        -2.67328
| 83> *
| 84>
| 85>                          ****END OF INPUT****

CARTESIAN COORDINATES (ANGSTROEM)
---------------------------------
  C     -1.647610    0.999990    0.732450
  S     -2.331230   -0.409480    1.408220
  C     -1.974170   -1.348400   -0.014900
  C     -1.341860   -0.564020   -0.958560
  C     -1.157120    0.770770   -0.522340
  O     -0.581010    1.781990   -1.229870
  C      0.005980    1.657580   -2.427840
  O      0.450730    2.629250   -2.966760
  C      0.126390    0.305670   -3.128080
  O      0.760130    0.194450   -4.137580
  S     -0.727810   -1.124200   -2.507780
  C     -2.330000   -2.740210   -0.063790
  C     -2.522140   -3.468050   -1.253000
  N     -2.815990   -4.740420   -1.253460
  C     -2.949080   -5.366390   -0.081830
  N     -2.841790   -4.757930    1.105170
  C     -2.541630   -3.482290    1.108400
  C     -3.232150   -6.776480   -0.157870
  N     -3.487640   -7.606770    0.903510
  C     -3.487330   -7.276440    2.308820
  C     -2.072610   -7.250740    2.878450
  C     -3.726250   -8.924750    0.480580
  O     -3.980880   -9.839500    1.242140
  C     -3.607520   -8.870590   -0.957580
  C     -3.304310   -7.530910   -1.319850
  C     -3.176810   -7.475300   -2.765620
  O     -2.924130   -6.591580   -3.546620
  N     -3.416480   -8.812320   -3.175560
  C     -3.427010   -9.162190   -4.574810
  C     -4.847940   -9.255070   -5.126150
  C     -3.675100   -9.641360   -2.115380
  C     -3.936220  -11.034560   -2.248960
  C     -4.174940  -11.830060   -1.182250
  C     -4.419010  -13.244620   -1.244240
  C     -4.368450  -14.027040   -0.075720
  N     -4.553130  -15.325990   -0.075700
  C     -4.799340  -15.904760   -1.249380
  N     -4.908500  -15.262480   -2.416170
  C     -4.729220  -13.962400   -2.411160
  C     -4.978340  -17.331470   -1.301840
  S     -5.378040  -18.074880   -2.807250
  C     -5.400160  -19.627420   -2.091930
  C     -5.111140  -19.584950   -0.755760
  C     -4.868280  -18.271580   -0.292990
  O     -4.552250  -17.918000    0.974640
  C     -4.409320  -18.762290    2.003670
  O     -4.119900  -18.332950    3.083290
  C     -4.604320  -20.274500    1.855780
  O     -4.466130  -20.998100    2.799520
  S     -5.041160  -20.995310    0.291050
  H     -1.630490    1.924360    1.271970
  H     -2.457380   -3.001140   -2.225620
  H     -2.452010   -3.016470    2.083110
  H     -4.070640   -8.058970    2.802250
  H     -3.967140   -6.307130    2.448220
  H     -1.585870   -8.209800    2.718520
  H     -2.112250   -7.052880    3.945560
  H     -1.489350   -6.469330    2.398720
  H     -2.886540  -10.101110   -4.724720
  H     -2.888420   -8.360880   -5.088550
  H     -5.424560  -10.012690   -4.599580
  H     -4.817740   -9.507980   -6.182340
  H     -5.350780   -8.298080   -5.012270
  H     -3.916560  -11.447300   -3.247240
  H     -4.161680  -11.399120   -0.189040
  H     -4.162300  -13.574120    0.885610
  H     -4.854720  -13.473880   -3.368780
  H     -5.620640  -20.499290   -2.673280

 Total Charge           Charge          ....    0
 Multiplicity           Mult            ....    1
 Number of Electrons    NEL             ....  380
 Basis Dimension        Dim             ....  806

ORBITAL ENERGIES
----------------

  NO   OCC          E(Eh)            E(eV)
   0   2.0000     -88.989900     -2421.5383
   1   2.0000     -88.981490     -2421.3094
   2   2.0000     -88.979266     -2421.2489
   3   2.0000     -88.970495     -2421.0103
   4   2.0000     -19.311874      -525.5028
   5   2.0000     -19.302988      -525.2610
   6   2.0000     -19.251544      -523.8611
   7   2.0000     -19.241121      -523.5775
   8   2.0000     -19.235496      -523.4245
   9   2.0000     -19.226696      -523.1850
  10   2.0000     -19.191013      -522.2140
  11   2.0000     -19.186142      -522.0815
  12   2.0000     -14.454491      -393.3267
  13   2.0000     -14.450520      -393.2186
  14   2.0000     -14.431479      -392.7005
  15   2.0000     -14.426496      -392.5649
  16   2.0000     -14.423099      -392.4725
  17   2.0000     -14.419093      -392.3635
  18   2.0000     -10.438834      -284.0551
  19   2.0000     -10.429931      -283.8129
  20   2.0000     -10.417105      -283.4638
  21   2.0000     -10.407942      -283.2145
  22   2.0000     -10.375636      -282.3354
  23   2.0000     -10.375435      -282.3299
  24   2.0000     -10.371178      -282.2141
  25   2.0000     -10.369562      -282.1701
  26   2.0000     -10.363702      -282.0107
  27   2.0000     -10.362998      -281.9915
  28   2.0000     -10.347209      -281.5619
  29   2.0000     -10.342093      -281.4227
  30   2.0000     -10.341603      -281.4093
  31   2.0000     -10.340291      -281.3736
  32   2.0000     -10.338050      -281.3126
  33   2.0000     -10.337140      -281.2879
  34   2.0000     -10.331888      -281.1450
  35   2.0000     -10.331182      -281.1258
  36   2.0000     -10.329335      -281.0755
  37   2.0000     -10.322407      -280.8870
  38   2.0000     -10.320850      -280.8446
  39   2.0000     -10.320243      -280.8281
  40   2.0000     -10.315885      -280.7095
  41   2.0000     -10.311320      -280.5853
  42   2.0000     -10.302589      -280.3477
  43   2.0000     -10.301168      -280.3090
  44   2.0000     -10.297820      -280.2179
  45   2.0000     -10.292013      -280.0599
  46   2.0000     -10.267810      -279.4013
  47   2.0000     -10.267581      -279.3951
  48   2.0000     -10.260102      -279.1916
  49   2.0000     -10.249685      -278.9081
  50   2.0000      -8.085410      -220.0152
  51   2.0000      -8.077829      -219.8089
  52   2.0000      -8.074274      -219.7122
  53   2.0000      -8.067271      -219.5216
  54   2.0000      -6.054746      -164.7580
  55   2.0000      -6.050516      -164.6429
  56   2.0000      -6.047620      -164.5641
  57   2.0000      -6.047482      -164.5603
  58   2.0000      -6.043542      -164.4531
  59   2.0000      -6.043267      -164.4457
  60   2.0000      -6.039329      -164.3385
  61   2.0000      -6.038607      -164.3188
  62   2.0000      -6.037032      -164.2760
  63   2.0000      -6.036478      -164.2609
  64   2.0000      -6.032831      -164.1617
  65   2.0000      -6.027955      -164.0290
  66   2.0000      -1.241518       -33.7834
  67   2.0000      -1.234411       -33.5900
  68   2.0000      -1.175647       -31.9910
  69   2.0000      -1.166338       -31.7377
  70   2.0000      -1.139189       -30.9989
  71   2.0000      -1.133782       -30.8518
  72   2.0000      -1.130500       -30.7625
  73   2.0000      -1.125092       -30.6153
  74   2.0000      -1.103416       -30.0255
  75   2.0000      -1.098802       -29.8999
  76   2.0000      -1.063762       -28.9464
  77   2.0000      -1.051734       -28.6191
  78   2.0000      -1.023381       -27.8476
  79   2.0000      -1.011104       -27.5135
  80   2.0000      -0.997148       -27.1338
  81   2.0000      -0.992599       -27.0100
  82   2.0000      -0.941355       -25.6156
  83   2.0000      -0.936785       -25.4912
  84   2.0000      -0.929429       -25.2911
  85   2.0000      -0.926934       -25.2232
  86   2.0000      -0.922160       -25.0932
  87   2.0000      -0.887944       -24.1622
  88   2.0000      -0.873570       -23.7711
  89   2.0000      -0.866686       -23.5837
  90   2.0000      -0.862909       -23.4809
  91   2.0000      -0.847005       -23.0482
  92   2.0000      -0.837246       -22.7826
  93   2.0000      -0.817239       -22.2382
  94   2.0000      -0.812023       -22.0963
  95   2.0000      -0.792507       -21.5652
  96   2.0000      -0.775375       -21.0990
  97   2.0000      -0.768954       -20.9243
  98   2.0000      -0.767869       -20.8948
  99   2.0000      -0.763787       -20.7837
 100   2.0000      -0.757553       -20.6141
 101   2.0000      -0.755796       -20.5663
 102   2.0000      -0.745372       -20.2826
 103   2.0000      -0.731355       -19.9012
 104   2.0000      -0.728856       -19.8332
 105   2.0000      -0.705520       -19.1982
 106   2.0000      -0.698566       -19.0089
 107   2.0000      -0.687190       -18.6994
 108   2.0000      -0.684993       -18.6396
 109   2.0000      -0.664637       -18.0857
 110   2.0000      -0.660202       -17.9650
 111   2.0000      -0.656667       -17.8688
 112   2.0000      -0.650477       -17.7004
 113   2.0000      -0.639176       -17.3929
 114   2.0000      -0.632433       -17.2094
 115   2.0000      -0.625679       -17.0256
 116   2.0000      -0.606253       -16.4970
 117   2.0000      -0.600515       -16.3408
 118   2.0000      -0.594973       -16.1900
 119   2.0000      -0.594711       -16.1829
 120   2.0000      -0.592665       -16.1272
 121   2.0000      -0.586362       -15.9557
 122   2.0000      -0.582457       -15.8495
 123   2.0000      -0.580071       -15.7845
 124   2.0000      -0.569359       -15.4931
 125   2.0000      -0.567529       -15.4433
 126   2.0000      -0.558331       -15.1930
 127   2.0000      -0.554771       -15.0961
 128   2.0000      -0.545387       -14.8407
 129   2.0000      -0.543867       -14.7994
 130   2.0000      -0.542632       -14.7658
 131   2.0000      -0.541739       -14.7415
 132   2.0000      -0.536856       -14.6086
 133   2.0000      -0.535223       -14.5642
 134   2.0000      -0.530312       -14.4305
 135   2.0000      -0.527357       -14.3501
 136   2.0000      -0.525881       -14.3100
 137   2.0000      -0.523994       -14.2586
 138   2.0000      -0.521079       -14.1793
 139   2.0000      -0.519624       -14.1397
 140   2.0000      -0.515306       -14.0222
 141   2.0000      -0.513096       -13.9620
 142   2.0000      -0.512148       -13.9363
 143   2.0000      -0.508931       -13.8487
 144   2.0000      -0.506381       -13.7793
 145   2.0000      -0.502070       -13.6620
 146   2.0000      -0.499509       -13.5923
 147   2.0000      -0.497701       -13.5431
 148   2.0000      -0.495548       -13.4846
 149   2.0000      -0.493623       -13.4322
 150   2.0000      -0.489721       -13.3260
 151   2.0000      -0.476649       -12.9703
 152   2.0000      -0.469076       -12.7642
 153   2.0000      -0.467615       -12.7245
 154   2.0000      -0.462171       -12.5763
 155   2.0000      -0.458439       -12.4748
 156   2.0000      -0.457675       -12.4540
 157   2.0000      -0.454260       -12.3610
 158   2.0000      -0.450204       -12.2507
 159   2.0000      -0.446036       -12.1373
 160   2.0000      -0.444154       -12.0860
 161   2.0000      -0.442591       -12.0435
 162   2.0000      -0.440214       -11.9788
 163   2.0000      -0.433048       -11.7838
 164   2.0000      -0.431068       -11.7299
 165   2.0000      -0.423746       -11.5307
 166   2.0000      -0.417144       -11.3511
 167   2.0000      -0.411364       -11.1938
 168   2.0000      -0.408197       -11.1076
 169   2.0000      -0.405534       -11.0351
 170   2.0000      -0.404245       -11.0001
 171   2.0000      -0.399643       -10.8748
 172   2.0000      -0.394939       -10.7468
 173   2.0000      -0.391447       -10.6518
 174   2.0000      -0.389162       -10.5896
 175   2.0000      -0.387484       -10.5440
 176   2.0000      -0.377186       -10.2638
 177   2.0000      -0.358253        -9.7486
 178   2.0000      -0.349816        -9.5190
 179   2.0000      -0.347627        -9.4594
 180   2.0000      -0.340965        -9.2781
 181   2.0000      -0.335004        -9.1159
 182   2.0000      -0.329438        -8.9645
 183   2.0000      -0.324007        -8.8167
 184   2.0000      -0.319419        -8.6918
 185   2.0000      -0.314222        -8.5504
 186   2.0000      -0.308294        -8.3891
 187   2.0000      -0.305110        -8.3025
 188   2.0000      -0.294746        -8.0204
 189   2.0000      -0.243686        -6.6310
 190   0.0000      -0.092529        -2.5178
 191   0.0000      -0.058914        -1.6031
 192   0.0000      -0.051960        -1.4139
 193   0.0000      -0.043246        -1.1768
 194   0.0000      -0.023263        -0.6330

MULLIKEN ATOMIC CHARGES
-----------------------
   0 C :   -0.114863
   1 S :    0.159220
   2 C :   -0.151260
   3 C :   -0.031178
   4 C :    0.197524
   5 O :   -0.189531
   6 C :    0.206033
   7 O :   -0.111424
   8 C :    0.006033
   9 O :   -0.113211
  10 S :    0.111802
  11 C :    0.011157
  12 C :    0.022281
  13 N :    0.009879
  14 C :   -0.188585
  15 N :   -0.053108
  16 C :    0.022570
  17 C :    0.194122
  18 N :   -0.257448
  19 C :    0.142129
  20 C :    0.004715
  21 C :    0.164643
  22 O :   -0.221255
  23 C :   -0.076209
  24 C :   -0.056878
  25 C :    0.151003
  26 O :   -0.151118
  27 N :   -0.270699
  28 C :    0.100628
  29 C :    0.003338
  30 C :    0.140661
  31 C :   -0.009906
  32 C :    0.022733
  33 C :    0.009068
  34 C :    0.043256
  35 N :   -0.018602
  36 C :   -0.085543
  37 N :   -0.070584
  38 C :    0.041943
  39 C :   -0.114620
  40 S :    0.213274
  41 C :   -0.121077
  42 C :   -0.051082
  43 C :    0.180848
  44 O :   -0.159292
  45 C :    0.202825
  46 O :   -0.110670
  47 C :   -0.010709
  48 O :   -0.120372
  49 S :    0.120525
  50 H :    0.038771
  51 H :    0.026512
  52 H :    0.013973
  53 H :    0.031244
  54 H :    0.021936
  55 H :    0.018734
  56 H :    0.014574
  57 H :    0.011843
  58 H :    0.021663
  59 H :    0.044895
  60 H :    0.011687
  61 H :    0.024286
  62 H :    0.031816
  63 H :   -0.028516
  64 H :    0.023557
  65 H :    0.029098
  66 H :    0.007442
  67 H :    0.033500
Sum of atomic charges:   -0.0000000

LOEWDIN ATOMIC CHARGES
----------------------
   0 C :   -0.194724
   1 S :    0.477253
   2 C :   -0.187323
   3 C :   -0.221139
   4 C :   -0.007019
   5 O :   -0.019598
   6 C :    0.046347
   7 O :   -0.089552
   8 C :   -0.104037
   9 O :   -0.088729
  10 S :    0.393022
  11 C :   -0.089529
  12 C :    0.050176
  13 N :   -0.037595
  14 C :    0.020185
  15 N :   -0.066290
  16 C :    0.044385
  17 C :    0.043295
  18 N :    0.011886
  19 C :    0.036144
  20 C :   -0.061197
  21 C :    0.076026
  22 O :   -0.210881
  23 C :   -0.131664
  24 C :   -0.092263
  25 C :    0.085715
  26 O :   -0.160414
  27 N :   -0.007160
  28 C :    0.035296
  29 C :   -0.061439
  30 C :    0.091729
  31 C :   -0.050642
  32 C :    0.042546
  33 C :   -0.081938
  34 C :    0.071042
  35 N :   -0.067517
  36 C :    0.015990
  37 N :   -0.094024
  38 C :    0.062491
  39 C :   -0.214843
  40 S :    0.510161
  41 C :   -0.193246
  42 C :   -0.233489
  43 C :    0.013298
  44 O :    0.003110
  45 C :    0.047197
  46 O :   -0.088942
  47 C :   -0.107125
  48 O :   -0.096648
  49 S :    0.374466
  50 H :    0.037703
  51 H :    0.020698
  52 H :    0.020857
  53 H :    0.030301
  54 H :    0.022082
  55 H :    0.026188
  56 H :    0.027921
  57 H :    0.017889
  58 H :    0.021837
  59 H :    0.038233
  60 H :    0.020150
  61 H :    0.030831
  62 H :    0.033259
  63 H :    0.026393
  64 H :    0.040740
  65 H :    0.036369
  66 H :    0.025140
  67 H :    0.030619

  Mayer bond orders larger than 0.100000
B(  0-C ,  1-S ) :   1.1498 B(  0-C ,  2-C ) :   0.1041 B(  0-C ,  4-C ) :   1.5798
B(  0-C , 50-H ) :   0.9704 B(  1-S ,  2-C ) :   1.1696 B(  2-C ,  3-C ) :   1.5557
B(  2-C , 11-C ) :   1.0679 B(  3-C ,  4-C ) :   1.2347 B(  3-C , 10-S ) :   0.9720
B(  4-C ,  5-O ) :   1.0512 B(  5-O ,  6-C ) :   1.0953 B(  6-C ,  7-O ) :   2.2404
B(  6-C ,  8-C ) :   0.7966 B(  8-C ,  9-O ) :   2.1745 B(  8-C , 10-S ) :   1.0369
B(  9-O , 10-S ) :   0.1346 B( 11-C , 12-C ) :   1.2841 B( 11-C , 16-C ) :   1.3143
B( 12-C , 13-N ) :   1.5999 B( 12-C , 51-H ) :   0.9840 B( 13-N , 14-C ) :   1.6465
B( 13-N , 17-C ) :  -0.1321 B( 14-C , 15-N ) :   1.4849 B( 14-C , 17-C ) :   0.9882
B( 15-N , 16-C ) :   1.5691 B( 16-C , 52-H ) :   0.9838 B( 17-C , 18-N ) :   1.1942
B( 17-C , 24-C ) :   1.4003 B( 18-N , 19-C ) :   0.9385 B( 18-N , 21-C ) :   1.0729
B( 19-C , 20-C ) :   1.1227 B( 19-C , 53-H ) :   0.9274 B( 19-C , 54-H ) :   0.9365
B( 20-C , 55-H ) :   0.9659 B( 20-C , 56-H ) :   0.9681 B( 20-C , 57-H ) :   0.9656
B( 21-C , 22-O ) :   2.0021 B( 21-C , 23-C ) :   0.9942 B( 22-O , 64-H ) :   0.1241
B( 23-C , 24-C ) :   1.2436 B( 23-C , 30-C ) :   1.3280 B( 24-C , 25-C ) :   0.9418
B( 25-C , 26-O ) :   2.1876 B( 25-C , 27-N ) :   1.0075 B( 27-N , 28-C ) :   0.9484
B( 27-N , 30-C ) :   1.1825 B( 28-C , 29-C ) :   1.1183 B( 28-C , 58-H ) :   0.9502
B( 28-C , 59-H ) :   0.9260 B( 29-C , 60-H ) :   0.9685 B( 29-C , 61-H ) :   0.9682
B( 29-C , 62-H ) :   0.9642 B( 30-C , 31-C ) :   1.1473 B( 31-C , 32-C ) :   1.6304
B( 31-C , 63-H ) :   0.9594 B( 32-C , 33-C ) :   1.0679 B( 32-C , 64-H ) :   0.9540
B( 33-C , 34-C ) :   1.2964 B( 33-C , 38-C ) :   1.3020 B( 34-C , 35-N ) :   1.5640
B( 34-C , 65-H ) :   0.9894 B( 35-N , 36-C ) :   1.6012 B( 36-C , 37-N ) :   1.5710
B( 36-C , 39-C ) :   1.0277 B( 37-N , 38-C ) :   1.5861 B( 38-C , 66-H ) :   0.9829
B( 39-C , 40-S ) :   1.1638 B( 39-C , 41-C ) :   0.1069 B( 39-C , 43-C ) :   1.5109
B( 40-S , 41-C ) :   1.1909 B( 41-C , 42-C ) :   1.5540 B( 41-C , 67-H ) :   0.9729
B( 42-C , 43-C ) :   1.2542 B( 42-C , 49-S ) :   0.9481 B( 43-C , 44-O ) :   1.1222
B( 44-O , 45-C ) :   1.0943 B( 45-C , 46-O ) :   2.2399 B( 45-C , 47-C ) :   0.7948
B( 47-C , 48-O ) :   2.1684 B( 47-C , 49-S ) :   1.0460 B( 48-O , 49-S ) :   0.1400

-----------------------------------------------------------------------------
         ABSORPTION SPECTRUM VIA TRANSITION ELECTRIC DIPOLE MOMENTS
-----------------------------------------------------------------------------
State   Energy  Wavelength   fosc         T2         TX        TY        TZ
        (cm-1)    (nm)                  (au**2)     (au)      (au)      (au)
-----------------------------------------------------------------------------
   0   16668.8    599.9   0.801019668  15.82027  -0.66293  -3.70552  -1.28449
   1   25396.3    393.8   0.023914422   0.31000  -0.19745  -0.51293  -0.08897
   2   26693.6    374.6   0.018460006   0.22767   0.23904   0.40722  -0.06856
   3   27131.1    368.6   0.007630095   0.09258   0.03878   0.28043  -0.11154
   4   28954.5    345.4   0.085582218   0.97307   0.07206   0.98381   0.00015
   5   29067.4    344.0   0.478134228   5.41526   0.40976   2.25490  -0.40345
   6   29401.9    340.1   0.369680220   4.13930  -0.36822  -1.96139   0.39580
   7   30054.2    332.7   0.087046187   0.95350   0.15650   0.75048  -0.60481
   8   30555.8    327.3   0.006925975   0.07462  -0.13857  -0.23188   0.04067
   9   31557.4    316.9   0.091717022   0.95681  -0.40528  -0.88719   0.07380
  10   31985.8    312.6   0.117135394   1.20561   0.27676   0.97714  -0.41740
  11   32533.5    307.4   0.104678436   1.05926   0.35882   0.94641  -0.18659
  12   33229.3    300.9   0.000657849   0.00652   0.04329   0.03391  -0.05911
  13   33853.0    295.4   0.039483948   0.38397  -0.18111  -0.57838  -0.12901
  14   33908.0    294.9   0.079352797   0.77044  -0.39687  -0.75481  -0.20783
  15   34061.7    293.6   0.467050508   4.51412   0.26620   1.61971  -1.34899
  16   34479.5    290.0   0.057859352   0.55244   0.18864   0.66354  -0.27671
  17   35494.8    281.7   0.120046408   1.11342  -0.36037   0.44610   0.88575
  18   36216.7    276.1   0.015323311   0.13929   0.01981   0.32321   0.18556
  19   36713.1    272.4   0.043546668   0.39049  -0.19694  -0.51200  -0.29927
  20   38047.2    262.8   0.012259332   0.10608   0.25837  -0.18689  -0.06627
  21   38334.7    260.9   0.191687849   1.64618  -0.33899   0.23059  -1.21577
  22   38746.2    258.1   0.232140881   1.97242  -0.76044  -0.71114   0.94257
  23   38963.3    256.7   0.021832720   0.18447  -0.11868  -0.20501   0.35827
  24   39799.8    251.3   0.023602003   0.19523   0.07879   0.38756   0.19703
  25   39865.2    250.8   0.004844602   0.04001   0.16998  -0.06200   0.08526

FINAL SINGLE POINT ENERGY     -3750.216203209548

DIPOLE MOMENT
-------------
                                X             Y             Z
Electronic contribution:      4.20867      -8.00015       3.35809
Nuclear contribution   :     -5.30909       8.30111      -4.18248
                        -----------------------------------------
Total Dipole Moment    :     -1.10042       0.30096      -0.82439
                        -----------------------------------------
Magnitude (a.u.)       :      1.40753
Magnitude (Debye)      :      3.57765

Rotational constants in cm-1:     0.005190     0.000393     0.000371
Rotational constants in MHz :   155.598466    11.784880    11.131624

                             ****ORCA TERMINATED NORMALLY****
TOTAL RUN TIME: 0 days 0 hours 4 minutes 53 seconds 698 msec
