                         Program Version 4.2.0 -  RELEASE  -
|  1> # ORCA input file
|  2> # SCF done       -142.738207357005          0.000741611434
|  3> ! CAM-B3LYP def2-SVP def2/J RIJCOSX Grid4 TightSCF
|  4> %maxcore 5000
|  5> %tddft
|  6>     Mode sTDDFT
|  7>     Ethresh 5.0
|  8>     maxcore 5000
|  9> end
| 10>
| 11> %pal
| 12>   nprocs 6
| 13>   end
| 14> * xyz 0 1
| 15>    C        0.48948         0.97607        -3.99703
| 16>    N        1.50442         0.34464        -4.61679
| 17>    N        1.51036        -0.92084        -4.50803
| 18>    C        0.47480        -1.59611        -4.01042
| 19>    N       -0.71707        -0.93632        -3.98681
| 20>    N       -0.63389         0.32708        -3.84164
| 21>    C        0.58733        -2.96765        -3.67256
| 22>    C       -0.33424        -3.71893        -2.97363
| 23>    C        0.16910        -5.04426        -2.84716
| 24>    C        1.49093        -5.04996        -3.48953
| 25>    C        1.73440        -3.80050        -3.97245
| 26>    C        2.40865        -6.10846        -3.51585
| 27>    N        3.21068        -6.93027        -3.52471
| 28>    C       -0.45449        -6.12725        -2.25622
| 29>    C       -0.03384        -7.47818        -2.28683
| 30>    C       -0.89754        -8.24755        -1.52231
| 31>    C       -1.92147        -7.35966        -0.99175
| 32>    C       -1.68163        -6.09914        -1.44385
| 33>    C       -2.46270        -4.98053        -1.13421
| 34>    N       -3.12272        -4.08514        -0.84733
| 35>    C       -0.73402        -9.64494        -1.35195
| 36>    N       -1.25721       -10.44015        -0.36100
| 37>    C       -2.11760       -10.05694         0.73355
| 38>    C       -3.59221       -10.20276         0.36471
| 39>    C       -0.82186       -11.77210        -0.46975
| 40>    O       -1.13429       -12.64443         0.31629
| 41>    C        0.01961       -11.78467        -1.64560
| 42>    C        0.05818       -10.46978        -2.16030
| 43>    C        0.84868       -10.48831        -3.37375
| 44>    O        1.12681        -9.63842        -4.18946
| 45>    N        1.26692       -11.83342        -3.48958
| 46>    C        2.16222       -12.23313        -4.54766
| 47>    C        3.61081       -12.28745        -4.06826
| 48>    C        0.78930       -12.61190        -2.46855
| 49>    C        1.06414       -13.99954        -2.33712
| 50>    C        0.58275       -14.73722        -1.30920
| 51>    C        0.81548       -16.14026        -1.08611
| 52>    C        0.22763       -16.74291         0.03076
| 53>    C        0.42458       -18.08389         0.30360
| 54>    N       -0.15079       -18.60666         1.51935
| 55>    O       -1.10509       -18.02209         1.98012
| 56>    O        0.36761       -19.58596         2.01474
| 57>    C        1.20585       -18.90189        -0.53194
| 58>    C        1.79349       -18.28579        -1.64364
| 59>    C        1.61071       -16.94940        -1.91339
| 60>    C        1.35882       -20.32531        -0.31472
| 61>    C        2.48296       -21.00778        -0.58727
| 62>    C        2.57837       -22.42094        -0.36215
| 63>    N        3.74685       -23.03844        -0.48827
| 64>    N        3.91209       -24.23834        -0.06411
| 65>    C        2.89869       -24.73731         0.65593
| 66>    N        1.68335       -24.30717         0.41917
| 67>    N        1.48195       -23.19691        -0.19462
| 68>    H        0.55282         2.02576        -3.77845
| 69>    H       -1.28027        -3.37000        -2.60884
| 70>    H        2.61574        -3.45944        -4.48143
| 71>    H        0.81605        -7.84178        -2.82834
| 72>    H       -2.76009        -7.64241        -0.38583
| 73>    H       -1.87501        -9.03823         1.04214
| 74>    H       -1.88899       -10.73826         1.55874
| 75>    H       -3.83631        -9.62671        -0.52553
| 76>    H       -4.21489        -9.86232         1.18748
| 77>    H       -3.81799       -11.24783         0.16790
| 78>    H        2.06577       -11.47196        -5.32693
| 79>    H        1.84388       -13.19679        -4.95494
| 80>    H        3.92070       -11.30438        -3.72307
| 81>    H        4.25870       -12.58690        -4.88726
| 82>    H        3.72689       -12.99525        -3.24986
| 83>    H        1.68349       -14.44828        -3.09969
| 84>    H       -0.03788       -14.24784        -0.57005
| 85>    H       -0.37959       -16.15741         0.70624
| 86>    H        2.38141       -18.89149        -2.31578
| 87>    H        2.08767       -16.52536        -2.78282
| 88>    H        0.51900       -20.86975         0.09584
| 89>    H        3.38991       -20.52757        -0.92389
| 90>    H        3.05341       -25.59427         1.28608
| 91> *
| 92>
| 93>                          ****END OF INPUT****

CARTESIAN COORDINATES (ANGSTROEM)
---------------------------------
  C      0.489480    0.976070   -3.997030
  N      1.504420    0.344640   -4.616790
  N      1.510360   -0.920840   -4.508030
  C      0.474800   -1.596110   -4.010420
  N     -0.717070   -0.936320   -3.986810
  N     -0.633890    0.327080   -3.841640
  C      0.587330   -2.967650   -3.672560
  C     -0.334240   -3.718930   -2.973630
  C      0.169100   -5.044260   -2.847160
  C      1.490930   -5.049960   -3.489530
  C      1.734400   -3.800500   -3.972450
  C      2.408650   -6.108460   -3.515850
  N      3.210680   -6.930270   -3.524710
  C     -0.454490   -6.127250   -2.256220
  C     -0.033840   -7.478180   -2.286830
  C     -0.897540   -8.247550   -1.522310
  C     -1.921470   -7.359660   -0.991750
  C     -1.681630   -6.099140   -1.443850
  C     -2.462700   -4.980530   -1.134210
  N     -3.122720   -4.085140   -0.847330
  C     -0.734020   -9.644940   -1.351950
  N     -1.257210  -10.440150   -0.361000
  C     -2.117600  -10.056940    0.733550
  C     -3.592210  -10.202760    0.364710
  C     -0.821860  -11.772100   -0.469750
  O     -1.134290  -12.644430    0.316290
  C      0.019610  -11.784670   -1.645600
  C      0.058180  -10.469780   -2.160300
  C      0.848680  -10.488310   -3.373750
  O      1.126810   -9.638420   -4.189460
  N      1.266920  -11.833420   -3.489580
  C      2.162220  -12.233130   -4.547660
  C      3.610810  -12.287450   -4.068260
  C      0.789300  -12.611900   -2.468550
  C      1.064140  -13.999540   -2.337120
  C      0.582750  -14.737220   -1.309200
  C      0.815480  -16.140260   -1.086110
  C      0.227630  -16.742910    0.030760
  C      0.424580  -18.083890    0.303600
  N     -0.150790  -18.606660    1.519350
  O     -1.105090  -18.022090    1.980120
  O      0.367610  -19.585960    2.014740
  C      1.205850  -18.901890   -0.531940
  C      1.793490  -18.285790   -1.643640
  C      1.610710  -16.949400   -1.913390
  C      1.358820  -20.325310   -0.314720
  C      2.482960  -21.007780   -0.587270
  C      2.578370  -22.420940   -0.362150
  N      3.746850  -23.038440   -0.488270
  N      3.912090  -24.238340   -0.064110
  C      2.898690  -24.737310    0.655930
  N      1.683350  -24.307170    0.419170
  N      1.481950  -23.196910   -0.194620
  H      0.552820    2.025760   -3.778450
  H     -1.280270   -3.370000   -2.608840
  H      2.615740   -3.459440   -4.481430
  H      0.816050   -7.841780   -2.828340
  H     -2.760090   -7.642410   -0.385830
  H     -1.875010   -9.038230    1.042140
  H     -1.888990  -10.738260    1.558740
  H     -3.836310   -9.626710   -0.525530
  H     -4.214890   -9.862320    1.187480
  H     -3.817990  -11.247830    0.167900
  H      2.065770  -11.471960   -5.326930
  H      1.843880  -13.196790   -4.954940
  H      3.920700  -11.304380   -3.723070
  H      4.258700  -12.586900   -4.887260
  H      3.726890  -12.995250   -3.249860
  H      1.683490  -14.448280   -3.099690
  H     -0.037880  -14.247840   -0.570050
  H     -0.379590  -16.157410    0.706240
  H      2.381410  -18.891490   -2.315780
  H      2.087670  -16.525360   -2.782820
  H      0.519000  -20.869750    0.095840
  H      3.389910  -20.527570   -0.923890
  H      3.053410  -25.594270    1.286080

 Total Charge           Charge          ....    0
 Multiplicity           Mult            ....    1
 Number of Electrons    NEL             ....  362
 Basis Dimension        Dim             ....  857

ORBITAL ENERGIES
----------------

  NO   OCC          E(Eh)            E(eV)
   0   2.0000     -19.255591      -523.9713
   1   2.0000     -19.254372      -523.9381
   2   2.0000     -19.208975      -522.7028
   3   2.0000     -19.203866      -522.5638
   4   2.0000     -14.660480      -398.9320
   5   2.0000     -14.476906      -393.9367
   6   2.0000     -14.474665      -393.8757
   7   2.0000     -14.473379      -393.8407
   8   2.0000     -14.471928      -393.8012
   9   2.0000     -14.471911      -393.8007
  10   2.0000     -14.470639      -393.7661
  11   2.0000     -14.470371      -393.7588
  12   2.0000     -14.469359      -393.7313
  13   2.0000     -14.469167      -393.7260
  14   2.0000     -14.469058      -393.7231
  15   2.0000     -14.416050      -392.2807
  16   2.0000     -14.405697      -391.9989
  17   2.0000     -10.390376      -282.7365
  18   2.0000     -10.386999      -282.6446
  19   2.0000     -10.368643      -282.1451
  20   2.0000     -10.363271      -281.9990
  21   2.0000     -10.360096      -281.9125
  22   2.0000     -10.356019      -281.8016
  23   2.0000     -10.354738      -281.7668
  24   2.0000     -10.352310      -281.7007
  25   2.0000     -10.347769      -281.5771
  26   2.0000     -10.333499      -281.1888
  27   2.0000     -10.331273      -281.1282
  28   2.0000     -10.329023      -281.0670
  29   2.0000     -10.326845      -281.0077
  30   2.0000     -10.322883      -280.8999
  31   2.0000     -10.321257      -280.8557
  32   2.0000     -10.320470      -280.8343
  33   2.0000     -10.319639      -280.8117
  34   2.0000     -10.317442      -280.7519
  35   2.0000     -10.317283      -280.7475
  36   2.0000     -10.316989      -280.7395
  37   2.0000     -10.314331      -280.6672
  38   2.0000     -10.314180      -280.6631
  39   2.0000     -10.311336      -280.5857
  40   2.0000     -10.311071      -280.5785
  41   2.0000     -10.310873      -280.5731
  42   2.0000     -10.310714      -280.5688
  43   2.0000     -10.309883      -280.5462
  44   2.0000     -10.309167      -280.5267
  45   2.0000     -10.307207      -280.4733
  46   2.0000     -10.301715      -280.3239
  47   2.0000     -10.300188      -280.2824
  48   2.0000     -10.291692      -280.0512
  49   2.0000     -10.281871      -279.7839
  50   2.0000     -10.276342      -279.6335
  51   2.0000     -10.274448      -279.5819
  52   2.0000     -10.273176      -279.5473
  53   2.0000      -1.336660       -36.3724
  54   2.0000      -1.205457       -32.8022
  55   2.0000      -1.199026       -32.6272
  56   2.0000      -1.155556       -31.4443
  57   2.0000      -1.150111       -31.2961
  58   2.0000      -1.142668       -31.0936
  59   2.0000      -1.104238       -30.0478
  60   2.0000      -1.096577       -29.8394
  61   2.0000      -1.080111       -29.3913
  62   2.0000      -1.071326       -29.1523
  63   2.0000      -1.024983       -27.8912
  64   2.0000      -1.008803       -27.4509
  65   2.0000      -1.008238       -27.4355
  66   2.0000      -0.992279       -27.0013
  67   2.0000      -0.988948       -26.9106
  68   2.0000      -0.987086       -26.8600
  69   2.0000      -0.972895       -26.4738
  70   2.0000      -0.946686       -25.7606
  71   2.0000      -0.940777       -25.5998
  72   2.0000      -0.915325       -24.9073
  73   2.0000      -0.906529       -24.6679
  74   2.0000      -0.893959       -24.3259
  75   2.0000      -0.883917       -24.0526
  76   2.0000      -0.871421       -23.7126
  77   2.0000      -0.867519       -23.6064
  78   2.0000      -0.856012       -23.2933
  79   2.0000      -0.838284       -22.8109
  80   2.0000      -0.833681       -22.6856
  81   2.0000      -0.831926       -22.6379
  82   2.0000      -0.820998       -22.3405
  83   2.0000      -0.814434       -22.1619
  84   2.0000      -0.808481       -21.9999
  85   2.0000      -0.797984       -21.7142
  86   2.0000      -0.780198       -21.2303
  87   2.0000      -0.773331       -21.0434
  88   2.0000      -0.772094       -21.0098
  89   2.0000      -0.741652       -20.1814
  90   2.0000      -0.727737       -19.8027
  91   2.0000      -0.725000       -19.7282
  92   2.0000      -0.720580       -19.6080
  93   2.0000      -0.709045       -19.2941
  94   2.0000      -0.702382       -19.1128
  95   2.0000      -0.693886       -18.8816
  96   2.0000      -0.687599       -18.7105
  97   2.0000      -0.677263       -18.4293
  98   2.0000      -0.675788       -18.3891
  99   2.0000      -0.674881       -18.3644
 100   2.0000      -0.665336       -18.1047
 101   2.0000      -0.658961       -17.9312
 102   2.0000      -0.647818       -17.6280
 103   2.0000      -0.645920       -17.5764
 104   2.0000      -0.629902       -17.1405
 105   2.0000      -0.624484       -16.9931
 106   2.0000      -0.620692       -16.8899
 107   2.0000      -0.618918       -16.8416
 108   2.0000      -0.610171       -16.6036
 109   2.0000      -0.603822       -16.4308
 110   2.0000      -0.597471       -16.2580
 111   2.0000      -0.588653       -16.0181
 112   2.0000      -0.587064       -15.9748
 113   2.0000      -0.586003       -15.9459
 114   2.0000      -0.584642       -15.9089
 115   2.0000      -0.579866       -15.7790
 116   2.0000      -0.579056       -15.7569
 117   2.0000      -0.573458       -15.6046
 118   2.0000      -0.563141       -15.3238
 119   2.0000      -0.553911       -15.0727
 120   2.0000      -0.551873       -15.0172
 121   2.0000      -0.549343       -14.9484
 122   2.0000      -0.544566       -14.8184
 123   2.0000      -0.543353       -14.7854
 124   2.0000      -0.536386       -14.5958
 125   2.0000      -0.533657       -14.5215
 126   2.0000      -0.530690       -14.4408
 127   2.0000      -0.526727       -14.3330
 128   2.0000      -0.518184       -14.1005
 129   2.0000      -0.515424       -14.0254
 130   2.0000      -0.510159       -13.8821
 131   2.0000      -0.506827       -13.7915
 132   2.0000      -0.503985       -13.7141
 133   2.0000      -0.497181       -13.5290
 134   2.0000      -0.494565       -13.4578
 135   2.0000      -0.493544       -13.4300
 136   2.0000      -0.490614       -13.3503
 137   2.0000      -0.482502       -13.1295
 138   2.0000      -0.481542       -13.1034
 139   2.0000      -0.478256       -13.0140
 140   2.0000      -0.475098       -12.9281
 141   2.0000      -0.470950       -12.8152
 142   2.0000      -0.467754       -12.7282
 143   2.0000      -0.465056       -12.6548
 144   2.0000      -0.464921       -12.6511
 145   2.0000      -0.457996       -12.4627
 146   2.0000      -0.455120       -12.3844
 147   2.0000      -0.453315       -12.3353
 148   2.0000      -0.449820       -12.2402
 149   2.0000      -0.447495       -12.1770
 150   2.0000      -0.444479       -12.0949
 151   2.0000      -0.444064       -12.0836
 152   2.0000      -0.443358       -12.0644
 153   2.0000      -0.440113       -11.9761
 154   2.0000      -0.439706       -11.9650
 155   2.0000      -0.439143       -11.9497
 156   2.0000      -0.437532       -11.9059
 157   2.0000      -0.434866       -11.8333
 158   2.0000      -0.433440       -11.7945
 159   2.0000      -0.421868       -11.4796
 160   2.0000      -0.418969       -11.4007
 161   2.0000      -0.409782       -11.1507
 162   2.0000      -0.404011       -10.9937
 163   2.0000      -0.398924       -10.8553
 164   2.0000      -0.397101       -10.8057
 165   2.0000      -0.392305       -10.6752
 166   2.0000      -0.383504       -10.4357
 167   2.0000      -0.377604       -10.2751
 168   2.0000      -0.373412       -10.1611
 169   2.0000      -0.362948        -9.8763
 170   2.0000      -0.362789        -9.8720
 171   2.0000      -0.348597        -9.4858
 172   2.0000      -0.347059        -9.4440
 173   2.0000      -0.340664        -9.2700
 174   2.0000      -0.331404        -9.0180
 175   2.0000      -0.321100        -8.7376
 176   2.0000      -0.315407        -8.5827
 177   2.0000      -0.310039        -8.4366
 178   2.0000      -0.297162        -8.0862
 179   2.0000      -0.294519        -8.0143
 180   2.0000      -0.250863        -6.8263
 181   0.0000      -0.141276        -3.8443
 182   0.0000      -0.092705        -2.5226
 183   0.0000      -0.063816        -1.7365
 184   0.0000      -0.050742        -1.3808
 185   0.0000      -0.049111        -1.3364

MULLIKEN ATOMIC CHARGES
-----------------------
   0 C :    0.109741
   1 N :   -0.062301
   2 N :   -0.035214
   3 C :   -0.095492
   4 N :   -0.027688
   5 N :   -0.059091
   6 C :    0.139679
   7 C :   -0.091589
   8 C :    0.099020
   9 C :   -0.087317
  10 C :   -0.002041
  11 C :   -0.176854
  12 N :    0.143900
  13 C :    0.139531
  14 C :   -0.116150
  15 C :    0.047347
  16 C :   -0.026777
  17 C :   -0.092830
  18 C :   -0.188790
  19 N :    0.152868
  20 C :    0.147996
  21 N :   -0.258000
  22 C :    0.102801
  23 C :    0.000296
  24 C :    0.166158
  25 O :   -0.215460
  26 C :   -0.071462
  27 C :   -0.045918
  28 C :    0.152320
  29 O :   -0.173977
  30 N :   -0.260455
  31 C :    0.096135
  32 C :    0.001190
  33 C :    0.143664
  34 C :    0.003893
  35 C :    0.011844
  36 C :    0.107404
  37 C :   -0.072017
  38 C :    0.162522
  39 N :    0.242512
  40 O :   -0.221557
  41 O :   -0.228200
  42 C :    0.047331
  43 C :   -0.021988
  44 C :    0.020791
  45 C :    0.043325
  46 C :    0.026289
  47 C :   -0.041187
  48 N :   -0.045264
  49 N :   -0.064041
  50 C :    0.101230
  51 N :   -0.063825
  52 N :   -0.053222
  53 H :    0.038315
  54 H :    0.023198
  55 H :    0.014079
  56 H :    0.027314
  57 H :   -0.007589
  58 H :    0.025368
  59 H :    0.043814
  60 H :    0.020042
  61 H :    0.029200
  62 H :    0.036177
  63 H :    0.051580
  64 H :    0.022846
  65 H :    0.043994
  66 H :    0.027334
  67 H :    0.012429
  68 H :   -0.029632
  69 H :    0.015899
  70 H :    0.025123
  71 H :   -0.001985
  72 H :   -0.011747
  73 H :    0.040130
  74 H :    0.006552
  75 H :    0.036477
Sum of atomic charges:   -0.0000000

LOEWDIN ATOMIC CHARGES
----------------------
   0 C :    0.008547
   1 N :   -0.028708
   2 N :   -0.023381
   3 C :   -0.006890
   4 N :   -0.033097
   5 N :   -0.008440
   6 C :   -0.043188
   7 C :    0.019753
   8 C :    0.038126
   9 C :   -0.083948
  10 C :    0.065952
  11 C :   -0.032330
  12 N :   -0.055354
  13 C :    0.045144
  14 C :    0.006541
  15 C :   -0.026595
  16 C :    0.046586
  17 C :   -0.075141
  18 C :   -0.034976
  19 N :   -0.051553
  20 C :    0.065893
  21 N :    0.003812
  22 C :    0.037145
  23 C :   -0.061957
  24 C :    0.079485
  25 O :   -0.203076
  26 C :   -0.125284
  27 C :   -0.096503
  28 C :    0.086304
  29 O :   -0.164908
  30 N :    0.002509
  31 C :    0.036141
  32 C :   -0.060203
  33 C :    0.091793
  34 C :   -0.046916
  35 C :    0.045456
  36 C :   -0.027527
  37 C :    0.024007
  38 C :   -0.021512
  39 N :    0.283666
  40 O :   -0.189801
  41 O :   -0.187836
  42 C :   -0.001474
  43 C :   -0.001329
  44 C :    0.016826
  45 C :    0.035055
  46 C :   -0.038529
  47 C :   -0.007655
  48 N :   -0.027620
  49 N :   -0.029104
  50 C :    0.005933
  51 N :   -0.014215
  52 N :   -0.038944
  53 H :    0.033419
  54 H :    0.042375
  55 H :    0.043485
  56 H :    0.038921
  57 H :    0.037159
  58 H :    0.024333
  59 H :    0.039115
  60 H :    0.020788
  61 H :    0.033317
  62 H :    0.035860
  63 H :    0.041154
  64 H :    0.022330
  65 H :    0.037973
  66 H :    0.032484
  67 H :    0.020511
  68 H :    0.027284
  69 H :    0.040285
  70 H :    0.049965
  71 H :    0.038341
  72 H :    0.033278
  73 H :    0.040398
  74 H :    0.038491
  75 H :    0.032055

  Mayer bond orders larger than 0.100000
B(  0-C ,  1-N ) :   1.3890 B(  0-C ,  5-N ) :   1.5065 B(  0-C , 53-H ) :   0.9863
B(  1-N ,  2-N ) :   1.4044 B(  1-N ,  4-N ) :   0.1031 B(  2-N ,  3-C ) :   1.5532
B(  3-C ,  4-N ) :   1.4372 B(  3-C ,  6-C ) :   1.0095 B(  4-N ,  5-N ) :   1.3734
B(  6-C ,  7-C ) :   1.5517 B(  6-C , 10-C ) :   1.0675 B(  7-C ,  8-C ) :   1.0919
B(  7-C , 54-H ) :   1.0136 B(  8-C ,  9-C ) :   1.1216 B(  8-C , 13-C ) :   1.3870
B(  9-C , 10-C ) :   1.6320 B(  9-C , 11-C ) :   1.0899 B( 10-C , 55-H ) :   1.0308
B( 11-C , 12-N ) :   2.9879 B( 13-C , 14-C ) :   1.1284 B( 13-C , 17-C ) :   1.0956
B( 14-C , 15-C ) :   1.5394 B( 14-C , 56-H ) :   0.9911 B( 15-C , 16-C ) :   1.0179
B( 15-C , 20-C ) :   1.0548 B( 16-C , 17-C ) :   1.6754 B( 16-C , 57-H ) :   1.0242
B( 17-C , 18-C ) :   1.0838 B( 18-C , 19-N ) :   2.9792 B( 20-C , 21-N ) :   1.1925
B( 20-C , 27-C ) :   1.3601 B( 21-N , 22-C ) :   0.9390 B( 21-N , 24-C ) :   1.0596
B( 22-C , 23-C ) :   1.1181 B( 22-C , 58-H ) :   0.9501 B( 22-C , 59-H ) :   0.9267
B( 23-C , 60-H ) :   0.9655 B( 23-C , 61-H ) :   0.9687 B( 23-C , 62-H ) :   0.9604
B( 24-C , 25-O ) :   2.0098 B( 24-C , 26-C ) :   0.9929 B( 25-O , 69-H ) :   0.1179
B( 26-C , 27-C ) :   1.2619 B( 26-C , 33-C ) :   1.3051 B( 27-C , 28-C ) :   0.9647
B( 28-C , 29-O ) :   2.0996 B( 28-C , 30-N ) :   1.0305 B( 30-N , 31-C ) :   0.9408
B( 30-N , 33-C ) :   1.1865 B( 31-C , 32-C ) :   1.1205 B( 31-C , 63-H ) :   0.9260
B( 31-C , 64-H ) :   0.9497 B( 32-C , 65-H ) :   0.9634 B( 32-C , 66-H ) :   0.9680
B( 32-C , 67-H ) :   0.9681 B( 33-C , 34-C ) :   1.1538 B( 34-C , 35-C ) :   1.6021
B( 34-C , 68-H ) :   0.9579 B( 35-C , 36-C ) :   1.0788 B( 35-C , 69-H ) :   0.9650
B( 36-C , 37-C ) :   1.2822 B( 36-C , 44-C ) :   1.3096 B( 37-C , 38-C ) :   1.3624
B( 37-C , 70-H ) :   1.0066 B( 38-C , 39-N ) :   0.8765 B( 38-C , 42-C ) :   1.3507
B( 39-N , 40-O ) :   1.5625 B( 39-N , 41-O ) :   1.5252 B( 40-O , 41-O ) :   0.2699
B( 42-C , 43-C ) :   1.3486 B( 42-C , 45-C ) :   1.0335 B( 43-C , 44-C ) :   1.4153
B( 43-C , 71-H ) :   0.9886 B( 44-C , 72-H ) :   0.9914 B( 45-C , 46-C ) :   1.7312
B( 45-C , 73-H ) :   0.9473 B( 46-C , 47-C ) :   1.0914 B( 46-C , 74-H ) :   0.9672
B( 47-C , 48-N ) :   1.4870 B( 47-C , 52-N ) :   1.4095 B( 48-N , 49-N ) :   1.3913
B( 49-N , 50-C ) :   1.4148 B( 49-N , 52-N ) :   0.1037 B( 50-C , 51-N ) :   1.4985
B( 50-C , 75-H ) :   0.9858 B( 51-N , 52-N ) :   1.3792

-----------------------------------------------------------------------------
         ABSORPTION SPECTRUM VIA TRANSITION ELECTRIC DIPOLE MOMENTS
-----------------------------------------------------------------------------
State   Energy  Wavelength   fosc         T2         TX        TY        TZ
        (cm-1)    (nm)                  (au**2)     (au)      (au)      (au)
-----------------------------------------------------------------------------
   0    8363.2   1195.7   0.377933239  14.87709   0.06137  -3.83185   0.43617
   1   14768.8    677.1   0.014276316   0.31823  -0.19047  -0.49445   0.19358
   2   16757.9    596.7   0.006709420   0.13181  -0.30104   0.01770   0.20216
   3   18664.2    535.8   0.328370855   5.79204   0.87467  -2.21653  -0.33761
   4   19669.5    508.4   0.116585315   1.95131  -0.55025   1.27530   0.14884
   5   20061.1    498.5   0.010671777   0.17513  -0.00689   0.20097   0.36701
   6   20384.5    490.6   0.014657335   0.23672   0.01169  -0.05000   0.48382
   7   23234.2    430.4   0.004223642   0.05985   0.04244  -0.24082  -0.00705
   8   23535.1    424.9   0.021121724   0.29545  -0.04321   0.53366   0.09375
   9   24703.9    404.8   0.000870994   0.01161   0.03858  -0.06142   0.07966
  10   25843.8    386.9   0.362603939   4.61904  -0.08909   2.09012  -0.49243
  11   26512.6    377.2   0.193800859   2.40646  -0.06653   1.40352  -0.65738
  12   27508.1    363.5   0.400190516   4.78941   0.94259   1.74986  -0.91593
  13   27928.0    358.1   0.051814421   0.61078  -0.13919   0.75005  -0.16979
  14   28104.2    355.8   0.100637291   1.17886  -0.49611  -0.79498   0.54839
  15   29492.9    339.1   0.001520879   0.01698   0.11952  -0.03575  -0.03760
  16   30754.1    325.2   0.083932139   0.89846   0.44563   0.31171  -0.77635
  17   31668.1    315.8   0.018269189   0.18992   0.22847   0.31029  -0.20358
  18   31853.6    313.9   0.245014083   2.53226   0.16541  -1.53568   0.38286
  19   32289.6    309.7   0.482425521   4.91861   0.35905  -2.11763   0.55259
  20   32878.4    304.2   0.050112715   0.50178   0.62098  -0.05835  -0.33580
  21   33473.8    298.7   0.037762774   0.37139   0.04551  -0.58850   0.15163
  22   33927.4    294.7   0.038016802   0.36889   0.17591  -0.55620  -0.16910
  23   34297.3    291.6   0.004256355   0.04086  -0.12007   0.15427   0.05138
  24   34394.5    290.7   0.025708273   0.24607  -0.02635  -0.48295   0.11014
  25   34526.2    289.6   0.003716307   0.03544  -0.14709  -0.11658   0.01454
  26   34666.5    288.5   0.104466568   0.99207  -0.19609  -0.90590   0.36464
  27   35055.9    285.3   0.042749547   0.40146   0.19397   0.55411  -0.23833
  28   35308.0    283.2   0.183541149   1.71134   0.12475  -1.19877   0.50865
  29   35706.7    280.1   0.001470308   0.01356   0.00006  -0.11529   0.01625
  30   36042.9    277.4   0.031960812   0.29193   0.33859  -0.42105   0.00064
  31   36479.5    274.1   0.024949078   0.22515  -0.22528  -0.31696   0.27192
  32   36645.1    272.9   0.004899887   0.04402  -0.19290   0.03271   0.07575
  33   36925.1    270.8   0.141315757   1.25992   0.38243   0.65317  -0.82888
  34   37086.7    269.6   0.014428876   0.12808   0.15567  -0.30354  -0.10823
  35   37253.6    268.4   0.021429754   0.18938  -0.20095  -0.37786   0.07885
  36   37891.0    263.9   0.016686756   0.14498   0.12905   0.32635  -0.14773
  37   38005.8    263.1   0.028676487   0.24840   0.19230  -0.00052  -0.45981
  38   38500.7    259.7   0.001851699   0.01583   0.02993  -0.11390   0.04434
  39   39262.2    254.7   0.003884300   0.03257   0.01701   0.17001  -0.05811
  40   39395.9    253.8   0.005462116   0.04564   0.12971   0.15933   0.05860
  41   40274.6    248.3   0.034483353   0.28187  -0.10814   0.51614   0.06143

FINAL SINGLE POINT ENERGY     -2395.006104136484

DIPOLE MOMENT
-------------
                                X             Y             Z
Electronic contribution:      0.25282      11.82297       1.42069
Nuclear contribution   :      0.41287     -12.39288      -1.83833
                        -----------------------------------------
Total Dipole Moment    :      0.66569      -0.56991      -0.41764
                        -----------------------------------------
Magnitude (a.u.)       :      0.97076
Magnitude (Debye)      :      2.46747

Rotational constants in cm-1:     0.005658     0.000436     0.000410
Rotational constants in MHz :   169.628341    13.079065    12.279387

                             ****ORCA TERMINATED NORMALLY****
TOTAL RUN TIME: 0 days 0 hours 6 minutes 24 seconds 240 msec
