                         Program Version 4.2.0 -  RELEASE  -
|  1> # ORCA input file
|  2> # SCF done       -159.900119799728          0.000611633567
|  3> ! CAM-B3LYP def2-SVP def2/J RIJCOSX Grid4 TightSCF
|  4> %maxcore 5000
|  5> %tddft
|  6>     Mode sTDDFT
|  7>     Ethresh 5.0
|  8>     maxcore 5000
|  9> end
| 10>
| 11> %pal
| 12>   nprocs 6
| 13>   end
| 14> * xyz 0 1
| 15>    C       -1.60652         1.12302         8.44406
| 16>    N       -0.28662         1.17870         8.42894
| 17>    N        0.38266         0.14333         8.12977
| 18>    C       -0.28268        -1.00827         7.91172
| 19>    N       -1.51391        -0.85306         7.39320
| 20>    N       -2.16893         0.19114         7.69646
| 21>    C        0.35282        -2.29294         8.01282
| 22>    C        0.28190        -2.98988         9.20711
| 23>    N       -0.37826        -2.44004        10.29229
| 24>    O       -0.43291        -3.02990        11.35196
| 25>    O       -0.89562        -1.32857        10.09145
| 26>    C        0.94309        -4.25668         9.06490
| 27>    C        1.37277        -4.35081         7.78200
| 28>    C        1.02227        -3.15183         7.05962
| 29>    C        1.28208        -2.81409         5.74229
| 30>    C        1.30894        -1.48771         5.22157
| 31>    C        1.79553        -1.52924         3.95162
| 32>    C        2.06857        -2.89087         3.59150
| 33>    N        2.48263        -3.18883         2.28470
| 34>    O        2.42682        -2.28599         1.46664
| 35>    O        2.88502        -4.31213         2.01229
| 36>    C        1.72600        -3.72426         4.66719
| 37>    C        1.56334        -5.11901         4.78512
| 38>    C        2.17385        -6.10019         4.04988
| 39>    C        1.86980        -7.46296         4.21876
| 40>    N        2.46072        -8.46462         3.48645
| 41>    C        3.43335        -8.30120         2.42870
| 42>    C        2.80910        -7.77488         1.13977
| 43>    C        1.98489        -9.73228         3.84224
| 44>    O        2.36649       -10.76859         3.33711
| 45>    C        1.01986        -9.47364         4.89571
| 46>    C        0.97058        -8.08026         5.10510
| 47>    C        0.01977        -7.82311         6.16453
| 48>    O       -0.35965        -6.79624         6.69186
| 49>    N       -0.45323        -9.09857         6.52523
| 50>    C       -1.39673        -9.26109         7.60496
| 51>    C       -0.70900        -9.69647         8.89672
| 52>    C        0.13174       -10.09363         5.78161
| 53>    C       -0.17177       -11.47127         5.92656
| 54>    C        0.42856       -12.42594         5.17391
| 55>    C        0.18258       -13.84008         5.23992
| 56>    C        0.86459       -14.67660         4.34853
| 57>    C        0.68773       -16.04668         4.36538
| 58>    N        1.45886       -16.79211         3.39079
| 59>    O        1.64488       -16.25441         2.32277
| 60>    O        1.88343       -17.88304         3.70058
| 61>    C       -0.21640       -16.66367         5.25488
| 62>    C       -0.89780       -15.81012         6.13702
| 63>    C       -0.70135       -14.45053         6.14393
| 64>    C       -0.46323       -18.08719         5.25677
| 65>    C       -1.57385       -18.67323         5.74486
| 66>    C       -1.75935       -20.09120         5.69066
| 67>    N       -0.73499       -20.95180         5.46658
| 68>    N       -1.07668       -22.09522         5.00186
| 69>    C       -2.32650       -22.48376         4.98625
| 70>    N       -3.20612       -21.84704         5.77585
| 71>    N       -2.92980       -20.62324         6.02482
| 72>    H       -2.18913         1.90989         8.88405
| 73>    H        1.05882        -4.96870         9.85825
| 74>    H        1.94828        -5.15670         7.37335
| 75>    H        1.07028        -0.60382         5.77818
| 76>    H        1.96796        -0.70185         3.28932
| 77>    H        0.86111        -5.42722         5.54932
| 78>    H        2.91760        -5.83884         3.31557
| 79>    H        3.85145        -9.29718         2.25730
| 80>    H        4.23123        -7.63538         2.76744
| 81>    H        1.97292        -8.40383         0.84355
| 82>    H        3.55299        -7.79298         0.34864
| 83>    H        2.46161        -6.75213         1.25704
| 84>    H       -2.17053        -9.97602         7.31194
| 85>    H       -1.86094        -8.28176         7.75046
| 86>    H       -0.19373       -10.64591         8.76700
| 87>    H       -1.44581        -9.80171         9.68797
| 88>    H        0.01871        -8.94767         9.19907
| 89>    H       -0.91553       -11.73443         6.66420
| 90>    H        1.16415       -12.11722         4.44256
| 91>    H        1.54952       -14.24816         3.63064
| 92>    H       -1.57877       -16.24455         6.85136
| 93>    H       -1.23942       -13.85061         6.86075
| 94>    H        0.29337       -18.72542         4.82102
| 95>    H       -2.40644       -18.12089         6.15428
| 96>    H       -2.60611       -23.39143         4.48343
| 97> *
| 98>
| 99>                          ****END OF INPUT****

CARTESIAN COORDINATES (ANGSTROEM)
---------------------------------
  C     -1.606520    1.123020    8.444060
  N     -0.286620    1.178700    8.428940
  N      0.382660    0.143330    8.129770
  C     -0.282680   -1.008270    7.911720
  N     -1.513910   -0.853060    7.393200
  N     -2.168930    0.191140    7.696460
  C      0.352820   -2.292940    8.012820
  C      0.281900   -2.989880    9.207110
  N     -0.378260   -2.440040   10.292290
  O     -0.432910   -3.029900   11.351960
  O     -0.895620   -1.328570   10.091450
  C      0.943090   -4.256680    9.064900
  C      1.372770   -4.350810    7.782000
  C      1.022270   -3.151830    7.059620
  C      1.282080   -2.814090    5.742290
  C      1.308940   -1.487710    5.221570
  C      1.795530   -1.529240    3.951620
  C      2.068570   -2.890870    3.591500
  N      2.482630   -3.188830    2.284700
  O      2.426820   -2.285990    1.466640
  O      2.885020   -4.312130    2.012290
  C      1.726000   -3.724260    4.667190
  C      1.563340   -5.119010    4.785120
  C      2.173850   -6.100190    4.049880
  C      1.869800   -7.462960    4.218760
  N      2.460720   -8.464620    3.486450
  C      3.433350   -8.301200    2.428700
  C      2.809100   -7.774880    1.139770
  C      1.984890   -9.732280    3.842240
  O      2.366490  -10.768590    3.337110
  C      1.019860   -9.473640    4.895710
  C      0.970580   -8.080260    5.105100
  C      0.019770   -7.823110    6.164530
  O     -0.359650   -6.796240    6.691860
  N     -0.453230   -9.098570    6.525230
  C     -1.396730   -9.261090    7.604960
  C     -0.709000   -9.696470    8.896720
  C      0.131740  -10.093630    5.781610
  C     -0.171770  -11.471270    5.926560
  C      0.428560  -12.425940    5.173910
  C      0.182580  -13.840080    5.239920
  C      0.864590  -14.676600    4.348530
  C      0.687730  -16.046680    4.365380
  N      1.458860  -16.792110    3.390790
  O      1.644880  -16.254410    2.322770
  O      1.883430  -17.883040    3.700580
  C     -0.216400  -16.663670    5.254880
  C     -0.897800  -15.810120    6.137020
  C     -0.701350  -14.450530    6.143930
  C     -0.463230  -18.087190    5.256770
  C     -1.573850  -18.673230    5.744860
  C     -1.759350  -20.091200    5.690660
  N     -0.734990  -20.951800    5.466580
  N     -1.076680  -22.095220    5.001860
  C     -2.326500  -22.483760    4.986250
  N     -3.206120  -21.847040    5.775850
  N     -2.929800  -20.623240    6.024820
  H     -2.189130    1.909890    8.884050
  H      1.058820   -4.968700    9.858250
  H      1.948280   -5.156700    7.373350
  H      1.070280   -0.603820    5.778180
  H      1.967960   -0.701850    3.289320
  H      0.861110   -5.427220    5.549320
  H      2.917600   -5.838840    3.315570
  H      3.851450   -9.297180    2.257300
  H      4.231230   -7.635380    2.767440
  H      1.972920   -8.403830    0.843550
  H      3.552990   -7.792980    0.348640
  H      2.461610   -6.752130    1.257040
  H     -2.170530   -9.976020    7.311940
  H     -1.860940   -8.281760    7.750460
  H     -0.193730  -10.645910    8.767000
  H     -1.445810   -9.801710    9.687970
  H      0.018710   -8.947670    9.199070
  H     -0.915530  -11.734430    6.664200
  H      1.164150  -12.117220    4.442560
  H      1.549520  -14.248160    3.630640
  H     -1.578770  -16.244550    6.851360
  H     -1.239420  -13.850610    6.860750
  H      0.293370  -18.725420    4.821020
  H     -2.406440  -18.120890    6.154280
  H     -2.606110  -23.391430    4.483430

 Total Charge           Charge          ....    0
 Multiplicity           Mult            ....    1
 Number of Electrons    NEL             ....  396
 Basis Dimension        Dim             ....  923

ORBITAL ENERGIES
----------------

  NO   OCC          E(Eh)            E(eV)
   0   2.0000     -19.260770      -524.1122
   1   2.0000     -19.257803      -524.0315
   2   2.0000     -19.257160      -524.0140
   3   2.0000     -19.252903      -523.8981
   4   2.0000     -19.245693      -523.7019
   5   2.0000     -19.243402      -523.6396
   6   2.0000     -19.220123      -523.0061
   7   2.0000     -19.206751      -522.6423
   8   2.0000     -14.662732      -398.9932
   9   2.0000     -14.662626      -398.9903
  10   2.0000     -14.653812      -398.7505
  11   2.0000     -14.477769      -393.9601
  12   2.0000     -14.475221      -393.8908
  13   2.0000     -14.474947      -393.8833
  14   2.0000     -14.473684      -393.8490
  15   2.0000     -14.472376      -393.8134
  16   2.0000     -14.468949      -393.7201
  17   2.0000     -14.457977      -393.4216
  18   2.0000     -14.457039      -393.3960
  19   2.0000     -14.456806      -393.3897
  20   2.0000     -14.456331      -393.3768
  21   2.0000     -10.399849      -282.9943
  22   2.0000     -10.390700      -282.7453
  23   2.0000     -10.370971      -282.2085
  24   2.0000     -10.366777      -282.0943
  25   2.0000     -10.365185      -282.0510
  26   2.0000     -10.356054      -281.8026
  27   2.0000     -10.354855      -281.7699
  28   2.0000     -10.351404      -281.6760
  29   2.0000     -10.344408      -281.4856
  30   2.0000     -10.342541      -281.4348
  31   2.0000     -10.340773      -281.3867
  32   2.0000     -10.339083      -281.3407
  33   2.0000     -10.334136      -281.2061
  34   2.0000     -10.334074      -281.2045
  35   2.0000     -10.332041      -281.1491
  36   2.0000     -10.328773      -281.0602
  37   2.0000     -10.324372      -280.9405
  38   2.0000     -10.319795      -280.8159
  39   2.0000     -10.316037      -280.7136
  40   2.0000     -10.315663      -280.7035
  41   2.0000     -10.314889      -280.6824
  42   2.0000     -10.314593      -280.6744
  43   2.0000     -10.313529      -280.6454
  44   2.0000     -10.312885      -280.6279
  45   2.0000     -10.310159      -280.5537
  46   2.0000     -10.309565      -280.5375
  47   2.0000     -10.309430      -280.5339
  48   2.0000     -10.307088      -280.4701
  49   2.0000     -10.306753      -280.4610
  50   2.0000     -10.303627      -280.3759
  51   2.0000     -10.296328      -280.1773
  52   2.0000     -10.289290      -279.9858
  53   2.0000     -10.288756      -279.9713
  54   2.0000     -10.283453      -279.8270
  55   2.0000     -10.283102      -279.8174
  56   2.0000     -10.263236      -279.2768
  57   2.0000      -1.339477       -36.4490
  58   2.0000      -1.330585       -36.2071
  59   2.0000      -1.323466       -36.0133
  60   2.0000      -1.203760       -32.7560
  61   2.0000      -1.194059       -32.4920
  62   2.0000      -1.158384       -31.5212
  63   2.0000      -1.158193       -31.5160
  64   2.0000      -1.148366       -31.2486
  65   2.0000      -1.146162       -31.1886
  66   2.0000      -1.139230       -31.0000
  67   2.0000      -1.101630       -29.9769
  68   2.0000      -1.088578       -29.6217
  69   2.0000      -1.087012       -29.5791
  70   2.0000      -1.074564       -29.2404
  71   2.0000      -1.029209       -28.0062
  72   2.0000      -1.009809       -27.4783
  73   2.0000      -1.009757       -27.4769
  74   2.0000      -0.990559       -26.9545
  75   2.0000      -0.969914       -26.3927
  76   2.0000      -0.950583       -25.8667
  77   2.0000      -0.944054       -25.6890
  78   2.0000      -0.926325       -25.2066
  79   2.0000      -0.923994       -25.1432
  80   2.0000      -0.917605       -24.9693
  81   2.0000      -0.907444       -24.6928
  82   2.0000      -0.895801       -24.3760
  83   2.0000      -0.886839       -24.1321
  84   2.0000      -0.871351       -23.7107
  85   2.0000      -0.857715       -23.3396
  86   2.0000      -0.855835       -23.2884
  87   2.0000      -0.836099       -22.7514
  88   2.0000      -0.835240       -22.7280
  89   2.0000      -0.822084       -22.3700
  90   2.0000      -0.817494       -22.2451
  91   2.0000      -0.810309       -22.0496
  92   2.0000      -0.809344       -22.0234
  93   2.0000      -0.785206       -21.3665
  94   2.0000      -0.778869       -21.1941
  95   2.0000      -0.774995       -21.0887
  96   2.0000      -0.771546       -20.9948
  97   2.0000      -0.748198       -20.3595
  98   2.0000      -0.739998       -20.1364
  99   2.0000      -0.734174       -19.9779
 100   2.0000      -0.723339       -19.6830
 101   2.0000      -0.715354       -19.4658
 102   2.0000      -0.698877       -19.0174
 103   2.0000      -0.695042       -18.9131
 104   2.0000      -0.684794       -18.6342
 105   2.0000      -0.680150       -18.5078
 106   2.0000      -0.674212       -18.3462
 107   2.0000      -0.672189       -18.2912
 108   2.0000      -0.668768       -18.1981
 109   2.0000      -0.663908       -18.0659
 110   2.0000      -0.662115       -18.0171
 111   2.0000      -0.654210       -17.8020
 112   2.0000      -0.649695       -17.6791
 113   2.0000      -0.641166       -17.4470
 114   2.0000      -0.636392       -17.3171
 115   2.0000      -0.634005       -17.2522
 116   2.0000      -0.629809       -17.1380
 117   2.0000      -0.626713       -17.0537
 118   2.0000      -0.623287       -16.9605
 119   2.0000      -0.616345       -16.7716
 120   2.0000      -0.609601       -16.5881
 121   2.0000      -0.608617       -16.5613
 122   2.0000      -0.606622       -16.5070
 123   2.0000      -0.604403       -16.4466
 124   2.0000      -0.601273       -16.3615
 125   2.0000      -0.597910       -16.2700
 126   2.0000      -0.592475       -16.1221
 127   2.0000      -0.589294       -16.0355
 128   2.0000      -0.585900       -15.9431
 129   2.0000      -0.583616       -15.8810
 130   2.0000      -0.582727       -15.8568
 131   2.0000      -0.564309       -15.3556
 132   2.0000      -0.561368       -15.2756
 133   2.0000      -0.557365       -15.1667
 134   2.0000      -0.555580       -15.1181
 135   2.0000      -0.550019       -14.9668
 136   2.0000      -0.549081       -14.9413
 137   2.0000      -0.546508       -14.8712
 138   2.0000      -0.544394       -14.8137
 139   2.0000      -0.541967       -14.7477
 140   2.0000      -0.535261       -14.5652
 141   2.0000      -0.532786       -14.4979
 142   2.0000      -0.525004       -14.2861
 143   2.0000      -0.519570       -14.1382
 144   2.0000      -0.514750       -14.0071
 145   2.0000      -0.510081       -13.8800
 146   2.0000      -0.509772       -13.8716
 147   2.0000      -0.500861       -13.6291
 148   2.0000      -0.499820       -13.6008
 149   2.0000      -0.497274       -13.5315
 150   2.0000      -0.496860       -13.5202
 151   2.0000      -0.489252       -13.3132
 152   2.0000      -0.482672       -13.1342
 153   2.0000      -0.480629       -13.0786
 154   2.0000      -0.477973       -13.0063
 155   2.0000      -0.476486       -12.9658
 156   2.0000      -0.473326       -12.8799
 157   2.0000      -0.466925       -12.7057
 158   2.0000      -0.464437       -12.6380
 159   2.0000      -0.462808       -12.5936
 160   2.0000      -0.461449       -12.5567
 161   2.0000      -0.456486       -12.4216
 162   2.0000      -0.452406       -12.3106
 163   2.0000      -0.449862       -12.2414
 164   2.0000      -0.449006       -12.2181
 165   2.0000      -0.447239       -12.1700
 166   2.0000      -0.445145       -12.1130
 167   2.0000      -0.442490       -12.0408
 168   2.0000      -0.438881       -11.9426
 169   2.0000      -0.436831       -11.8868
 170   2.0000      -0.430326       -11.7098
 171   2.0000      -0.428298       -11.6546
 172   2.0000      -0.418287       -11.3822
 173   2.0000      -0.413640       -11.2557
 174   2.0000      -0.399468       -10.8701
 175   2.0000      -0.395267       -10.7558
 176   2.0000      -0.394330       -10.7303
 177   2.0000      -0.392139       -10.6707
 178   2.0000      -0.391999       -10.6668
 179   2.0000      -0.390152       -10.6166
 180   2.0000      -0.389772       -10.6062
 181   2.0000      -0.380896       -10.3647
 182   2.0000      -0.378042       -10.2870
 183   2.0000      -0.372516       -10.1367
 184   2.0000      -0.371317       -10.1040
 185   2.0000      -0.368123       -10.0171
 186   2.0000      -0.359777        -9.7900
 187   2.0000      -0.357878        -9.7384
 188   2.0000      -0.352145        -9.5823
 189   2.0000      -0.349024        -9.4974
 190   2.0000      -0.343987        -9.3604
 191   2.0000      -0.336395        -9.1538
 192   2.0000      -0.325640        -8.8611
 193   2.0000      -0.317328        -8.6349
 194   2.0000      -0.309759        -8.4290
 195   2.0000      -0.298265        -8.1162
 196   2.0000      -0.279839        -7.6148
 197   2.0000      -0.252414        -6.8685
 198   0.0000      -0.150365        -4.0916
 199   0.0000      -0.104747        -2.8503
 200   0.0000      -0.078409        -2.1336
 201   0.0000      -0.054127        -1.4729
 202   0.0000      -0.050363        -1.3704

MULLIKEN ATOMIC CHARGES
-----------------------
   0 C :    0.127717
   1 N :   -0.066034
   2 N :   -0.046486
   3 C :   -0.159065
   4 N :   -0.025477
   5 N :   -0.068104
   6 C :    0.086551
   7 C :    0.100933
   8 N :    0.298975
   9 O :   -0.219033
  10 O :   -0.253562
  11 C :   -0.002754
  12 C :    0.020290
  13 C :    0.093204
  14 C :    0.026134
  15 C :    0.009912
  16 C :    0.033845
  17 C :    0.068227
  18 N :    0.278603
  19 O :   -0.242470
  20 O :   -0.262082
  21 C :    0.081846
  22 C :   -0.101338
  23 C :    0.007353
  24 C :    0.129971
  25 N :   -0.249052
  26 C :    0.092367
  27 C :   -0.001239
  28 C :    0.170052
  29 O :   -0.205988
  30 C :   -0.074055
  31 C :   -0.053587
  32 C :    0.163863
  33 O :   -0.191936
  34 N :   -0.253301
  35 C :    0.095377
  36 C :    0.002171
  37 C :    0.139275
  38 C :    0.002833
  39 C :    0.012882
  40 C :    0.102441
  41 C :   -0.056882
  42 C :    0.144562
  43 N :    0.241137
  44 O :   -0.218376
  45 O :   -0.220532
  46 C :    0.082517
  47 C :   -0.032804
  48 C :    0.023855
  49 C :   -0.015625
  50 C :    0.055575
  51 C :   -0.045586
  52 N :   -0.047632
  53 N :   -0.061446
  54 C :    0.102206
  55 N :   -0.063540
  56 N :   -0.044364
  57 H :    0.026281
  58 H :   -0.003630
  59 H :   -0.005454
  60 H :    0.005235
  61 H :    0.015061
  62 H :    0.040382
  63 H :    0.012625
  64 H :    0.044678
  65 H :    0.031722
  66 H :    0.022390
  67 H :    0.029473
  68 H :    0.031213
  69 H :    0.028834
  70 H :    0.049830
  71 H :    0.015882
  72 H :    0.031713
  73 H :    0.029523
  74 H :   -0.028642
  75 H :    0.016064
  76 H :    0.023702
  77 H :   -0.004674
  78 H :   -0.015236
  79 H :    0.049576
  80 H :    0.003845
  81 H :    0.037285
Sum of atomic charges:    0.0000000

LOEWDIN ATOMIC CHARGES
----------------------
   0 C :    0.012528
   1 N :   -0.024238
   2 N :   -0.047039
   3 C :   -0.003200
   4 N :   -0.041140
   5 N :   -0.024265
   6 C :   -0.000671
   7 C :   -0.020445
   8 N :    0.300429
   9 O :   -0.182359
  10 O :   -0.212243
  11 C :   -0.000786
  12 C :   -0.012716
  13 C :    0.030648
  14 C :    0.072023
  15 C :   -0.037659
  16 C :    0.036218
  17 C :   -0.048590
  18 N :    0.287561
  19 O :   -0.207253
  20 O :   -0.221181
  21 C :    0.013145
  22 C :    0.001648
  23 C :    0.002908
  24 C :    0.064329
  25 N :    0.007723
  26 C :    0.037478
  27 C :   -0.060726
  28 C :    0.078923
  29 O :   -0.196571
  30 C :   -0.118904
  31 C :   -0.099408
  32 C :    0.083166
  33 O :   -0.180009
  34 N :    0.003503
  35 C :    0.036610
  36 C :   -0.060289
  37 C :    0.089038
  38 C :   -0.048385
  39 C :    0.047881
  40 C :   -0.027022
  41 C :    0.023023
  42 C :   -0.014956
  43 N :    0.282413
  44 O :   -0.185936
  45 O :   -0.185793
  46 C :   -0.004340
  47 C :    0.001887
  48 C :    0.012961
  49 C :    0.020974
  50 C :   -0.027729
  51 C :   -0.010664
  52 N :   -0.035353
  53 N :   -0.011744
  54 C :    0.007191
  55 N :   -0.029584
  56 N :   -0.025699
  57 H :    0.032024
  58 H :    0.038355
  59 H :    0.030850
  60 H :    0.032994
  61 H :    0.042067
  62 H :    0.041029
  63 H :    0.032028
  64 H :    0.037731
  65 H :    0.026946
  66 H :    0.029305
  67 H :    0.034822
  68 H :    0.025367
  69 H :    0.024828
  70 H :    0.040462
  71 H :    0.021991
  72 H :    0.033979
  73 H :    0.032235
  74 H :    0.027227
  75 H :    0.040503
  76 H :    0.049499
  77 H :    0.037046
  78 H :    0.032459
  79 H :    0.039660
  80 H :    0.036739
  81 H :    0.032538

  Mayer bond orders larger than 0.100000
B(  0-C ,  1-N ) :   1.4487 B(  0-C ,  3-C ) :   0.1033 B(  0-C ,  5-N ) :   1.4530
B(  0-C , 57-H ) :   0.9887 B(  1-N ,  2-N ) :   1.4029 B(  2-N ,  3-C ) :   1.4290
B(  3-C ,  4-N ) :   1.4779 B(  3-C ,  6-C ) :   0.8994 B(  3-C , 10-O ) :   0.1752
B(  4-N ,  5-N ) :   1.3966 B(  6-C ,  7-C ) :   1.6213 B(  6-C , 13-C ) :   1.1329
B(  7-C ,  8-N ) :   0.9582 B(  7-C , 11-C ) :   1.1178 B(  8-N ,  9-O ) :   1.5448
B(  8-N , 10-O ) :   1.4410 B(  9-O , 10-O ) :   0.2581 B( 11-C , 12-C ) :   1.6167
B( 11-C , 58-H ) :   1.0212 B( 12-C , 13-C ) :   1.0944 B( 12-C , 59-H ) :   0.9994
B( 13-C , 14-C ) :   1.4834 B( 14-C , 15-C ) :   1.1518 B( 14-C , 21-C ) :   1.0034
B( 15-C , 16-C ) :   1.5501 B( 15-C , 60-H ) :   0.9966 B( 16-C , 17-C ) :   1.1296
B( 16-C , 61-H ) :   1.0075 B( 17-C , 18-N ) :   0.9686 B( 17-C , 21-C ) :   1.4589
B( 18-N , 19-O ) :   1.5405 B( 18-N , 20-O ) :   1.4510 B( 19-O , 20-O ) :   0.2463
B( 21-C , 22-C ) :   1.1909 B( 22-C , 23-C ) :   1.5226 B( 22-C , 62-H ) :   0.9346
B( 23-C , 24-C ) :   1.1858 B( 23-C , 63-H ) :   0.9499 B( 24-C , 25-N ) :   1.1618
B( 24-C , 31-C ) :   1.2882 B( 25-N , 26-C ) :   0.9338 B( 25-N , 28-C ) :   1.0776
B( 26-C , 27-C ) :   1.1231 B( 26-C , 64-H ) :   0.9279 B( 26-C , 65-H ) :   0.9487
B( 27-C , 66-H ) :   0.9618 B( 27-C , 67-H ) :   0.9662 B( 27-C , 68-H ) :   0.9636
B( 28-C , 29-O ) :   2.0229 B( 28-C , 30-C ) :   0.9792 B( 29-O , 75-H ) :   0.1208
B( 30-C , 31-C ) :   1.2930 B( 30-C , 37-C ) :   1.3121 B( 31-C , 32-C ) :   0.9785
B( 32-C , 33-O ) :   2.0312 B( 32-C , 34-N ) :   1.0559 B( 33-O , 62-H ) :   0.1005
B( 34-N , 35-C ) :   0.9416 B( 34-N , 37-C ) :   1.1734 B( 35-C , 36-C ) :   1.1194
B( 35-C , 69-H ) :   0.9494 B( 35-C , 70-H ) :   0.9278 B( 36-C , 71-H ) :   0.9687
B( 36-C , 72-H ) :   0.9682 B( 36-C , 73-H ) :   0.9637 B( 37-C , 38-C ) :   1.1656
B( 38-C , 39-C ) :   1.5862 B( 38-C , 74-H ) :   0.9572 B( 39-C , 40-C ) :   1.0884
B( 39-C , 75-H ) :   0.9636 B( 40-C , 41-C ) :   1.2881 B( 40-C , 48-C ) :   1.2989
B( 41-C , 42-C ) :   1.3745 B( 41-C , 76-H ) :   1.0065 B( 42-C , 43-N ) :   0.8623
B( 42-C , 46-C ) :   1.3648 B( 43-N , 44-O ) :   1.5640 B( 43-N , 45-O ) :   1.5250
B( 44-O , 45-O ) :   0.2724 B( 46-C , 47-C ) :   1.3247 B( 46-C , 49-C ) :   1.0512
B( 47-C , 48-C ) :   1.4372 B( 47-C , 77-H ) :   0.9858 B( 48-C , 78-H ) :   0.9901
B( 49-C , 50-C ) :   1.6761 B( 49-C , 79-H ) :   0.9719 B( 50-C , 51-C ) :   1.0894
B( 50-C , 80-H ) :   0.9625 B( 51-C , 52-N ) :   1.3977 B( 51-C , 56-N ) :   1.4945
B( 52-N , 53-N ) :   1.3802 B( 52-N , 55-N ) :   0.1038 B( 53-N , 54-C ) :   1.5033
B( 54-C , 55-N ) :   1.4043 B( 54-C , 81-H ) :   0.9857 B( 55-N , 56-N ) :   1.3962

-----------------------------------------------------------------------------
         ABSORPTION SPECTRUM VIA TRANSITION ELECTRIC DIPOLE MOMENTS
-----------------------------------------------------------------------------
State   Energy  Wavelength   fosc         T2         TX        TY        TZ
        (cm-1)    (nm)                  (au**2)     (au)      (au)      (au)
-----------------------------------------------------------------------------
   0    6378.5   1567.8   0.237784951  12.27271   0.36310   3.46293   0.38597
   1    9293.6   1076.0   0.005451330   0.19311  -0.41645  -0.13504   0.03790
   2   16230.6    616.1   0.213498245   4.33048   0.86770   1.66479  -0.89780
   3   17182.0    582.0   0.279284807   5.35118   0.85931   2.03527  -0.68588
   4   17676.7    565.7   0.041167528   0.76670   0.26030   0.81038  -0.20552
   5   19444.3    514.3   0.007575029   0.12825  -0.07577  -0.11851  -0.32934
   6   21016.3    475.8   0.003721394   0.05829   0.02783   0.02925  -0.23804
   7   22249.4    449.4   0.000580715   0.00859  -0.06147  -0.01479  -0.06779
   8   22357.3    447.3   0.051981672   0.76543  -0.06474  -0.83702   0.24624
   9   22553.0    443.4   0.001530402   0.02234   0.02704   0.14682  -0.00730
  10   23556.7    424.5   0.000142887   0.00200  -0.03457  -0.01461   0.02425
  11   23920.0    418.1   0.111045714   1.52833   0.32580   1.07605  -0.51410
  12   24546.2    407.4   0.155756887   2.08900  -0.07031  -1.43844  -0.12226
  13   24798.1    403.3   0.162255470   2.15405  -0.04406  -1.33095  -0.61699
  14   25148.4    397.6   0.047344245   0.61977   0.28091   0.16295  -0.71715
  15   26182.0    381.9   0.000196009   0.00246  -0.00760  -0.00847  -0.04832
  16   26557.0    376.5   0.081844776   1.01458  -0.14206  -0.99352   0.08549
  17   27255.7    366.9   0.350252908   4.23059  -0.61443   0.93619   1.72529
  18   27504.5    363.6   0.041013799   0.49091  -0.32324   0.30406   0.54219
  19   28133.8    355.4   0.022333527   0.26134  -0.16860  -0.36931   0.31068
  20   28454.8    351.4   0.001328207   0.01537  -0.07319   0.09660  -0.02604
  21   29446.6    339.6   0.053434634   0.59740  -0.21716   0.45148   0.58857
  22   29994.7    333.4   0.172355935   1.89172  -0.13081  -0.98642   0.94952
  23   30138.3    331.8   0.271452159   2.96517  -0.44911  -1.23053   1.11770
  24   30517.6    327.7   0.134094012   1.44655   0.35835   1.14634  -0.06355
  25   30907.0    323.6   0.005433763   0.05788   0.06846  -0.17240  -0.15320
  26   30986.4    322.7   0.025980963   0.27603  -0.08046   0.19728   0.48025
  27   31338.8    319.1   0.375882712   3.94862  -0.38545  -1.94271  -0.16103
  28   31445.9    318.0   0.187825521   1.96637  -0.29595   0.54441   1.25794
  29   31813.9    314.3   0.186383080   1.92870  -0.23098  -0.97297   0.96369
  30   32518.2    307.5   0.004643733   0.04701  -0.04567  -0.15976  -0.13930
  31   33149.3    301.7   0.016667948   0.16553   0.01096  -0.35720  -0.19447
  32   33314.0    300.2   0.007311914   0.07226  -0.12190   0.12247   0.20591
  33   33451.1    298.9   0.002420293   0.02382   0.04068  -0.05718   0.13746
  34   34096.3    293.3   0.030395874   0.29348  -0.26995   0.31684   0.34673
  35   34518.0    289.7   0.016340941   0.15585  -0.24425  -0.22162   0.21697
  36   34875.2    286.7   0.007594670   0.07169  -0.10894   0.20193  -0.13801
  37   34971.5    285.9   0.005336968   0.05024  -0.05224  -0.16650   0.14068
  38   35113.1    284.8   0.048480444   0.45454   0.14947  -0.57170  -0.32459
  39   35633.3    280.6   0.067262816   0.62143  -0.59073  -0.11237   0.50974
  40   35742.5    279.8   0.016417474   0.15122   0.00704  -0.30224  -0.24458
  41   36263.3    275.8   0.004096887   0.03719   0.03854  -0.18847   0.01368
  42   36611.6    273.1   0.004556626   0.04097   0.02744  -0.09792  -0.17502
  43   36752.7    272.1   0.013614107   0.12195   0.09562   0.26068  -0.21178
  44   37198.3    268.8   0.009177452   0.08122   0.11744   0.04153  -0.25633
  45   37330.8    267.9   0.004122686   0.03636   0.09205  -0.15666  -0.05780
  46   37623.5    265.8   0.050181125   0.43909  -0.28451  -0.03933   0.59716
  47   37649.5    265.6   0.005899951   0.05159  -0.21740  -0.03003  -0.05852
  48   37909.7    263.8   0.026124753   0.22687  -0.18614   0.34087   0.27574
  49   38329.5    260.9   0.074150705   0.63688   0.16513   0.12708  -0.77036
  50   38379.4    260.6   0.100757186   0.86428   0.34827   0.06131  -0.85978
  51   38484.0    259.8   0.037499502   0.32079   0.20966   0.12164  -0.51190
  52   39111.4    255.7   0.042745674   0.35980  -0.22837   0.31778   0.45461
  53   39174.2    255.3   0.088038076   0.73985   0.29610  -0.47172  -0.65548
  54   39934.0    250.4   0.128881267   1.06249  -0.09385  -1.01439  -0.15716

FINAL SINGLE POINT ENERGY     -2696.578374559886

DIPOLE MOMENT
-------------
                                X             Y             Z
Electronic contribution:     -2.99733      10.69774       4.55882
Nuclear contribution   :      2.43181     -12.15333      -3.70338
                        -----------------------------------------
Total Dipole Moment    :     -0.56552      -1.45559       0.85544
                        -----------------------------------------
Magnitude (a.u.)       :      1.78055
Magnitude (Debye)      :      4.52579

Rotational constants in cm-1:     0.003083     0.000446     0.000399
Rotational constants in MHz :    92.424373    13.368647    11.948893

                             ****ORCA TERMINATED NORMALLY****
TOTAL RUN TIME: 0 days 0 hours 7 minutes 37 seconds 150 msec
