                         Program Version 4.2.0 -  RELEASE  -
|  1> # ORCA input file
|  2> # SCF done       -207.060723145122          0.000898234142
|  3> ! CAM-B3LYP def2-SVP def2/J RIJCOSX Grid4 TightSCF
|  4> %maxcore 5000
|  5> %tddft
|  6>     Mode sTDDFT
|  7>     Ethresh 5.0
|  8>     maxcore 5000
|  9> end
| 10>
| 11> %pal
| 12>   nprocs 6
| 13>   end
| 14> * xyz 0 1
| 15>    C        0.69958        -2.02805        -6.92744
| 16>    O       -0.55953        -2.40937        -6.76360
| 17>    C       -1.25810        -2.05751        -7.87917
| 18>    C       -0.40944        -1.42908        -8.76904
| 19>    C        0.85573        -1.41091        -8.14224
| 20>    C        2.11095        -0.83339        -8.69607
| 21>    F        3.13886        -0.96356        -7.84151
| 22>    F        2.48715        -1.41841        -9.84169
| 23>    F        1.99518         0.47834        -8.95833
| 24>    C       -2.64491        -2.40909        -7.92381
| 25>    C       -3.44487        -2.76386        -8.99281
| 26>    N       -3.17903        -2.71129       -10.37664
| 27>    O       -3.88817        -3.38747       -11.09732
| 28>    O       -2.27535        -1.99877       -10.77434
| 29>    C       -4.67892        -3.32777        -8.49554
| 30>    C       -4.63887        -3.35166        -7.14228
| 31>    C       -3.41541        -2.73585        -6.70981
| 32>    C       -3.12231        -2.32421        -5.42569
| 33>    C       -2.38666        -1.15797        -5.05438
| 34>    C       -2.54721        -0.95172        -3.71771
| 35>    C       -3.33707        -2.00839        -3.16215
| 36>    N       -3.60653        -2.02778        -1.78152
| 37>    O       -2.96560        -1.26428        -1.08234
| 38>    O       -4.46937        -2.77701        -1.34680
| 39>    C       -3.68848        -2.90260        -4.18600
| 40>    C       -4.18935        -4.21335        -4.20377
| 41>    C       -4.78249        -4.92384        -3.18680
| 42>    C       -5.18218        -6.25472        -3.36548
| 43>    N       -5.79826        -7.00515        -2.39519
| 44>    C       -6.16839        -6.55626        -1.07098
| 45>    C       -7.43585        -5.70752        -1.09189
| 46>    C       -6.09982        -8.29839        -2.83718
| 47>    O       -6.64925        -9.13977        -2.15580
| 48>    C       -5.60325        -8.33835        -4.20453
| 49>    C       -5.05056        -7.08766        -4.50048
| 50>    C       -4.53699        -7.13538        -5.86120
| 51>    O       -3.97022        -6.30232        -6.53832
| 52>    N       -4.82033        -8.43647        -6.29614
| 53>    C       -4.47969        -8.86917        -7.63407
| 54>    C       -5.70045        -8.96101        -8.54423
| 55>    C       -5.45315        -9.17750        -5.33176
| 56>    C       -5.82929       -10.51809        -5.50349
| 57>    C       -6.45760       -11.22376        -4.50904
| 58>    C       -6.91770       -12.55340        -4.54353
| 59>    C       -7.35581       -13.39131        -5.57955
| 60>    N       -7.37070       -13.20845        -6.97490
| 61>    O       -8.06505       -13.97045        -7.62286
| 62>    O       -6.70132       -12.31699        -7.47617
| 63>    C       -7.97479       -14.55138        -5.01220
| 64>    C       -7.94888       -14.45970        -3.65426
| 65>    C       -7.27221       -13.25373        -3.29053
| 66>    C       -6.87033       -12.88828        -2.02202
| 67>    C       -5.71801       -12.11415        -1.68111
| 68>    C       -5.54046       -12.17589        -0.33676
| 69>    C       -6.60115       -12.95631         0.25053
| 70>    N       -6.67732       -13.08216         1.65356
| 71>    O       -6.01287       -12.29817         2.30612
| 72>    O       -7.37420       -13.95476         2.14031
| 73>    C       -7.45467       -13.39432        -0.75228
| 74>    C       -8.74557       -13.98336        -0.73596
| 75>    C       -9.31289       -14.74569         0.23544
| 76>    C      -10.63207       -15.26345         0.10449
| 77>    O      -11.39917       -14.97123        -0.96846
| 78>    C      -12.57385       -15.59091        -0.82127
| 79>    C      -12.61084       -16.30534         0.34175
| 80>    C      -11.35347       -16.10149         0.94833
| 81>    C      -10.89454       -16.67404         2.24436
| 82>    F       -9.68356       -17.24768         2.14918
| 83>    F      -10.80515       -15.74893         3.21308
| 84>    F      -11.73212       -17.61900         2.69351
| 85>    H        1.40175        -2.23463        -6.14349
| 86>    H       -0.65837        -1.03462        -9.73171
| 87>    H       -5.47238        -3.65665        -9.13911
| 88>    H       -5.43796        -3.64706        -6.49214
| 89>    H       -1.90200        -0.49034        -5.73952
| 90>    H       -2.16758        -0.13405        -3.13390
| 91>    H       -4.05995        -4.72406        -5.14880
| 92>    H       -4.96279        -4.45702        -2.23107
| 93>    H       -5.33927        -5.99570        -0.63349
| 94>    H       -6.33878        -7.46071        -0.48099
| 95>    H       -7.28707        -4.79790        -1.66818
| 96>    H       -7.70139        -5.43181        -0.07583
| 97>    H       -8.25883        -6.27028        -1.52628
| 98>    H       -3.96567        -9.83234        -7.58451
| 99>    H       -3.78661        -8.11679        -8.02027
|100>    H       -6.37053        -9.75671        -8.23009
|101>    H       -5.37324        -9.17101        -9.55817
|102>    H       -6.24154        -8.01781        -8.54430
|103>    H       -5.59940       -10.99263        -6.44331
|104>    H       -6.62424       -10.71639        -3.56676
|105>    H       -8.37791       -15.35110        -5.60470
|106>    H       -8.26439       -15.22056        -2.96752
|107>    H       -5.04170       -11.67075        -2.38420
|108>    H       -4.74766       -11.73941         0.24093
|109>    H       -9.33525       -13.79916        -1.62547
|110>    H       -8.77833       -15.00308         1.13693
|111>    H      -13.30329       -15.45755        -1.59584
|112>    H      -13.41477       -16.90079         0.72205
|113> *
|114>
|115>                          ****END OF INPUT****

CARTESIAN COORDINATES (ANGSTROEM)
---------------------------------
  C      0.699580   -2.028050   -6.927440
  O     -0.559530   -2.409370   -6.763600
  C     -1.258100   -2.057510   -7.879170
  C     -0.409440   -1.429080   -8.769040
  C      0.855730   -1.410910   -8.142240
  C      2.110950   -0.833390   -8.696070
  F      3.138860   -0.963560   -7.841510
  F      2.487150   -1.418410   -9.841690
  F      1.995180    0.478340   -8.958330
  C     -2.644910   -2.409090   -7.923810
  C     -3.444870   -2.763860   -8.992810
  N     -3.179030   -2.711290  -10.376640
  O     -3.888170   -3.387470  -11.097320
  O     -2.275350   -1.998770  -10.774340
  C     -4.678920   -3.327770   -8.495540
  C     -4.638870   -3.351660   -7.142280
  C     -3.415410   -2.735850   -6.709810
  C     -3.122310   -2.324210   -5.425690
  C     -2.386660   -1.157970   -5.054380
  C     -2.547210   -0.951720   -3.717710
  C     -3.337070   -2.008390   -3.162150
  N     -3.606530   -2.027780   -1.781520
  O     -2.965600   -1.264280   -1.082340
  O     -4.469370   -2.777010   -1.346800
  C     -3.688480   -2.902600   -4.186000
  C     -4.189350   -4.213350   -4.203770
  C     -4.782490   -4.923840   -3.186800
  C     -5.182180   -6.254720   -3.365480
  N     -5.798260   -7.005150   -2.395190
  C     -6.168390   -6.556260   -1.070980
  C     -7.435850   -5.707520   -1.091890
  C     -6.099820   -8.298390   -2.837180
  O     -6.649250   -9.139770   -2.155800
  C     -5.603250   -8.338350   -4.204530
  C     -5.050560   -7.087660   -4.500480
  C     -4.536990   -7.135380   -5.861200
  O     -3.970220   -6.302320   -6.538320
  N     -4.820330   -8.436470   -6.296140
  C     -4.479690   -8.869170   -7.634070
  C     -5.700450   -8.961010   -8.544230
  C     -5.453150   -9.177500   -5.331760
  C     -5.829290  -10.518090   -5.503490
  C     -6.457600  -11.223760   -4.509040
  C     -6.917700  -12.553400   -4.543530
  C     -7.355810  -13.391310   -5.579550
  N     -7.370700  -13.208450   -6.974900
  O     -8.065050  -13.970450   -7.622860
  O     -6.701320  -12.316990   -7.476170
  C     -7.974790  -14.551380   -5.012200
  C     -7.948880  -14.459700   -3.654260
  C     -7.272210  -13.253730   -3.290530
  C     -6.870330  -12.888280   -2.022020
  C     -5.718010  -12.114150   -1.681110
  C     -5.540460  -12.175890   -0.336760
  C     -6.601150  -12.956310    0.250530
  N     -6.677320  -13.082160    1.653560
  O     -6.012870  -12.298170    2.306120
  O     -7.374200  -13.954760    2.140310
  C     -7.454670  -13.394320   -0.752280
  C     -8.745570  -13.983360   -0.735960
  C     -9.312890  -14.745690    0.235440
  C    -10.632070  -15.263450    0.104490
  O    -11.399170  -14.971230   -0.968460
  C    -12.573850  -15.590910   -0.821270
  C    -12.610840  -16.305340    0.341750
  C    -11.353470  -16.101490    0.948330
  C    -10.894540  -16.674040    2.244360
  F     -9.683560  -17.247680    2.149180
  F    -10.805150  -15.748930    3.213080
  F    -11.732120  -17.619000    2.693510
  H      1.401750   -2.234630   -6.143490
  H     -0.658370   -1.034620   -9.731710
  H     -5.472380   -3.656650   -9.139110
  H     -5.437960   -3.647060   -6.492140
  H     -1.902000   -0.490340   -5.739520
  H     -2.167580   -0.134050   -3.133900
  H     -4.059950   -4.724060   -5.148800
  H     -4.962790   -4.457020   -2.231070
  H     -5.339270   -5.995700   -0.633490
  H     -6.338780   -7.460710   -0.480990
  H     -7.287070   -4.797900   -1.668180
  H     -7.701390   -5.431810   -0.075830
  H     -8.258830   -6.270280   -1.526280
  H     -3.965670   -9.832340   -7.584510
  H     -3.786610   -8.116790   -8.020270
  H     -6.370530   -9.756710   -8.230090
  H     -5.373240   -9.171010   -9.558170
  H     -6.241540   -8.017810   -8.544300
  H     -5.599400  -10.992630   -6.443310
  H     -6.624240  -10.716390   -3.566760
  H     -8.377910  -15.351100   -5.604700
  H     -8.264390  -15.220560   -2.967520
  H     -5.041700  -11.670750   -2.384200
  H     -4.747660  -11.739410    0.240930
  H     -9.335250  -13.799160   -1.625470
  H     -8.778330  -15.003080    1.136930
  H    -13.303290  -15.457550   -1.595840
  H    -13.414770  -16.900790    0.722050

 Total Charge           Charge          ....    0
 Multiplicity           Mult            ....    1
 Number of Electrons    NEL             ....  496
 Basis Dimension        Dim             .... 1120

ORBITAL ENERGIES
----------------

  NO   OCC          E(Eh)            E(eV)
   0   2.0000     -24.802771      -674.9177
   1   2.0000     -24.801261      -674.8766
   2   2.0000     -24.799538      -674.8297
   3   2.0000     -24.796458      -674.7459
   4   2.0000     -24.796347      -674.7429
   5   2.0000     -24.795830      -674.7288
   6   2.0000     -19.320202      -525.7294
   7   2.0000     -19.318651      -525.6872
   8   2.0000     -19.247479      -523.7505
   9   2.0000     -19.245852      -523.7063
  10   2.0000     -19.245660      -523.7010
  11   2.0000     -19.244226      -523.6620
  12   2.0000     -19.243156      -523.6329
  13   2.0000     -19.241359      -523.5840
  14   2.0000     -19.240592      -523.5631
  15   2.0000     -19.237817      -523.4876
  16   2.0000     -19.214528      -522.8539
  17   2.0000     -19.212365      -522.7950
  18   2.0000     -14.655568      -398.7983
  19   2.0000     -14.654150      -398.7597
  20   2.0000     -14.651124      -398.6773
  21   2.0000     -14.648039      -398.5934
  22   2.0000     -14.472763      -393.8239
  23   2.0000     -14.471713      -393.7953
  24   2.0000     -10.523513      -286.3593
  25   2.0000     -10.522041      -286.3193
  26   2.0000     -10.395832      -282.8850
  27   2.0000     -10.394574      -282.8507
  28   2.0000     -10.359529      -281.8971
  29   2.0000     -10.358282      -281.8632
  30   2.0000     -10.358240      -281.8620
  31   2.0000     -10.357178      -281.8332
  32   2.0000     -10.356845      -281.8241
  33   2.0000     -10.351191      -281.6702
  34   2.0000     -10.338961      -281.3374
  35   2.0000     -10.337924      -281.3092
  36   2.0000     -10.336786      -281.2782
  37   2.0000     -10.333043      -281.1764
  38   2.0000     -10.332721      -281.1676
  39   2.0000     -10.331606      -281.1373
  40   2.0000     -10.331416      -281.1321
  41   2.0000     -10.330810      -281.1156
  42   2.0000     -10.329052      -281.0678
  43   2.0000     -10.328328      -281.0481
  44   2.0000     -10.328312      -281.0477
  45   2.0000     -10.326295      -280.9928
  46   2.0000     -10.317600      -280.7562
  47   2.0000     -10.317347      -280.7493
  48   2.0000     -10.309887      -280.5463
  49   2.0000     -10.308558      -280.5101
  50   2.0000     -10.307439      -280.4797
  51   2.0000     -10.305827      -280.4358
  52   2.0000     -10.305638      -280.4307
  53   2.0000     -10.305327      -280.4222
  54   2.0000     -10.303484      -280.3720
  55   2.0000     -10.303406      -280.3699
  56   2.0000     -10.303176      -280.3637
  57   2.0000     -10.301372      -280.3146
  58   2.0000     -10.299938      -280.2756
  59   2.0000     -10.297782      -280.2169
  60   2.0000     -10.297582      -280.2115
  61   2.0000     -10.297441      -280.2076
  62   2.0000     -10.292970      -280.0860
  63   2.0000     -10.292849      -280.0827
  64   2.0000     -10.289082      -279.9802
  65   2.0000     -10.288357      -279.9604
  66   2.0000     -10.287329      -279.9324
  67   2.0000     -10.286190      -279.9014
  68   2.0000     -10.269847      -279.4567
  69   2.0000     -10.266398      -279.3629
  70   2.0000      -1.389951       -37.8225
  71   2.0000      -1.388704       -37.7886
  72   2.0000      -1.326092       -36.0848
  73   2.0000      -1.324447       -36.0400
  74   2.0000      -1.323044       -36.0019
  75   2.0000      -1.319624       -35.9088
  76   2.0000      -1.293878       -35.2082
  77   2.0000      -1.292167       -35.1617
  78   2.0000      -1.289482       -35.0886
  79   2.0000      -1.288838       -35.0711
  80   2.0000      -1.242433       -33.8083
  81   2.0000      -1.238997       -33.7148
  82   2.0000      -1.155518       -31.4433
  83   2.0000      -1.148929       -31.2639
  84   2.0000      -1.142477       -31.0884
  85   2.0000      -1.141014       -31.0486
  86   2.0000      -1.140614       -31.0377
  87   2.0000      -1.136909       -30.9369
  88   2.0000      -1.084863       -29.5206
  89   2.0000      -1.075750       -29.2727
  90   2.0000      -1.022504       -27.8237
  91   2.0000      -1.021577       -27.7985
  92   2.0000      -1.001927       -27.2638
  93   2.0000      -1.000315       -27.2200
  94   2.0000      -0.945886       -25.7389
  95   2.0000      -0.938256       -25.5312
  96   2.0000      -0.934657       -25.4333
  97   2.0000      -0.927118       -25.2282
  98   2.0000      -0.924095       -25.1459
  99   2.0000      -0.921053       -25.0631
 100   2.0000      -0.915948       -24.9242
 101   2.0000      -0.915272       -24.9058
 102   2.0000      -0.898382       -24.4462
 103   2.0000      -0.885841       -24.1050
 104   2.0000      -0.885201       -24.0875
 105   2.0000      -0.883399       -24.0385
 106   2.0000      -0.869036       -23.6477
 107   2.0000      -0.858658       -23.3653
 108   2.0000      -0.852520       -23.1983
 109   2.0000      -0.832526       -22.6542
 110   2.0000      -0.829535       -22.5728
 111   2.0000      -0.825464       -22.4620
 112   2.0000      -0.807694       -21.9785
 113   2.0000      -0.804565       -21.8933
 114   2.0000      -0.794665       -21.6239
 115   2.0000      -0.789431       -21.4815
 116   2.0000      -0.779038       -21.1987
 117   2.0000      -0.771101       -20.9827
 118   2.0000      -0.767740       -20.8913
 119   2.0000      -0.735890       -20.0246
 120   2.0000      -0.734732       -19.9931
 121   2.0000      -0.733427       -19.9576
 122   2.0000      -0.730679       -19.8828
 123   2.0000      -0.725367       -19.7382
 124   2.0000      -0.721547       -19.6343
 125   2.0000      -0.720293       -19.6002
 126   2.0000      -0.707240       -19.2450
 127   2.0000      -0.703741       -19.1498
 128   2.0000      -0.695458       -18.9244
 129   2.0000      -0.691336       -18.8122
 130   2.0000      -0.689074       -18.7506
 131   2.0000      -0.677267       -18.4294
 132   2.0000      -0.677241       -18.4287
 133   2.0000      -0.672207       -18.2917
 134   2.0000      -0.671381       -18.2692
 135   2.0000      -0.670656       -18.2495
 136   2.0000      -0.666669       -18.1410
 137   2.0000      -0.665710       -18.1149
 138   2.0000      -0.663017       -18.0416
 139   2.0000      -0.658530       -17.9195
 140   2.0000      -0.650217       -17.6933
 141   2.0000      -0.640207       -17.4209
 142   2.0000      -0.637174       -17.3384
 143   2.0000      -0.635925       -17.3044
 144   2.0000      -0.633864       -17.2483
 145   2.0000      -0.632283       -17.2053
 146   2.0000      -0.630412       -17.1544
 147   2.0000      -0.628122       -17.0921
 148   2.0000      -0.624975       -17.0064
 149   2.0000      -0.622254       -16.9324
 150   2.0000      -0.612741       -16.6735
 151   2.0000      -0.608738       -16.5646
 152   2.0000      -0.604989       -16.4626
 153   2.0000      -0.604175       -16.4404
 154   2.0000      -0.602436       -16.3931
 155   2.0000      -0.600124       -16.3302
 156   2.0000      -0.595875       -16.2146
 157   2.0000      -0.595017       -16.1912
 158   2.0000      -0.592275       -16.1166
 159   2.0000      -0.590142       -16.0586
 160   2.0000      -0.588206       -16.0059
 161   2.0000      -0.584825       -15.9139
 162   2.0000      -0.580888       -15.8068
 163   2.0000      -0.579551       -15.7704
 164   2.0000      -0.574176       -15.6241
 165   2.0000      -0.565936       -15.3999
 166   2.0000      -0.564491       -15.3606
 167   2.0000      -0.560307       -15.2467
 168   2.0000      -0.556247       -15.1363
 169   2.0000      -0.550286       -14.9741
 170   2.0000      -0.548137       -14.9156
 171   2.0000      -0.547742       -14.9048
 172   2.0000      -0.547259       -14.8917
 173   2.0000      -0.547102       -14.8874
 174   2.0000      -0.544192       -14.8082
 175   2.0000      -0.543526       -14.7901
 176   2.0000      -0.539774       -14.6880
 177   2.0000      -0.534016       -14.5313
 178   2.0000      -0.532925       -14.5016
 179   2.0000      -0.528187       -14.3727
 180   2.0000      -0.525495       -14.2995
 181   2.0000      -0.523388       -14.2421
 182   2.0000      -0.520048       -14.1512
 183   2.0000      -0.514870       -14.0103
 184   2.0000      -0.512723       -13.9519
 185   2.0000      -0.511751       -13.9255
 186   2.0000      -0.509577       -13.8663
 187   2.0000      -0.508024       -13.8240
 188   2.0000      -0.507063       -13.7979
 189   2.0000      -0.506710       -13.7883
 190   2.0000      -0.506023       -13.7696
 191   2.0000      -0.503722       -13.7070
 192   2.0000      -0.501404       -13.6439
 193   2.0000      -0.495864       -13.4932
 194   2.0000      -0.493869       -13.4389
 195   2.0000      -0.491753       -13.3813
 196   2.0000      -0.490937       -13.3591
 197   2.0000      -0.485282       -13.2052
 198   2.0000      -0.484985       -13.1971
 199   2.0000      -0.484746       -13.1906
 200   2.0000      -0.483731       -13.1630
 201   2.0000      -0.482490       -13.1292
 202   2.0000      -0.479594       -13.0504
 203   2.0000      -0.477293       -12.9878
 204   2.0000      -0.474578       -12.9139
 205   2.0000      -0.474087       -12.9006
 206   2.0000      -0.471153       -12.8207
 207   2.0000      -0.469107       -12.7651
 208   2.0000      -0.468502       -12.7486
 209   2.0000      -0.466434       -12.6923
 210   2.0000      -0.464175       -12.6308
 211   2.0000      -0.460768       -12.5381
 212   2.0000      -0.458053       -12.4643
 213   2.0000      -0.454634       -12.3712
 214   2.0000      -0.451398       -12.2832
 215   2.0000      -0.447676       -12.1819
 216   2.0000      -0.446274       -12.1437
 217   2.0000      -0.435151       -11.8410
 218   2.0000      -0.432271       -11.7627
 219   2.0000      -0.412555       -11.2262
 220   2.0000      -0.396839       -10.7985
 221   2.0000      -0.394714       -10.7407
 222   2.0000      -0.393780       -10.7153
 223   2.0000      -0.392102       -10.6696
 224   2.0000      -0.389179       -10.5901
 225   2.0000      -0.388617       -10.5748
 226   2.0000      -0.387059       -10.5324
 227   2.0000      -0.386460       -10.5161
 228   2.0000      -0.382735       -10.4147
 229   2.0000      -0.380191       -10.3455
 230   2.0000      -0.378431       -10.2976
 231   2.0000      -0.377299       -10.2668
 232   2.0000      -0.372125       -10.1260
 233   2.0000      -0.370731       -10.0881
 234   2.0000      -0.370013       -10.0686
 235   2.0000      -0.367555       -10.0017
 236   2.0000      -0.365937        -9.9577
 237   2.0000      -0.362561        -9.8658
 238   2.0000      -0.352958        -9.6045
 239   2.0000      -0.344668        -9.3789
 240   2.0000      -0.339296        -9.2327
 241   2.0000      -0.336701        -9.1621
 242   2.0000      -0.334724        -9.1083
 243   2.0000      -0.313657        -8.5351
 244   2.0000      -0.306944        -8.3524
 245   2.0000      -0.289268        -7.8714
 246   2.0000      -0.276365        -7.5203
 247   2.0000      -0.245002        -6.6668
 248   0.0000      -0.153111        -4.1664
 249   0.0000      -0.133465        -3.6318
 250   0.0000      -0.092076        -2.5055
 251   0.0000      -0.062148        -1.6911
 252   0.0000      -0.043147        -1.1741

MULLIKEN ATOMIC CHARGES
-----------------------
   0 C :    0.126161
   1 O :   -0.176625
   2 C :    0.034814
   3 C :   -0.025845
   4 C :   -0.110928
   5 C :    0.534275
   6 F :   -0.164649
   7 F :   -0.157027
   8 F :   -0.162074
   9 C :    0.100272
  10 C :    0.069280
  11 N :    0.273453
  12 O :   -0.242910
  13 O :   -0.253836
  14 C :    0.012866
  15 C :    0.039723
  16 C :    0.025130
  17 C :    0.024113
  18 C :    0.026854
  19 C :    0.010095
  20 C :    0.068956
  21 N :    0.278402
  22 O :   -0.243537
  23 O :   -0.260962
  24 C :    0.089720
  25 C :   -0.083030
  26 C :   -0.013075
  27 C :    0.140092
  28 N :   -0.246605
  29 C :    0.095134
  30 C :    0.005204
  31 C :    0.164757
  32 O :   -0.198823
  33 C :   -0.063992
  34 C :   -0.060365
  35 C :    0.165769
  36 O :   -0.195891
  37 N :   -0.245207
  38 C :    0.093860
  39 C :    0.002135
  40 C :    0.140500
  41 C :   -0.007389
  42 C :   -0.099736
  43 C :    0.090339
  44 C :    0.071440
  45 N :    0.277390
  46 O :   -0.242518
  47 O :   -0.260196
  48 C :    0.011560
  49 C :   -0.001923
  50 C :    0.015503
  51 C :    0.037976
  52 C :    0.028004
  53 C :    0.023609
  54 C :    0.069819
  55 N :    0.273832
  56 O :   -0.246454
  57 O :   -0.248885
  58 C :    0.090622
  59 C :   -0.095191
  60 C :    0.004558
  61 C :    0.110784
  62 O :   -0.179254
  63 C :    0.156256
  64 C :   -0.022067
  65 C :   -0.122044
  66 C :    0.535422
  67 F :   -0.163016
  68 F :   -0.156799
  69 F :   -0.157804
  70 H :    0.031069
  71 H :    0.027954
  72 H :    0.003084
  73 H :   -0.003935
  74 H :   -0.000607
  75 H :    0.007172
  76 H :    0.028957
  77 H :    0.001491
  78 H :    0.040978
  79 H :    0.045201
  80 H :    0.023365
  81 H :    0.031867
  82 H :    0.024410
  83 H :    0.032941
  84 H :    0.046451
  85 H :    0.031822
  86 H :    0.030641
  87 H :    0.018878
  88 H :    0.008782
  89 H :    0.043064
  90 H :    0.007233
  91 H :    0.005348
  92 H :   -0.004444
  93 H :    0.005687
  94 H :    0.021211
  95 H :    0.045119
  96 H :    0.027150
  97 H :    0.009085
Sum of atomic charges:   -0.0000000

LOEWDIN ATOMIC CHARGES
----------------------
   0 C :    0.070685
   1 O :    0.042747
   2 C :    0.019881
   3 C :   -0.010011
   4 C :   -0.132587
   5 C :    0.166513
   6 F :   -0.062898
   7 F :   -0.057343
   8 F :   -0.061564
   9 C :   -0.005422
  10 C :   -0.033926
  11 N :    0.284079
  12 O :   -0.207013
  13 O :   -0.208322
  14 C :    0.013501
  15 C :   -0.026261
  16 C :    0.049328
  17 C :    0.045540
  18 C :   -0.033851
  19 C :    0.014399
  20 C :   -0.044614
  21 N :    0.286450
  22 O :   -0.207474
  23 O :   -0.221487
  24 C :    0.003952
  25 C :    0.012128
  26 C :   -0.012446
  27 C :    0.070740
  28 N :    0.008273
  29 C :    0.039291
  30 C :   -0.058293
  31 C :    0.079206
  32 O :   -0.186825
  33 C :   -0.106290
  34 C :   -0.102623
  35 C :    0.080650
  36 O :   -0.181911
  37 N :    0.009063
  38 C :    0.038328
  39 C :   -0.059411
  40 C :    0.074832
  41 C :   -0.015163
  42 C :    0.015072
  43 C :    0.005564
  44 C :   -0.044772
  45 N :    0.287338
  46 O :   -0.206363
  47 O :   -0.219271
  48 C :    0.013357
  49 C :   -0.038939
  50 C :    0.027528
  51 C :    0.058223
  52 C :   -0.037435
  53 C :    0.029030
  54 C :   -0.045238
  55 N :    0.285072
  56 O :   -0.210048
  57 O :   -0.205829
  58 C :    0.014238
  59 C :   -0.030653
  60 C :    0.008730
  61 C :    0.034196
  62 O :    0.034404
  63 C :    0.057478
  64 C :   -0.051229
  65 C :   -0.108026
  66 C :    0.167158
  67 F :   -0.058881
  68 F :   -0.058206
  69 F :   -0.056285
  70 H :    0.034788
  71 H :    0.041888
  72 H :    0.037877
  73 H :    0.031012
  74 H :    0.031126
  75 H :    0.039202
  76 H :    0.040020
  77 H :    0.029245
  78 H :    0.030730
  79 H :    0.038481
  80 H :    0.025371
  81 H :    0.035265
  82 H :    0.029985
  83 H :    0.027929
  84 H :    0.038017
  85 H :    0.026254
  86 H :    0.035642
  87 H :    0.028268
  88 H :    0.030679
  89 H :    0.041465
  90 H :    0.038712
  91 H :    0.033220
  92 H :    0.030426
  93 H :    0.038421
  94 H :    0.036894
  95 H :    0.038391
  96 H :    0.030107
  97 H :    0.040523

  Mayer bond orders larger than 0.100000
B(  0-C ,  1-O ) :   1.1863 B(  0-C ,  4-C ) :   1.5136 B(  0-C , 70-H ) :   1.0082
B(  1-O ,  2-C ) :   1.1337 B(  2-C ,  3-C ) :   1.5139 B(  2-C ,  9-C ) :   1.0331
B(  3-C ,  4-C ) :   1.2057 B(  3-C , 71-H ) :   1.0136 B(  4-C ,  5-C ) :   0.9494
B(  5-C ,  6-F ) :   1.1694 B(  5-C ,  7-F ) :   1.1914 B(  5-C ,  8-F ) :   1.1847
B(  9-C , 10-C ) :   1.5868 B(  9-C , 16-C ) :   1.0343 B( 10-C , 11-N ) :   0.9450
B( 10-C , 14-C ) :   1.1233 B( 11-N , 12-O ) :   1.5396 B( 11-N , 13-O ) :   1.4908
B( 12-O , 13-O ) :   0.2610 B( 14-C , 15-C ) :   1.5957 B( 14-C , 72-H ) :   1.0083
B( 15-C , 16-C ) :   1.1248 B( 15-C , 73-H ) :   1.0004 B( 16-C , 17-C ) :   1.5048
B( 17-C , 18-C ) :   1.1420 B( 17-C , 24-C ) :   1.0192 B( 18-C , 19-C ) :   1.5566
B( 18-C , 74-H ) :   1.0021 B( 19-C , 20-C ) :   1.1619 B( 19-C , 75-H ) :   1.0059
B( 20-C , 21-N ) :   0.9627 B( 20-C , 24-C ) :   1.4188 B( 21-N , 22-O ) :   1.5394
B( 21-N , 23-O ) :   1.4586 B( 22-O , 23-O ) :   0.2493 B( 23-O , 77-H ) :   0.1047
B( 24-C , 25-C ) :   1.2098 B( 25-C , 26-C ) :   1.5013 B( 25-C , 76-H ) :   0.9395
B( 26-C , 27-C ) :   1.1955 B( 26-C , 77-H ) :   0.9459 B( 27-C , 28-N ) :   1.1667
B( 27-C , 34-C ) :   1.2556 B( 28-N , 29-C ) :   0.9327 B( 28-N , 31-C ) :   1.0765
B( 29-C , 30-C ) :   1.1257 B( 29-C , 78-H ) :   0.9479 B( 29-C , 79-H ) :   0.9285
B( 30-C , 80-H ) :   0.9677 B( 30-C , 81-H ) :   0.9672 B( 30-C , 82-H ) :   0.9635
B( 31-C , 32-O ) :   2.0200 B( 31-C , 33-C ) :   0.9753 B( 32-O , 89-H ) :   0.1100
B( 33-C , 34-C ) :   1.3272 B( 33-C , 40-C ) :   1.2578 B( 34-C , 35-C ) :   0.9758
B( 35-C , 36-O ) :   2.0173 B( 35-C , 37-N ) :   1.0739 B( 36-O , 76-H ) :   0.1106
B( 37-N , 38-C ) :   0.9309 B( 37-N , 40-C ) :   1.1727 B( 38-C , 39-C ) :   1.1225
B( 38-C , 83-H ) :   0.9488 B( 38-C , 84-H ) :   0.9284 B( 39-C , 85-H ) :   0.9650
B( 39-C , 86-H ) :   0.9663 B( 39-C , 87-H ) :   0.9621 B( 40-C , 41-C ) :   1.1892
B( 41-C , 42-C ) :   1.5276 B( 41-C , 88-H ) :   0.9512 B( 42-C , 43-C ) :   1.1737
B( 42-C , 89-H ) :   0.9328 B( 43-C , 44-C ) :   1.4450 B( 43-C , 50-C ) :   1.0316
B( 44-C , 45-N ) :   0.9595 B( 44-C , 48-C ) :   1.1594 B( 45-N , 46-O ) :   1.5447
B( 45-N , 47-O ) :   1.4599 B( 46-O , 47-O ) :   0.2492 B( 48-C , 49-C ) :   1.5491
B( 48-C , 90-H ) :   1.0064 B( 49-C , 50-C ) :   1.1345 B( 49-C , 91-H ) :   1.0048
B( 50-C , 51-C ) :   1.5019 B( 51-C , 52-C ) :   1.1355 B( 51-C , 58-C ) :   1.0131
B( 52-C , 53-C ) :   1.5771 B( 52-C , 92-H ) :   1.0012 B( 53-C , 54-C ) :   1.1234
B( 53-C , 93-H ) :   1.0068 B( 54-C , 55-N ) :   0.9490 B( 54-C , 58-C ) :   1.5212
B( 55-N , 56-O ) :   1.5390 B( 55-N , 57-O ) :   1.4804 B( 56-O , 57-O ) :   0.2561
B( 58-C , 59-C ) :   1.1292 B( 59-C , 60-C ) :   1.6292 B( 59-C , 94-H ) :   0.9623
B( 60-C , 61-C ) :   1.1631 B( 60-C , 95-H ) :   0.9312 B( 61-C , 62-O ) :   1.1668
B( 61-C , 65-C ) :   1.4509 B( 62-O , 63-C ) :   1.1479 B( 63-C , 64-C ) :   1.5193
B( 63-C , 96-H ) :   1.0034 B( 64-C , 65-C ) :   1.2754 B( 64-C , 97-H ) :   1.0117
B( 65-C , 66-C ) :   0.9501 B( 66-C , 67-F ) :   1.1502 B( 66-C , 68-F ) :   1.1845
B( 66-C , 69-F ) :   1.1739

-----------------------------------------------------------------------------
         ABSORPTION SPECTRUM VIA TRANSITION ELECTRIC DIPOLE MOMENTS
-----------------------------------------------------------------------------
State   Energy  Wavelength   fosc         T2         TX        TY        TZ
        (cm-1)    (nm)                  (au**2)     (au)      (au)      (au)
-----------------------------------------------------------------------------
   0    4947.8   2021.1   0.294104230  19.56882  -1.64134  -4.02516   0.82031
   1    8984.1   1113.1   0.004567029   0.16735  -0.20211  -0.25903   0.24374
   2   10881.6    919.0   0.042360003   1.28156   0.86244   0.09995  -0.72647
   3   12277.8    814.5   0.028213826   0.75652   0.70741  -0.23934  -0.44588
   4   16774.9    596.1   0.016978067   0.33320  -0.15514   0.34669   0.43467
   5   17300.0    578.0   0.188856644   3.59386  -0.33450   1.17267   1.45149
   6   17761.5    563.0   0.051420356   0.95308  -0.28553  -0.89399   0.26896
   7   19621.5    509.6   0.016204559   0.27188   0.36441   0.23996   0.28549
   8   21984.1    454.9   0.011497361   0.17217  -0.02669   0.23508  -0.34088
   9   22198.1    450.5   0.000804107   0.01193  -0.08412   0.05890  -0.03716
  10   23388.6    427.6   0.074416313   1.04747   0.81838   0.39453  -0.47123
  11   23751.3    421.0   0.060363546   0.83669   0.66001   0.52033   0.36101
  12   23950.0    417.5   0.384120525   5.28004  -1.17288  -1.66667   1.06142
  13   24006.9    416.5   0.059816270   0.82027   0.54789   0.43750   0.57331
  14   24548.2    407.4   0.013197232   0.17699  -0.00018   0.21773  -0.35997
  15   25292.1    395.4   0.034771382   0.45260  -0.19168  -0.24700  -0.59569
  16   25368.0    394.2   0.314571350   4.08234  -0.08174  -0.64084  -1.91441
  17   25827.5    387.2   0.035443546   0.45178  -0.33590  -0.38614  -0.43572
  18   26355.8    379.4   0.053256735   0.66523   0.75334   0.24550   0.19350
  19   26548.2    376.7   0.053256496   0.66041  -0.16036  -0.27172  -0.74891
  20   26790.5    373.3   0.034657129   0.42588   0.09553   0.17559   0.62123
  21   27611.6    362.2   0.014307100   0.17058   0.21393   0.17795  -0.30520
  22   27799.7    359.7   0.075832113   0.89802   0.37895  -0.17110  -0.85155
  23   27912.9    358.3   0.064954159   0.76609  -0.86084  -0.09832  -0.12397
  24   28229.3    354.2   0.011635459   0.13569   0.30340   0.16715  -0.12532
  25   28623.1    349.4   0.230393080   2.64990  -0.09544  -0.18129  -1.61491
  26   29119.9    343.4   0.015435093   0.17450   0.10206  -0.23065   0.33299
  27   30893.0    323.7   0.070212340   0.74822   0.34302   0.79377  -0.02194
  28   31107.5    321.5   0.073601656   0.77893   0.29092   0.80898   0.19960
  29   31162.1    320.9   0.035675533   0.37689   0.30105   0.53476  -0.01727
  30   31370.5    318.8   0.088570515   0.92949   0.54893   0.53940   0.58070
  31   31406.8    318.4   0.016373840   0.17163   0.12552  -0.36596   0.14815
  32   31498.0    317.5   0.034134420   0.35677   0.38556   0.30663   0.33777
  33   31655.9    315.9   0.065152840   0.67757  -0.54324  -0.60913   0.10685
  34   31785.4    314.6   0.168618696   1.74644  -0.21950   0.37269  -1.24874
  35   31904.2    313.4   0.048203617   0.49740   0.40606   0.57055   0.08360
  36   31997.4    312.5   0.030189418   0.31061  -0.46122  -0.31032   0.03981
  37   32201.9    310.5   0.011342157   0.11596   0.28155   0.19074   0.01740
  38   32294.6    309.6   0.327946165   3.34309   1.04097   0.97048   1.14788
  39   32705.4    305.8   0.054758411   0.55120  -0.15224  -0.14390  -0.71226
  40   32804.7    304.8   0.050929762   0.51111  -0.26696  -0.20571  -0.63049
  41   32928.1    303.7   0.186070057   1.86031   0.18185   0.70188   1.15525
  42   33067.3    302.4   0.080129099   0.79775  -0.43168  -0.37575  -0.68573
  43   33227.5    301.0   0.032868531   0.32566  -0.03021   0.01629  -0.56963
  44   33689.5    296.8   0.002931364   0.02865  -0.00146  -0.08209   0.14800
  45   34013.9    294.0   0.104735681   1.01371   0.14214   0.06852   0.99439
  46   34099.5    293.3   0.111540489   1.07686   0.35232   0.39392   0.89306
  47   34388.0    290.8   0.189486436   1.81404  -0.67185  -0.44336  -1.07986
  48   34534.5    289.6   0.100929171   0.96214   0.49948   0.19389   0.82163
  49   35015.1    285.6   0.006113041   0.05747  -0.02684  -0.05164   0.23257
  50   35430.1    282.2   0.010111254   0.09395  -0.04190  -0.14887  -0.26464
  51   36152.2    276.6   0.055832922   0.50843   0.23075   0.23467  -0.63255
  52   36436.7    274.4   0.003213599   0.02904   0.01333  -0.16484  -0.04107
  53   36735.1    272.2   0.100004596   0.89622   0.73753   0.45213  -0.38450
  54   37177.9    269.0   0.105097754   0.93064  -0.69033  -0.45605  -0.49609
  55   37457.9    267.0   0.060838940   0.53470  -0.49231  -0.46470  -0.27639
  56   37497.0    266.7   0.056053244   0.49213   0.07120   0.17678  -0.67514
  57   37809.7    264.5   0.001973670   0.01718  -0.00067   0.07210  -0.10948
  58   37996.0    263.2   0.015923662   0.13797   0.04291  -0.24765   0.27349
  59   38124.7    262.3   0.047646196   0.41143   0.02024   0.09114  -0.63460
  60   38345.7    260.8   0.061535007   0.52830   0.50364   0.37083   0.37031
  61   38391.3    260.5   0.018468009   0.15837   0.19695  -0.14398   0.31440
  62   38593.1    259.1   0.005264948   0.04491  -0.09296  -0.13149   0.13776
  63   38806.3    257.7   0.004802172   0.04074  -0.06262  -0.10742   0.15899
  64   39130.2    255.6   0.003338342   0.02809  -0.09042  -0.13514   0.04058
  65   39157.1    255.4   0.079613863   0.66935  -0.25624  -0.15601  -0.76115
  66   39416.4    253.7   0.074379126   0.62123   0.13780   0.09475  -0.77023
  67   39535.8    252.9   0.053244151   0.44336  -0.51312  -0.39822   0.14658
  68   39830.7    251.1   0.069680480   0.57593   0.51893   0.32959  -0.44499
  69   40113.2    249.3   0.051867254   0.42568  -0.55874  -0.33452   0.03976
  70   40228.7    248.6   0.014949422   0.12234  -0.30832  -0.16358  -0.02272

FINAL SINGLE POINT ENERGY     -3595.221396377077

DIPOLE MOMENT
-------------
                                X             Y             Z
Electronic contribution:     22.62206      -1.48360       8.35853
Nuclear contribution   :    -24.09343       0.72000      -8.42271
                        -----------------------------------------
Total Dipole Moment    :     -1.47137      -0.76360      -0.06418
                        -----------------------------------------
Magnitude (a.u.)       :      1.65895
Magnitude (Debye)      :      4.21673

Rotational constants in cm-1:     0.002026     0.000328     0.000301
Rotational constants in MHz :    60.752701     9.839898     9.021401

                             ****ORCA TERMINATED NORMALLY****
TOTAL RUN TIME: 0 days 0 hours 10 minutes 36 seconds 678 msec
