                         Program Version 4.2.0 -  RELEASE  -
|  1> # ORCA input file
|  2> # SCF done       -162.505229383448          0.000583279948
|  3> ! CAM-B3LYP def2-SVP def2/J RIJCOSX Grid4 TightSCF
|  4> %maxcore 5000
|  5> %tddft
|  6>     Mode sTDDFT
|  7>     Ethresh 5.0
|  8>     maxcore 5000
|  9> end
| 10>
| 11> %pal
| 12>   nprocs 6
| 13>   end
| 14> * xyz 0 1
| 15>    C       -1.64188         0.30511        -5.22849
| 16>    N       -0.66249         1.08905        -4.80972
| 17>    C       -0.41726         1.07742        -3.50700
| 18>    C       -1.14054         0.29301        -2.62669
| 19>    C       -2.15876        -0.49960        -3.17356
| 20>    N       -2.39583        -0.47951        -4.49175
| 21>    C       -2.97809        -1.34978        -2.34148
| 22>    C       -3.96555        -2.11411        -2.85100
| 23>    C       -4.82227        -2.96228        -2.09779
| 24>    C       -4.84525        -3.19790        -0.73245
| 25>    C       -5.85300        -4.08719        -0.36968
| 26>    C       -6.60997        -4.53923        -1.47046
| 27>    S       -6.07161        -3.86672        -2.94136
| 28>    C       -7.61485        -5.41878        -1.00410
| 29>    C       -7.49307        -5.52407         0.39833
| 30>    C       -6.38245        -4.69576         0.83970
| 31>    C       -5.93600        -4.52196         2.11700
| 32>    C       -6.53490        -5.16586         3.22054
| 33>    N       -7.01410        -5.68286         4.12484
| 34>    C       -4.84282        -3.68298         2.41829
| 35>    N       -3.95432        -2.99971         2.66083
| 36>    C       -8.45089        -6.35481         0.96083
| 37>    C       -9.30616        -6.88608         0.00164
| 38>    S       -8.90629        -6.35202        -1.62470
| 39>    C      -10.41351        -7.74140         0.22736
| 40>    C      -11.21104        -8.19821        -0.84563
| 41>    C      -12.37520        -9.02322        -0.64648
| 42>    N      -13.09202        -9.41708        -1.70362
| 43>    C      -12.73498        -9.05439        -2.91244
| 44>    C      -11.57855        -8.23290        -3.11051
| 45>    N      -10.86399        -7.83578        -2.08472
| 46>    C      -11.19096        -7.83990        -4.41492
| 47>    N      -10.89966        -7.53546        -5.48004
| 48>    C      -13.50538        -9.48406        -4.02069
| 49>    N      -14.10674        -9.81514        -4.93751
| 50>    C      -12.80398        -9.42911         0.63773
| 51>    C      -11.98658        -9.00382         1.71287
| 52>    C      -10.81592        -8.17877         1.51210
| 53>    N      -10.21151        -7.90159         2.66756
| 54>    S      -11.01101        -8.59474         3.87153
| 55>    N      -12.16956        -9.28257         3.00358
| 56>    C      -13.98878       -10.18774         0.80797
| 57>    C      -14.54528       -10.60919         2.01128
| 58>    C      -15.73271       -11.29927         1.81924
| 59>    C      -16.08644       -11.41363         0.45806
| 60>    S      -14.95454       -10.66668        -0.58104
| 61>    C      -17.31411       -12.11622         0.37466
| 62>    C      -17.73708       -12.44172         1.68029
| 63>    C      -16.75849       -11.94096         2.62853
| 64>    C      -16.79471       -12.03822         3.98888
| 65>    C      -17.85300       -12.67815         4.66806
| 66>    N      -18.70917       -13.19560         5.22850
| 67>    C      -15.78054       -11.50204         4.81027
| 68>    N      -14.96377       -11.06756         5.48792
| 69>    C      -18.95270       -13.12700         1.69395
| 70>    C      -19.43678       -13.31536         0.41766
| 71>    S      -18.40538       -12.65496        -0.82223
| 72>    C      -20.65935       -13.96619         0.02143
| 73>    N      -20.90043       -14.02720        -1.29002
| 74>    C      -22.02224       -14.61738        -1.65870
| 75>    C      -22.91359       -15.14925        -0.74164
| 76>    C      -22.57431       -15.03839         0.61326
| 77>    N      -21.44155       -14.44403         0.98067
| 78>    C      -23.44470       -15.56438         1.65675
| 79>    C      -23.15836       -15.47669         2.95007
| 80>    H       -1.84608         0.31238        -6.29197
| 81>    H        0.38601         1.72055        -3.17046
| 82>    H       -0.93524         0.28864        -1.56821
| 83>    H       -2.76136        -1.33844        -1.28322
| 84>    H       -4.12756        -2.07726        -3.91990
| 85>    H       -4.16031        -2.73832        -0.04437
| 86>    H       -8.55730        -6.58246         2.00548
| 87>    H      -14.08051       -10.39930         2.95701
| 88>    H      -19.47572       -13.47673         2.56446
| 89>    H      -22.20411       -14.65982        -2.72508
| 90>    H      -23.82785       -15.62712        -1.05365
| 91>    H      -24.35351       -16.03809         1.31051
| 92>    H      -22.24883       -15.00217         3.27638
| 93>    H      -23.81363       -15.87116         3.70715
| 94> *
| 95>
| 96>                          ****END OF INPUT****

CARTESIAN COORDINATES (ANGSTROEM)
---------------------------------
  C     -1.641880    0.305110   -5.228490
  N     -0.662490    1.089050   -4.809720
  C     -0.417260    1.077420   -3.507000
  C     -1.140540    0.293010   -2.626690
  C     -2.158760   -0.499600   -3.173560
  N     -2.395830   -0.479510   -4.491750
  C     -2.978090   -1.349780   -2.341480
  C     -3.965550   -2.114110   -2.851000
  C     -4.822270   -2.962280   -2.097790
  C     -4.845250   -3.197900   -0.732450
  C     -5.853000   -4.087190   -0.369680
  C     -6.609970   -4.539230   -1.470460
  S     -6.071610   -3.866720   -2.941360
  C     -7.614850   -5.418780   -1.004100
  C     -7.493070   -5.524070    0.398330
  C     -6.382450   -4.695760    0.839700
  C     -5.936000   -4.521960    2.117000
  C     -6.534900   -5.165860    3.220540
  N     -7.014100   -5.682860    4.124840
  C     -4.842820   -3.682980    2.418290
  N     -3.954320   -2.999710    2.660830
  C     -8.450890   -6.354810    0.960830
  C     -9.306160   -6.886080    0.001640
  S     -8.906290   -6.352020   -1.624700
  C    -10.413510   -7.741400    0.227360
  C    -11.211040   -8.198210   -0.845630
  C    -12.375200   -9.023220   -0.646480
  N    -13.092020   -9.417080   -1.703620
  C    -12.734980   -9.054390   -2.912440
  C    -11.578550   -8.232900   -3.110510
  N    -10.863990   -7.835780   -2.084720
  C    -11.190960   -7.839900   -4.414920
  N    -10.899660   -7.535460   -5.480040
  C    -13.505380   -9.484060   -4.020690
  N    -14.106740   -9.815140   -4.937510
  C    -12.803980   -9.429110    0.637730
  C    -11.986580   -9.003820    1.712870
  C    -10.815920   -8.178770    1.512100
  N    -10.211510   -7.901590    2.667560
  S    -11.011010   -8.594740    3.871530
  N    -12.169560   -9.282570    3.003580
  C    -13.988780  -10.187740    0.807970
  C    -14.545280  -10.609190    2.011280
  C    -15.732710  -11.299270    1.819240
  C    -16.086440  -11.413630    0.458060
  S    -14.954540  -10.666680   -0.581040
  C    -17.314110  -12.116220    0.374660
  C    -17.737080  -12.441720    1.680290
  C    -16.758490  -11.940960    2.628530
  C    -16.794710  -12.038220    3.988880
  C    -17.853000  -12.678150    4.668060
  N    -18.709170  -13.195600    5.228500
  C    -15.780540  -11.502040    4.810270
  N    -14.963770  -11.067560    5.487920
  C    -18.952700  -13.127000    1.693950
  C    -19.436780  -13.315360    0.417660
  S    -18.405380  -12.654960   -0.822230
  C    -20.659350  -13.966190    0.021430
  N    -20.900430  -14.027200   -1.290020
  C    -22.022240  -14.617380   -1.658700
  C    -22.913590  -15.149250   -0.741640
  C    -22.574310  -15.038390    0.613260
  N    -21.441550  -14.444030    0.980670
  C    -23.444700  -15.564380    1.656750
  C    -23.158360  -15.476690    2.950070
  H     -1.846080    0.312380   -6.291970
  H      0.386010    1.720550   -3.170460
  H     -0.935240    0.288640   -1.568210
  H     -2.761360   -1.338440   -1.283220
  H     -4.127560   -2.077260   -3.919900
  H     -4.160310   -2.738320   -0.044370
  H     -8.557300   -6.582460    2.005480
  H    -14.080510  -10.399300    2.957010
  H    -19.475720  -13.476730    2.564460
  H    -22.204110  -14.659820   -2.725080
  H    -23.827850  -15.627120   -1.053650
  H    -24.353510  -16.038090    1.310510
  H    -22.248830  -15.002170    3.276380
  H    -23.813630  -15.871160    3.707150

 Total Charge           Charge          ....    0
 Multiplicity           Mult            ....    1
 Number of Electrons    NEL             ....  468
 Basis Dimension        Dim             .... 1000

ORBITAL ENERGIES
----------------

  NO   OCC          E(Eh)            E(eV)
   0   2.0000     -89.053963     -2423.2815
   1   2.0000     -88.990613     -2421.5577
   2   2.0000     -88.987063     -2421.4611
   3   2.0000     -88.985073     -2421.4069
   4   2.0000     -88.984181     -2421.3827
   5   2.0000     -14.479052      -393.9950
   6   2.0000     -14.478828      -393.9889
   7   2.0000     -14.462603      -393.5474
   8   2.0000     -14.462332      -393.5401
   9   2.0000     -14.440978      -392.9590
  10   2.0000     -14.440411      -392.9436
  11   2.0000     -14.431554      -392.7026
  12   2.0000     -14.430328      -392.6692
  13   2.0000     -14.426879      -392.5753
  14   2.0000     -14.426202      -392.5569
  15   2.0000     -14.416950      -392.3052
  16   2.0000     -14.415398      -392.2629
  17   2.0000     -14.407560      -392.0496
  18   2.0000     -14.403650      -391.9432
  19   2.0000     -10.396291      -282.8975
  20   2.0000     -10.395788      -282.8838
  21   2.0000     -10.364693      -282.0376
  22   2.0000     -10.360160      -281.9143
  23   2.0000     -10.358921      -281.8806
  24   2.0000     -10.358627      -281.8726
  25   2.0000     -10.356150      -281.8052
  26   2.0000     -10.354489      -281.7600
  27   2.0000     -10.354246      -281.7534
  28   2.0000     -10.352591      -281.7083
  29   2.0000     -10.348228      -281.5896
  30   2.0000     -10.334339      -281.2117
  31   2.0000     -10.334168      -281.2070
  32   2.0000     -10.333768      -281.1961
  33   2.0000     -10.332979      -281.1747
  34   2.0000     -10.332185      -281.1531
  35   2.0000     -10.331506      -281.1346
  36   2.0000     -10.331287      -281.1286
  37   2.0000     -10.330729      -281.1134
  38   2.0000     -10.330464      -281.1062
  39   2.0000     -10.328677      -281.0576
  40   2.0000     -10.328323      -281.0479
  41   2.0000     -10.328270      -281.0465
  42   2.0000     -10.327510      -281.0258
  43   2.0000     -10.327437      -281.0238
  44   2.0000     -10.326699      -281.0038
  45   2.0000     -10.326614      -281.0014
  46   2.0000     -10.326092      -280.9872
  47   2.0000     -10.325273      -280.9650
  48   2.0000     -10.324597      -280.9466
  49   2.0000     -10.318571      -280.7826
  50   2.0000     -10.311659      -280.5945
  51   2.0000     -10.307044      -280.4689
  52   2.0000     -10.302897      -280.3561
  53   2.0000     -10.301139      -280.3083
  54   2.0000     -10.300333      -280.2863
  55   2.0000     -10.300155      -280.2815
  56   2.0000     -10.299166      -280.2546
  57   2.0000     -10.298664      -280.2409
  58   2.0000     -10.297514      -280.2096
  59   2.0000     -10.296620      -280.1853
  60   2.0000     -10.289088      -279.9803
  61   2.0000     -10.285444      -279.8812
  62   2.0000     -10.285181      -279.8740
  63   2.0000     -10.279786      -279.7272
  64   2.0000     -10.277447      -279.6635
  65   2.0000      -8.144975      -221.6360
  66   2.0000      -8.085293      -220.0120
  67   2.0000      -8.079602      -219.8572
  68   2.0000      -8.078308      -219.8219
  69   2.0000      -8.077791      -219.8079
  70   2.0000      -6.116062      -166.4265
  71   2.0000      -6.108110      -166.2101
  72   2.0000      -6.107892      -166.2042
  73   2.0000      -6.054358      -164.7475
  74   2.0000      -6.050267      -164.6361
  75   2.0000      -6.049186      -164.6067
  76   2.0000      -6.047932      -164.5726
  77   2.0000      -6.047441      -164.5592
  78   2.0000      -6.047325      -164.5561
  79   2.0000      -6.044335      -164.4747
  80   2.0000      -6.043133      -164.4420
  81   2.0000      -6.042541      -164.4259
  82   2.0000      -6.042046      -164.4124
  83   2.0000      -6.041012      -164.3843
  84   2.0000      -6.040236      -164.3632
  85   2.0000      -1.152016       -31.3479
  86   2.0000      -1.137657       -30.9572
  87   2.0000      -1.092105       -29.7177
  88   2.0000      -1.078274       -29.3413
  89   2.0000      -1.066583       -29.0232
  90   2.0000      -1.044276       -28.4162
  91   2.0000      -1.039900       -28.2971
  92   2.0000      -1.025999       -27.9189
  93   2.0000      -1.022355       -27.8197
  94   2.0000      -1.018227       -27.7074
  95   2.0000      -1.015654       -27.6374
  96   2.0000      -1.008806       -27.4510
  97   2.0000      -1.007806       -27.4238
  98   2.0000      -1.004139       -27.3240
  99   2.0000      -1.001985       -27.2654
 100   2.0000      -0.992282       -27.0014
 101   2.0000      -0.989285       -26.9198
 102   2.0000      -0.981960       -26.7205
 103   2.0000      -0.978287       -26.6205
 104   2.0000      -0.958843       -26.0914
 105   2.0000      -0.953259       -25.9395
 106   2.0000      -0.924103       -25.1461
 107   2.0000      -0.921634       -25.0789
 108   2.0000      -0.917117       -24.9560
 109   2.0000      -0.907315       -24.6893
 110   2.0000      -0.897663       -24.4266
 111   2.0000      -0.887112       -24.1395
 112   2.0000      -0.873678       -23.7740
 113   2.0000      -0.863518       -23.4975
 114   2.0000      -0.860659       -23.4197
 115   2.0000      -0.856438       -23.3049
 116   2.0000      -0.854673       -23.2568
 117   2.0000      -0.849567       -23.1179
 118   2.0000      -0.846241       -23.0274
 119   2.0000      -0.820199       -22.3188
 120   2.0000      -0.815829       -22.1998
 121   2.0000      -0.793166       -21.5831
 122   2.0000      -0.785953       -21.3869
 123   2.0000      -0.777077       -21.1454
 124   2.0000      -0.768575       -20.9140
 125   2.0000      -0.754798       -20.5391
 126   2.0000      -0.748869       -20.3778
 127   2.0000      -0.746345       -20.3091
 128   2.0000      -0.740229       -20.1426
 129   2.0000      -0.726418       -19.7669
 130   2.0000      -0.717866       -19.5341
 131   2.0000      -0.707485       -19.2517
 132   2.0000      -0.702786       -19.1238
 133   2.0000      -0.698349       -19.0030
 134   2.0000      -0.695145       -18.9158
 135   2.0000      -0.685203       -18.6453
 136   2.0000      -0.679528       -18.4909
 137   2.0000      -0.674051       -18.3419
 138   2.0000      -0.668783       -18.1985
 139   2.0000      -0.662725       -18.0337
 140   2.0000      -0.649792       -17.6817
 141   2.0000      -0.643001       -17.4969
 142   2.0000      -0.636362       -17.3163
 143   2.0000      -0.632295       -17.2056
 144   2.0000      -0.627625       -17.0785
 145   2.0000      -0.623801       -16.9745
 146   2.0000      -0.619089       -16.8463
 147   2.0000      -0.613523       -16.6948
 148   2.0000      -0.611593       -16.6423
 149   2.0000      -0.608220       -16.5505
 150   2.0000      -0.597746       -16.2655
 151   2.0000      -0.594385       -16.1740
 152   2.0000      -0.588703       -16.0194
 153   2.0000      -0.583007       -15.8644
 154   2.0000      -0.572240       -15.5715
 155   2.0000      -0.568231       -15.4623
 156   2.0000      -0.563430       -15.3317
 157   2.0000      -0.555735       -15.1223
 158   2.0000      -0.547512       -14.8986
 159   2.0000      -0.546427       -14.8690
 160   2.0000      -0.545620       -14.8471
 161   2.0000      -0.545000       -14.8302
 162   2.0000      -0.542962       -14.7748
 163   2.0000      -0.536712       -14.6047
 164   2.0000      -0.533300       -14.5118
 165   2.0000      -0.533009       -14.5039
 166   2.0000      -0.521121       -14.1804
 167   2.0000      -0.517400       -14.0792
 168   2.0000      -0.512606       -13.9487
 169   2.0000      -0.511279       -13.9126
 170   2.0000      -0.506361       -13.7788
 171   2.0000      -0.505263       -13.7489
 172   2.0000      -0.502223       -13.6662
 173   2.0000      -0.500477       -13.6187
 174   2.0000      -0.496324       -13.5057
 175   2.0000      -0.495583       -13.4855
 176   2.0000      -0.494834       -13.4651
 177   2.0000      -0.493036       -13.4162
 178   2.0000      -0.491501       -13.3744
 179   2.0000      -0.485493       -13.2109
 180   2.0000      -0.483518       -13.1572
 181   2.0000      -0.482351       -13.1254
 182   2.0000      -0.476589       -12.9687
 183   2.0000      -0.474939       -12.9237
 184   2.0000      -0.472854       -12.8670
 185   2.0000      -0.469372       -12.7723
 186   2.0000      -0.467089       -12.7101
 187   2.0000      -0.463975       -12.6254
 188   2.0000      -0.462728       -12.5915
 189   2.0000      -0.459879       -12.5139
 190   2.0000      -0.459619       -12.5069
 191   2.0000      -0.458391       -12.4734
 192   2.0000      -0.455949       -12.4070
 193   2.0000      -0.454136       -12.3577
 194   2.0000      -0.453607       -12.3433
 195   2.0000      -0.453117       -12.3299
 196   2.0000      -0.445650       -12.1268
 197   2.0000      -0.443870       -12.0783
 198   2.0000      -0.442365       -12.0374
 199   2.0000      -0.441400       -12.0111
 200   2.0000      -0.439131       -11.9493
 201   2.0000      -0.437886       -11.9155
 202   2.0000      -0.437007       -11.8916
 203   2.0000      -0.435511       -11.8508
 204   2.0000      -0.435447       -11.8491
 205   2.0000      -0.428806       -11.6684
 206   2.0000      -0.427995       -11.6463
 207   2.0000      -0.424146       -11.5416
 208   2.0000      -0.423469       -11.5232
 209   2.0000      -0.421892       -11.4803
 210   2.0000      -0.417492       -11.3605
 211   2.0000      -0.407524       -11.0893
 212   2.0000      -0.406530       -11.0622
 213   2.0000      -0.395995       -10.7756
 214   2.0000      -0.389332       -10.5943
 215   2.0000      -0.387758       -10.5514
 216   2.0000      -0.387280       -10.5384
 217   2.0000      -0.384840       -10.4720
 218   2.0000      -0.367724       -10.0063
 219   2.0000      -0.367449        -9.9988
 220   2.0000      -0.361357        -9.8330
 221   2.0000      -0.360936        -9.8216
 222   2.0000      -0.360050        -9.7975
 223   2.0000      -0.348282        -9.4772
 224   2.0000      -0.343091        -9.3360
 225   2.0000      -0.340701        -9.2709
 226   2.0000      -0.333881        -9.0854
 227   2.0000      -0.328043        -8.9265
 228   2.0000      -0.323875        -8.8131
 229   2.0000      -0.322689        -8.7808
 230   2.0000      -0.317803        -8.6479
 231   2.0000      -0.304990        -8.2992
 232   2.0000      -0.274171        -7.4606
 233   2.0000      -0.239699        -6.5225
 234   0.0000      -0.138469        -3.7679
 235   0.0000      -0.103356        -2.8125
 236   0.0000      -0.097748        -2.6598
 237   0.0000      -0.065007        -1.7689
 238   0.0000      -0.056048        -1.5251

MULLIKEN ATOMIC CHARGES
-----------------------
   0 C :    0.071524
   1 N :   -0.109466
   2 C :    0.070119
   3 C :   -0.034664
   4 C :    0.026357
   5 N :   -0.094927
   6 C :   -0.011302
   7 C :    0.079499
   8 C :   -0.070359
   9 C :   -0.027876
  10 C :    0.004172
  11 C :   -0.108406
  12 S :    0.209715
  13 C :   -0.061166
  14 C :    0.033519
  15 C :    0.308668
  16 C :   -0.302019
  17 C :   -0.188071
  18 N :    0.176903
  19 C :   -0.187222
  20 N :    0.164886
  21 C :   -0.061792
  22 C :   -0.178236
  23 S :    0.203828
  24 C :    0.193055
  25 C :   -0.065076
  26 C :   -0.062085
  27 N :   -0.000418
  28 C :   -0.102849
  29 C :   -0.100342
  30 N :   -0.003570
  31 C :   -0.244306
  32 N :    0.253304
  33 C :   -0.242846
  34 N :    0.251650
  35 C :    0.194605
  36 C :   -0.018023
  37 C :   -0.012860
  38 N :   -0.282361
  39 S :    0.584483
  40 N :   -0.281131
  41 C :   -0.177940
  42 C :   -0.066784
  43 C :    0.038037
  44 C :   -0.061278
  45 S :    0.203580
  46 C :   -0.104110
  47 C :    0.008559
  48 C :    0.309244
  49 C :   -0.304794
  50 C :   -0.193600
  51 N :    0.175214
  52 C :   -0.186853
  53 N :    0.168120
  54 C :   -0.040855
  55 C :   -0.034765
  56 S :    0.247710
  57 C :   -0.077839
  58 N :   -0.090696
  59 C :    0.088073
  60 C :   -0.043051
  61 C :    0.043758
  62 N :   -0.045932
  63 C :   -0.021383
  64 C :    0.038560
  65 H :    0.015648
  66 H :    0.010738
  67 H :   -0.002948
  68 H :   -0.012464
  69 H :    0.008629
  70 H :    0.007079
  71 H :    0.020855
  72 H :    0.021141
  73 H :    0.014275
  74 H :    0.011159
  75 H :   -0.003359
  76 H :   -0.015129
  77 H :    0.047483
  78 H :    0.031003
Sum of atomic charges:   -0.0000000

LOEWDIN ATOMIC CHARGES
----------------------
   0 C :    0.046155
   1 N :   -0.096740
   2 C :    0.049998
   3 C :   -0.062105
   4 C :    0.032483
   5 N :   -0.092553
   6 C :   -0.034677
   7 C :   -0.005215
   8 C :   -0.162454
   9 C :   -0.021269
  10 C :   -0.061919
  11 C :   -0.184333
  12 S :    0.492541
  13 C :   -0.173613
  14 C :   -0.076293
  15 C :    0.081967
  16 C :   -0.104289
  17 C :   -0.017083
  18 N :   -0.032775
  19 C :   -0.015495
  20 N :   -0.037096
  21 C :   -0.006856
  22 C :   -0.168627
  23 S :    0.508744
  24 C :   -0.040199
  25 C :   -0.015958
  26 C :   -0.016727
  27 N :   -0.015564
  28 C :   -0.023865
  29 C :   -0.022617
  30 N :   -0.017210
  31 C :   -0.039488
  32 N :    0.000435
  33 C :   -0.039681
  34 N :    0.000616
  35 C :   -0.036400
  36 C :   -0.037539
  37 C :   -0.036845
  38 N :   -0.271424
  39 S :    0.703552
  40 N :   -0.269755
  41 C :   -0.170324
  42 C :   -0.005436
  43 C :   -0.075033
  44 C :   -0.171628
  45 S :    0.508999
  46 C :   -0.180881
  47 C :   -0.067747
  48 C :    0.081364
  49 C :   -0.105582
  50 C :   -0.017294
  51 N :   -0.034663
  52 C :   -0.016265
  53 N :   -0.036794
  54 C :   -0.005644
  55 C :   -0.181974
  56 S :    0.521459
  57 C :    0.011615
  58 N :   -0.110016
  59 C :    0.055939
  60 C :   -0.068428
  61 C :    0.043214
  62 N :   -0.083068
  63 C :   -0.048748
  64 C :    0.016582
  65 H :    0.018602
  66 H :    0.026729
  67 H :    0.034003
  68 H :    0.029613
  69 H :    0.036261
  70 H :    0.039824
  71 H :    0.038217
  72 H :    0.038212
  73 H :    0.044440
  74 H :    0.028781
  75 H :    0.034284
  76 H :    0.028502
  77 H :    0.032983
  78 H :    0.030076

  Mayer bond orders larger than 0.100000
B(  0-C ,  1-N ) :   1.5018 B(  0-C ,  5-N ) :   1.5291 B(  0-C , 65-H ) :   0.9751
B(  1-N ,  2-C ) :   1.5409 B(  2-C ,  3-C ) :   1.3848 B(  2-C , 66-H ) :   0.9815
B(  3-C ,  4-C ) :   1.3389 B(  3-C , 67-H ) :   0.9766 B(  4-C ,  5-N ) :   1.5142
B(  4-C ,  6-C ) :   1.0912 B(  6-C ,  7-C ) :   1.7235 B(  6-C , 68-H ) :   0.9744
B(  7-C ,  8-C ) :   1.0852 B(  7-C , 69-H ) :   0.9569 B(  8-C ,  9-C ) :   1.4497
B(  8-C , 12-S ) :   1.1113 B(  9-C , 10-C ) :   1.3131 B(  9-C , 70-H ) :   0.9910
B( 10-C , 11-C ) :   1.4138 B( 10-C , 15-C ) :   0.9962 B( 11-C , 12-S ) :   1.1292
B( 11-C , 13-C ) :   1.2070 B( 13-C , 14-C ) :   1.3999 B( 13-C , 23-S ) :   1.0905
B( 14-C , 15-C ) :   0.9918 B( 14-C , 21-C ) :   1.2817 B( 15-C , 16-C ) :   1.7090
B( 16-C , 17-C ) :   1.1381 B( 16-C , 19-C ) :   1.1332 B( 17-C , 18-N ) :   2.9886
B( 19-C , 20-N ) :   2.9879 B( 21-C , 22-C ) :   1.4085 B( 21-C , 71-H ) :   0.9823
B( 22-C , 23-S ) :   1.0815 B( 22-C , 24-C ) :   1.2143 B( 24-C , 25-C ) :   1.2537
B( 24-C , 35-C ) :   0.1192 B( 24-C , 37-C ) :   1.1934 B( 25-C , 26-C ) :   1.1030
B( 25-C , 30-N ) :   1.4053 B( 26-C , 27-N ) :   1.4072 B( 26-C , 35-C ) :   1.2502
B( 27-N , 28-C ) :   1.6935 B( 28-C , 29-C ) :   1.2204 B( 28-C , 33-C ) :   1.1674
B( 29-C , 30-N ) :   1.6910 B( 29-C , 31-C ) :   1.1677 B( 31-C , 32-N ) :   3.0406
B( 33-C , 34-N ) :   3.0384 B( 35-C , 36-C ) :   1.1920 B( 35-C , 41-C ) :   1.2190
B( 36-C , 37-C ) :   1.0982 B( 36-C , 40-N ) :   1.5211 B( 37-C , 38-N ) :   1.5202
B( 38-N , 39-S ) :   1.2828 B( 38-N , 40-N ) :   0.1458 B( 39-S , 40-N ) :   1.2839
B( 41-C , 42-C ) :   1.4019 B( 41-C , 45-S ) :   1.0811 B( 42-C , 43-C ) :   1.2842
B( 42-C , 72-H ) :   0.9828 B( 43-C , 44-C ) :   1.4018 B( 43-C , 48-C ) :   0.9881
B( 44-C , 45-S ) :   1.0950 B( 44-C , 46-C ) :   1.2037 B( 46-C , 47-C ) :   1.4175
B( 46-C , 56-S ) :   1.1252 B( 47-C , 48-C ) :   0.9969 B( 47-C , 54-C ) :   1.2608
B( 48-C , 49-C ) :   1.7098 B( 49-C , 50-C ) :   1.1330 B( 49-C , 52-C ) :   1.1383
B( 50-C , 51-N ) :   3.0019 B( 52-C , 53-N ) :   2.9853 B( 54-C , 55-C ) :   1.4862
B( 54-C , 73-H ) :   1.0081 B( 55-C , 56-S ) :   1.1198 B( 55-C , 57-C ) :   1.0041
B( 55-C , 62-N ) :  -0.1008 B( 57-C , 58-N ) :   1.5883 B( 57-C , 62-N ) :   1.6196
B( 58-N , 59-C ) :   1.5375 B( 59-C , 60-C ) :   1.3813 B( 59-C , 74-H ) :   0.9795
B( 60-C , 61-C ) :   1.3329 B( 60-C , 75-H ) :   0.9740 B( 61-C , 62-N ) :   1.5083
B( 61-C , 63-C ) :   1.0639 B( 63-C , 64-C ) :   1.9502 B( 63-C , 76-H ) :   0.9661
B( 64-C , 77-H ) :   0.9425 B( 64-C , 78-H ) :   0.9477

-----------------------------------------------------------------------------
         ABSORPTION SPECTRUM VIA TRANSITION ELECTRIC DIPOLE MOMENTS
-----------------------------------------------------------------------------
State   Energy  Wavelength   fosc         T2         TX        TY        TZ
        (cm-1)    (nm)                  (au**2)     (au)      (au)      (au)
-----------------------------------------------------------------------------
   0    6908.9   1447.4   0.528856677  25.20019   4.04080   2.88944  -0.72338
   1   12638.3    791.2   0.008350940   0.21753   0.24763   0.35929  -0.16469
   2   13941.6    717.3   0.018839492   0.44487   0.58901   0.30596  -0.06574
   3   15947.5    627.1   0.004591438   0.09478   0.03454   0.30589   0.00472
   4   21769.7    459.4   0.054261478   0.82057   0.55927   0.33503  -0.62892
   5   22010.0    454.3   0.238181320   3.56257   1.49057   1.13051   0.25043
   6   22952.1    435.7   0.459981110   6.59770  -2.00874  -1.45790   0.66122
   7   23461.1    426.2   0.063049607   0.88473   0.74546   0.56325   0.10846
   8   23703.7    421.9   0.045045581   0.62562  -0.52382  -0.39124   0.44516
   9   24591.1    406.7   0.019111611   0.25586  -0.27570  -0.13075  -0.40342
  10   24895.5    401.7   0.083570034   1.10511   0.79881   0.61166  -0.30475
  11   25244.4    396.1   0.002242896   0.02925   0.16986  -0.01891  -0.00625
  12   26825.7    372.8   1.213120423  14.88772  -2.86011  -2.35281   1.08250
  13   28663.8    348.9   0.017002412   0.19528  -0.31315  -0.31152   0.01324
  14   29162.9    342.9   0.247937919   2.79891  -1.18359  -0.84362   0.82845
  15   29790.5    335.7   0.071343325   0.78841  -0.34231  -0.47775   0.66557
  16   30144.9    331.7   0.523742033   5.71978   1.93095   0.89382   1.09193
  17   30310.7    329.9   0.000531476   0.00577   0.05259   0.03216   0.04442
  18   30437.4    328.5   0.001245706   0.01347  -0.03943   0.09441   0.05482
  19   30631.6    326.5   0.158677839   1.70538  -0.33594  -0.09516  -1.25836
  20   31118.7    321.4   0.093044653   0.98434   0.32677   0.10541   0.93083
  21   31140.2    321.1   0.006514951   0.06888   0.07215   0.02250   0.25132
  22   31510.6    317.4   0.037021541   0.38679  -0.12175  -0.15134   0.59081
  23   31748.7    315.0   0.016931949   0.17557  -0.29706  -0.05019  -0.29122
  24   32023.4    312.3   0.076186148   0.78322  -0.63887  -0.53190   0.30356
  25   32200.0    310.6   0.627683316   6.41742   0.59901   0.24497   2.44920
  26   32510.6    307.6   0.690262684   6.98980  -0.51096  -0.17492  -2.58807
  27   33089.0    302.2   0.014646367   0.14572   0.19046   0.15266  -0.29349
  28   33499.0    298.5   0.155878175   1.53190   0.56670   0.43165  -1.01214
  29   33582.2    297.8   0.033271774   0.32617  -0.29467   0.03069  -0.48826
  30   33716.0    296.6   0.048248705   0.47111  -0.40582  -0.34888   0.42977
  31   33777.1    296.1   0.220392388   2.14808  -0.45766  -0.58509   1.26345
  32   34275.2    291.8   0.257826405   2.47641   1.30274   0.82415   0.31629
  33   35411.2    282.4   0.093234493   0.86679   0.80978   0.45809   0.03465
  34   35666.4    280.4   0.001349328   0.01245  -0.04163   0.10350  -0.00312
  35   36050.1    277.4   0.001100765   0.01005  -0.06057   0.07647   0.02316
  36   36273.2    275.7   0.062350141   0.56588  -0.24435  -0.45108   0.55019
  37   36471.7    274.2   0.041420829   0.37389  -0.50076  -0.34675  -0.05377
  38   36596.7    273.2   0.081545100   0.73355   0.01196   0.12468  -0.84727
  39   36668.2    272.7   0.007356401   0.06605   0.10581  -0.23390  -0.01183
  40   37619.5    265.8   0.012570073   0.11000  -0.20870  -0.20182   0.16035
  41   37884.4    264.0   0.001848111   0.01606  -0.08338   0.09481   0.01089
  42   38419.1    260.3   0.018582968   0.15924  -0.02623   0.02198  -0.39757
  43   38566.1    259.3   0.211968742   1.80943   0.52667   0.25527   1.21115
  44   38729.5    258.2   0.015153599   0.12881   0.11308   0.10217   0.32494
  45   39253.3    254.8   0.247934913   2.07940  -0.86588  -0.41461  -1.07598
  46   39489.4    253.2   0.008161140   0.06804  -0.22540  -0.10418   0.07987
  47   39611.1    252.5   0.142725721   1.18621  -0.43497  -0.36817   0.92815
  48   39755.8    251.5   0.003806712   0.03152  -0.11769   0.12543   0.04405
  49   39818.5    251.1   0.003222958   0.02665  -0.13558   0.08715   0.02587

FINAL SINGLE POINT ENERGY     -4514.817342012343

DIPOLE MOMENT
-------------
                                X             Y             Z
Electronic contribution:      5.02790      -4.12131       2.60532
Nuclear contribution   :     -6.41934       3.31648      -2.92850
                        -----------------------------------------
Total Dipole Moment    :     -1.39144      -0.80483      -0.32318
                        -----------------------------------------
Magnitude (a.u.)       :      1.63960
Magnitude (Debye)      :      4.16754

Rotational constants in cm-1:     0.002834     0.000308     0.000279
Rotational constants in MHz :    84.952952     9.240251     8.369005

                             ****ORCA TERMINATED NORMALLY****
TOTAL RUN TIME: 0 days 0 hours 7 minutes 25 seconds 966 msec
