                         Program Version 4.2.0 -  RELEASE  -
|  1> # ORCA input file
|  2> # SCF done       -204.035246352605          0.000739192808
|  3> ! CAM-B3LYP def2-SVP def2/J RIJCOSX Grid4 TightSCF
|  4> %maxcore 5000
|  5> %tddft
|  6>     Mode sTDDFT
|  7>     Ethresh 5.0
|  8>     maxcore 5000
|  9> end
| 10>
| 11> %pal
| 12>   nprocs 6
| 13>   end
| 14> * xyz 0 1
| 15>    C       -0.17938         3.96601         5.49588
| 16>    C        0.74202         3.04387         5.07344
| 17>    C        2.03384         2.90775         5.62561
| 18>    N        3.09587         2.74765         6.03019
| 19>    C        0.55902         2.11382         4.02793
| 20>    N        0.49508         1.33381         3.18765
| 21>    C        0.03753         4.95118         6.55073
| 22>    C       -1.11490         5.76960         6.65477
| 23>    C       -1.21969         6.79669         7.56116
| 24>    C       -0.13300         7.02817         8.41056
| 25>    C        1.01484         6.20641         8.30150
| 26>    C        1.11970         5.16877         7.38294
| 27>    S        2.23859         6.66335         9.44581
| 28>    C        1.20728         7.93394        10.04807
| 29>    C        0.00715         8.01393         9.42486
| 30>   Br        1.81106         9.03321        11.44163
| 31>    C       -2.11011         5.32611         5.66702
| 32>    O       -3.20890         5.81914         5.47626
| 33>    C       -1.51908         4.17576         4.97368
| 34>    C       -2.14894         3.40498         4.03193
| 35>    C       -3.42453         3.53232         3.45812
| 36>    C       -3.90213         2.60681         2.52131
| 37>    C       -5.16531         2.92420         2.06173
| 38>    C       -5.66383         4.11428         2.64398
| 39>    S       -4.59141         4.81825         3.76279
| 40>    C       -6.95002         4.36361         2.10176
| 41>    C       -7.26283         3.33635         1.18658
| 42>    C       -6.15509         2.39928         1.13214
| 43>    C       -6.06385         1.27209         0.37009
| 44>    C       -4.93171         0.43000         0.40337
| 45>    N       -4.01709        -0.26049         0.42737
| 46>    C       -7.09791         0.86933        -0.50196
| 47>    N       -7.93422         0.53646        -1.21186
| 48>    C       -8.51201         3.50431         0.59376
| 49>    C       -9.13460         4.65043         1.05127
| 50>    S       -8.18638         5.53368         2.22581
| 51>    C      -10.40240         5.17565         0.66275
| 52>    N      -10.77368         6.33101         1.19461
| 53>    N      -11.88430         6.92417         0.89314
| 54>    C      -12.75865         6.42890         0.02954
| 55>    C      -12.49358         5.17669        -0.59527
| 56>    C      -11.26198         4.52518        -0.26849
| 57>    N      -11.12076         3.37163        -0.91489
| 58>    S      -12.41265         3.13361        -1.84070
| 59>    N      -13.21205         4.47771        -1.46918
| 60>    C      -13.92419         7.20418        -0.24224
| 61>    C      -14.96933         6.90409        -1.09524
| 62>    C      -15.91527         7.92626        -1.11627
| 63>    C      -15.57292         9.00319        -0.27186
| 64>    S      -14.09756         8.75482         0.54782
| 65>    C      -16.58027         9.99620        -0.38404
| 66>    C      -17.55642         9.54155        -1.29334
| 67>    C      -17.16653         8.23119        -1.78705
| 68>    C      -17.82592         7.47983        -2.71508
| 69>    C      -17.35556         6.21937        -3.14032
| 70>    N      -16.98044         5.19202        -3.48366
| 71>    C      -19.02494         7.93238        -3.30545
| 72>    N      -20.00074         8.31406        -3.77148
| 73>    C      -18.56996        10.46534        -1.50767
| 74>    C      -18.37907        11.63085        -0.77897
| 75>    S      -16.93168        11.54728         0.21808
| 76>    C      -19.19143        12.78549        -0.72796
| 77>    C      -20.14134        13.19818        -1.61122
| 78>    C      -20.48179        12.80987        -2.96513
| 79>    C      -19.62650        12.34242        -3.92888
| 80>    C      -20.00082        12.12469        -5.27204
| 81>    N      -20.25180        11.93767        -6.37570
| 82>    C      -18.25069        12.12217        -3.72411
| 83>    N      -17.12088        11.94902        -3.61437
| 84>    C      -21.84181        13.27524        -3.21669
| 85>    C      -22.23243        14.13777        -2.16091
| 86>    C      -21.15393        14.19548        -1.15686
| 87>    O      -21.10406        14.86337        -0.15070
| 88>    C      -23.45244        14.76953        -2.13957
| 89>    C      -24.33101        14.52739        -3.20086
| 90>    C      -23.93882        13.64715        -4.23894
| 91>    C      -22.70150        13.01537        -4.26636
| 92>    S      -25.18290        13.47831        -5.43817
| 93>    C      -26.19723        14.58210        -4.54740
| 94>    C      -25.63609        15.05164        -3.40750
| 95>   Br      -27.90113        15.00710        -5.20353
| 96>    H       -2.11152         7.40118         7.61384
| 97>    H        2.01513         4.57182         7.34239
| 98>    H       -0.74891         8.73734         9.66970
| 99>    H       -1.60321         2.54846         3.65463
|100>    H       -3.32330         1.75439         2.21195
|101>    H       -8.96426         2.85195        -0.13117
|102>    H      -15.01083         5.98934        -1.65855
|103>    H      -19.43110        10.29664        -2.12808
|104>    H      -19.09681        13.40201         0.16088
|105>    H      -23.72170        15.42934        -1.32988
|106>    H      -22.44779        12.34526        -5.07103
|107>    H      -26.12125        15.73890        -2.73878
|108> *
|109>
|110>                          ****END OF INPUT****

CARTESIAN COORDINATES (ANGSTROEM)
---------------------------------
  C     -0.179380    3.966010    5.495880
  C      0.742020    3.043870    5.073440
  C      2.033840    2.907750    5.625610
  N      3.095870    2.747650    6.030190
  C      0.559020    2.113820    4.027930
  N      0.495080    1.333810    3.187650
  C      0.037530    4.951180    6.550730
  C     -1.114900    5.769600    6.654770
  C     -1.219690    6.796690    7.561160
  C     -0.133000    7.028170    8.410560
  C      1.014840    6.206410    8.301500
  C      1.119700    5.168770    7.382940
  S      2.238590    6.663350    9.445810
  C      1.207280    7.933940   10.048070
  C      0.007150    8.013930    9.424860
  Br     1.811060    9.033210   11.441630
  C     -2.110110    5.326110    5.667020
  O     -3.208900    5.819140    5.476260
  C     -1.519080    4.175760    4.973680
  C     -2.148940    3.404980    4.031930
  C     -3.424530    3.532320    3.458120
  C     -3.902130    2.606810    2.521310
  C     -5.165310    2.924200    2.061730
  C     -5.663830    4.114280    2.643980
  S     -4.591410    4.818250    3.762790
  C     -6.950020    4.363610    2.101760
  C     -7.262830    3.336350    1.186580
  C     -6.155090    2.399280    1.132140
  C     -6.063850    1.272090    0.370090
  C     -4.931710    0.430000    0.403370
  N     -4.017090   -0.260490    0.427370
  C     -7.097910    0.869330   -0.501960
  N     -7.934220    0.536460   -1.211860
  C     -8.512010    3.504310    0.593760
  C     -9.134600    4.650430    1.051270
  S     -8.186380    5.533680    2.225810
  C    -10.402400    5.175650    0.662750
  N    -10.773680    6.331010    1.194610
  N    -11.884300    6.924170    0.893140
  C    -12.758650    6.428900    0.029540
  C    -12.493580    5.176690   -0.595270
  C    -11.261980    4.525180   -0.268490
  N    -11.120760    3.371630   -0.914890
  S    -12.412650    3.133610   -1.840700
  N    -13.212050    4.477710   -1.469180
  C    -13.924190    7.204180   -0.242240
  C    -14.969330    6.904090   -1.095240
  C    -15.915270    7.926260   -1.116270
  C    -15.572920    9.003190   -0.271860
  S    -14.097560    8.754820    0.547820
  C    -16.580270    9.996200   -0.384040
  C    -17.556420    9.541550   -1.293340
  C    -17.166530    8.231190   -1.787050
  C    -17.825920    7.479830   -2.715080
  C    -17.355560    6.219370   -3.140320
  N    -16.980440    5.192020   -3.483660
  C    -19.024940    7.932380   -3.305450
  N    -20.000740    8.314060   -3.771480
  C    -18.569960   10.465340   -1.507670
  C    -18.379070   11.630850   -0.778970
  S    -16.931680   11.547280    0.218080
  C    -19.191430   12.785490   -0.727960
  C    -20.141340   13.198180   -1.611220
  C    -20.481790   12.809870   -2.965130
  C    -19.626500   12.342420   -3.928880
  C    -20.000820   12.124690   -5.272040
  N    -20.251800   11.937670   -6.375700
  C    -18.250690   12.122170   -3.724110
  N    -17.120880   11.949020   -3.614370
  C    -21.841810   13.275240   -3.216690
  C    -22.232430   14.137770   -2.160910
  C    -21.153930   14.195480   -1.156860
  O    -21.104060   14.863370   -0.150700
  C    -23.452440   14.769530   -2.139570
  C    -24.331010   14.527390   -3.200860
  C    -23.938820   13.647150   -4.238940
  C    -22.701500   13.015370   -4.266360
  S    -25.182900   13.478310   -5.438170
  C    -26.197230   14.582100   -4.547400
  C    -25.636090   15.051640   -3.407500
  Br   -27.901130   15.007100   -5.203530
  H     -2.111520    7.401180    7.613840
  H      2.015130    4.571820    7.342390
  H     -0.748910    8.737340    9.669700
  H     -1.603210    2.548460    3.654630
  H     -3.323300    1.754390    2.211950
  H     -8.964260    2.851950   -0.131170
  H    -15.010830    5.989340   -1.658550
  H    -19.431100   10.296640   -2.128080
  H    -19.096810   13.402010    0.160880
  H    -23.721700   15.429340   -1.329880
  H    -22.447790   12.345260   -5.071030
  H    -26.121250   15.738900   -2.738780

 Total Charge           Charge          ....    0
 Multiplicity           Mult            ....    1
 Number of Electrons    NEL             ....  642
 Basis Dimension        Dim             .... 1258

ORBITAL ENERGIES
----------------

  NO   OCC          E(Eh)            E(eV)
   0   2.0000    -482.889794    -13140.0993
   1   2.0000    -482.887802    -13140.0451
   2   2.0000     -89.060180     -2423.4507
   3   2.0000     -89.001232     -2421.8466
   4   2.0000     -88.996977     -2421.7309
   5   2.0000     -88.996222     -2421.7103
   6   2.0000     -88.994967     -2421.6762
   7   2.0000     -88.980566     -2421.2843
   8   2.0000     -88.978632     -2421.2317
   9   2.0000     -62.567515     -1702.5486
  10   2.0000     -62.565510     -1702.4941
  11   2.0000     -56.401473     -1534.7621
  12   2.0000     -56.399463     -1534.7074
  13   2.0000     -56.398743     -1534.6878
  14   2.0000     -56.398713     -1534.6870
  15   2.0000     -56.396740     -1534.6333
  16   2.0000     -56.396710     -1534.6325
  17   2.0000     -19.231078      -523.3042
  18   2.0000     -19.220730      -523.0226
  19   2.0000     -14.474744      -393.8778
  20   2.0000     -14.474611      -393.8742
  21   2.0000     -14.462257      -393.5380
  22   2.0000     -14.461785      -393.5252
  23   2.0000     -14.436641      -392.8410
  24   2.0000     -14.434906      -392.7938
  25   2.0000     -14.433707      -392.7611
  26   2.0000     -14.432731      -392.7346
  27   2.0000     -14.422219      -392.4485
  28   2.0000     -14.421400      -392.4262
  29   2.0000     -14.419117      -392.3641
  30   2.0000     -14.417922      -392.3316
  31   2.0000     -10.378731      -282.4196
  32   2.0000     -10.371929      -282.2345
  33   2.0000     -10.370937      -282.2075
  34   2.0000     -10.368985      -282.1544
  35   2.0000     -10.363887      -282.0157
  36   2.0000     -10.361604      -281.9536
  37   2.0000     -10.358962      -281.8817
  38   2.0000     -10.358657      -281.8734
  39   2.0000     -10.358343      -281.8648
  40   2.0000     -10.357144      -281.8322
  41   2.0000     -10.356448      -281.8133
  42   2.0000     -10.356019      -281.8016
  43   2.0000     -10.349020      -281.6111
  44   2.0000     -10.348248      -281.5901
  45   2.0000     -10.348042      -281.5845
  46   2.0000     -10.347456      -281.5686
  47   2.0000     -10.346832      -281.5516
  48   2.0000     -10.342048      -281.4214
  49   2.0000     -10.339861      -281.3619
  50   2.0000     -10.338285      -281.3190
  51   2.0000     -10.336923      -281.2820
  52   2.0000     -10.334893      -281.2267
  53   2.0000     -10.333829      -281.1978
  54   2.0000     -10.333719      -281.1948
  55   2.0000     -10.332733      -281.1680
  56   2.0000     -10.332508      -281.1618
  57   2.0000     -10.332379      -281.1583
  58   2.0000     -10.331598      -281.1371
  59   2.0000     -10.331121      -281.1241
  60   2.0000     -10.330687      -281.1123
  61   2.0000     -10.329907      -281.0911
  62   2.0000     -10.329453      -281.0787
  63   2.0000     -10.323756      -280.9237
  64   2.0000     -10.323505      -280.9168
  65   2.0000     -10.322022      -280.8765
  66   2.0000     -10.320171      -280.8261
  67   2.0000     -10.317475      -280.7528
  68   2.0000     -10.316877      -280.7365
  69   2.0000     -10.314355      -280.6679
  70   2.0000     -10.313360      -280.6408
  71   2.0000     -10.313273      -280.6384
  72   2.0000     -10.313040      -280.6321
  73   2.0000     -10.312759      -280.6244
  74   2.0000     -10.312242      -280.6104
  75   2.0000     -10.311117      -280.5797
  76   2.0000     -10.311000      -280.5766
  77   2.0000     -10.310912      -280.5742
  78   2.0000     -10.309682      -280.5407
  79   2.0000     -10.309349      -280.5317
  80   2.0000     -10.309050      -280.5235
  81   2.0000     -10.307993      -280.4947
  82   2.0000     -10.306360      -280.4503
  83   2.0000     -10.305668      -280.4315
  84   2.0000     -10.305516      -280.4273
  85   2.0000     -10.301675      -280.3228
  86   2.0000     -10.299383      -280.2605
  87   2.0000     -10.299226      -280.2562
  88   2.0000     -10.297520      -280.2098
  89   2.0000      -8.796956      -239.3773
  90   2.0000      -8.794948      -239.3227
  91   2.0000      -8.151533      -221.8145
  92   2.0000      -8.095844      -220.2991
  93   2.0000      -8.090788      -220.1615
  94   2.0000      -8.090008      -220.1403
  95   2.0000      -8.087268      -220.0657
  96   2.0000      -8.076628      -219.7762
  97   2.0000      -8.074540      -219.7194
  98   2.0000      -6.633304      -180.5014
  99   2.0000      -6.631245      -180.4454
 100   2.0000      -6.618674      -180.1033
 101   2.0000      -6.618454      -180.0973
 102   2.0000      -6.616690      -180.0493
 103   2.0000      -6.616474      -180.0434
 104   2.0000      -6.122684      -166.6067
 105   2.0000      -6.114734      -166.3904
 106   2.0000      -6.114212      -166.3762
 107   2.0000      -6.064997      -165.0370
 108   2.0000      -6.060820      -164.9233
 109   2.0000      -6.060075      -164.9030
 110   2.0000      -6.059262      -164.8809
 111   2.0000      -6.058394      -164.8573
 112   2.0000      -6.056661      -164.8101
 113   2.0000      -6.055688      -164.7837
 114   2.0000      -6.054884      -164.7618
 115   2.0000      -6.053319      -164.7192
 116   2.0000      -6.052616      -164.7001
 117   2.0000      -6.051911      -164.6809
 118   2.0000      -6.049872      -164.6254
 119   2.0000      -6.046306      -164.5283
 120   2.0000      -6.044237      -164.4720
 121   2.0000      -6.042025      -164.4119
 122   2.0000      -6.039935      -164.3550
 123   2.0000      -6.037847      -164.2982
 124   2.0000      -6.035807      -164.2427
 125   2.0000      -2.749122       -74.8074
 126   2.0000      -2.747135       -74.7533
 127   2.0000      -2.745078       -74.6974
 128   2.0000      -2.744928       -74.6933
 129   2.0000      -2.743018       -74.6413
 130   2.0000      -2.742877       -74.6375
 131   2.0000      -2.733286       -74.3765
 132   2.0000      -2.733270       -74.3761
 133   2.0000      -2.731283       -74.3220
 134   2.0000      -2.731282       -74.3220
 135   2.0000      -1.164425       -31.6856
 136   2.0000      -1.146663       -31.2023
 137   2.0000      -1.139159       -30.9981
 138   2.0000      -1.136451       -30.9244
 139   2.0000      -1.054350       -28.6903
 140   2.0000      -1.051295       -28.6072
 141   2.0000      -1.028891       -27.9975
 142   2.0000      -1.028457       -27.9857
 143   2.0000      -1.027626       -27.9631
 144   2.0000      -1.025806       -27.9136
 145   2.0000      -1.021258       -27.7898
 146   2.0000      -1.018711       -27.7205
 147   2.0000      -1.017532       -27.6885
 148   2.0000      -1.013281       -27.5728
 149   2.0000      -1.010783       -27.5048
 150   2.0000      -1.006572       -27.3902
 151   2.0000      -1.003947       -27.3188
 152   2.0000      -0.999131       -27.1877
 153   2.0000      -0.998352       -27.1665
 154   2.0000      -0.995884       -27.0994
 155   2.0000      -0.993898       -27.0453
 156   2.0000      -0.974155       -26.5081
 157   2.0000      -0.967315       -26.3220
 158   2.0000      -0.949110       -25.8266
 159   2.0000      -0.948252       -25.8033
 160   2.0000      -0.946996       -25.7691
 161   2.0000      -0.939047       -25.5528
 162   2.0000      -0.922761       -25.1096
 163   2.0000      -0.920008       -25.0347
 164   2.0000      -0.914327       -24.8801
 165   2.0000      -0.912604       -24.8332
 166   2.0000      -0.899924       -24.4882
 167   2.0000      -0.896526       -24.3957
 168   2.0000      -0.891653       -24.2631
 169   2.0000      -0.889717       -24.2104
 170   2.0000      -0.878806       -23.9135
 171   2.0000      -0.878268       -23.8989
 172   2.0000      -0.868017       -23.6199
 173   2.0000      -0.864200       -23.5161
 174   2.0000      -0.862437       -23.4681
 175   2.0000      -0.861438       -23.4409
 176   2.0000      -0.837418       -22.7873
 177   2.0000      -0.834647       -22.7119
 178   2.0000      -0.832755       -22.6604
 179   2.0000      -0.810153       -22.0454
 180   2.0000      -0.801299       -21.8044
 181   2.0000      -0.785085       -21.3632
 182   2.0000      -0.784404       -21.3447
 183   2.0000      -0.779754       -21.2182
 184   2.0000      -0.774409       -21.0727
 185   2.0000      -0.767732       -20.8911
 186   2.0000      -0.764901       -20.8140
 187   2.0000      -0.753216       -20.4960
 188   2.0000      -0.742565       -20.2062
 189   2.0000      -0.725742       -19.7484
 190   2.0000      -0.719186       -19.5701
 191   2.0000      -0.710122       -19.3234
 192   2.0000      -0.706018       -19.2117
 193   2.0000      -0.701059       -19.0768
 194   2.0000      -0.698327       -19.0024
 195   2.0000      -0.696191       -18.9443
 196   2.0000      -0.692841       -18.8532
 197   2.0000      -0.690032       -18.7767
 198   2.0000      -0.685247       -18.6465
 199   2.0000      -0.676839       -18.4177
 200   2.0000      -0.670725       -18.2513
 201   2.0000      -0.664032       -18.0692
 202   2.0000      -0.661789       -18.0082
 203   2.0000      -0.654126       -17.7997
 204   2.0000      -0.648031       -17.6338
 205   2.0000      -0.644068       -17.5260
 206   2.0000      -0.636028       -17.3072
 207   2.0000      -0.631830       -17.1930
 208   2.0000      -0.628766       -17.1096
 209   2.0000      -0.626708       -17.0536
 210   2.0000      -0.623916       -16.9776
 211   2.0000      -0.622319       -16.9342
 212   2.0000      -0.621912       -16.9231
 213   2.0000      -0.609549       -16.5867
 214   2.0000      -0.605587       -16.4789
 215   2.0000      -0.600950       -16.3527
 216   2.0000      -0.596193       -16.2232
 217   2.0000      -0.590887       -16.0788
 218   2.0000      -0.589190       -16.0327
 219   2.0000      -0.581897       -15.8342
 220   2.0000      -0.574075       -15.6214
 221   2.0000      -0.570889       -15.5347
 222   2.0000      -0.562309       -15.3012
 223   2.0000      -0.556212       -15.1353
 224   2.0000      -0.554981       -15.1018
 225   2.0000      -0.553632       -15.0651
 226   2.0000      -0.548936       -14.9373
 227   2.0000      -0.548275       -14.9193
 228   2.0000      -0.547496       -14.8981
 229   2.0000      -0.544841       -14.8259
 230   2.0000      -0.540288       -14.7020
 231   2.0000      -0.539394       -14.6777
 232   2.0000      -0.532273       -14.4839
 233   2.0000      -0.532168       -14.4810
 234   2.0000      -0.528210       -14.3733
 235   2.0000      -0.527034       -14.3413
 236   2.0000      -0.523886       -14.2557
 237   2.0000      -0.519976       -14.1493
 238   2.0000      -0.515996       -14.0410
 239   2.0000      -0.515749       -14.0342
 240   2.0000      -0.513701       -13.9785
 241   2.0000      -0.511966       -13.9313
 242   2.0000      -0.510321       -13.8865
 243   2.0000      -0.507834       -13.8189
 244   2.0000      -0.506590       -13.7850
 245   2.0000      -0.505492       -13.7551
 246   2.0000      -0.503415       -13.6986
 247   2.0000      -0.502544       -13.6749
 248   2.0000      -0.501593       -13.6490
 249   2.0000      -0.499801       -13.6003
 250   2.0000      -0.499346       -13.5879
 251   2.0000      -0.495195       -13.4749
 252   2.0000      -0.489576       -13.3220
 253   2.0000      -0.486752       -13.2452
 254   2.0000      -0.484830       -13.1929
 255   2.0000      -0.482300       -13.1241
 256   2.0000      -0.478948       -13.0328
 257   2.0000      -0.474650       -12.9159
 258   2.0000      -0.466940       -12.7061
 259   2.0000      -0.465674       -12.6716
 260   2.0000      -0.463970       -12.6253
 261   2.0000      -0.463944       -12.6246
 262   2.0000      -0.462773       -12.5927
 263   2.0000      -0.461226       -12.5506
 264   2.0000      -0.460543       -12.5320
 265   2.0000      -0.459352       -12.4996
 266   2.0000      -0.455695       -12.4001
 267   2.0000      -0.454903       -12.3785
 268   2.0000      -0.454221       -12.3600
 269   2.0000      -0.453400       -12.3376
 270   2.0000      -0.452295       -12.3076
 271   2.0000      -0.450782       -12.2664
 272   2.0000      -0.448240       -12.1972
 273   2.0000      -0.447986       -12.1903
 274   2.0000      -0.446312       -12.1448
 275   2.0000      -0.445653       -12.1268
 276   2.0000      -0.444757       -12.1025
 277   2.0000      -0.443635       -12.0719
 278   2.0000      -0.443246       -12.0613
 279   2.0000      -0.442260       -12.0345
 280   2.0000      -0.441571       -12.0158
 281   2.0000      -0.438646       -11.9362
 282   2.0000      -0.434343       -11.8191
 283   2.0000      -0.432468       -11.7681
 284   2.0000      -0.431863       -11.7516
 285   2.0000      -0.431557       -11.7433
 286   2.0000      -0.430530       -11.7153
 287   2.0000      -0.429478       -11.6867
 288   2.0000      -0.425904       -11.5894
 289   2.0000      -0.421895       -11.4804
 290   2.0000      -0.416342       -11.3292
 291   2.0000      -0.414580       -11.2813
 292   2.0000      -0.413851       -11.2615
 293   2.0000      -0.411846       -11.2069
 294   2.0000      -0.410660       -11.1746
 295   2.0000      -0.402116       -10.9421
 296   2.0000      -0.399324       -10.8661
 297   2.0000      -0.396049       -10.7770
 298   2.0000      -0.393438       -10.7060
 299   2.0000      -0.391063       -10.6414
 300   2.0000      -0.388253       -10.5649
 301   2.0000      -0.382690       -10.4135
 302   2.0000      -0.379150       -10.3172
 303   2.0000      -0.377089       -10.2611
 304   2.0000      -0.368300       -10.0220
 305   2.0000      -0.360276        -9.8036
 306   2.0000      -0.354721        -9.6524
 307   2.0000      -0.354441        -9.6448
 308   2.0000      -0.347381        -9.4527
 309   2.0000      -0.346324        -9.4240
 310   2.0000      -0.337989        -9.1972
 311   2.0000      -0.330633        -8.9970
 312   2.0000      -0.327051        -8.8995
 313   2.0000      -0.324909        -8.8412
 314   2.0000      -0.321996        -8.7620
 315   2.0000      -0.318782        -8.6745
 316   2.0000      -0.317328        -8.6349
 317   2.0000      -0.299258        -8.1432
 318   2.0000      -0.297591        -8.0978
 319   2.0000      -0.282471        -7.6864
 320   2.0000      -0.261895        -7.1265
 321   0.0000      -0.125232        -3.4077
 322   0.0000      -0.113504        -3.0886
 323   0.0000      -0.098578        -2.6824
 324   0.0000      -0.091958        -2.5023
 325   0.0000      -0.089719        -2.4414

MULLIKEN ATOMIC CHARGES
-----------------------
   0 C :    0.323053
   1 C :   -0.348881
   2 C :   -0.187290
   3 N :    0.155456
   4 C :   -0.195473
   5 N :    0.156773
   6 C :    0.010446
   7 C :   -0.012104
   8 C :   -0.068338
   9 C :    0.116146
  10 C :   -0.091309
  11 C :   -0.017410
  12 S :    0.191272
  13 C :   -0.122572
  14 C :    0.037537
  15 Br:    0.027376
  16 C :    0.164975
  17 O :   -0.188742
  18 C :   -0.087994
  19 C :   -0.032336
  20 C :   -0.051937
  21 C :   -0.059754
  22 C :    0.049074
  23 C :   -0.077504
  24 S :    0.248513
  25 C :   -0.090199
  26 C :    0.017379
  27 C :    0.308996
  28 C :   -0.297416
  29 C :   -0.195860
  30 N :    0.185509
  31 C :   -0.187467
  32 N :    0.173109
  33 C :   -0.060647
  34 C :   -0.121400
  35 S :    0.255244
  36 C :    0.013905
  37 N :   -0.057840
  38 N :   -0.063108
  39 C :    0.012957
  40 C :    0.026927
  41 C :    0.033178
  42 N :   -0.256085
  43 S :    0.575200
  44 N :   -0.253027
  45 C :   -0.126082
  46 C :   -0.049865
  47 C :    0.015996
  48 C :   -0.089021
  49 S :    0.253618
  50 C :   -0.080724
  51 C :    0.001610
  52 C :    0.306198
  53 C :   -0.293091
  54 C :   -0.187870
  55 N :    0.181510
  56 C :   -0.186171
  57 N :    0.171975
  58 C :   -0.006188
  59 C :   -0.110599
  60 S :    0.221300
  61 C :    0.080952
  62 C :   -0.128130
  63 C :    0.262152
  64 C :   -0.334479
  65 C :   -0.169203
  66 N :    0.162091
  67 C :   -0.198390
  68 N :    0.166702
  69 C :   -0.000761
  70 C :    0.008879
  71 C :    0.130105
  72 O :   -0.142263
  73 C :   -0.072527
  74 C :    0.113598
  75 C :   -0.089015
  76 C :   -0.019242
  77 S :    0.191157
  78 C :   -0.125444
  79 C :    0.040217
  80 Br:    0.026611
  81 H :   -0.009022
  82 H :   -0.004960
  83 H :   -0.002332
  84 H :    0.018185
  85 H :    0.029236
  86 H :    0.020553
  87 H :    0.020338
  88 H :    0.026100
  89 H :    0.022709
  90 H :   -0.007841
  91 H :    0.004647
  92 H :   -0.001553
Sum of atomic charges:   -0.0000000

LOEWDIN ATOMIC CHARGES
----------------------
   0 C :    0.075918
   1 C :   -0.138877
   2 C :   -0.018143
   3 N :   -0.050528
   4 C :   -0.023818
   5 N :   -0.045389
   6 C :   -0.019812
   7 C :   -0.051904
   8 C :    0.023230
   9 C :   -0.032488
  10 C :   -0.143200
  11 C :   -0.008171
  12 S :    0.436727
  13 C :   -0.270622
  14 C :   -0.070323
  15 Br:    0.139857
  16 C :    0.086428
  17 O :   -0.173340
  18 C :   -0.108573
  19 C :    0.056304
  20 C :   -0.181949
  21 C :    0.011421
  22 C :   -0.073767
  23 C :   -0.169662
  24 S :    0.551826
  25 C :   -0.176961
  26 C :   -0.062604
  27 C :    0.076773
  28 C :   -0.100009
  29 C :   -0.020482
  30 N :   -0.024186
  31 C :   -0.016927
  32 N :   -0.030384
  33 C :   -0.012239
  34 C :   -0.173791
  35 S :    0.525955
  36 C :   -0.027613
  37 N :   -0.062307
  38 N :   -0.064587
  39 C :   -0.025600
  40 C :   -0.054278
  41 C :   -0.053763
  42 N :   -0.262486
  43 S :    0.698016
  44 N :   -0.262016
  45 C :   -0.176960
  46 C :   -0.008760
  47 C :   -0.065550
  48 C :   -0.172932
  49 S :    0.525567
  50 C :   -0.163123
  51 C :   -0.060956
  52 C :    0.081350
  53 C :   -0.097431
  54 C :   -0.017594
  55 N :   -0.027521
  56 C :   -0.012887
  57 N :   -0.032905
  58 C :    0.006727
  59 C :   -0.178768
  60 S :    0.504745
  61 C :    0.041344
  62 C :   -0.087431
  63 C :    0.065318
  64 C :   -0.135548
  65 C :   -0.019230
  66 N :   -0.044068
  67 C :   -0.015737
  68 N :   -0.046146
  69 C :   -0.017628
  70 C :   -0.053854
  71 C :    0.083623
  72 O :   -0.141761
  73 C :    0.023596
  74 C :   -0.032660
  75 C :   -0.142097
  76 C :   -0.009011
  77 S :    0.436788
  78 C :   -0.271197
  79 C :   -0.070291
  80 Br:    0.139162
  81 H :    0.041417
  82 H :    0.041735
  83 H :    0.039260
  84 H :    0.054038
  85 H :    0.048416
  86 H :    0.041667
  87 H :    0.042007
  88 H :    0.042636
  89 H :    0.046458
  90 H :    0.041939
  91 H :    0.043280
  92 H :    0.039323

  Mayer bond orders larger than 0.100000
B(  0-C ,  1-C ) :   1.6297 B(  0-C ,  6-C ) :   1.0008 B(  0-C , 18-C ) :   1.0717
B(  1-C ,  2-C ) :   1.1453 B(  1-C ,  4-C ) :   1.1428 B(  2-C ,  3-N ) :   2.9683
B(  4-C ,  5-N ) :   2.9650 B(  6-C ,  7-C ) :   1.2728 B(  6-C , 11-C ) :   1.4157
B(  7-C ,  8-C ) :   1.4183 B(  7-C , 16-C ) :   0.9650 B(  8-C ,  9-C ) :   1.2475
B(  8-C , 81-H ) :   1.0167 B(  9-C , 10-C ) :   1.3043 B(  9-C , 14-C ) :   1.1623
B( 10-C , 11-C ) :   1.3279 B( 10-C , 12-S ) :   1.0890 B( 11-C , 82-H ) :   0.9786
B( 12-S , 13-C ) :   1.0876 B( 13-C , 14-C ) :   1.6172 B( 13-C , 15-Br) :   1.0206
B( 14-C , 83-H ) :   1.0006 B( 16-C , 17-O ) :   2.1134 B( 16-C , 18-C ) :   0.9816
B( 18-C , 19-C ) :   1.5007 B( 19-C , 20-C ) :   1.2596 B( 19-C , 84-H ) :   0.9408
B( 20-C , 21-C ) :   1.3286 B( 20-C , 24-S ) :   1.0761 B( 21-C , 22-C ) :   1.3291
B( 21-C , 85-H ) :   1.0089 B( 22-C , 23-C ) :   1.3636 B( 22-C , 27-C ) :   0.9829
B( 23-C , 24-S ) :   1.1263 B( 23-C , 25-C ) :   1.2010 B( 25-C , 26-C ) :   1.4216
B( 25-C , 35-S ) :   1.1231 B( 26-C , 27-C ) :   0.9999 B( 26-C , 33-C ) :   1.2659
B( 27-C , 28-C ) :   1.7143 B( 28-C , 29-C ) :   1.1340 B( 28-C , 31-C ) :   1.1372
B( 29-C , 30-N ) :   2.9951 B( 31-C , 32-N ) :   2.9874 B( 33-C , 34-C ) :   1.4808
B( 33-C , 86-H ) :   0.9830 B( 34-C , 35-S ) :   1.0932 B( 34-C , 36-C ) :   1.1630
B( 36-C , 37-N ) :   1.7136 B( 36-C , 39-C ) :   0.1195 B( 36-C , 41-C ) :   1.1243
B( 37-N , 38-N ) :   1.2340 B( 38-N , 39-C ) :   1.7112 B( 39-C , 40-C ) :   1.1233
B( 39-C , 45-C ) :   1.1645 B( 40-C , 41-C ) :   1.1903 B( 40-C , 44-N ) :   1.5491
B( 41-C , 42-N ) :   1.5455 B( 42-N , 43-S ) :   1.2801 B( 42-N , 44-N ) :   0.1412
B( 43-S , 44-N ) :   1.2803 B( 45-C , 46-C ) :   1.4848 B( 45-C , 49-S ) :   1.0902
B( 46-C , 47-C ) :   1.2701 B( 46-C , 87-H ) :   0.9810 B( 47-C , 48-C ) :   1.4269
B( 47-C , 52-C ) :   0.9975 B( 48-C , 49-S ) :   1.1261 B( 48-C , 50-C ) :   1.1944
B( 50-C , 51-C ) :   1.4173 B( 50-C , 60-S ) :   1.1527 B( 51-C , 52-C ) :   0.9950
B( 51-C , 58-C ) :   1.3572 B( 52-C , 53-C ) :   1.7174 B( 53-C , 54-C ) :   1.1368
B( 53-C , 56-C ) :   1.1358 B( 54-C , 55-N ) :   2.9918 B( 56-C , 57-N ) :   2.9817
B( 58-C , 59-C ) :   1.4002 B( 58-C , 88-H ) :   0.9794 B( 59-C , 60-S ) :   1.0960
B( 59-C , 61-C ) :   1.1244 B( 61-C , 62-C ) :   1.6838 B( 61-C , 89-H ) :   0.9292
B( 62-C , 63-C ) :   1.0313 B( 62-C , 71-C ) :   0.9402 B( 63-C , 64-C ) :   1.6538
B( 63-C , 69-C ) :   1.0126 B( 64-C , 65-C ) :   1.1245 B( 64-C , 67-C ) :   1.1733
B( 65-C , 66-N ) :   2.9946 B( 67-C , 68-N ) :   2.9960 B( 69-C , 70-C ) :   1.2733
B( 69-C , 76-C ) :   1.4145 B( 70-C , 71-C ) :   0.9225 B( 70-C , 73-C ) :   1.4229
B( 71-C , 72-O ) :   2.2664 B( 73-C , 74-C ) :   1.2529 B( 73-C , 90-H ) :   1.0166
B( 74-C , 75-C ) :   1.3040 B( 74-C , 79-C ) :   1.1644 B( 75-C , 76-C ) :   1.3282
B( 75-C , 77-S ) :   1.0872 B( 76-C , 91-H ) :   0.9838 B( 77-S , 78-C ) :   1.0878
B( 78-C , 79-C ) :   1.6172 B( 78-C , 80-Br) :   1.0210 B( 79-C , 92-H ) :   1.0003

-----------------------------------------------------------------------------
         ABSORPTION SPECTRUM VIA TRANSITION ELECTRIC DIPOLE MOMENTS
-----------------------------------------------------------------------------
State   Energy  Wavelength   fosc         T2         TX        TY        TZ
        (cm-1)    (nm)                  (au**2)     (au)      (au)      (au)
-----------------------------------------------------------------------------
   0   13817.4    723.7   1.113953547  26.54098  -4.38983   2.07573  -1.72095
   1   15276.8    654.6   0.158126097   3.40759   1.58912   0.28342   0.89553
   2   18186.7    549.9   0.914586818  16.55565   3.45245  -1.68488   1.34067
   3   20732.1    482.3   0.003085656   0.04900  -0.17029   0.11102  -0.08759
   4   21320.5    469.0   0.185387225   2.86259   0.40293   1.63729   0.13973
   5   22139.3    451.7   0.091482728   1.36035   0.83075  -0.03825   0.81776
   6   23054.6    433.8   0.505890490   7.22394  -2.11819  -0.36560  -1.61355
   7   24784.1    403.5   0.016787264   0.22299   0.02568   0.08772   0.46329
   8   25405.1    393.6   0.076553806   0.99202   0.97116  -0.21992   0.02257
   9   25998.9    384.6   0.052227969   0.66134  -0.11738   0.59373   0.54318
  10   26886.2    371.9   0.075136833   0.92002  -0.00467   0.70210   0.65350
  11   27776.9    360.0   0.127469986   1.51077  -0.67149  -0.47071  -0.91559
  12   28332.4    353.0   0.098500950   1.14454   0.91602   0.10414   0.54277
  13   28564.5    350.1   0.056626569   0.65263  -0.18509  -0.53027  -0.58068
  14   28847.6    346.6   0.103221783   1.17798  -0.03735   0.96822   0.48900
  15   28942.1    345.5   0.072510781   0.82480  -0.37618   0.81844   0.11598
  16   29188.0    342.6   0.038758599   0.43716   0.43993  -0.44228   0.21912
  17   29255.9    341.8   0.184690282   2.07829  -0.38003  -0.84413  -1.10513
  18   29304.2    341.2   0.015893350   0.17855  -0.22368  -0.22467  -0.27936
  19   29495.0    339.0   0.050589242   0.56466   0.58860  -0.45867  -0.08846
  20   29737.5    336.3   0.193252743   2.13942   1.29989  -0.07257   0.66666
  21   30046.0    332.8   0.400174830   4.38469   1.88021  -0.92157  -0.01410
  22   30812.5    324.5   0.032128282   0.34327   0.16219   0.55315   0.10481
  23   30869.7    323.9   0.001799356   0.01919   0.01838   0.12201   0.06296
  24   31286.5    319.6   0.061552631   0.64769   0.67110  -0.02420   0.44354
  25   31444.7    318.0   0.117459913   1.22975   0.31692  -1.04587  -0.18832
  26   31820.5    314.3   0.583616665   6.03804  -0.31411   1.83017   1.60930
  27   31949.3    313.0   0.036566713   0.37679   0.18758   0.11564   0.57292
  28   32125.1    311.3   0.501051918   5.13468  -2.06928   0.82885  -0.40713
  29   32542.7    307.3   0.098934816   1.00086   0.09110   0.88131   0.46459
  30   32692.2    305.9   0.342369030   3.44768   0.89901   1.00641   1.27537
  31   32843.6    304.5   0.274684778   2.75334  -1.42061   0.85138  -0.10181
  32   32979.3    303.2   0.117352635   1.17146  -0.68391  -0.26316  -0.79654
  33   33336.7    300.0   0.002418340   0.02388   0.13452  -0.07577   0.00668
  34   33427.4    299.2   0.094557212   0.93125  -0.42814   0.80856   0.30689
  35   33612.8    297.5   0.068541473   0.67131   0.09722   0.54800   0.60129
  36   33729.7    296.5   0.044638909   0.43569  -0.60756   0.23433   0.10793
  37   34571.1    289.3   0.260922342   2.48470  -1.46127   0.57744   0.12632
  38   34815.1    287.2   0.141568689   1.33868   0.17352   0.84445   0.77167
  39   34926.1    286.3   0.123301965   1.16224  -0.77654   0.71401  -0.22230
  40   35084.5    285.0   0.363087819   3.40700  -0.04800   1.45256   1.13787
  41   35523.8    281.5   0.005734275   0.05314  -0.10180   0.02473   0.20535
  42   35576.2    281.1   0.042948690   0.39744   0.08404  -0.48784  -0.39036
  43   36083.5    277.1   0.199166531   1.81712   1.15594  -0.69146   0.05290
  44   36311.5    275.4   0.014181910   0.12858   0.23682   0.15300   0.22155
  45   36472.1    274.2   0.101984447   0.92055  -0.42879  -0.50761  -0.69212
  46   36660.4    272.8   0.004073187   0.03658   0.17626  -0.07205   0.01783
  47   36823.2    271.6   0.030669226   0.27419  -0.01393   0.29528   0.43221
  48   37076.3    269.7   0.004742330   0.04211  -0.16608   0.03820  -0.11431
  49   37302.6    268.1   0.024868927   0.21948   0.41682  -0.20138   0.07200
  50   37368.4    267.6   0.058868611   0.51863  -0.48592  -0.19783  -0.49333
  51   37637.7    265.7   0.013499224   0.11808   0.12998  -0.23946  -0.20939
  52   37677.9    265.4   0.127518389   1.11420  -1.01234   0.24734  -0.16791
  53   37843.2    264.2   0.039883444   0.34696   0.44736  -0.30411  -0.23311
  54   37911.9    263.8   0.002807552   0.02438  -0.11279  -0.01656   0.10669
  55   37952.8    263.5   0.018909102   0.16402  -0.02309  -0.39698  -0.07680
  56   38187.2    261.9   0.003001577   0.02588   0.06751  -0.04192  -0.13987
  57   38385.8    260.5   0.007960465   0.06827  -0.10606   0.22290   0.08568
  58   38520.1    259.6   0.042075546   0.35960   0.36972   0.29539   0.36830
  59   38573.8    259.2   0.027019197   0.23060   0.32177  -0.34696   0.08176
  60   38858.7    257.3   0.004185756   0.03546  -0.13905   0.01858  -0.12563
  61   38953.4    256.7   0.030160385   0.25490   0.38741   0.00868   0.32363
  62   39454.1    253.5   0.036046808   0.30078   0.15682   0.33960   0.40107
  63   39488.7    253.2   0.026839840   0.22376  -0.14751  -0.22669  -0.38809
  64   39784.2    251.4   0.114107135   0.94423   0.89748  -0.34889  -0.13050
  65   39933.7    250.4   0.182109024   1.50130   0.78947  -0.03550   0.93637

FINAL SINGLE POINT ENERGY    -10955.237620323187

DIPOLE MOMENT
-------------
                                X             Y             Z
Electronic contribution:    -28.74330      73.24148      36.56428
Nuclear contribution   :     26.46610     -70.69829     -33.70778
                        -----------------------------------------
Total Dipole Moment    :     -2.27720       2.54319       2.85650
                        -----------------------------------------
Magnitude (a.u.)       :      4.45119
Magnitude (Debye)      :     11.31402

Rotational constants in cm-1:     0.001072     0.000108     0.000099
Rotational constants in MHz :    32.147099     3.247367     2.971656

                             ****ORCA TERMINATED NORMALLY****
TOTAL RUN TIME: 0 days 0 hours 10 minutes 38 seconds 845 msec
