                         Program Version 4.2.0 -  RELEASE  -
|  1> # ORCA input file
|  2> # SCF done       -167.386227642514          0.000707065578
|  3> ! CAM-B3LYP def2-SVP def2/J RIJCOSX Grid4 TightSCF
|  4> %maxcore 5000
|  5> %tddft
|  6>     Mode sTDDFT
|  7>     Ethresh 5.0
|  8>     maxcore 5000
|  9> end
| 10>
| 11> %pal
| 12>   nprocs 6
| 13>   end
| 14> * xyz 0 1
| 15>    C       -4.57594         7.24708        -4.73351
| 16>    C       -5.65969         7.41422        -3.95494
| 17>    C       -5.34933         7.05203        -2.58570
| 18>    C       -4.04966         6.65156        -2.49134
| 19>    C       -3.46490         6.74641        -3.88983
| 20>    O       -2.34695         6.46211        -4.24342
| 21>    C       -3.36400         6.23082        -1.33143
| 22>    C       -2.04173         5.89805        -1.29244
| 23>    C       -1.40941         5.50367        -0.09109
| 24>    N       -2.03616         5.56418         1.08514
| 25>    C       -1.11925         5.25570         2.01279
| 26>    C        0.19270         4.99626         1.40046
| 27>    C        1.19440         4.66817         2.42642
| 28>    O        2.37091         4.41361         2.27830
| 29>    C        0.40491         4.73169         3.67054
| 30>    C       -0.99473         5.09524         3.37628
| 31>    N       -1.72975         5.13287         4.51208
| 32>    C       -0.89186         4.81212         5.47200
| 33>    C        0.45258         4.54257         5.01658
| 34>    C        0.01317         5.10271         0.04741
| 35>    C        0.98926         4.87745        -0.97089
| 36>    C        0.73156         4.43004        -2.21705
| 37>    C        1.71602         4.16643        -3.23618
| 38>    C        1.35227         3.41725        -4.33665
| 39>    C        2.29624         3.12177        -5.33574
| 40>    C        2.19098         2.36394        -6.49854
| 41>    C        0.97977         1.63573        -6.96977
| 42>    C        0.57991         2.02343        -8.40651
| 43>    N       -0.86055         1.93109        -8.54458
| 44>    C        1.17496         0.11365        -6.82721
| 45>    N        1.21155        -0.23155        -5.41939
| 46>    C        3.48935         2.38412        -7.12869
| 47>    C        3.95167         1.81153        -8.25688
| 48>    C        5.38103         1.94419        -8.67034
| 49>    C        6.19721         2.85955        -7.82101
| 50>    C        5.71830         3.43741        -6.70238
| 51>    C        4.38243         3.21160        -6.29906
| 52>    C        3.64894         3.64252        -5.21011
| 53>    C        3.98854         4.43100        -4.08719
| 54>    C        3.05295         4.67392        -3.13410
| 55>    C        5.92290         0.53576        -8.66227
| 56>    C        6.59181         0.00485        -7.62998
| 57>    C        7.08386        -1.33803        -7.65776
| 58>    N        6.93188        -2.11027        -8.71974
| 59>    C        7.53089        -3.28160        -8.41370
| 60>    C        8.10362        -3.25427        -7.06365
| 61>    C        8.75271        -4.53849        -6.75677
| 62>    O        9.32494        -4.87665        -5.74376
| 63>    C        8.53269        -5.31561        -7.99308
| 64>    C        7.78142        -4.51106        -8.97552
| 65>    N        7.57335        -5.21631       -10.11489
| 66>    C        8.13838        -6.38075        -9.90231
| 67>    C        8.75567        -6.51044        -8.59825
| 68>    C        7.82003        -2.00602        -6.55487
| 69>    C        8.11456        -1.41804        -5.30016
| 70>    C        8.81553        -2.03861        -4.31151
| 71>    C        9.10395        -1.45542        -3.05555
| 72>    C        8.77083        -0.24504        -2.51662
| 73>    C        9.30197        -0.11772        -1.18627
| 74>    C        9.98834        -1.23846        -0.83717
| 75>    C        9.91559        -2.17961        -2.00914
| 76>    O       10.40510        -3.27348        -2.09006
| 77>    C       10.68871        -1.59727         0.35884
| 78>    C       10.81340        -0.82846         1.44336
| 79>    H       -4.47868         7.42143        -5.78777
| 80>    H       -6.62798         7.76409        -4.26693
| 81>    H       -6.05525         7.10759        -1.77667
| 82>    H       -3.92860         6.17179        -0.40910
| 83>    H       -1.44303         5.96105        -2.18778
| 84>    H       -1.22815         4.77242         6.49370
| 85>    H        1.27850         4.26114         5.63963
| 86>    H        2.01053         5.00481        -0.63631
| 87>    H       -0.28495         4.17876        -2.48954
| 88>    H        0.34481         3.03842        -4.42259
| 89>    H        0.14025         1.91127        -6.32652
| 90>    H        1.12793         1.39519        -9.12909
| 91>    H        0.85861         3.06564        -8.58690
| 92>    H       -1.17374         0.97526        -8.41628
| 93>    H       -1.15740         2.23986        -9.46277
| 94>    H        2.08146        -0.19144        -7.37870
| 95>    H        0.31891        -0.40561        -7.26764
| 96>    H        1.99770         0.22165        -4.96533
| 97>    H        1.30675        -1.23259        -5.29391
| 98>    H        3.33020         1.19594        -8.89008
| 99>    H        5.41129         2.29851        -9.71039
|100>    H        7.21705         3.01186        -8.13994
|101>    H        6.34264         4.08642        -6.10533
|102>    H        4.98774         4.83169        -3.99855
|103>    H        3.30750         5.28286        -2.28112
|104>    H        5.72753        -0.08112        -9.52742
|105>    H        6.78642         0.59590        -6.74637
|106>    H        8.11895        -7.14051       -10.66442
|107>    H        9.26711        -7.37901        -8.23315
|108>    H        7.75230        -0.41248        -5.13289
|109>    H        9.19244        -3.04249        -4.46669
|110>    H        8.18988         0.52848        -2.98738
|111>    H        9.15485         0.75726        -0.57861
|112>    H       11.13723        -2.58266         0.33436
|113>    H       10.37861         0.15503         1.49804
|114>    H       11.35448        -1.16431         2.31032
|115> *
|116>
|117>                          ****END OF INPUT****

CARTESIAN COORDINATES (ANGSTROEM)
---------------------------------
  C     -4.575940    7.247080   -4.733510
  C     -5.659690    7.414220   -3.954940
  C     -5.349330    7.052030   -2.585700
  C     -4.049660    6.651560   -2.491340
  C     -3.464900    6.746410   -3.889830
  O     -2.346950    6.462110   -4.243420
  C     -3.364000    6.230820   -1.331430
  C     -2.041730    5.898050   -1.292440
  C     -1.409410    5.503670   -0.091090
  N     -2.036160    5.564180    1.085140
  C     -1.119250    5.255700    2.012790
  C      0.192700    4.996260    1.400460
  C      1.194400    4.668170    2.426420
  O      2.370910    4.413610    2.278300
  C      0.404910    4.731690    3.670540
  C     -0.994730    5.095240    3.376280
  N     -1.729750    5.132870    4.512080
  C     -0.891860    4.812120    5.472000
  C      0.452580    4.542570    5.016580
  C      0.013170    5.102710    0.047410
  C      0.989260    4.877450   -0.970890
  C      0.731560    4.430040   -2.217050
  C      1.716020    4.166430   -3.236180
  C      1.352270    3.417250   -4.336650
  C      2.296240    3.121770   -5.335740
  C      2.190980    2.363940   -6.498540
  C      0.979770    1.635730   -6.969770
  C      0.579910    2.023430   -8.406510
  N     -0.860550    1.931090   -8.544580
  C      1.174960    0.113650   -6.827210
  N      1.211550   -0.231550   -5.419390
  C      3.489350    2.384120   -7.128690
  C      3.951670    1.811530   -8.256880
  C      5.381030    1.944190   -8.670340
  C      6.197210    2.859550   -7.821010
  C      5.718300    3.437410   -6.702380
  C      4.382430    3.211600   -6.299060
  C      3.648940    3.642520   -5.210110
  C      3.988540    4.431000   -4.087190
  C      3.052950    4.673920   -3.134100
  C      5.922900    0.535760   -8.662270
  C      6.591810    0.004850   -7.629980
  C      7.083860   -1.338030   -7.657760
  N      6.931880   -2.110270   -8.719740
  C      7.530890   -3.281600   -8.413700
  C      8.103620   -3.254270   -7.063650
  C      8.752710   -4.538490   -6.756770
  O      9.324940   -4.876650   -5.743760
  C      8.532690   -5.315610   -7.993080
  C      7.781420   -4.511060   -8.975520
  N      7.573350   -5.216310  -10.114890
  C      8.138380   -6.380750   -9.902310
  C      8.755670   -6.510440   -8.598250
  C      7.820030   -2.006020   -6.554870
  C      8.114560   -1.418040   -5.300160
  C      8.815530   -2.038610   -4.311510
  C      9.103950   -1.455420   -3.055550
  C      8.770830   -0.245040   -2.516620
  C      9.301970   -0.117720   -1.186270
  C      9.988340   -1.238460   -0.837170
  C      9.915590   -2.179610   -2.009140
  O     10.405100   -3.273480   -2.090060
  C     10.688710   -1.597270    0.358840
  C     10.813400   -0.828460    1.443360
  H     -4.478680    7.421430   -5.787770
  H     -6.627980    7.764090   -4.266930
  H     -6.055250    7.107590   -1.776670
  H     -3.928600    6.171790   -0.409100
  H     -1.443030    5.961050   -2.187780
  H     -1.228150    4.772420    6.493700
  H      1.278500    4.261140    5.639630
  H      2.010530    5.004810   -0.636310
  H     -0.284950    4.178760   -2.489540
  H      0.344810    3.038420   -4.422590
  H      0.140250    1.911270   -6.326520
  H      1.127930    1.395190   -9.129090
  H      0.858610    3.065640   -8.586900
  H     -1.173740    0.975260   -8.416280
  H     -1.157400    2.239860   -9.462770
  H      2.081460   -0.191440   -7.378700
  H      0.318910   -0.405610   -7.267640
  H      1.997700    0.221650   -4.965330
  H      1.306750   -1.232590   -5.293910
  H      3.330200    1.195940   -8.890080
  H      5.411290    2.298510   -9.710390
  H      7.217050    3.011860   -8.139940
  H      6.342640    4.086420   -6.105330
  H      4.987740    4.831690   -3.998550
  H      3.307500    5.282860   -2.281120
  H      5.727530   -0.081120   -9.527420
  H      6.786420    0.595900   -6.746370
  H      8.118950   -7.140510  -10.664420
  H      9.267110   -7.379010   -8.233150
  H      7.752300   -0.412480   -5.132890
  H      9.192440   -3.042490   -4.466690
  H      8.189880    0.528480   -2.987380
  H      9.154850    0.757260   -0.578610
  H     11.137230   -2.582660    0.334360
  H     10.378610    0.155030    1.498040
  H     11.354480   -1.164310    2.310320

 Total Charge           Charge          ....    0
 Multiplicity           Mult            ....    1
 Number of Electrons    NEL             ....  434
 Basis Dimension        Dim             .... 1076

ORBITAL ENERGIES
----------------

  NO   OCC          E(Eh)            E(eV)
   0   2.0000     -19.241644      -523.5918
   1   2.0000     -19.229284      -523.2554
   2   2.0000     -19.201680      -522.5043
   3   2.0000     -19.194419      -522.3067
   4   2.0000     -14.402787      -391.9197
   5   2.0000     -14.396789      -391.7565
   6   2.0000     -14.395954      -391.7338
   7   2.0000     -14.390637      -391.5891
   8   2.0000     -14.377496      -391.2315
   9   2.0000     -14.372828      -391.1045
  10   2.0000     -10.378269      -282.4071
  11   2.0000     -10.361416      -281.9485
  12   2.0000     -10.360434      -281.9217
  13   2.0000     -10.355526      -281.7882
  14   2.0000     -10.337577      -281.2998
  15   2.0000     -10.331422      -281.1323
  16   2.0000     -10.325084      -280.9598
  17   2.0000     -10.319158      -280.7986
  18   2.0000     -10.315206      -280.6910
  19   2.0000     -10.312505      -280.6175
  20   2.0000     -10.310328      -280.5583
  21   2.0000     -10.309308      -280.5305
  22   2.0000     -10.309035      -280.5231
  23   2.0000     -10.308851      -280.5181
  24   2.0000     -10.307765      -280.4885
  25   2.0000     -10.307043      -280.4689
  26   2.0000     -10.304081      -280.3883
  27   2.0000     -10.300683      -280.2958
  28   2.0000     -10.298292      -280.2308
  29   2.0000     -10.296330      -280.1774
  30   2.0000     -10.295261      -280.1483
  31   2.0000     -10.291741      -280.0525
  32   2.0000     -10.289869      -280.0016
  33   2.0000     -10.289607      -279.9944
  34   2.0000     -10.287003      -279.9236
  35   2.0000     -10.282869      -279.8111
  36   2.0000     -10.282496      -279.8009
  37   2.0000     -10.281339      -279.7695
  38   2.0000     -10.280473      -279.7459
  39   2.0000     -10.280122      -279.7363
  40   2.0000     -10.279663      -279.7239
  41   2.0000     -10.279352      -279.7154
  42   2.0000     -10.279131      -279.7094
  43   2.0000     -10.278619      -279.6954
  44   2.0000     -10.278578      -279.6943
  45   2.0000     -10.278364      -279.6885
  46   2.0000     -10.277698      -279.6704
  47   2.0000     -10.276720      -279.6438
  48   2.0000     -10.275052      -279.5984
  49   2.0000     -10.274420      -279.5812
  50   2.0000     -10.274281      -279.5774
  51   2.0000     -10.273910      -279.5673
  52   2.0000     -10.273203      -279.5481
  53   2.0000     -10.273026      -279.5433
  54   2.0000     -10.272985      -279.5421
  55   2.0000     -10.268942      -279.4321
  56   2.0000     -10.267996      -279.4064
  57   2.0000     -10.267378      -279.3896
  58   2.0000     -10.266605      -279.3685
  59   2.0000     -10.264674      -279.3160
  60   2.0000     -10.264526      -279.3120
  61   2.0000     -10.264190      -279.3028
  62   2.0000     -10.263074      -279.2724
  63   2.0000     -10.260235      -279.1952
  64   2.0000      -1.150452       -31.3054
  65   2.0000      -1.139399       -31.0046
  66   2.0000      -1.116376       -30.3781
  67   2.0000      -1.108257       -30.1572
  68   2.0000      -1.070293       -29.1241
  69   2.0000      -1.063765       -28.9465
  70   2.0000      -1.050327       -28.5809
  71   2.0000      -1.044143       -28.4126
  72   2.0000      -0.986713       -26.8498
  73   2.0000      -0.981195       -26.6997
  74   2.0000      -0.967448       -26.3256
  75   2.0000      -0.965453       -26.2713
  76   2.0000      -0.952392       -25.9159
  77   2.0000      -0.949108       -25.8265
  78   2.0000      -0.930422       -25.3181
  79   2.0000      -0.925176       -25.1753
  80   2.0000      -0.920579       -25.0502
  81   2.0000      -0.910617       -24.7792
  82   2.0000      -0.900668       -24.5084
  83   2.0000      -0.891638       -24.2627
  84   2.0000      -0.882665       -24.0185
  85   2.0000      -0.876875       -23.8610
  86   2.0000      -0.867692       -23.6111
  87   2.0000      -0.849274       -23.1099
  88   2.0000      -0.847025       -23.0487
  89   2.0000      -0.843173       -22.9439
  90   2.0000      -0.840047       -22.8588
  91   2.0000      -0.833130       -22.6706
  92   2.0000      -0.827521       -22.5180
  93   2.0000      -0.825042       -22.4505
  94   2.0000      -0.801294       -21.8043
  95   2.0000      -0.786523       -21.4024
  96   2.0000      -0.779914       -21.2225
  97   2.0000      -0.768336       -20.9075
  98   2.0000      -0.762432       -20.7468
  99   2.0000      -0.757156       -20.6033
 100   2.0000      -0.751608       -20.4523
 101   2.0000      -0.744833       -20.2679
 102   2.0000      -0.739932       -20.1346
 103   2.0000      -0.726522       -19.7697
 104   2.0000      -0.721318       -19.6281
 105   2.0000      -0.713844       -19.4247
 106   2.0000      -0.705036       -19.1850
 107   2.0000      -0.698760       -19.0142
 108   2.0000      -0.689717       -18.7681
 109   2.0000      -0.686956       -18.6930
 110   2.0000      -0.684385       -18.6231
 111   2.0000      -0.666778       -18.1439
 112   2.0000      -0.665368       -18.1056
 113   2.0000      -0.653500       -17.7827
 114   2.0000      -0.649536       -17.6748
 115   2.0000      -0.644599       -17.5404
 116   2.0000      -0.642922       -17.4948
 117   2.0000      -0.635256       -17.2862
 118   2.0000      -0.628610       -17.1053
 119   2.0000      -0.618993       -16.8436
 120   2.0000      -0.617852       -16.8126
 121   2.0000      -0.610146       -16.6029
 122   2.0000      -0.602984       -16.4080
 123   2.0000      -0.600761       -16.3475
 124   2.0000      -0.597414       -16.2565
 125   2.0000      -0.596252       -16.2248
 126   2.0000      -0.590673       -16.0730
 127   2.0000      -0.585502       -15.9323
 128   2.0000      -0.580171       -15.7873
 129   2.0000      -0.579075       -15.7574
 130   2.0000      -0.575414       -15.6578
 131   2.0000      -0.571788       -15.5591
 132   2.0000      -0.564252       -15.3541
 133   2.0000      -0.561068       -15.2674
 134   2.0000      -0.558625       -15.2009
 135   2.0000      -0.553975       -15.0744
 136   2.0000      -0.548799       -14.9336
 137   2.0000      -0.545967       -14.8565
 138   2.0000      -0.544257       -14.8100
 139   2.0000      -0.537276       -14.6200
 140   2.0000      -0.532361       -14.4863
 141   2.0000      -0.531470       -14.4620
 142   2.0000      -0.527930       -14.3657
 143   2.0000      -0.524912       -14.2836
 144   2.0000      -0.523982       -14.2583
 145   2.0000      -0.523076       -14.2336
 146   2.0000      -0.518888       -14.1197
 147   2.0000      -0.515068       -14.0157
 148   2.0000      -0.514318       -13.9953
 149   2.0000      -0.513480       -13.9725
 150   2.0000      -0.513127       -13.9629
 151   2.0000      -0.512490       -13.9456
 152   2.0000      -0.510914       -13.9027
 153   2.0000      -0.509973       -13.8771
 154   2.0000      -0.506267       -13.7762
 155   2.0000      -0.504950       -13.7404
 156   2.0000      -0.500795       -13.6273
 157   2.0000      -0.499235       -13.5849
 158   2.0000      -0.497007       -13.5242
 159   2.0000      -0.493255       -13.4221
 160   2.0000      -0.492586       -13.4039
 161   2.0000      -0.488357       -13.2889
 162   2.0000      -0.483940       -13.1687
 163   2.0000      -0.481456       -13.1011
 164   2.0000      -0.480192       -13.0667
 165   2.0000      -0.478449       -13.0193
 166   2.0000      -0.475827       -12.9479
 167   2.0000      -0.474908       -12.9229
 168   2.0000      -0.473376       -12.8812
 169   2.0000      -0.470484       -12.8025
 170   2.0000      -0.466247       -12.6872
 171   2.0000      -0.464755       -12.6466
 172   2.0000      -0.464113       -12.6292
 173   2.0000      -0.460611       -12.5339
 174   2.0000      -0.457117       -12.4388
 175   2.0000      -0.455515       -12.3952
 176   2.0000      -0.449618       -12.2347
 177   2.0000      -0.446433       -12.1481
 178   2.0000      -0.439853       -11.9690
 179   2.0000      -0.437373       -11.9015
 180   2.0000      -0.432674       -11.7737
 181   2.0000      -0.430702       -11.7200
 182   2.0000      -0.430207       -11.7065
 183   2.0000      -0.429101       -11.6764
 184   2.0000      -0.424648       -11.5553
 185   2.0000      -0.421729       -11.4758
 186   2.0000      -0.413101       -11.2411
 187   2.0000      -0.407920       -11.1001
 188   2.0000      -0.407571       -11.0906
 189   2.0000      -0.395242       -10.7551
 190   2.0000      -0.393517       -10.7081
 191   2.0000      -0.390999       -10.6396
 192   2.0000      -0.382371       -10.4049
 193   2.0000      -0.378687       -10.3046
 194   2.0000      -0.367924       -10.0117
 195   2.0000      -0.366804        -9.9813
 196   2.0000      -0.353813        -9.6277
 197   2.0000      -0.349513        -9.5107
 198   2.0000      -0.345591        -9.4040
 199   2.0000      -0.343736        -9.3535
 200   2.0000      -0.339242        -9.2313
 201   2.0000      -0.335022        -9.1164
 202   2.0000      -0.334937        -9.1141
 203   2.0000      -0.332012        -9.0345
 204   2.0000      -0.326332        -8.8799
 205   2.0000      -0.323767        -8.8101
 206   2.0000      -0.320316        -8.7162
 207   2.0000      -0.317384        -8.6365
 208   2.0000      -0.314328        -8.5533
 209   2.0000      -0.313173        -8.5219
 210   2.0000      -0.303325        -8.2539
 211   2.0000      -0.299021        -8.1368
 212   2.0000      -0.295526        -8.0417
 213   2.0000      -0.278621        -7.5817
 214   2.0000      -0.267661        -7.2834
 215   2.0000      -0.249493        -6.7891
 216   2.0000      -0.222302        -6.0491
 217   0.0000      -0.113595        -3.0911
 218   0.0000      -0.109377        -2.9763
 219   0.0000      -0.082567        -2.2468
 220   0.0000      -0.077518        -2.1094
 221   0.0000      -0.067667        -1.8413

MULLIKEN ATOMIC CHARGES
-----------------------
   0 C :   -0.015191
   1 C :    0.060711
   2 C :   -0.001942
   3 C :    0.007573
   4 C :    0.144776
   5 O :   -0.115637
   6 C :    0.031561
   7 C :   -0.065931
   8 C :    0.043032
   9 N :   -0.054413
  10 C :    0.069012
  11 C :   -0.131368
  12 C :    0.199866
  13 O :   -0.139620
  14 C :   -0.039578
  15 C :   -0.035345
  16 N :   -0.061191
  17 C :    0.085282
  18 C :   -0.097880
  19 C :    0.036286
  20 C :   -0.029782
  21 C :   -0.001373
  22 C :    0.098302
  23 C :   -0.085011
  24 C :    0.048953
  25 C :   -0.073782
  26 C :   -0.028208
  27 C :    0.132209
  28 N :   -0.211240
  29 C :    0.160071
  30 N :   -0.227296
  31 C :    0.106610
  32 C :   -0.123015
  33 C :    0.166586
  34 C :   -0.058148
  35 C :    0.011616
  36 C :    0.002415
  37 C :    0.042523
  38 C :   -0.004823
  39 C :    0.000551
  40 C :   -0.042135
  41 C :   -0.006500
  42 C :    0.033548
  43 N :   -0.044037
  44 C :    0.062978
  45 C :   -0.165019
  46 C :    0.212225
  47 O :   -0.133021
  48 C :   -0.014347
  49 C :   -0.034430
  50 N :   -0.055831
  51 C :    0.082900
  52 C :   -0.099453
  53 C :    0.077414
  54 C :   -0.047486
  55 C :    0.039285
  56 C :    0.001769
  57 C :   -0.020393
  58 C :   -0.017508
  59 C :    0.000260
  60 C :    0.122398
  61 O :   -0.099235
  62 C :    0.012060
  63 C :   -0.002413
  64 H :    0.004945
  65 H :    0.011152
  66 H :    0.010843
  67 H :    0.014122
  68 H :    0.020322
  69 H :    0.001690
  70 H :   -0.012374
  71 H :    0.010162
  72 H :   -0.006168
  73 H :   -0.027066
  74 H :   -0.009502
  75 H :   -0.023874
  76 H :    0.002757
  77 H :    0.086947
  78 H :    0.089844
  79 H :   -0.026055
  80 H :   -0.019223
  81 H :    0.098345
  82 H :    0.091961
  83 H :   -0.001148
  84 H :    0.034972
  85 H :   -0.007481
  86 H :   -0.033316
  87 H :   -0.041578
  88 H :   -0.021499
  89 H :    0.032785
  90 H :    0.001247
  91 H :    0.005852
  92 H :   -0.008279
  93 H :   -0.039753
  94 H :    0.015054
  95 H :   -0.003254
  96 H :   -0.008605
  97 H :    0.002791
  98 H :    0.013720
  99 H :    0.029477
Sum of atomic charges:   -0.0000000

LOEWDIN ATOMIC CHARGES
----------------------
   0 C :   -0.041696
   1 C :    0.018344
   2 C :    0.029306
   3 C :   -0.067029
   4 C :    0.099791
   5 O :   -0.086204
   6 C :    0.053617
   7 C :   -0.043352
   8 C :    0.074385
   9 N :   -0.113269
  10 C :    0.046103
  11 C :   -0.049118
  12 C :    0.063153
  13 O :   -0.151574
  14 C :   -0.043779
  15 C :    0.012149
  16 N :   -0.102651
  17 C :    0.064079
  18 C :   -0.045218
  19 C :   -0.022773
  20 C :   -0.031415
  21 C :    0.003652
  22 C :   -0.028982
  23 C :    0.001619
  24 C :   -0.021626
  25 C :   -0.032114
  26 C :   -0.039053
  27 C :    0.026350
  28 N :   -0.115285
  29 C :    0.027439
  30 N :   -0.118166
  31 C :   -0.016364
  32 C :    0.064583
  33 C :   -0.031232
  34 C :   -0.038491
  35 C :   -0.017697
  36 C :   -0.043541
  37 C :   -0.025979
  38 C :   -0.013061
  39 C :   -0.016537
  40 C :    0.074051
  41 C :   -0.053588
  42 C :    0.073474
  43 N :   -0.108693
  44 C :    0.049233
  45 C :   -0.055839
  46 C :    0.066553
  47 O :   -0.135936
  48 C :   -0.039944
  49 C :    0.014247
  50 N :   -0.100264
  51 C :    0.067146
  52 C :   -0.038797
  53 C :   -0.024214
  54 C :   -0.037061
  55 C :    0.025227
  56 C :   -0.074613
  57 C :    0.023580
  58 C :    0.007040
  59 C :   -0.057188
  60 C :    0.104405
  61 O :   -0.078650
  62 C :   -0.024567
  63 C :   -0.020909
  64 H :    0.034875
  65 H :    0.034451
  66 H :    0.034826
  67 H :    0.042994
  68 H :    0.034148
  69 H :    0.020286
  70 H :    0.031354
  71 H :    0.037238
  72 H :    0.031042
  73 H :    0.030232
  74 H :    0.032208
  75 H :   -0.005863
  76 H :    0.020814
  77 H :    0.049115
  78 H :    0.054174
  79 H :   -0.004716
  80 H :    0.010436
  81 H :    0.052835
  82 H :    0.054888
  83 H :    0.026923
  84 H :    0.058621
  85 H :    0.025498
  86 H :    0.030317
  87 H :    0.025880
  88 H :    0.027756
  89 H :    0.037890
  90 H :    0.032037
  91 H :    0.021582
  92 H :    0.033066
  93 H :    0.022533
  94 H :    0.038314
  95 H :    0.028092
  96 H :    0.028965
  97 H :    0.035441
  98 H :    0.020849
  99 H :    0.027839

  Mayer bond orders larger than 0.100000
B(  0-C ,  1-C ) :   1.7156 B(  0-C ,  4-C ) :   0.9927 B(  0-C , 64-H ) :   1.0136
B(  1-C ,  2-C ) :   1.0213 B(  1-C , 65-H ) :   1.0018 B(  2-C ,  3-C ) :   1.6325
B(  2-C , 66-H ) :   1.0105 B(  3-C ,  4-C ) :   0.8913 B(  3-C ,  6-C ) :   1.1271
B(  4-C ,  5-O ) :   2.1729 B(  6-C ,  7-C ) :   1.6013 B(  6-C , 67-H ) :   0.9887
B(  7-C ,  8-C ) :   1.1344 B(  7-C , 68-H ) :   0.9599 B(  8-C ,  9-N ) :   1.5717
B(  8-C , 10-C ) :   0.1024 B(  8-C , 19-C ) :   0.9984 B(  9-N , 10-C ) :   1.3740
B( 10-C , 11-C ) :   1.0401 B( 10-C , 15-C ) :   1.3933 B( 11-C , 12-C ) :   0.8938
B( 11-C , 19-C ) :   1.5743 B( 12-C , 13-O ) :   2.2797 B( 12-C , 14-C ) :   0.9066
B( 14-C , 15-C ) :   1.0659 B( 14-C , 18-C ) :   1.5944 B( 15-C , 16-N ) :   1.3268
B( 16-N , 17-C ) :   1.6397 B( 17-C , 18-C ) :   1.0901 B( 17-C , 69-H ) :   0.9894
B( 18-C , 70-H ) :   1.0092 B( 19-C , 20-C ) :   1.1126 B( 20-C , 21-C ) :   1.6577
B( 20-C , 71-H ) :   0.9580 B( 21-C , 22-C ) :   1.0860 B( 21-C , 72-H ) :   0.9838
B( 22-C , 23-C ) :   1.5029 B( 22-C , 39-C ) :   1.1240 B( 23-C , 24-C ) :   1.1341
B( 23-C , 73-H ) :   1.0030 B( 24-C , 25-C ) :   1.4900 B( 24-C , 37-C ) :   1.1101
B( 25-C , 26-C ) :   1.0517 B( 25-C , 31-C ) :   1.0762 B( 26-C , 27-C ) :   1.0297
B( 26-C , 29-C ) :   1.0323 B( 26-C , 74-H ) :   0.8731 B( 27-C , 28-N ) :   1.1051
B( 27-C , 75-H ) :   0.9248 B( 27-C , 76-H ) :   0.9461 B( 28-N , 77-H ) :   0.9703
B( 28-N , 78-H ) :   0.9677 B( 29-C , 30-N ) :   1.0909 B( 29-C , 79-H ) :   0.9307
B( 29-C , 80-H ) :   0.9333 B( 30-N , 81-H ) :   0.9700 B( 30-N , 82-H ) :   0.9665
B( 31-C , 32-C ) :   1.6787 B( 31-C , 36-C ) :   1.0472 B( 32-C , 33-C ) :   0.9682
B( 32-C , 83-H ) :   0.9562 B( 33-C , 34-C ) :   0.9987 B( 33-C , 40-C ) :   0.9390
B( 33-C , 84-H ) :   0.8662 B( 34-C , 35-C ) :   1.7030 B( 34-C , 85-H ) :   0.9775
B( 35-C , 36-C ) :   1.1294 B( 35-C , 86-H ) :   0.9937 B( 36-C , 37-C ) :   1.4421
B( 37-C , 38-C ) :   1.1361 B( 38-C , 39-C ) :   1.6209 B( 38-C , 87-H ) :   0.9903
B( 39-C , 88-H ) :   0.9792 B( 40-C , 41-C ) :   1.7927 B( 40-C , 89-H ) :   0.9690
B( 41-C , 42-C ) :   1.1041 B( 41-C , 90-H ) :   0.9479 B( 42-C , 43-N ) :   1.6243
B( 42-C , 44-C ) :   0.1102 B( 42-C , 53-C ) :   0.9935 B( 43-N , 44-C ) :   1.3337
B( 44-C , 45-C ) :   1.0651 B( 44-C , 49-C ) :   1.4184 B( 45-C , 46-C ) :   0.9000
B( 45-C , 53-C ) :   1.5261 B( 46-C , 47-O ) :   2.2011 B( 46-C , 48-C ) :   0.9230
B( 48-C , 49-C ) :   1.0724 B( 48-C , 52-C ) :   1.6035 B( 49-C , 50-N ) :   1.3121
B( 50-N , 51-C ) :   1.6562 B( 51-C , 52-C ) :   1.0738 B( 51-C , 91-H ) :   0.9891
B( 52-C , 92-H ) :   1.0101 B( 53-C , 54-C ) :   1.1411 B( 54-C , 55-C ) :   1.6046
B( 54-C , 93-H ) :   0.9658 B( 55-C , 56-C ) :   1.1253 B( 55-C , 94-H ) :   0.9594
B( 56-C , 57-C ) :   1.6255 B( 56-C , 60-C ) :   0.9067 B( 57-C , 58-C ) :   1.0457
B( 57-C , 95-H ) :   1.0034 B( 58-C , 59-C ) :   1.6609 B( 58-C , 96-H ) :   1.0059
B( 59-C , 60-C ) :   0.9206 B( 59-C , 62-C ) :   1.1166 B( 60-C , 61-O ) :   2.2511
B( 62-C , 63-C ) :   1.9032 B( 62-C , 97-H ) :   0.9594 B( 63-C , 98-H ) :   0.9541
B( 63-C , 99-H ) :   0.9509

-----------------------------------------------------------------------------
         ABSORPTION SPECTRUM VIA TRANSITION ELECTRIC DIPOLE MOMENTS
-----------------------------------------------------------------------------
State   Energy  Wavelength   fosc         T2         TX        TY        TZ
        (cm-1)    (nm)                  (au**2)     (au)      (au)      (au)
-----------------------------------------------------------------------------
   0   10704.5    934.2   0.056868887   1.74897   0.33661  -0.77189  -1.01973
   1   11195.2    893.2   0.018292031   0.53791   0.10741  -0.62323   0.37143
   2   14425.4    693.2   0.242832592   5.54185   0.54945   1.13318   1.98893
   3   14917.6    670.3   0.034800973   0.76801  -0.85952   0.00500   0.17091
   4   17760.8    563.0   0.144075211   2.67056  -0.83184  -0.14251  -1.39939
   5   18001.6    555.5   0.062886270   1.15006  -0.55578   0.44809   0.80024
   6   18417.9    543.0   0.021048697   0.37624  -0.04950  -0.12010  -0.59947
   7   18809.2    531.7   0.196046325   3.43134  -1.49844   0.72115  -0.81607
   8   19586.1    510.6   0.598650302  10.06240  -1.19317   0.66162  -2.86374
   9   21231.2    471.0   0.001892632   0.02935  -0.04818   0.11063  -0.12160
  10   21617.5    462.6   0.002411517   0.03672  -0.12314   0.09440   0.11248
  11   22035.4    453.8   0.000228777   0.00342  -0.04109   0.03940   0.01331
  12   23508.7    425.4   0.021757441   0.30469   0.11108  -0.23750  -0.48574
  13   23686.9    422.2   0.432761941   6.01472   0.72848  -1.42665  -1.85707
  14   24121.9    414.6   0.000131934   0.00180  -0.01968   0.02056  -0.03147
  15   24159.4    413.9   0.081519030   1.11083  -0.57036   0.80473  -0.37138
  16   24578.5    406.9   0.051362608   0.68797   0.10019  -0.79537  -0.21286
  17   24898.0    401.6   0.114011257   1.50751  -0.62589   0.29107  -1.01541
  18   25141.0    397.8   0.007128820   0.09335  -0.24254   0.17441   0.06406
  19   25725.9    388.7   0.146437586   1.87395  -0.61976   1.12338   0.47734
  20   25882.2    386.4   0.003915222   0.04980  -0.09689  -0.04822   0.19516
  21   26056.6    383.8   0.013318771   0.16828  -0.03218  -0.36946  -0.17533
  22   26147.9    382.4   0.211734749   2.66582   0.39492  -1.26792  -0.94987
  23   26475.6    377.7   0.117350026   1.45919   0.61971  -0.76218  -0.70301
  24   26532.7    376.9   0.061140563   0.75862   0.60227  -0.15194   0.61058
  25   26699.2    374.5   0.017842844   0.22001  -0.08742   0.32620   0.32552
  26   27385.1    365.2   0.688045577   8.27139   0.93351  -0.45977  -2.68115
  27   27449.8    364.3   0.010034654   0.12035  -0.22816  -0.11192   0.23615
  28   27793.9    359.8   0.056640764   0.67090   0.04882   0.06027  -0.81540
  29   28241.6    354.1   0.027039319   0.31520   0.27074  -0.15602  -0.46643
  30   28847.2    346.7   0.065340502   0.74568   0.04445   0.10154   0.85639
  31   29075.1    343.9   0.181216421   2.05188  -0.05973  -1.09805  -0.91793
  32   29289.4    341.4   0.014045447   0.15787   0.32328  -0.04479  -0.22661
  33   29649.4    337.3   0.017128221   0.19018  -0.37400   0.17743   0.13719
  34   29735.9    336.3   0.098193324   1.08712  -0.24681   0.69705   0.73507
  35   30008.4    333.2   0.005480746   0.06013   0.08104  -0.21705  -0.08031
  36   30310.7    329.9   0.009913970   0.10768  -0.16375  -0.06391   0.27709
  37   30350.4    329.5   0.001632862   0.01771   0.01841  -0.03108  -0.12809
  38   30611.3    326.7   0.015403500   0.16566   0.19049  -0.35682  -0.04531
  39   30708.9    325.6   0.001761911   0.01889  -0.00122   0.04329   0.13043
  40   30813.4    324.5   0.000551402   0.00589   0.03205  -0.02985  -0.06303
  41   31322.2    319.3   0.044338790   0.46602   0.22739   0.13406  -0.62956
  42   31572.7    316.7   0.045548189   0.47494  -0.49198   0.47012  -0.10898
  43   31749.1    315.0   0.232110933   2.40680   0.69675   0.02095   1.38596
  44   32169.9    310.8   0.217287099   2.22362   0.48791  -1.28430  -0.57977
  45   32315.0    309.5   0.045954490   0.46817  -0.37155   0.54967   0.16726
  46   32868.5    304.2   0.040242784   0.40307   0.48113  -0.39419   0.12730
  47   33261.8    300.6   0.328773820   3.25407  -1.08912   1.00019   1.03320
  48   33424.8    299.2   0.058100134   0.57225  -0.01318   0.54337  -0.52614
  49   33914.2    294.9   0.005932548   0.05759  -0.08071   0.16535   0.15406
  50   34320.8    291.4   0.110284191   1.05787   0.35371   0.76322  -0.59182
  51   34651.4    288.6   0.040344388   0.38330  -0.52892   0.08052   0.31155
  52   34980.0    285.9   0.001278792   0.01204  -0.08575   0.01644   0.06643
  53   34999.9    285.7   0.106331822   1.00017  -0.52292   0.07560   0.84912
  54   35360.0    282.8   0.147751035   1.37561   0.26348  -0.28423  -1.10698
  55   35562.6    281.2   0.015208980   0.14079  -0.23859   0.12129   0.26297
  56   35691.1    280.2   0.004265195   0.03934  -0.04569   0.00794  -0.19285
  57   36157.4    276.6   0.006117873   0.05570  -0.14317   0.12033  -0.14397
  58   36249.9    275.9   0.052420352   0.47607   0.30475  -0.20639   0.58361
  59   36329.6    275.3   0.000034166   0.00031  -0.00668  -0.01095   0.01204
  60   36382.8    274.9   0.013465830   0.12185   0.12442  -0.05036   0.32223
  61   36471.0    274.2   0.030935581   0.27925   0.14636  -0.10180   0.49745
  62   36776.3    271.9   0.037464682   0.33537   0.14941   0.00316   0.55950
  63   36812.4    271.6   0.264857307   2.36861   0.34125   0.43939   1.43496
  64   37021.8    270.1   0.032055791   0.28505   0.19110  -0.31829   0.38370
  65   37249.6    268.5   0.233450569   2.06323  -0.66269   0.14357  -1.26628
  66   37523.8    266.5   0.041227342   0.36171   0.57620  -0.14919  -0.08624
  67   37931.6    263.6   0.000803190   0.00697   0.08345  -0.00098   0.00237
  68   37999.9    263.2   0.010960758   0.09496   0.30110   0.06548  -0.00341
  69   38226.1    261.6   0.002356553   0.02030  -0.03766  -0.05801  -0.12455
  70   38240.4    261.5   0.043226591   0.37214  -0.14217   0.52387   0.27837
  71   38597.0    259.1   0.002136140   0.01822  -0.11823   0.03982  -0.05153
  72   38645.2    258.8   0.039585182   0.33722  -0.54110   0.20031   0.06561
  73   38705.5    258.4   0.000375215   0.00319   0.04945   0.02718   0.00271
  74   39037.5    256.2   0.003286796   0.02772   0.09997  -0.07527  -0.10981
  75   39510.1    253.1   0.010522163   0.08767  -0.21535   0.20040   0.03376
  76   39520.1    253.0   0.042622452   0.35506   0.50328  -0.20033   0.24826
  77   39712.1    251.8   0.082443573   0.68345   0.14349  -0.06154  -0.81184
  78   40052.8    249.7   0.031745487   0.26093  -0.45039  -0.03947   0.23774
  79   40160.5    249.0   0.007996455   0.06555  -0.18634   0.17552  -0.00436
  80   40246.6    248.5   0.001173724   0.00960  -0.05499  -0.06256   0.05162
  81   40279.2    248.3   0.007393014   0.06042  -0.13551   0.13347  -0.15572

FINAL SINGLE POINT ENERGY     -2705.043852732284

DIPOLE MOMENT
-------------
                                X             Y             Z
Electronic contribution:      9.54761      -3.36729      20.21489
Nuclear contribution   :    -11.27353       5.12739     -22.01182
                        -----------------------------------------
Total Dipole Moment    :     -1.72592       1.76010      -1.79693
                        -----------------------------------------
Magnitude (a.u.)       :      3.05053
Magnitude (Debye)      :      7.75382

Rotational constants in cm-1:     0.001407     0.000497     0.000394
Rotational constants in MHz :    42.183456    14.886355    11.817362

                             ****ORCA TERMINATED NORMALLY****
TOTAL RUN TIME: 0 days 0 hours 8 minutes 8 seconds 496 msec
