                         Program Version 4.2.0 -  RELEASE  -
|  1> # ORCA input file
|  2> # SCF done       -164.973233819824          0.000360344443
|  3> ! CAM-B3LYP def2-SVP def2/J RIJCOSX Grid4 TightSCF
|  4> %maxcore 5000
|  5> %tddft
|  6>     Mode sTDDFT
|  7>     Ethresh 5.0
|  8>     maxcore 5000
|  9> end
| 10>
| 11> %pal
| 12>   nprocs 6
| 13>   end
| 14> * xyz 0 1
| 15>    C        9.86655       -11.35150        -7.57768
| 16>    S        8.31729       -11.09507        -6.86993
| 17>    C        8.87636       -11.49297        -5.26232
| 18>    C       10.22521       -11.80888        -5.31261
| 19>    C       10.77252       -11.72423        -6.63457
| 20>    S       12.45840       -12.13859        -6.58879
| 21>    C       12.26980       -12.37864        -4.85167
| 22>    N       11.11332       -12.18063        -4.35432
| 23>    C        8.04781       -11.48334        -4.11743
| 24>    C        6.72740       -11.17314        -4.13476
| 25>    C        5.88378       -11.16422        -2.99912
| 26>    C        6.23808       -11.45923        -1.60412
| 27>    N        5.24386       -11.38509        -0.76905
| 28>    C        4.15735       -11.03658        -1.52277
| 29>    C        4.53389       -10.88125        -2.92905
| 30>    C        3.38187       -10.53671        -3.71745
| 31>    S        3.36267       -10.32908        -5.35270
| 32>    C        2.29535       -10.47174        -2.76586
| 33>    C        2.81094       -10.79882        -1.42335
| 34>    N        1.80532       -10.79862        -0.50296
| 35>    C        0.72426       -10.53366        -1.17603
| 36>    C        0.93372       -10.31183        -2.60973
| 37>    C       -0.11249        -9.97630        -3.53590
| 38>    C       -1.42077       -10.33021        -3.26575
| 39>    C       -2.43507       -10.01815        -4.18626
| 40>    C       -3.80439       -10.27508        -4.15749
| 41>    C       -4.54168       -10.96563        -3.06064
| 42>    C       -5.65878       -10.08073        -2.48459
| 43>    N       -5.13542        -8.75301        -2.21445
| 44>    C       -5.08455       -12.33024        -3.52337
| 45>    N       -3.96704       -13.23002        -3.73767
| 46>    C       -4.35170        -9.75192        -5.38559
| 47>    C       -5.60092        -9.74632        -5.89223
| 48>    C       -5.89642        -9.18485        -7.23672
| 49>    C       -4.74742        -8.49379        -7.89818
| 50>    C       -3.50085        -8.51270        -7.38738
| 51>    C       -3.24851        -9.14294        -6.14813
| 52>    C       -2.09136        -9.31672        -5.41257
| 53>    C       -0.74822        -8.95149        -5.65316
| 54>    C        0.20491        -9.27268        -4.74130
| 55>    C       -6.26627       -10.32473        -8.15849
| 56>    C       -7.34568       -10.31885        -8.94764
| 57>    C       -7.68398       -11.35230        -9.87576
| 58>    C       -7.00181       -12.62888       -10.10575
| 59>    N       -7.54310       -13.37003       -11.03037
| 60>    C       -8.61342       -12.65590       -11.48885
| 61>    C       -8.72875       -11.38238       -10.76906
| 62>    C       -9.85503       -10.63051       -11.26726
| 63>    S      -10.35787        -9.15102       -10.74712
| 64>    C      -10.40873       -11.46286       -12.29976
| 65>    C       -9.62609       -12.70244       -12.41284
| 66>    N      -10.12930       -13.50619       -13.39610
| 67>    C      -11.14236       -12.86200       -13.88960
| 68>    C      -11.39593       -11.55689       -13.26239
| 69>    C      -12.43243       -10.67688       -13.63545
| 70>    S      -12.68703        -9.13900       -12.83093
| 71>    C      -14.04516        -8.72181       -13.82487
| 72>    C      -14.28842        -9.73267       -14.74124
| 73>    C      -13.38252       -10.82616       -14.63077
| 74>    S      -13.77812       -12.02145       -15.81916
| 75>    C      -15.09228       -10.96493       -16.33961
| 76>    N      -15.22809        -9.86397       -15.71750
| 77>    C      -14.77946        -7.50221       -13.68755
| 78>    C      -14.50363        -6.55507       -12.79087
| 79>    H       10.00298       -11.21153        -8.63050
| 80>    H       13.11958       -12.67941        -4.27075
| 81>    H        8.54849       -11.74926        -3.19669
| 82>    H        6.25952       -10.91394        -5.07721
| 83>    H        7.22110       -11.71515        -1.24994
| 84>    H       -0.22031       -10.45463        -0.66669
| 85>    H       -1.66159       -10.88773        -2.37350
| 86>    H       -3.83014       -11.17385        -2.25572
| 87>    H       -6.07312       -10.58303        -1.59286
| 88>    H       -6.46949        -9.97047        -3.20817
| 89>    H       -4.37053        -8.80370        -1.54972
| 90>    H       -5.85529        -8.16157        -1.81481
| 91>    H       -5.71783       -12.19194        -4.41503
| 92>    H       -5.70551       -12.75638        -2.72979
| 93>    H       -3.36935       -12.87941        -4.47924
| 94>    H       -4.29062       -14.15362        -4.00058
| 95>    H       -6.43910       -10.19297        -5.37727
| 96>    H       -6.75616        -8.50679        -7.16988
| 97>    H       -4.96385        -8.02061        -8.84340
| 98>    H       -2.68447        -8.03103        -7.90554
| 99>    H       -0.49059        -8.42069        -6.55728
|100>    H        1.23268        -8.99618        -4.90956
|101>    H       -5.55381       -11.13649        -8.18452
|102>    H       -8.03549        -9.48436        -8.92212
|103>    H       -6.12925       -12.97615        -9.58092
|104>    H      -11.72339       -13.28521       -14.69006
|105>    H      -15.72448       -11.27528       -17.14808
|106>    H      -15.60072        -7.39713       -14.38414
|107>    H      -13.68462        -6.66052       -12.09792
|108>    H      -15.08598        -5.65359       -12.72629
|109> *
|110>
|111>                          ****END OF INPUT****

CARTESIAN COORDINATES (ANGSTROEM)
---------------------------------
  C      9.866550  -11.351500   -7.577680
  S      8.317290  -11.095070   -6.869930
  C      8.876360  -11.492970   -5.262320
  C     10.225210  -11.808880   -5.312610
  C     10.772520  -11.724230   -6.634570
  S     12.458400  -12.138590   -6.588790
  C     12.269800  -12.378640   -4.851670
  N     11.113320  -12.180630   -4.354320
  C      8.047810  -11.483340   -4.117430
  C      6.727400  -11.173140   -4.134760
  C      5.883780  -11.164220   -2.999120
  C      6.238080  -11.459230   -1.604120
  N      5.243860  -11.385090   -0.769050
  C      4.157350  -11.036580   -1.522770
  C      4.533890  -10.881250   -2.929050
  C      3.381870  -10.536710   -3.717450
  S      3.362670  -10.329080   -5.352700
  C      2.295350  -10.471740   -2.765860
  C      2.810940  -10.798820   -1.423350
  N      1.805320  -10.798620   -0.502960
  C      0.724260  -10.533660   -1.176030
  C      0.933720  -10.311830   -2.609730
  C     -0.112490   -9.976300   -3.535900
  C     -1.420770  -10.330210   -3.265750
  C     -2.435070  -10.018150   -4.186260
  C     -3.804390  -10.275080   -4.157490
  C     -4.541680  -10.965630   -3.060640
  C     -5.658780  -10.080730   -2.484590
  N     -5.135420   -8.753010   -2.214450
  C     -5.084550  -12.330240   -3.523370
  N     -3.967040  -13.230020   -3.737670
  C     -4.351700   -9.751920   -5.385590
  C     -5.600920   -9.746320   -5.892230
  C     -5.896420   -9.184850   -7.236720
  C     -4.747420   -8.493790   -7.898180
  C     -3.500850   -8.512700   -7.387380
  C     -3.248510   -9.142940   -6.148130
  C     -2.091360   -9.316720   -5.412570
  C     -0.748220   -8.951490   -5.653160
  C      0.204910   -9.272680   -4.741300
  C     -6.266270  -10.324730   -8.158490
  C     -7.345680  -10.318850   -8.947640
  C     -7.683980  -11.352300   -9.875760
  C     -7.001810  -12.628880  -10.105750
  N     -7.543100  -13.370030  -11.030370
  C     -8.613420  -12.655900  -11.488850
  C     -8.728750  -11.382380  -10.769060
  C     -9.855030  -10.630510  -11.267260
  S    -10.357870   -9.151020  -10.747120
  C    -10.408730  -11.462860  -12.299760
  C     -9.626090  -12.702440  -12.412840
  N    -10.129300  -13.506190  -13.396100
  C    -11.142360  -12.862000  -13.889600
  C    -11.395930  -11.556890  -13.262390
  C    -12.432430  -10.676880  -13.635450
  S    -12.687030   -9.139000  -12.830930
  C    -14.045160   -8.721810  -13.824870
  C    -14.288420   -9.732670  -14.741240
  C    -13.382520  -10.826160  -14.630770
  S    -13.778120  -12.021450  -15.819160
  C    -15.092280  -10.964930  -16.339610
  N    -15.228090   -9.863970  -15.717500
  C    -14.779460   -7.502210  -13.687550
  C    -14.503630   -6.555070  -12.790870
  H     10.002980  -11.211530   -8.630500
  H     13.119580  -12.679410   -4.270750
  H      8.548490  -11.749260   -3.196690
  H      6.259520  -10.913940   -5.077210
  H      7.221100  -11.715150   -1.249940
  H     -0.220310  -10.454630   -0.666690
  H     -1.661590  -10.887730   -2.373500
  H     -3.830140  -11.173850   -2.255720
  H     -6.073120  -10.583030   -1.592860
  H     -6.469490   -9.970470   -3.208170
  H     -4.370530   -8.803700   -1.549720
  H     -5.855290   -8.161570   -1.814810
  H     -5.717830  -12.191940   -4.415030
  H     -5.705510  -12.756380   -2.729790
  H     -3.369350  -12.879410   -4.479240
  H     -4.290620  -14.153620   -4.000580
  H     -6.439100  -10.192970   -5.377270
  H     -6.756160   -8.506790   -7.169880
  H     -4.963850   -8.020610   -8.843400
  H     -2.684470   -8.031030   -7.905540
  H     -0.490590   -8.420690   -6.557280
  H      1.232680   -8.996180   -4.909560
  H     -5.553810  -11.136490   -8.184520
  H     -8.035490   -9.484360   -8.922120
  H     -6.129250  -12.976150   -9.580920
  H    -11.723390  -13.285210  -14.690060
  H    -15.724480  -11.275280  -17.148080
  H    -15.600720   -7.397130  -14.384140
  H    -13.684620   -6.660520  -12.097920
  H    -15.085980   -5.653590  -12.726290

 Total Charge           Charge          ....    0
 Multiplicity           Mult            ....    1
 Number of Electrons    NEL             ....  482
 Basis Dimension        Dim             .... 1070

ORBITAL ENERGIES
----------------

  NO   OCC          E(Eh)            E(eV)
   0   2.0000     -88.970182     -2421.0017
   1   2.0000     -88.965834     -2420.8834
   2   2.0000     -88.965407     -2420.8718
   3   2.0000     -88.960572     -2420.7402
   4   2.0000     -88.895976     -2418.9825
   5   2.0000     -88.885750     -2418.7042
   6   2.0000     -14.423578      -392.4855
   7   2.0000     -14.418565      -392.3491
   8   2.0000     -14.417520      -392.3207
   9   2.0000     -14.412845      -392.1935
  10   2.0000     -14.405391      -391.9906
  11   2.0000     -14.403693      -391.9444
  12   2.0000     -14.378174      -391.2500
  13   2.0000     -14.374599      -391.1527
  14   2.0000     -10.345543      -281.5165
  15   2.0000     -10.342002      -281.4202
  16   2.0000     -10.339003      -281.3386
  17   2.0000     -10.336285      -281.2646
  18   2.0000     -10.330810      -281.1156
  19   2.0000     -10.329791      -281.0879
  20   2.0000     -10.327637      -281.0293
  21   2.0000     -10.324017      -280.9308
  22   2.0000     -10.323351      -280.9126
  23   2.0000     -10.321151      -280.8528
  24   2.0000     -10.321067      -280.8505
  25   2.0000     -10.316119      -280.7159
  26   2.0000     -10.316072      -280.7146
  27   2.0000     -10.315248      -280.6922
  28   2.0000     -10.313883      -280.6550
  29   2.0000     -10.312332      -280.6128
  30   2.0000     -10.311612      -280.5932
  31   2.0000     -10.310100      -280.5521
  32   2.0000     -10.307600      -280.4841
  33   2.0000     -10.307209      -280.4734
  34   2.0000     -10.306079      -280.4427
  35   2.0000     -10.301769      -280.3254
  36   2.0000     -10.301183      -280.3095
  37   2.0000     -10.296541      -280.1831
  38   2.0000     -10.295136      -280.1449
  39   2.0000     -10.293573      -280.1024
  40   2.0000     -10.293041      -280.0879
  41   2.0000     -10.291322      -280.0411
  42   2.0000     -10.289705      -279.9971
  43   2.0000     -10.286721      -279.9159
  44   2.0000     -10.285414      -279.8803
  45   2.0000     -10.285281      -279.8767
  46   2.0000     -10.283571      -279.8302
  47   2.0000     -10.283072      -279.8166
  48   2.0000     -10.280611      -279.7497
  49   2.0000     -10.280318      -279.7417
  50   2.0000     -10.278849      -279.7017
  51   2.0000     -10.277210      -279.6571
  52   2.0000     -10.274700      -279.5888
  53   2.0000     -10.274649      -279.5874
  54   2.0000     -10.273708      -279.5618
  55   2.0000     -10.271052      -279.4895
  56   2.0000     -10.269561      -279.4490
  57   2.0000     -10.265793      -279.3464
  58   2.0000     -10.263168      -279.2750
  59   2.0000     -10.262801      -279.2650
  60   2.0000     -10.261763      -279.2368
  61   2.0000     -10.259995      -279.1887
  62   2.0000     -10.258867      -279.1580
  63   2.0000     -10.255937      -279.0782
  64   2.0000      -8.066166      -219.4915
  65   2.0000      -8.060824      -219.3462
  66   2.0000      -8.059565      -219.3119
  67   2.0000      -8.057062      -219.2438
  68   2.0000      -7.991662      -217.4642
  69   2.0000      -7.981441      -217.1861
  70   2.0000      -6.035688      -164.2394
  71   2.0000      -6.031605      -164.1283
  72   2.0000      -6.030121      -164.0879
  73   2.0000      -6.028858      -164.0536
  74   2.0000      -6.027599      -164.0193
  75   2.0000      -6.026608      -163.9923
  76   2.0000      -6.025886      -163.9727
  77   2.0000      -6.024664      -163.9394
  78   2.0000      -6.023122      -163.8975
  79   2.0000      -6.022642      -163.8844
  80   2.0000      -6.021646      -163.8573
  81   2.0000      -6.018230      -163.7644
  82   2.0000      -5.960431      -162.1916
  83   2.0000      -5.959984      -162.1794
  84   2.0000      -5.951218      -161.9409
  85   2.0000      -5.950320      -161.9164
  86   2.0000      -5.949776      -161.9016
  87   2.0000      -5.940871      -161.6593
  88   2.0000      -1.081932       -29.4409
  89   2.0000      -1.076846       -29.3025
  90   2.0000      -1.071573       -29.1590
  91   2.0000      -1.070890       -29.1404
  92   2.0000      -1.062565       -28.9139
  93   2.0000      -1.052217       -28.6323
  94   2.0000      -0.985177       -26.8080
  95   2.0000      -0.984113       -26.7791
  96   2.0000      -0.978774       -26.6338
  97   2.0000      -0.964190       -26.2369
  98   2.0000      -0.959545       -26.1105
  99   2.0000      -0.951969       -25.9044
 100   2.0000      -0.950017       -25.8513
 101   2.0000      -0.946245       -25.7486
 102   2.0000      -0.919469       -25.0200
 103   2.0000      -0.919084       -25.0096
 104   2.0000      -0.915334       -24.9075
 105   2.0000      -0.897196       -24.4139
 106   2.0000      -0.892019       -24.2731
 107   2.0000      -0.887662       -24.1545
 108   2.0000      -0.871891       -23.7254
 109   2.0000      -0.866888       -23.5892
 110   2.0000      -0.860852       -23.4250
 111   2.0000      -0.851543       -23.1717
 112   2.0000      -0.848438       -23.0872
 113   2.0000      -0.837734       -22.7959
 114   2.0000      -0.834911       -22.7191
 115   2.0000      -0.831133       -22.6163
 116   2.0000      -0.828763       -22.5518
 117   2.0000      -0.827299       -22.5120
 118   2.0000      -0.823098       -22.3976
 119   2.0000      -0.799634       -21.7591
 120   2.0000      -0.792023       -21.5521
 121   2.0000      -0.786965       -21.4144
 122   2.0000      -0.769398       -20.9364
 123   2.0000      -0.761997       -20.7350
 124   2.0000      -0.755537       -20.5592
 125   2.0000      -0.742737       -20.2109
 126   2.0000      -0.734982       -19.9999
 127   2.0000      -0.722494       -19.6601
 128   2.0000      -0.718710       -19.5571
 129   2.0000      -0.715745       -19.4764
 130   2.0000      -0.709241       -19.2994
 131   2.0000      -0.703209       -19.1353
 132   2.0000      -0.694957       -18.9107
 133   2.0000      -0.694380       -18.8950
 134   2.0000      -0.693203       -18.8630
 135   2.0000      -0.689691       -18.7675
 136   2.0000      -0.674060       -18.3421
 137   2.0000      -0.666844       -18.1457
 138   2.0000      -0.658982       -17.9318
 139   2.0000      -0.657908       -17.9026
 140   2.0000      -0.652860       -17.7652
 141   2.0000      -0.648248       -17.6397
 142   2.0000      -0.638115       -17.3640
 143   2.0000      -0.630954       -17.1691
 144   2.0000      -0.621577       -16.9140
 145   2.0000      -0.617530       -16.8038
 146   2.0000      -0.612281       -16.6610
 147   2.0000      -0.603608       -16.4250
 148   2.0000      -0.599604       -16.3161
 149   2.0000      -0.593428       -16.1480
 150   2.0000      -0.587763       -15.9938
 151   2.0000      -0.578168       -15.7328
 152   2.0000      -0.574184       -15.6243
 153   2.0000      -0.571734       -15.5577
 154   2.0000      -0.568356       -15.4657
 155   2.0000      -0.567582       -15.4447
 156   2.0000      -0.564788       -15.3687
 157   2.0000      -0.556549       -15.1445
 158   2.0000      -0.554715       -15.0946
 159   2.0000      -0.550241       -14.9728
 160   2.0000      -0.545851       -14.8534
 161   2.0000      -0.543803       -14.7976
 162   2.0000      -0.543672       -14.7941
 163   2.0000      -0.539452       -14.6792
 164   2.0000      -0.532726       -14.4962
 165   2.0000      -0.530785       -14.4434
 166   2.0000      -0.530553       -14.4371
 167   2.0000      -0.528857       -14.3909
 168   2.0000      -0.527787       -14.3618
 169   2.0000      -0.525885       -14.3101
 170   2.0000      -0.523714       -14.2510
 171   2.0000      -0.523352       -14.2411
 172   2.0000      -0.518588       -14.1115
 173   2.0000      -0.517661       -14.0863
 174   2.0000      -0.514562       -14.0020
 175   2.0000      -0.505330       -13.7507
 176   2.0000      -0.503693       -13.7062
 177   2.0000      -0.501789       -13.6544
 178   2.0000      -0.496994       -13.5239
 179   2.0000      -0.495892       -13.4939
 180   2.0000      -0.492476       -13.4009
 181   2.0000      -0.489611       -13.3230
 182   2.0000      -0.486925       -13.2499
 183   2.0000      -0.483820       -13.1654
 184   2.0000      -0.481714       -13.1081
 185   2.0000      -0.480875       -13.0853
 186   2.0000      -0.478197       -13.0124
 187   2.0000      -0.475086       -12.9277
 188   2.0000      -0.471935       -12.8420
 189   2.0000      -0.467992       -12.7347
 190   2.0000      -0.465460       -12.6658
 191   2.0000      -0.459022       -12.4906
 192   2.0000      -0.456287       -12.4162
 193   2.0000      -0.450741       -12.2653
 194   2.0000      -0.449739       -12.2380
 195   2.0000      -0.446281       -12.1439
 196   2.0000      -0.443937       -12.0801
 197   2.0000      -0.440489       -11.9863
 198   2.0000      -0.439456       -11.9582
 199   2.0000      -0.434872       -11.8335
 200   2.0000      -0.431731       -11.7480
 201   2.0000      -0.430806       -11.7228
 202   2.0000      -0.427144       -11.6232
 203   2.0000      -0.425058       -11.5664
 204   2.0000      -0.424460       -11.5501
 205   2.0000      -0.416033       -11.3208
 206   2.0000      -0.414980       -11.2922
 207   2.0000      -0.414894       -11.2898
 208   2.0000      -0.414483       -11.2787
 209   2.0000      -0.411440       -11.1958
 210   2.0000      -0.407929       -11.1003
 211   2.0000      -0.406448       -11.0600
 212   2.0000      -0.397780       -10.8241
 213   2.0000      -0.391325       -10.6485
 214   2.0000      -0.382274       -10.4022
 215   2.0000      -0.371831       -10.1180
 216   2.0000      -0.364003        -9.9050
 217   2.0000      -0.360774        -9.8172
 218   2.0000      -0.359826        -9.7914
 219   2.0000      -0.355394        -9.6708
 220   2.0000      -0.354866        -9.6564
 221   2.0000      -0.350445        -9.5361
 222   2.0000      -0.345173        -9.3926
 223   2.0000      -0.342951        -9.3322
 224   2.0000      -0.341016        -9.2795
 225   2.0000      -0.338268        -9.2047
 226   2.0000      -0.327028        -8.8989
 227   2.0000      -0.320074        -8.7097
 228   2.0000      -0.319717        -8.6999
 229   2.0000      -0.313655        -8.5350
 230   2.0000      -0.312915        -8.5148
 231   2.0000      -0.303834        -8.2677
 232   2.0000      -0.301720        -8.2102
 233   2.0000      -0.299377        -8.1465
 234   2.0000      -0.290382        -7.9017
 235   2.0000      -0.282000        -7.6736
 236   2.0000      -0.280560        -7.6344
 237   2.0000      -0.272329        -7.4105
 238   2.0000      -0.255488        -6.9522
 239   2.0000      -0.249836        -6.7984
 240   2.0000      -0.218207        -5.9377
 241   0.0000      -0.109640        -2.9834
 242   0.0000      -0.100998        -2.7483
 243   0.0000      -0.079987        -2.1766
 244   0.0000      -0.077050        -2.0966
 245   0.0000      -0.056872        -1.5476

MULLIKEN ATOMIC CHARGES
-----------------------
   0 C :   -0.176493
   1 S :    0.147734
   2 C :   -0.155247
   3 C :    0.075355
   4 C :    0.027720
   5 S :    0.086250
   6 C :    0.014902
   7 N :   -0.051668
   8 C :    0.013670
   9 C :   -0.035728
  10 C :    0.014484
  11 C :    0.050668
  12 N :   -0.029509
  13 C :    0.028702
  14 C :   -0.005232
  15 C :   -0.008852
  16 S :   -0.140531
  17 C :   -0.014144
  18 C :   -0.023622
  19 N :   -0.023948
  20 C :    0.051953
  21 C :   -0.002548
  22 C :    0.081997
  23 C :   -0.114146
  24 C :    0.048674
  25 C :   -0.001231
  26 C :   -0.076593
  27 C :    0.152172
  28 N :   -0.209784
  29 C :    0.158642
  30 N :   -0.224601
  31 C :    0.117237
  32 C :   -0.149909
  33 C :    0.122895
  34 C :   -0.029524
  35 C :    0.020145
  36 C :    0.007370
  37 C :    0.045260
  38 C :   -0.011297
  39 C :    0.018351
  40 C :   -0.034734
  41 C :   -0.001643
  42 C :   -0.004084
  43 C :    0.052456
  44 N :   -0.028394
  45 C :    0.017359
  46 C :   -0.004027
  47 C :   -0.006346
  48 S :   -0.142634
  49 C :   -0.045614
  50 C :   -0.008143
  51 N :   -0.021565
  52 C :    0.046859
  53 C :    0.022007
  54 C :   -0.199030
  55 S :    0.191301
  56 C :   -0.144879
  57 C :    0.072651
  58 C :   -0.015183
  59 S :    0.080942
  60 C :    0.023426
  61 N :   -0.040685
  62 C :    0.003023
  63 C :   -0.012734
  64 H :    0.033517
  65 H :    0.046488
  66 H :    0.003670
  67 H :   -0.001702
  68 H :    0.007931
  69 H :    0.002422
  70 H :   -0.031041
  71 H :   -0.017526
  72 H :   -0.011750
  73 H :   -0.018617
  74 H :    0.089552
  75 H :    0.090363
  76 H :   -0.029359
  77 H :   -0.008829
  78 H :    0.098419
  79 H :    0.091263
  80 H :    0.000600
  81 H :    0.026574
  82 H :   -0.008833
  83 H :   -0.032174
  84 H :   -0.037747
  85 H :   -0.031385
  86 H :    0.008886
  87 H :   -0.005674
  88 H :    0.006424
  89 H :    0.006573
  90 H :    0.047722
  91 H :    0.009910
  92 H :    0.032136
  93 H :    0.032285
Sum of atomic charges:   -0.0000000

LOEWDIN ATOMIC CHARGES
----------------------
   0 C :   -0.199609
   1 S :    0.469068
   2 C :   -0.182723
   3 C :   -0.062555
   4 C :   -0.210950
   5 S :    0.363540
   6 C :   -0.089437
   7 N :   -0.088198
   8 C :   -0.009425
   9 C :   -0.028164
  10 C :   -0.034596
  11 C :    0.084280
  12 N :   -0.079612
  13 C :    0.032934
  14 C :   -0.047417
  15 C :   -0.134248
  16 S :    0.044960
  17 C :   -0.049935
  18 C :    0.033221
  19 N :   -0.080166
  20 C :    0.081050
  21 C :   -0.020695
  22 C :   -0.028053
  23 C :   -0.000271
  24 C :   -0.021562
  25 C :   -0.018374
  26 C :   -0.041209
  27 C :    0.025072
  28 N :   -0.114691
  29 C :    0.028507
  30 N :   -0.119055
  31 C :   -0.010312
  32 C :    0.063823
  33 C :   -0.027627
  34 C :   -0.031716
  35 C :   -0.013343
  36 C :   -0.035965
  37 C :   -0.027356
  38 C :   -0.009292
  39 C :   -0.016845
  40 C :    0.021565
  41 C :   -0.036373
  42 C :   -0.030868
  43 C :    0.083443
  44 N :   -0.080049
  45 C :    0.031632
  46 C :   -0.043654
  47 C :   -0.139966
  48 S :    0.030913
  49 C :   -0.061739
  50 C :    0.036497
  51 N :   -0.071654
  52 C :    0.079311
  53 C :   -0.046766
  54 C :   -0.198996
  55 S :    0.496786
  56 C :   -0.164946
  57 C :   -0.074564
  58 C :   -0.194730
  59 S :    0.374365
  60 C :   -0.092435
  61 N :   -0.079445
  62 C :   -0.034677
  63 C :   -0.028244
  64 H :    0.028659
  65 H :    0.021222
  66 H :    0.038827
  67 H :    0.022478
  68 H :    0.023392
  69 H :    0.022265
  70 H :    0.024437
  71 H :    0.025740
  72 H :    0.000235
  73 H :    0.010633
  74 H :    0.052818
  75 H :    0.054705
  76 H :   -0.004901
  77 H :    0.015224
  78 H :    0.052764
  79 H :    0.054467
  80 H :    0.026539
  81 H :    0.053321
  82 H :    0.026193
  83 H :    0.031492
  84 H :    0.027820
  85 H :    0.013555
  86 H :    0.026896
  87 H :    0.028906
  88 H :    0.023123
  89 H :    0.014942
  90 H :    0.022115
  91 H :    0.041872
  92 H :    0.022071
  93 H :    0.029727

  Mayer bond orders larger than 0.100000
B(  0-C ,  1-S ) :   1.1721 B(  0-C ,  2-C ) :   0.1026 B(  0-C ,  4-C ) :   1.5353
B(  0-C , 64-H ) :   0.9788 B(  1-S ,  2-C ) :   1.1314 B(  2-C ,  3-C ) :   1.4147
B(  2-C ,  8-C ) :   1.1964 B(  3-C ,  4-C ) :   1.2271 B(  3-C ,  7-N ) :   1.3033
B(  4-C ,  5-S ) :   1.0275 B(  5-S ,  6-C ) :   1.0890 B(  5-S ,  7-N ) :   0.1075
B(  6-C ,  7-N ) :   1.7867 B(  6-C , 65-H ) :   0.9625 B(  8-C ,  9-C ) :   1.5871
B(  8-C , 66-H ) :   0.9783 B(  9-C , 10-C ) :   1.1368 B(  9-C , 67-H ) :   0.9687
B( 10-C , 11-C ) :   1.0077 B( 10-C , 14-C ) :   1.4873 B( 11-C , 12-N ) :   1.7409
B( 11-C , 68-H ) :   0.9889 B( 12-N , 13-C ) :   1.2528 B( 13-C , 14-C ) :   1.0703
B( 13-C , 18-C ) :   1.5199 B( 14-C , 15-C ) :   1.0486 B( 15-C , 16-S ) :   1.6752
B( 15-C , 17-C ) :   1.0317 B( 17-C , 18-C ) :   1.0771 B( 17-C , 21-C ) :   1.5260
B( 18-C , 19-N ) :   1.2648 B( 19-N , 20-C ) :   1.7244 B( 20-C , 21-C ) :   1.0396
B( 20-C , 69-H ) :   0.9856 B( 21-C , 22-C ) :   1.0206 B( 22-C , 23-C ) :   1.4879
B( 22-C , 39-C ) :   1.1437 B( 23-C , 24-C ) :   1.1458 B( 23-C , 70-H ) :   0.9917
B( 24-C , 25-C ) :   1.4690 B( 24-C , 37-C ) :   1.1200 B( 25-C , 26-C ) :   1.0328
B( 25-C , 31-C ) :   1.0817 B( 26-C , 27-C ) :   1.0419 B( 26-C , 29-C ) :   1.0404
B( 26-C , 71-H ) :   0.8826 B( 27-C , 28-N ) :   1.0969 B( 27-C , 72-H ) :   0.9378
B( 27-C , 73-H ) :   0.9306 B( 28-N , 74-H ) :   0.9700 B( 28-N , 75-H ) :   0.9679
B( 29-C , 30-N ) :   1.0946 B( 29-C , 76-H ) :   0.9326 B( 29-C , 77-H ) :   0.9347
B( 30-N , 78-H ) :   0.9698 B( 30-N , 79-H ) :   0.9665 B( 31-C , 32-C ) :   1.6421
B( 31-C , 36-C ) :   1.0505 B( 32-C , 33-C ) :   0.9743 B( 32-C , 80-H ) :   0.9733
B( 33-C , 34-C ) :   0.9930 B( 33-C , 40-C ) :   0.9500 B( 33-C , 81-H ) :   0.8839
B( 34-C , 35-C ) :   1.7002 B( 34-C , 82-H ) :   0.9714 B( 35-C , 36-C ) :   1.1356
B( 35-C , 83-H ) :   0.9901 B( 36-C , 37-C ) :   1.4352 B( 37-C , 38-C ) :   1.1336
B( 38-C , 39-C ) :   1.6122 B( 38-C , 84-H ) :   0.9937 B( 39-C , 85-H ) :   0.9669
B( 40-C , 41-C ) :   1.7544 B( 40-C , 86-H ) :   0.9616 B( 41-C , 42-C ) :   1.0911
B( 41-C , 87-H ) :   0.9689 B( 42-C , 43-C ) :   1.0092 B( 42-C , 46-C ) :   1.5350
B( 43-C , 44-N ) :   1.7364 B( 43-C , 88-H ) :   0.9893 B( 44-N , 45-C ) :   1.2546
B( 45-C , 46-C ) :   1.0754 B( 45-C , 50-C ) :   1.5292 B( 46-C , 47-C ) :   1.0299
B( 47-C , 48-S ) :   1.6821 B( 47-C , 49-C ) :   1.0533 B( 49-C , 50-C ) :   1.0842
B( 49-C , 53-C ) :   1.4902 B( 50-C , 51-N ) :   1.2522 B( 51-N , 52-C ) :   1.7469
B( 52-C , 53-C ) :   1.0190 B( 52-C , 89-H ) :   0.9861 B( 53-C , 54-C ) :   1.1847
B( 54-C , 55-S ) :   1.1282 B( 54-C , 56-C ) :   0.1067 B( 54-C , 58-C ) :   1.4713
B( 55-S , 56-C ) :   1.1261 B( 56-C , 57-C ) :   1.4108 B( 56-C , 62-C ) :   1.1505
B( 57-C , 58-C ) :   1.2545 B( 57-C , 61-N ) :   1.3059 B( 58-C , 59-S ) :   1.0643
B( 59-S , 60-C ) :   1.0702 B( 59-S , 61-N ) :   0.1043 B( 60-C , 61-N ) :   1.8053
B( 60-C , 90-H ) :   0.9626 B( 62-C , 63-C ) :   1.8852 B( 62-C , 91-H ) :   0.9679
B( 63-C , 92-H ) :   0.9566 B( 63-C , 93-H ) :   0.9515

-----------------------------------------------------------------------------
         ABSORPTION SPECTRUM VIA TRANSITION ELECTRIC DIPOLE MOMENTS
-----------------------------------------------------------------------------
State   Energy  Wavelength   fosc         T2         TX        TY        TZ
        (cm-1)    (nm)                  (au**2)     (au)      (au)      (au)
-----------------------------------------------------------------------------
   0   10703.4    934.3   0.218271611   6.71356   2.54564   0.01377   0.48277
   1   12068.8    828.6   0.032001342   0.87293   0.38886   0.24902   0.81222
   2   13959.4    716.4   0.098580411   2.32487  -0.98819   0.54859  -1.02343
   3   14739.4    678.5   0.167983070   3.75199  -1.62182   0.58741  -0.88127
   4   15780.2    633.7   0.210668110   4.39504   1.99031  -0.22264  -0.61978
   5   15887.5    629.4   0.000124323   0.00258   0.00943   0.00222   0.04982
   6   16553.0    604.1   0.008918425   0.17737  -0.24036   0.00732   0.34575
   7   17589.5    568.5   0.053288444   0.99737  -0.80182   0.32692  -0.49756
   8   18286.7    546.8   0.087124717   1.56849  -0.90418   0.12718  -0.85719
   9   18440.8    542.3   0.005713898   0.10201   0.21375  -0.04958   0.23208
  10   18724.6    534.1   0.144045042   2.53257   1.37525  -0.28790   0.74724
  11   19611.4    509.9   0.049650500   0.83347  -0.66931  -0.19408  -0.58977
  12   20778.8    481.3   0.049703824   0.78749   0.87496  -0.06760   0.13180
  13   21120.5    473.5   0.330851009   5.15708  -1.89821   0.71093  -1.02394
  14   21689.7    461.0   0.604629912   9.17722  -2.79365   0.37098   1.11137
  15   24314.1    411.3   0.022618433   0.30625  -0.55018   0.05695  -0.01779
  16   24942.3    400.9   0.518394682   6.84226  -2.60870   0.19149  -0.01592
  17   25456.4    392.8   0.171881346   2.22284   1.12434  -0.36810   0.90730
  18   25902.8    386.1   0.003716459   0.04723  -0.04569   0.09616  -0.18947
  19   26243.5    381.0   0.020717452   0.25989  -0.01114  -0.22525  -0.45719
  20   26344.1    379.6   0.285248470   3.56464  -1.78349   0.04692  -0.61773
  21   26577.1    376.3   0.137394895   1.70192  -1.29938   0.11618   0.00616
  22   26940.6    371.2   0.000835279   0.01021  -0.06880  -0.04437   0.05919
  23   27110.1    368.9   0.030106822   0.36560   0.60438  -0.01128  -0.01404
  24   27406.8    364.9   0.028096360   0.33749  -0.43390   0.07613  -0.37872
  25   27591.4    362.4   0.020734580   0.24740   0.35294  -0.00870   0.35036
  26   27855.9    359.0   0.109030501   1.28857   1.04777  -0.26685   0.34573
  27   28208.7    354.5   0.005861377   0.06841  -0.10641  -0.19502  -0.13802
  28   28531.0    350.5   0.015780415   0.18209   0.38973   0.03578   0.17005
  29   28713.9    348.3   0.193401163   2.21739  -1.01117   0.01724  -1.09299
  30   29528.6    338.7   0.009388437   0.10467  -0.10398  -0.06482   0.29943
  31   30053.0    332.7   0.008179106   0.08960   0.27499  -0.06060   0.10152
  32   30118.5    332.0   0.012409693   0.13564  -0.32132   0.02393  -0.17839
  33   30441.5    328.5   0.077391720   0.83696   0.85365  -0.31102  -0.10725
  34   30587.8    326.9   0.031283521   0.33670   0.44576  -0.19254   0.31769
  35   30784.7    324.8   0.389603397   4.16642  -1.73641   0.91385  -0.56228
  36   30900.6    323.6   0.103262065   1.10014   1.00793   0.23221  -0.17409
  37   31136.6    321.2   0.007750628   0.08195  -0.17034   0.12456  -0.19344
  38   31262.7    319.9   0.019727917   0.20774   0.30266  -0.10311  -0.32482
  39   31623.0    316.2   0.124999590   1.30131   0.91401   0.01532   0.68239
  40   31657.9    315.9   0.002389824   0.02485  -0.13619   0.00263  -0.07935
  41   31701.0    315.4   0.000591481   0.00614  -0.04906   0.06108   0.00222
  42   32065.2    311.9   0.021888868   0.22473   0.41481   0.22933  -0.00833
  43   32215.4    310.4   0.061059358   0.62397   0.10841   0.13371   0.77093
  44   32427.7    308.4   0.061445061   0.62380   0.66866  -0.35076  -0.23165
  45   32580.8    306.9   0.020748150   0.20965  -0.36505   0.01892   0.27574
  46   32974.8    303.3   0.009648407   0.09633   0.15305  -0.00945   0.26984
  47   32983.9    303.2   0.385041270   3.84310  -1.20419  -0.54507  -1.44772
  48   33330.7    300.0   0.011829022   0.11684   0.26669  -0.16348   0.13780
  49   33737.8    296.4   0.032641279   0.31851  -0.50413  -0.02056  -0.25286
  50   34039.4    293.8   0.081634820   0.78953   0.77015  -0.28680   0.33785
  51   34368.8    291.0   0.068609862   0.65720   0.08085  -0.73937  -0.32249
  52   34679.4    288.4   0.056293180   0.53439  -0.61993  -0.00476   0.38738
  53   34732.6    287.9   0.003681694   0.03490  -0.02231   0.04381   0.18022
  54   34902.3    286.5   0.001338689   0.01263  -0.06767  -0.02276   0.08678
  55   34931.4    286.3   0.010524739   0.09919  -0.22727   0.13770   0.16905
  56   35287.6    283.4   0.007438930   0.06940   0.17456  -0.03801   0.19361
  57   35557.3    281.2   0.009759769   0.09036  -0.24551  -0.02368   0.17183
  58   35740.4    279.8   0.002508199   0.02310  -0.13700  -0.00266   0.06579
  59   35864.8    278.8   0.354159522   3.25091   0.37871  -0.20045   1.75137
  60   35960.5    278.1   0.051703982   0.47334   0.33320  -0.00226   0.60192
  61   36068.0    277.3   0.061528514   0.56160  -0.63393   0.01416  -0.39942
  62   36273.9    275.7   0.019469851   0.17670  -0.16461   0.01119  -0.38663
  63   36444.1    274.4   0.007849915   0.07091   0.17424  -0.12261   0.15974
  64   36559.7    273.5   0.003609117   0.03250   0.06658  -0.10345   0.13177
  65   36631.6    273.0   0.251569585   2.26088   1.06049  -0.21243   1.04457
  66   37096.1    269.6   0.000519925   0.00461   0.02859  -0.00240   0.06157
  67   37490.4    266.7   0.059541323   0.52285   0.42685   0.06177  -0.58037
  68   37660.7    265.5   0.085162952   0.74445   0.34493  -0.74575  -0.26333
  69   37695.0    265.3   0.087623755   0.76527  -0.36753   0.73532   0.29915
  70   37789.0    264.6   0.001404281   0.01223  -0.07592   0.02102   0.07765
  71   37804.1    264.5   0.056341033   0.49064  -0.57806   0.12714   0.37459
  72   38002.8    263.1   0.027387966   0.23726   0.03348  -0.05028   0.48333
  73   38035.5    262.9   0.001568741   0.01358   0.01987  -0.07457   0.08731
  74   38287.4    261.2   0.255233714   2.19461  -0.50153   1.27258   0.56887
  75   38424.0    260.3   0.034502130   0.29561   0.40421  -0.32900   0.15489
  76   38911.4    257.0   0.001014659   0.00858   0.06855  -0.04107   0.04689
  77   39031.7    256.2   0.023590629   0.19897   0.25562   0.25929  -0.25769
  78   39116.8    255.6   0.001636044   0.01377  -0.02599  -0.04066  -0.10696
  79   39165.3    255.3   0.050984438   0.42856  -0.16699  -0.02433  -0.63252
  80   39308.0    254.4   0.059240136   0.49615  -0.19327  -0.65173  -0.18451
  81   39586.6    252.6   0.274510150   2.28289  -0.28476  -1.06254  -1.03577
  82   39718.4    251.8   0.008068182   0.06687   0.00063  -0.21885  -0.13776
  83   39980.2    250.1   0.000807706   0.00665   0.05397  -0.00561   0.06088

FINAL SINGLE POINT ENERGY     -4746.530313097842

DIPOLE MOMENT
-------------
                                X             Y             Z
Electronic contribution:     25.53293      -9.42833     -37.49582
Nuclear contribution   :    -26.48465       9.88749      36.27976
                        -----------------------------------------
Total Dipole Moment    :     -0.95172       0.45916      -1.21606
                        -----------------------------------------
Magnitude (a.u.)       :      1.61103
Magnitude (Debye)      :      4.09490

Rotational constants in cm-1:     0.001852     0.000216     0.000200
Rotational constants in MHz :    55.516497     6.467452     6.000931

                             ****ORCA TERMINATED NORMALLY****
TOTAL RUN TIME: 0 days 0 hours 17 minutes 20 seconds 154 msec
