                         Program Version 4.2.0 -  RELEASE  -
|  1> # ORCA input file
|  2> # SCF done       -180.946236995790          0.000659628595
|  3> ! CAM-B3LYP def2-SVP def2/J RIJCOSX Grid4 TightSCF
|  4> %maxcore 5000
|  5> %tddft
|  6>     Mode sTDDFT
|  7>     Ethresh 5.0
|  8>     maxcore 5000
|  9> end
| 10>
| 11> %pal
| 12>   nprocs 6
| 13>   end
| 14> * xyz 0 1
| 15>    C       -8.03439        -0.54324         2.05247
| 16>    C       -8.84177        -0.95731         3.10939
| 17>    C       -9.57483        -2.12881         3.03522
| 18>    C       -9.54119        -2.92282         1.89342
| 19>    C       -8.75655        -2.51160         0.83492
| 20>    C       -7.99316        -1.32284         0.91558
| 21>    C       -7.21067        -1.23317        -0.31818
| 22>    C       -6.01848        -0.57574        -0.45661
| 23>    C       -5.55206         0.38299         0.46658
| 24>    N       -5.14434         1.18321         1.18083
| 25>    C       -5.04242        -0.91540        -1.42137
| 26>    N       -4.15964        -1.25437        -2.07300
| 27>    C       -7.72064        -2.25885        -1.21170
| 28>    C       -8.57244        -3.07059        -0.49325
| 29>    C       -9.20566        -4.27726        -0.98619
| 30>    C       -9.67361        -4.34024        -2.31422
| 31>    N      -10.09108        -4.37938        -3.38251
| 32>    C       -9.31191        -5.39586        -0.28159
| 33>    N       -9.54004        -6.37349         0.36708
| 34>    C       -7.33212        -2.49642        -2.56829
| 35>    C       -6.88602        -1.62108        -3.47135
| 36>    C       -6.31807        -1.72777        -4.81410
| 37>    C       -6.17849        -0.39630        -5.04271
| 38>    S       -6.81713         0.18703        -3.49935
| 39>    C       -5.99207        -2.91798        -5.57363
| 40>    C       -5.68812        -2.89228        -6.87283
| 41>    C       -6.07728        -4.17265        -4.79145
| 42>    C       -7.04174        -5.10510        -5.07910
| 43>    C       -7.28865        -6.14851        -4.16293
| 44>    C       -8.27223        -7.14002        -4.15296
| 45>    C       -9.18487        -7.46372        -5.27751
| 46>    C       -8.91410        -8.89409        -5.79181
| 47>    N       -9.51607        -9.06711        -7.09993
| 48>    C      -10.67731        -7.22063        -4.93576
| 49>    N      -11.27834        -8.30427        -4.17493
| 50>    C       -8.17913        -7.80346        -2.86760
| 51>    C       -8.95745        -8.77203        -2.30058
| 52>    C       -8.67815        -9.23803        -0.98043
| 53>    C       -7.58777        -8.65919        -0.27519
| 54>    C       -6.79310        -7.69189        -0.85268
| 55>    C       -7.07721        -7.23659        -2.13631
| 56>    C       -6.51587        -6.21837        -2.94511
| 57>    C       -5.45354        -5.33422        -2.74378
| 58>    C       -5.24320        -4.32770        -3.65380
| 59>    C       -9.51077       -10.23829        -0.46603
| 60>    C       -9.38546       -10.88795         0.76387
| 61>    C      -10.24073       -11.86241         1.16102
| 62>    C      -10.37357       -12.80742         2.25081
| 63>    C      -11.41483       -13.52443         1.73122
| 64>    S      -11.63101       -12.57272         0.26269
| 65>    C       -9.59880       -13.00123         3.45752
| 66>    C       -8.84500       -12.05275         4.02993
| 67>    C       -9.77724       -14.31713         4.06425
| 68>    C       -8.82500       -15.15834         4.50897
| 69>    C       -9.09434       -16.34596         5.33017
| 70>    C      -10.25885       -17.05915         5.36317
| 71>    C      -11.37800       -16.79076         4.54500
| 72>    N      -12.30547       -16.63036         3.88784
| 73>    C      -10.46699       -18.19368         6.17720
| 74>    N      -10.69343       -19.11612         6.82059
| 75>    C       -7.87027       -16.63301         6.05443
| 76>    C       -6.83665       -15.80199         5.55815
| 77>    C       -5.55802       -15.87841         6.08989
| 78>    C       -5.31762       -16.78415         7.11042
| 79>    C       -6.32972       -17.60473         7.59319
| 80>    C       -7.61207       -17.53908         7.07318
| 81>    C       -7.36748       -14.99065         4.47701
| 82>    C       -6.64142       -14.36088         3.50809
| 83>    C       -5.23320       -14.25856         3.52576
| 84>    N       -4.09372       -14.12710         3.49952
| 85>    C       -7.18146       -13.81895         2.32139
| 86>    N       -7.52375       -13.42489         1.29933
| 87>    H       -7.47404         0.37522         2.12523
| 88>    H       -8.89472        -0.34966         3.99973
| 89>    H      -10.18682        -2.42993         3.87221
| 90>    H      -10.11405        -3.83675         1.83758
| 91>    H       -7.43638        -3.52208        -2.89237
| 92>    H       -5.79445         0.20756        -5.83915
| 93>    H       -5.66067        -1.97233        -7.42998
| 94>    H       -5.44564        -3.79528        -7.40504
| 95>    H       -7.66358        -4.98824        -5.95349
| 96>    H       -8.94899        -6.78898        -6.10515
| 97>    H       -9.25239        -9.62180        -5.04060
| 98>    H       -7.83312        -9.01245        -5.90914
| 99>    H      -10.52641        -9.11138        -7.03498
|100>    H       -9.19060        -9.91961        -7.53885
|101>    H      -11.20260        -7.03484        -5.88326
|102>    H      -10.73118        -6.30660        -4.34093
|103>    H      -11.57991        -9.05622        -4.78479
|104>    H      -12.08738        -7.97442        -3.66399
|105>    H       -9.81284        -9.16561        -2.82861
|106>    H       -8.96123        -7.21163         0.42277
|107>    H       -7.34690        -9.01955         0.71385
|108>    H       -5.96259        -7.27415        -0.30087
|109>    H       -4.83136        -5.41710        -1.86480
|110>    H       -4.46038        -3.60199        -3.48831
|111>    H      -10.33263       -10.56328        -1.09226
|112>    H       -8.56123       -10.64758         1.41984
|113>    H      -11.98594       -14.37939         2.03242
|114>    H       -8.78606       -11.05948         3.62577
|115>    H       -8.30950       -12.23769         4.94583
|116>    H      -10.81218       -14.60612         4.18923
|117>    H       -4.76554       -15.24325         5.72860
|118>    H       -4.32809       -16.85129         7.53585
|119>    H       -6.11629       -18.30326         8.38761
|120>    H       -8.38910       -18.17718         7.46154
|121> *
|122>
|123>                          ****END OF INPUT****

CARTESIAN COORDINATES (ANGSTROEM)
---------------------------------
  C     -8.034390   -0.543240    2.052470
  C     -8.841770   -0.957310    3.109390
  C     -9.574830   -2.128810    3.035220
  C     -9.541190   -2.922820    1.893420
  C     -8.756550   -2.511600    0.834920
  C     -7.993160   -1.322840    0.915580
  C     -7.210670   -1.233170   -0.318180
  C     -6.018480   -0.575740   -0.456610
  C     -5.552060    0.382990    0.466580
  N     -5.144340    1.183210    1.180830
  C     -5.042420   -0.915400   -1.421370
  N     -4.159640   -1.254370   -2.073000
  C     -7.720640   -2.258850   -1.211700
  C     -8.572440   -3.070590   -0.493250
  C     -9.205660   -4.277260   -0.986190
  C     -9.673610   -4.340240   -2.314220
  N    -10.091080   -4.379380   -3.382510
  C     -9.311910   -5.395860   -0.281590
  N     -9.540040   -6.373490    0.367080
  C     -7.332120   -2.496420   -2.568290
  C     -6.886020   -1.621080   -3.471350
  C     -6.318070   -1.727770   -4.814100
  C     -6.178490   -0.396300   -5.042710
  S     -6.817130    0.187030   -3.499350
  C     -5.992070   -2.917980   -5.573630
  C     -5.688120   -2.892280   -6.872830
  C     -6.077280   -4.172650   -4.791450
  C     -7.041740   -5.105100   -5.079100
  C     -7.288650   -6.148510   -4.162930
  C     -8.272230   -7.140020   -4.152960
  C     -9.184870   -7.463720   -5.277510
  C     -8.914100   -8.894090   -5.791810
  N     -9.516070   -9.067110   -7.099930
  C    -10.677310   -7.220630   -4.935760
  N    -11.278340   -8.304270   -4.174930
  C     -8.179130   -7.803460   -2.867600
  C     -8.957450   -8.772030   -2.300580
  C     -8.678150   -9.238030   -0.980430
  C     -7.587770   -8.659190   -0.275190
  C     -6.793100   -7.691890   -0.852680
  C     -7.077210   -7.236590   -2.136310
  C     -6.515870   -6.218370   -2.945110
  C     -5.453540   -5.334220   -2.743780
  C     -5.243200   -4.327700   -3.653800
  C     -9.510770  -10.238290   -0.466030
  C     -9.385460  -10.887950    0.763870
  C    -10.240730  -11.862410    1.161020
  C    -10.373570  -12.807420    2.250810
  C    -11.414830  -13.524430    1.731220
  S    -11.631010  -12.572720    0.262690
  C     -9.598800  -13.001230    3.457520
  C     -8.845000  -12.052750    4.029930
  C     -9.777240  -14.317130    4.064250
  C     -8.825000  -15.158340    4.508970
  C     -9.094340  -16.345960    5.330170
  C    -10.258850  -17.059150    5.363170
  C    -11.378000  -16.790760    4.545000
  N    -12.305470  -16.630360    3.887840
  C    -10.466990  -18.193680    6.177200
  N    -10.693430  -19.116120    6.820590
  C     -7.870270  -16.633010    6.054430
  C     -6.836650  -15.801990    5.558150
  C     -5.558020  -15.878410    6.089890
  C     -5.317620  -16.784150    7.110420
  C     -6.329720  -17.604730    7.593190
  C     -7.612070  -17.539080    7.073180
  C     -7.367480  -14.990650    4.477010
  C     -6.641420  -14.360880    3.508090
  C     -5.233200  -14.258560    3.525760
  N     -4.093720  -14.127100    3.499520
  C     -7.181460  -13.818950    2.321390
  N     -7.523750  -13.424890    1.299330
  H     -7.474040    0.375220    2.125230
  H     -8.894720   -0.349660    3.999730
  H    -10.186820   -2.429930    3.872210
  H    -10.114050   -3.836750    1.837580
  H     -7.436380   -3.522080   -2.892370
  H     -5.794450    0.207560   -5.839150
  H     -5.660670   -1.972330   -7.429980
  H     -5.445640   -3.795280   -7.405040
  H     -7.663580   -4.988240   -5.953490
  H     -8.948990   -6.788980   -6.105150
  H     -9.252390   -9.621800   -5.040600
  H     -7.833120   -9.012450   -5.909140
  H    -10.526410   -9.111380   -7.034980
  H     -9.190600   -9.919610   -7.538850
  H    -11.202600   -7.034840   -5.883260
  H    -10.731180   -6.306600   -4.340930
  H    -11.579910   -9.056220   -4.784790
  H    -12.087380   -7.974420   -3.663990
  H     -9.812840   -9.165610   -2.828610
  H     -8.961230   -7.211630    0.422770
  H     -7.346900   -9.019550    0.713850
  H     -5.962590   -7.274150   -0.300870
  H     -4.831360   -5.417100   -1.864800
  H     -4.460380   -3.601990   -3.488310
  H    -10.332630  -10.563280   -1.092260
  H     -8.561230  -10.647580    1.419840
  H    -11.985940  -14.379390    2.032420
  H     -8.786060  -11.059480    3.625770
  H     -8.309500  -12.237690    4.945830
  H    -10.812180  -14.606120    4.189230
  H     -4.765540  -15.243250    5.728600
  H     -4.328090  -16.851290    7.535850
  H     -6.116290  -18.303260    8.387610
  H     -8.389100  -18.177180    7.461540

 Total Charge           Charge          ....    0
 Multiplicity           Mult            ....    1
 Number of Electrons    NEL             ....  496
 Basis Dimension        Dim             .... 1186

ORBITAL ENERGIES
----------------

  NO   OCC          E(Eh)            E(eV)
   0   2.0000     -88.941924     -2420.2328
   1   2.0000     -88.923796     -2419.7395
   2   2.0000     -14.462543      -393.5458
   3   2.0000     -14.439762      -392.9259
   4   2.0000     -14.435273      -392.8038
   5   2.0000     -14.435074      -392.7983
   6   2.0000     -14.430592      -392.6764
   7   2.0000     -14.414409      -392.2360
   8   2.0000     -14.404239      -391.9593
   9   2.0000     -14.402104      -391.9012
  10   2.0000     -14.392565      -391.6416
  11   2.0000     -14.380825      -391.3221
  12   2.0000     -10.384634      -282.5802
  13   2.0000     -10.368233      -282.1340
  14   2.0000     -10.367456      -282.1128
  15   2.0000     -10.364716      -282.0383
  16   2.0000     -10.362428      -281.9760
  17   2.0000     -10.346632      -281.5462
  18   2.0000     -10.341881      -281.4169
  19   2.0000     -10.338765      -281.3321
  20   2.0000     -10.337231      -281.2903
  21   2.0000     -10.336935      -281.2823
  22   2.0000     -10.336282      -281.2645
  23   2.0000     -10.332639      -281.1654
  24   2.0000     -10.331601      -281.1371
  25   2.0000     -10.329469      -281.0791
  26   2.0000     -10.328907      -281.0638
  27   2.0000     -10.322950      -280.9018
  28   2.0000     -10.321406      -280.8597
  29   2.0000     -10.319796      -280.8159
  30   2.0000     -10.317764      -280.7606
  31   2.0000     -10.316116      -280.7158
  32   2.0000     -10.315607      -280.7019
  33   2.0000     -10.315415      -280.6967
  34   2.0000     -10.314662      -280.6762
  35   2.0000     -10.314200      -280.6636
  36   2.0000     -10.313919      -280.6560
  37   2.0000     -10.311423      -280.5881
  38   2.0000     -10.309750      -280.5426
  39   2.0000     -10.301929      -280.3297
  40   2.0000     -10.300156      -280.2815
  41   2.0000     -10.295480      -280.1543
  42   2.0000     -10.295148      -280.1452
  43   2.0000     -10.295001      -280.1412
  44   2.0000     -10.294448      -280.1262
  45   2.0000     -10.293692      -280.1056
  46   2.0000     -10.291341      -280.0416
  47   2.0000     -10.290889      -280.0293
  48   2.0000     -10.290171      -280.0098
  49   2.0000     -10.287319      -279.9322
  50   2.0000     -10.285694      -279.8880
  51   2.0000     -10.285593      -279.8852
  52   2.0000     -10.283695      -279.8336
  53   2.0000     -10.281493      -279.7736
  54   2.0000     -10.280185      -279.7380
  55   2.0000     -10.279525      -279.7201
  56   2.0000     -10.278350      -279.6881
  57   2.0000     -10.276718      -279.6437
  58   2.0000     -10.274292      -279.5777
  59   2.0000     -10.272672      -279.5336
  60   2.0000     -10.271992      -279.5151
  61   2.0000     -10.267318      -279.3879
  62   2.0000     -10.266585      -279.3680
  63   2.0000     -10.265609      -279.3414
  64   2.0000     -10.264476      -279.3106
  65   2.0000     -10.264158      -279.3020
  66   2.0000     -10.260840      -279.2116
  67   2.0000     -10.260831      -279.2114
  68   2.0000     -10.259051      -279.1630
  69   2.0000     -10.257269      -279.1145
  70   2.0000     -10.252535      -278.9857
  71   2.0000     -10.248506      -278.8760
  72   2.0000      -8.038208      -218.7308
  73   2.0000      -8.019341      -218.2174
  74   2.0000      -6.008066      -163.4878
  75   2.0000      -6.004827      -163.3997
  76   2.0000      -5.998024      -163.2145
  77   2.0000      -5.989389      -162.9796
  78   2.0000      -5.986046      -162.8886
  79   2.0000      -5.979002      -162.6969
  80   2.0000      -1.055796       -28.7297
  81   2.0000      -1.051987       -28.6260
  82   2.0000      -1.032738       -28.1022
  83   2.0000      -1.022045       -27.8112
  84   2.0000      -1.018353       -27.7108
  85   2.0000      -1.015195       -27.6249
  86   2.0000      -1.011596       -27.5269
  87   2.0000      -1.001308       -27.2470
  88   2.0000      -1.000109       -27.2144
  89   2.0000      -0.989952       -26.9380
  90   2.0000      -0.987564       -26.8730
  91   2.0000      -0.983973       -26.7753
  92   2.0000      -0.975686       -26.5498
  93   2.0000      -0.975338       -26.5403
  94   2.0000      -0.970897       -26.4194
  95   2.0000      -0.956186       -26.0192
  96   2.0000      -0.952989       -25.9322
  97   2.0000      -0.944661       -25.7055
  98   2.0000      -0.940494       -25.5922
  99   2.0000      -0.935499       -25.4562
 100   2.0000      -0.927967       -25.2513
 101   2.0000      -0.915352       -24.9080
 102   2.0000      -0.909639       -24.7525
 103   2.0000      -0.889561       -24.2062
 104   2.0000      -0.887186       -24.1416
 105   2.0000      -0.881524       -23.9875
 106   2.0000      -0.874737       -23.8028
 107   2.0000      -0.870973       -23.7004
 108   2.0000      -0.864136       -23.5143
 109   2.0000      -0.850972       -23.1561
 110   2.0000      -0.849268       -23.1098
 111   2.0000      -0.834790       -22.7158
 112   2.0000      -0.823297       -22.4031
 113   2.0000      -0.808682       -22.0054
 114   2.0000      -0.806618       -21.9492
 115   2.0000      -0.802823       -21.8459
 116   2.0000      -0.798692       -21.7335
 117   2.0000      -0.786990       -21.4151
 118   2.0000      -0.777827       -21.1657
 119   2.0000      -0.758249       -20.6330
 120   2.0000      -0.754528       -20.5317
 121   2.0000      -0.749218       -20.3873
 122   2.0000      -0.733086       -19.9483
 123   2.0000      -0.732238       -19.9252
 124   2.0000      -0.729783       -19.8584
 125   2.0000      -0.723974       -19.7003
 126   2.0000      -0.721077       -19.6215
 127   2.0000      -0.713754       -19.4222
 128   2.0000      -0.708107       -19.2686
 129   2.0000      -0.696891       -18.9634
 130   2.0000      -0.694299       -18.8928
 131   2.0000      -0.688964       -18.7477
 132   2.0000      -0.686774       -18.6881
 133   2.0000      -0.682031       -18.5590
 134   2.0000      -0.675678       -18.3861
 135   2.0000      -0.671853       -18.2821
 136   2.0000      -0.663918       -18.0661
 137   2.0000      -0.660327       -17.9684
 138   2.0000      -0.656081       -17.8529
 139   2.0000      -0.654411       -17.8074
 140   2.0000      -0.646305       -17.5868
 141   2.0000      -0.637026       -17.3344
 142   2.0000      -0.633646       -17.2424
 143   2.0000      -0.623350       -16.9622
 144   2.0000      -0.619412       -16.8551
 145   2.0000      -0.611095       -16.6287
 146   2.0000      -0.609138       -16.5755
 147   2.0000      -0.603245       -16.4151
 148   2.0000      -0.597970       -16.2716
 149   2.0000      -0.596598       -16.2342
 150   2.0000      -0.585089       -15.9211
 151   2.0000      -0.583051       -15.8656
 152   2.0000      -0.575292       -15.6545
 153   2.0000      -0.570755       -15.5310
 154   2.0000      -0.567087       -15.4312
 155   2.0000      -0.565184       -15.3794
 156   2.0000      -0.564157       -15.3515
 157   2.0000      -0.561270       -15.2729
 158   2.0000      -0.554864       -15.0986
 159   2.0000      -0.552590       -15.0367
 160   2.0000      -0.551874       -15.0173
 161   2.0000      -0.544063       -14.8047
 162   2.0000      -0.538964       -14.6660
 163   2.0000      -0.534793       -14.5525
 164   2.0000      -0.529661       -14.4128
 165   2.0000      -0.526473       -14.3261
 166   2.0000      -0.525810       -14.3080
 167   2.0000      -0.524351       -14.2683
 168   2.0000      -0.522337       -14.2135
 169   2.0000      -0.519993       -14.1497
 170   2.0000      -0.519539       -14.1374
 171   2.0000      -0.515600       -14.0302
 172   2.0000      -0.514588       -14.0026
 173   2.0000      -0.512604       -13.9487
 174   2.0000      -0.509046       -13.8518
 175   2.0000      -0.506567       -13.7844
 176   2.0000      -0.503408       -13.6984
 177   2.0000      -0.503243       -13.6939
 178   2.0000      -0.496995       -13.5239
 179   2.0000      -0.494448       -13.4546
 180   2.0000      -0.492928       -13.4133
 181   2.0000      -0.488600       -13.2955
 182   2.0000      -0.486704       -13.2439
 183   2.0000      -0.484197       -13.1757
 184   2.0000      -0.479902       -13.0588
 185   2.0000      -0.479451       -13.0465
 186   2.0000      -0.475374       -12.9356
 187   2.0000      -0.471869       -12.8402
 188   2.0000      -0.470362       -12.7992
 189   2.0000      -0.468852       -12.7581
 190   2.0000      -0.466492       -12.6939
 191   2.0000      -0.466239       -12.6870
 192   2.0000      -0.464734       -12.6461
 193   2.0000      -0.463597       -12.6151
 194   2.0000      -0.463398       -12.6097
 195   2.0000      -0.460733       -12.5372
 196   2.0000      -0.458077       -12.4649
 197   2.0000      -0.454721       -12.3736
 198   2.0000      -0.453103       -12.3296
 199   2.0000      -0.451640       -12.2898
 200   2.0000      -0.449049       -12.2193
 201   2.0000      -0.447846       -12.1865
 202   2.0000      -0.446501       -12.1499
 203   2.0000      -0.444678       -12.1003
 204   2.0000      -0.444157       -12.0861
 205   2.0000      -0.442669       -12.0456
 206   2.0000      -0.441293       -12.0082
 207   2.0000      -0.440461       -11.9855
 208   2.0000      -0.438776       -11.9397
 209   2.0000      -0.437517       -11.9054
 210   2.0000      -0.436227       -11.8704
 211   2.0000      -0.430752       -11.7214
 212   2.0000      -0.429822       -11.6960
 213   2.0000      -0.429150       -11.6778
 214   2.0000      -0.426811       -11.6141
 215   2.0000      -0.426443       -11.6041
 216   2.0000      -0.421522       -11.4702
 217   2.0000      -0.417153       -11.3513
 218   2.0000      -0.414689       -11.2843
 219   2.0000      -0.411597       -11.2001
 220   2.0000      -0.406350       -11.0573
 221   2.0000      -0.404384       -11.0038
 222   2.0000      -0.402110       -10.9420
 223   2.0000      -0.400668       -10.9027
 224   2.0000      -0.397518       -10.8170
 225   2.0000      -0.394014       -10.7217
 226   2.0000      -0.392355       -10.6765
 227   2.0000      -0.387713       -10.5502
 228   2.0000      -0.383762       -10.4427
 229   2.0000      -0.376301       -10.2397
 230   2.0000      -0.369477       -10.0540
 231   2.0000      -0.360387        -9.8066
 232   2.0000      -0.354744        -9.6531
 233   2.0000      -0.351792        -9.5728
 234   2.0000      -0.349176        -9.5016
 235   2.0000      -0.338927        -9.2227
 236   2.0000      -0.331578        -9.0227
 237   2.0000      -0.326091        -8.8734
 238   2.0000      -0.319238        -8.6869
 239   2.0000      -0.317728        -8.6458
 240   2.0000      -0.312169        -8.4946
 241   2.0000      -0.305988        -8.3263
 242   2.0000      -0.300825        -8.1859
 243   2.0000      -0.282831        -7.6962
 244   2.0000      -0.275531        -7.4976
 245   2.0000      -0.261635        -7.1195
 246   2.0000      -0.252343        -6.8666
 247   2.0000      -0.209475        -5.7001
 248   0.0000      -0.103688        -2.8215
 249   0.0000      -0.101563        -2.7637
 250   0.0000      -0.099540        -2.7086
 251   0.0000      -0.088858        -2.4180
 252   0.0000      -0.030363        -0.8262

MULLIKEN ATOMIC CHARGES
-----------------------
   0 C :   -0.031904
   1 C :    0.034383
   2 C :    0.044907
   3 C :   -0.065850
   4 C :    0.062791
   5 C :   -0.007529
   6 C :    0.229912
   7 C :   -0.288109
   8 C :   -0.168307
   9 N :    0.151851
  10 C :   -0.188622
  11 N :    0.152097
  12 C :   -0.012540
  13 C :    0.170819
  14 C :   -0.441831
  15 C :   -0.133705
  16 N :    0.106966
  17 C :    0.074892
  18 N :    0.144860
  19 C :   -0.061249
  20 C :   -0.068871
  21 C :    0.159952
  22 C :   -0.079129
  23 S :    0.030807
  24 C :    0.030819
  25 C :   -0.034113
  26 C :   -0.076805
  27 C :   -0.004501
  28 C :    0.024074
  29 C :    0.010338
  30 C :    0.001147
  31 C :    0.099226
  32 N :   -0.207697
  33 C :    0.098173
  34 N :   -0.212057
  35 C :    0.047036
  36 C :   -0.058382
  37 C :    0.121200
  38 C :   -0.126260
  39 C :   -0.020516
  40 C :    0.026614
  41 C :    0.082755
  42 C :   -0.062330
  43 C :    0.044764
  44 C :   -0.048406
  45 C :    0.031564
  46 C :   -0.015378
  47 C :    0.107299
  48 C :   -0.071054
  49 S :    0.035385
  50 C :   -0.046978
  51 C :    0.010566
  52 C :   -0.010233
  53 C :   -0.038913
  54 C :    0.273315
  55 C :   -0.328248
  56 C :   -0.176485
  57 N :    0.158397
  58 C :   -0.187773
  59 N :    0.168426
  60 C :    0.012890
  61 C :    0.011280
  62 C :   -0.029861
  63 C :    0.051086
  64 C :    0.048187
  65 C :   -0.028987
  66 C :    0.239221
  67 C :   -0.321998
  68 C :   -0.195978
  69 N :    0.171942
  70 C :   -0.175701
  71 N :    0.193340
  72 H :    0.000290
  73 H :   -0.005808
  74 H :   -0.008327
  75 H :   -0.017578
  76 H :    0.046662
  77 H :    0.014723
  78 H :    0.002285
  79 H :    0.014439
  80 H :   -0.030054
  81 H :   -0.014587
  82 H :   -0.010838
  83 H :    0.009260
  84 H :    0.080477
  85 H :    0.096339
  86 H :   -0.002041
  87 H :    0.014466
  88 H :    0.091412
  89 H :    0.105892
  90 H :   -0.038599
  91 H :    0.159698
  92 H :   -0.034086
  93 H :   -0.033410
  94 H :   -0.036086
  95 H :    0.000443
  96 H :   -0.009112
  97 H :   -0.006113
  98 H :    0.031833
  99 H :    0.027225
 100 H :    0.027364
 101 H :    0.046424
 102 H :    0.009958
 103 H :    0.009964
 104 H :    0.010235
 105 H :    0.010274
Sum of atomic charges:   -0.0000000

LOEWDIN ATOMIC CHARGES
----------------------
   0 C :    0.003044
   1 C :   -0.017248
   2 C :   -0.007616
   3 C :   -0.020207
   4 C :   -0.010413
   5 C :   -0.021294
   6 C :    0.073365
   7 C :   -0.107349
   8 C :   -0.014461
   9 N :   -0.041722
  10 C :   -0.029501
  11 N :   -0.050522
  12 C :   -0.039237
  13 C :    0.035851
  14 C :   -0.195014
  15 C :   -0.007319
  16 N :   -0.071562
  17 C :    0.168064
  18 N :    0.016412
  19 C :   -0.038186
  20 C :   -0.082398
  21 C :   -0.072893
  22 C :   -0.090765
  23 S :    0.290938
  24 C :   -0.017984
  25 C :   -0.038915
  26 C :   -0.040086
  27 C :    0.007500
  28 C :   -0.042046
  29 C :    0.030238
  30 C :   -0.038815
  31 C :    0.025079
  32 N :   -0.114571
  33 C :    0.021407
  34 N :   -0.091739
  35 C :   -0.029003
  36 C :    0.070069
  37 C :   -0.035085
  38 C :   -0.127057
  39 C :    0.014663
  40 C :   -0.091205
  41 C :    0.000408
  42 C :   -0.032814
  43 C :    0.008365
  44 C :    0.006706
  45 C :   -0.033322
  46 C :   -0.075055
  47 C :   -0.092615
  48 C :   -0.089667
  49 S :    0.292568
  50 C :   -0.033989
  51 C :   -0.018830
  52 C :    0.080147
  53 C :   -0.039301
  54 C :    0.080995
  55 C :   -0.125810
  56 C :   -0.016712
  57 N :   -0.043798
  58 C :   -0.019917
  59 N :   -0.035999
  60 C :   -0.014150
  61 C :   -0.009040
  62 C :    0.004262
  63 C :    0.009906
  64 C :    0.006462
  65 C :    0.007920
  66 C :    0.068273
  67 C :   -0.115461
  68 C :   -0.019412
  69 N :   -0.035547
  70 C :   -0.017768
  71 N :   -0.027647
  72 H :    0.038369
  73 H :    0.032669
  74 H :    0.031730
  75 H :    0.032119
  76 H :    0.051574
  77 H :    0.018253
  78 H :    0.019985
  79 H :    0.024680
  80 H :    0.030037
  81 H :    0.032926
  82 H :   -0.000965
  83 H :    0.024685
  84 H :    0.045828
  85 H :    0.057008
  86 H :    0.006447
  87 H :    0.023847
  88 H :    0.049058
  89 H :    0.061216
  90 H :    0.020529
  91 H :    0.093288
  92 H :    0.017670
  93 H :    0.029983
  94 H :    0.027141
  95 H :    0.035350
  96 H :    0.027860
  97 H :    0.033931
  98 H :    0.023513
  99 H :    0.027774
 100 H :    0.026660
 101 H :    0.049410
 102 H :    0.042553
 103 H :    0.040189
 104 H :    0.040118
 105 H :    0.042990

  Mayer bond orders larger than 0.100000
B(  0-C ,  1-C ) :   1.3256 B(  0-C ,  5-C ) :   1.4205 B(  0-C , 72-H ) :   0.9883
B(  1-C ,  2-C ) :   1.4231 B(  1-C , 73-H ) :   0.9850 B(  2-C ,  3-C ) :   1.3300
B(  2-C , 74-H ) :   0.9858 B(  3-C ,  4-C ) :   1.4122 B(  3-C , 75-H ) :   0.9943
B(  4-C ,  5-C ) :   1.3059 B(  4-C , 13-C ) :   1.0351 B(  5-C ,  6-C ) :   0.9858
B(  6-C ,  7-C ) :   1.6590 B(  6-C , 12-C ) :   1.0412 B(  7-C ,  8-C ) :   1.1364
B(  7-C , 10-C ) :   1.1253 B(  8-C ,  9-N ) :   2.9947 B( 10-C , 11-N ) :   2.9908
B( 12-C , 13-C ) :   1.5680 B( 12-C , 19-C ) :   1.1046 B( 13-C , 14-C ) :   1.0275
B( 14-C , 15-C ) :   1.1505 B( 14-C , 17-C ) :   1.6599 B( 15-C , 16-N ) :   2.8818
B( 17-C , 18-N ) :   2.2627 B( 18-N , 91-H ) :   0.8651 B( 19-C , 20-C ) :   1.7932
B( 19-C , 22-C ) :   0.1002 B( 19-C , 76-H ) :   0.9097 B( 20-C , 21-C ) :   1.0426
B( 20-C , 23-S ) :   0.9778 B( 21-C , 22-C ) :   1.5955 B( 21-C , 24-C ) :   1.0456
B( 22-C , 23-S ) :   1.0113 B( 22-C , 77-H ) :   0.9914 B( 24-C , 25-C ) :   1.9801
B( 24-C , 26-C ) :   0.9340 B( 25-C , 78-H ) :   0.9402 B( 25-C , 79-H ) :   0.9381
B( 26-C , 27-C ) :   1.5630 B( 26-C , 43-C ) :   1.2092 B( 27-C , 28-C ) :   1.1527
B( 27-C , 80-H ) :   0.9953 B( 28-C , 29-C ) :   1.4199 B( 28-C , 41-C ) :   1.1672
B( 29-C , 30-C ) :   1.0409 B( 29-C , 35-C ) :   1.0894 B( 30-C , 31-C ) :   1.0369
B( 30-C , 33-C ) :   1.0143 B( 30-C , 81-H ) :   0.8711 B( 31-C , 32-N ) :   1.1079
B( 31-C , 82-H ) :   0.9402 B( 31-C , 83-H ) :   0.9414 B( 32-N , 84-H ) :   0.9738
B( 32-N , 85-H ) :   0.9680 B( 33-C , 34-N ) :   1.0810 B( 33-C , 86-H ) :   0.9416
B( 33-C , 87-H ) :   0.9318 B( 34-N , 88-H ) :   0.9660 B( 34-N , 89-H ) :   0.9662
B( 34-N , 90-H ) :   0.1590 B( 35-C , 36-C ) :   1.4648 B( 35-C , 40-C ) :   1.1262
B( 36-C , 37-C ) :   1.0917 B( 36-C , 90-H ) :   0.9610 B( 37-C , 38-C ) :   1.1443
B( 37-C , 44-C ) :   1.4195 B( 38-C , 39-C ) :   1.4456 B( 38-C , 92-H ) :   0.9851
B( 39-C , 40-C ) :   1.2452 B( 39-C , 93-H ) :   1.0017 B( 40-C , 41-C ) :   1.2237
B( 41-C , 42-C ) :   1.2150 B( 42-C , 43-C ) :   1.4963 B( 42-C , 94-H ) :   1.0040
B( 43-C , 95-H ) :   0.9844 B( 44-C , 45-C ) :   1.1764 B( 44-C , 96-H ) :   0.9862
B( 45-C , 46-C ) :   1.6678 B( 45-C , 97-H ) :   0.9440 B( 46-C , 47-C ) :   1.0739
B( 46-C , 49-S ) :   0.9884 B( 47-C , 48-C ) :   1.5722 B( 47-C , 50-C ) :   1.0286
B( 48-C , 49-S ) :   1.0293 B( 48-C , 98-H ) :   0.9854 B( 50-C , 51-C ) :   1.9178
B( 50-C , 52-C ) :   0.9900 B( 51-C , 99-H ) :   0.9406 B( 51-C ,100-H ) :   0.9386
B( 52-C , 53-C ) :   1.7911 B( 52-C ,101-H ) :   0.9212 B( 53-C , 54-C ) :   0.9995
B( 53-C , 66-C ) :   0.9775 B( 54-C , 55-C ) :   1.6766 B( 54-C , 60-C ) :   1.0145
B( 55-C , 56-C ) :   1.1393 B( 55-C , 58-C ) :   1.1356 B( 56-C , 57-N ) :   2.9725
B( 58-C , 59-N ) :   2.9876 B( 60-C , 61-C ) :   1.3039 B( 60-C , 65-C ) :   1.3710
B( 61-C , 62-C ) :   1.3762 B( 61-C , 66-C ) :   1.0177 B( 62-C , 63-C ) :   1.3736
B( 62-C ,102-H ) :   0.9865 B( 63-C , 64-C ) :   1.3665 B( 63-C ,103-H ) :   0.9868
B( 64-C , 65-C ) :   1.3791 B( 64-C ,104-H ) :   0.9871 B( 65-C ,105-H ) :   0.9855
B( 66-C , 67-C ) :   1.6935 B( 67-C , 68-C ) :   1.1361 B( 67-C , 70-C ) :   1.1505
B( 68-C , 69-N ) :   2.9951 B( 70-C , 71-N ) :   2.9939

-----------------------------------------------------------------------------
         ABSORPTION SPECTRUM VIA TRANSITION ELECTRIC DIPOLE MOMENTS
-----------------------------------------------------------------------------
State   Energy  Wavelength   fosc         T2         TX        TY        TZ
        (cm-1)    (nm)                  (au**2)     (au)      (au)      (au)
-----------------------------------------------------------------------------
   0    6778.4   1475.3   0.106397014   5.16749  -0.49544  -1.47349   1.65857
   1   11287.9    885.9   0.039726622   1.15863  -0.13713  -1.05314  -0.17527
   2   11537.9    866.7   0.000374548   0.01069  -0.06373  -0.06381  -0.05052
   3   13054.6    766.0   0.002288225   0.05770  -0.00328  -0.19643   0.13823
   4   17085.7    585.3   0.044638392   0.86011   0.42145   0.39878  -0.72351
   5   18064.9    553.6   0.035193748   0.64137   0.58453   0.50538  -0.21045
   6   18705.3    534.6   0.003877826   0.06825  -0.06275   0.23833   0.08667
   7   19780.2    505.6   0.428113392   7.12530  -1.11265  -2.13061   1.16095
   8   20148.2    496.3   0.099577207   1.62705   0.43180   1.09131  -0.49965
   9   20970.2    476.9   0.013083674   0.20540   0.18204   0.23503   0.34209
  10   22057.9    453.4   0.060580096   0.90415  -0.49739  -0.61949   0.52248
  11   22581.0    442.9   0.011435517   0.16672  -0.22129  -0.33695   0.06493
  12   23379.6    427.7   0.005669358   0.07983   0.25775   0.11377  -0.02123
  13   24709.4    404.7   0.079531155   1.05962  -0.57953  -0.83440   0.16597
  14   24931.4    401.1   0.254125500   3.35566   1.15737   1.39440  -0.26794
  15   25079.7    398.7   0.001493163   0.01960   0.10155   0.03930  -0.08799
  16   25435.4    393.2   0.213370126   2.76166   0.42245   1.22688  -1.03825
  17   25903.3    386.1   0.000008841   0.00011   0.00160   0.00780  -0.00699
  18   26384.1    379.0   0.011729792   0.14636  -0.17087  -0.27784   0.19992
  19   26600.4    375.9   0.001382733   0.01711  -0.06320  -0.08804   0.07327
  20   26683.3    374.8   0.018763834   0.23150  -0.14540  -0.37339   0.26635
  21   26876.1    372.1   0.008990127   0.11012  -0.13400   0.18984   0.23691
  22   27274.3    366.6   0.175831329   2.12235  -0.43695  -0.93886   1.02468
  23   27762.2    360.2   0.061290459   0.72680  -0.39483   0.06779   0.75254
  24   28412.5    352.0   0.049409669   0.57250   0.22801   0.71451   0.09997
  25   28640.8    349.2   0.464963364   5.34452   1.30397   1.66082  -0.94121
  26   28839.8    346.7   0.004605283   0.05257  -0.12847  -0.18696   0.03335
  27   28963.5    345.3   0.262265079   2.98102   1.19393   1.24688   0.02905
  28   29557.6    338.3   0.047912498   0.53365  -0.57498  -0.35692   0.27506
  29   30128.0    331.9   0.435587959   4.75971  -1.63888  -1.19171   0.80847
  30   30244.3    330.6   0.054097825   0.58886  -0.75237   0.07894  -0.12871
  31   30546.4    327.4   0.013060995   0.14076   0.00554   0.37107   0.05515
  32   31127.5    321.3   0.172431845   1.82368   0.37939   1.21825  -0.44227
  33   31443.1    318.0   0.017096139   0.17900  -0.26722  -0.22329   0.24028
  34   32696.7    305.8   0.388122512   3.90787  -0.67637  -0.16422   1.85025
  35   32848.1    304.4   0.120533042   1.20801   0.29881   0.15239  -1.04666
  36   33461.5    298.9   0.182351242   1.79407  -0.01772   0.95376  -0.94026
  37   33711.3    296.6   0.066655718   0.65094  -0.11217  -0.63650   0.48292
  38   33940.2    294.6   0.064698114   0.62756  -0.33010  -0.47862   0.53807
  39   34001.9    294.1   0.083771361   0.81109  -0.41428  -0.53928   0.59045
  40   34147.5    292.8   0.003506159   0.03380   0.03669  -0.17692   0.03402
  41   34344.6    291.2   0.012285778   0.11777   0.15451  -0.26920  -0.14638
  42   34429.4    290.4   0.003346511   0.03200  -0.09402  -0.14835   0.03395
  43   34526.2    289.6   0.024521887   0.23382  -0.06499  -0.15454  -0.45356
  44   35155.5    284.5   0.065449330   0.61290  -0.12291  -0.54450   0.54891
  45   35317.2    283.1   0.144574961   1.34767   0.64374   0.53439  -0.80479
  46   35400.7    282.5   0.051720461   0.48098  -0.14572  -0.24678   0.63154
  47   35407.3    282.4   0.111679222   1.03838   0.61484   0.59663  -0.55170
  48   35900.5    278.5   0.013526597   0.12404   0.02431  -0.08230   0.34158
  49   36377.7    274.9   0.102130331   0.92426   0.59571  -0.22245   0.72105
  50   36429.5    274.5   0.038315939   0.34626  -0.22357   0.03826   0.54297
  51   36490.8    274.0   0.047759535   0.43088   0.33640   0.25219  -0.50410
  52   36645.1    272.9   0.170292482   1.52987  -0.95537   0.33733  -0.70947
  53   36780.3    271.9   0.018475233   0.16537  -0.40008  -0.02272  -0.06917
  54   36855.1    271.3   0.016766394   0.14977   0.07249  -0.19004   0.32924
  55   36924.4    270.8   0.404493344   3.60639  -1.36789   0.58528  -1.18013
  56   37296.9    268.1   0.028230545   0.24919   0.37484  -0.15521   0.29085
  57   37376.7    267.5   0.001831268   0.01613   0.09961   0.02062  -0.07604
  58   37635.4    265.7   0.001603335   0.01403   0.08128  -0.03553   0.07846
  59   37710.8    265.2   0.003967719   0.03464  -0.00008   0.06589  -0.17406
  60   37734.1    265.0   0.014402944   0.12566   0.03952  -0.21207   0.28129
  61   37927.0    263.7   0.083013894   0.72057   0.38279  -0.35134   0.67127
  62   37999.9    263.2   0.042687231   0.36982   0.58598   0.10673  -0.12270
  63   38354.8    260.7   0.008647175   0.07422   0.16495   0.09959  -0.19260
  64   38732.7    258.2   0.110218494   0.93681  -0.67945   0.30450  -0.61842
  65   38809.8    257.7   0.011077961   0.09397   0.15462   0.23331  -0.12502
  66   39026.0    256.2   0.014405154   0.12152   0.27663  -0.10575   0.18388
  67   39536.5    252.9   0.033621976   0.27996  -0.43180  -0.30559   0.01140
  68   39668.4    252.1   0.023001003   0.19089  -0.26130   0.29072  -0.19517
  69   39771.1    251.4   0.075455130   0.62459  -0.46658  -0.54457  -0.33217
  70   40314.0    248.1   0.016397644   0.13391  -0.06781  -0.26017  -0.24823

FINAL SINGLE POINT ENERGY     -3646.393317434320

DIPOLE MOMENT
-------------
                                X             Y             Z
Electronic contribution:      6.13629      -3.99787      34.86660
Nuclear contribution   :     -7.37635       1.26822     -32.63234
                        -----------------------------------------
Total Dipole Moment    :     -1.24006      -2.72966       2.23426
                        -----------------------------------------
Magnitude (a.u.)       :      3.73908
Magnitude (Debye)      :      9.50399

Rotational constants in cm-1:     0.001729     0.000375     0.000348
Rotational constants in MHz :    51.822219    11.256172    10.429818

                             ****ORCA TERMINATED NORMALLY****
TOTAL RUN TIME: 0 days 0 hours 12 minutes 19 seconds 389 msec
