                         Program Version 4.2.0 -  RELEASE  -
|  1> # ORCA input file
|  2> # SCF done       -205.054370027029          0.000791013062
|  3> ! CAM-B3LYP def2-SVP def2/J RIJCOSX Grid4 TightSCF
|  4> %maxcore 5000
|  5> %tddft
|  6>     Mode sTDDFT
|  7>     Ethresh 5.0
|  8>     maxcore 5000
|  9> end
| 10>
| 11> %pal
| 12>   nprocs 6
| 13>   end
| 14> * xyz 0 1
| 15>    C       -8.72300         2.93140        -3.95280
| 16>    C       -8.63262         1.86761        -4.80384
| 17>    C       -9.74213         1.26229        -5.43530
| 18>    N      -10.60272         0.72596        -5.97179
| 19>    C       -7.42768         1.23800        -5.18775
| 20>    N       -6.48846         0.69529        -5.56157
| 21>    C       -9.93764         3.64345        -3.58468
| 22>    C       -9.60195         4.72541        -2.71673
| 23>    C      -10.55064         5.58262        -2.23248
| 24>    C      -11.90068         5.39599        -2.59971
| 25>    C      -12.24538         4.31459        -3.46312
| 26>    C      -11.24462         3.44303        -3.94760
| 27>    C      -13.59671         4.13891        -3.82527
| 28>    C      -14.56181         4.99030        -3.36041
| 29>    C      -14.22152         6.05461        -2.51132
| 30>    C      -12.91982         6.25297        -2.13842
| 31>    C       -8.15620         4.73979        -2.48538
| 32>    O       -7.51477         5.50545        -1.79752
| 33>    C       -7.61085         3.59402        -3.27886
| 34>    C       -6.30693         3.27436        -3.30829
| 35>    C       -5.27461         4.03877        -2.62030
| 36>    C       -4.46686         3.43820        -1.65253
| 37>    C       -4.63988         2.02681        -1.26177
| 38>    O       -5.51785         1.28952        -1.59830
| 39>    S       -3.28578         1.56073        -0.19268
| 40>    C       -2.59602         3.21345        -0.17114
| 41>    O       -1.58700         3.48040         0.41618
| 42>    C       -3.42879         4.10720        -1.00643
| 43>    C       -3.17624         5.46793        -1.25336
| 44>    C       -4.00595         6.08051        -2.21295
| 45>    C       -4.99305         5.38303        -2.89659
| 46>    C       -5.71003         6.17740        -3.92286
| 47>    O       -6.50132         5.79074        -4.73013
| 48>    S       -5.17151         7.87396        -3.81450
| 49>    C       -3.97341         7.52900        -2.51251
| 50>    O       -3.33172         8.38321        -1.98780
| 51>    C       -2.08554         6.19276        -0.63103
| 52>    O       -1.20491         6.84871        -1.41729
| 53>    C       -0.24925         7.33724        -0.62919
| 54>    C       -0.48133         7.04171         0.68040
| 55>    C       -1.69461         6.30897         0.69758
| 56>    N       -2.41418         5.76300         1.73608
| 57>    C       -2.12927         5.67797         3.04879
| 58>    C       -1.42691         6.64147         3.81714
| 59>    C       -1.28555         8.05307         3.43253
| 60>    O       -1.79043         8.62094         2.51213
| 61>    S       -0.29319         8.89757         4.68089
| 62>    C       -0.17321         7.44656         5.70954
| 63>    O        0.51161         7.38874         6.68656
| 64>    C       -1.00317         6.37048         5.11270
| 65>    C       -1.35815         5.19883         5.79657
| 66>    C       -2.20688         4.33543         5.10043
| 67>    C       -2.58626         4.55521         3.78002
| 68>    C       -3.48908         3.54293         3.23957
| 69>    O       -3.99239         3.52545         2.14053
| 70>    S       -3.79657         2.29179         4.47166
| 71>    C       -2.79539         3.13113         5.70999
| 72>    O       -2.66767         2.74397         6.83212
| 73>    C       -0.94266         4.89781         7.15931
| 74>    C       -1.19391         5.69878         8.20946
| 75>    C       -0.81093         5.50142         9.60412
| 76>    C       -0.00957         4.50765        10.08837
| 77>    C        0.34395         4.36923        11.44924
| 78>    N        0.66190         4.20264        12.53881
| 79>    C        0.59260         3.49664         9.30663
| 80>    N        1.12827         2.65788         8.73586
| 81>    C       -1.40070         6.58628        10.37452
| 82>    C       -2.10973         7.45393         9.49126
| 83>    C       -2.00379         6.95336         8.12006
| 84>    O       -2.47631         7.43865         7.11263
| 85>    C       -2.74934         8.57609         9.93991
| 86>    C       -2.71069         8.88739        11.31595
| 87>    C       -2.00957         8.02235        12.20695
| 88>    C       -1.35658         6.86989        11.71513
| 89>    C       -1.97863         8.34243        13.57974
| 90>    C       -2.60738         9.46265        14.05125
| 91>    C       -3.29590        10.31398        13.17338
| 92>    C       -3.34659        10.03288        11.83503
| 93>    H      -10.27052         6.39632        -1.57999
| 94>    H      -11.53747         2.63573        -4.59990
| 95>    H      -13.85368         3.31902        -4.47955
| 96>    H      -15.59352         4.84898        -3.64501
| 97>    H      -14.99627         6.71656        -2.15486
| 98>    H      -12.65209         7.07058        -1.48548
| 99>    H       -5.96154         2.39210        -3.83138
|100>    H        0.55208         7.87140        -1.09994
|101>    H        0.15408         7.28742         1.50331
|102>    H       -3.12780         5.09972         1.43869
|103>    H       -0.44998         3.94395         7.29561
|104>    H       -3.27472         9.21916         9.24942
|105>    H       -0.83384         6.23713        12.41464
|106>    H       -1.44636         7.68525        14.25142
|107>    H       -2.57713         9.69982        15.10400
|108>    H       -3.78547        11.19362        13.56330
|109>    H       -3.87446        10.68463        11.15453
|110> *
|111>
|112>                          ****END OF INPUT****

CARTESIAN COORDINATES (ANGSTROEM)
---------------------------------
  C     -8.723000    2.931400   -3.952800
  C     -8.632620    1.867610   -4.803840
  C     -9.742130    1.262290   -5.435300
  N    -10.602720    0.725960   -5.971790
  C     -7.427680    1.238000   -5.187750
  N     -6.488460    0.695290   -5.561570
  C     -9.937640    3.643450   -3.584680
  C     -9.601950    4.725410   -2.716730
  C    -10.550640    5.582620   -2.232480
  C    -11.900680    5.395990   -2.599710
  C    -12.245380    4.314590   -3.463120
  C    -11.244620    3.443030   -3.947600
  C    -13.596710    4.138910   -3.825270
  C    -14.561810    4.990300   -3.360410
  C    -14.221520    6.054610   -2.511320
  C    -12.919820    6.252970   -2.138420
  C     -8.156200    4.739790   -2.485380
  O     -7.514770    5.505450   -1.797520
  C     -7.610850    3.594020   -3.278860
  C     -6.306930    3.274360   -3.308290
  C     -5.274610    4.038770   -2.620300
  C     -4.466860    3.438200   -1.652530
  C     -4.639880    2.026810   -1.261770
  O     -5.517850    1.289520   -1.598300
  S     -3.285780    1.560730   -0.192680
  C     -2.596020    3.213450   -0.171140
  O     -1.587000    3.480400    0.416180
  C     -3.428790    4.107200   -1.006430
  C     -3.176240    5.467930   -1.253360
  C     -4.005950    6.080510   -2.212950
  C     -4.993050    5.383030   -2.896590
  C     -5.710030    6.177400   -3.922860
  O     -6.501320    5.790740   -4.730130
  S     -5.171510    7.873960   -3.814500
  C     -3.973410    7.529000   -2.512510
  O     -3.331720    8.383210   -1.987800
  C     -2.085540    6.192760   -0.631030
  O     -1.204910    6.848710   -1.417290
  C     -0.249250    7.337240   -0.629190
  C     -0.481330    7.041710    0.680400
  C     -1.694610    6.308970    0.697580
  N     -2.414180    5.763000    1.736080
  C     -2.129270    5.677970    3.048790
  C     -1.426910    6.641470    3.817140
  C     -1.285550    8.053070    3.432530
  O     -1.790430    8.620940    2.512130
  S     -0.293190    8.897570    4.680890
  C     -0.173210    7.446560    5.709540
  O      0.511610    7.388740    6.686560
  C     -1.003170    6.370480    5.112700
  C     -1.358150    5.198830    5.796570
  C     -2.206880    4.335430    5.100430
  C     -2.586260    4.555210    3.780020
  C     -3.489080    3.542930    3.239570
  O     -3.992390    3.525450    2.140530
  S     -3.796570    2.291790    4.471660
  C     -2.795390    3.131130    5.709990
  O     -2.667670    2.743970    6.832120
  C     -0.942660    4.897810    7.159310
  C     -1.193910    5.698780    8.209460
  C     -0.810930    5.501420    9.604120
  C     -0.009570    4.507650   10.088370
  C      0.343950    4.369230   11.449240
  N      0.661900    4.202640   12.538810
  C      0.592600    3.496640    9.306630
  N      1.128270    2.657880    8.735860
  C     -1.400700    6.586280   10.374520
  C     -2.109730    7.453930    9.491260
  C     -2.003790    6.953360    8.120060
  O     -2.476310    7.438650    7.112630
  C     -2.749340    8.576090    9.939910
  C     -2.710690    8.887390   11.315950
  C     -2.009570    8.022350   12.206950
  C     -1.356580    6.869890   11.715130
  C     -1.978630    8.342430   13.579740
  C     -2.607380    9.462650   14.051250
  C     -3.295900   10.313980   13.173380
  C     -3.346590   10.032880   11.835030
  H    -10.270520    6.396320   -1.579990
  H    -11.537470    2.635730   -4.599900
  H    -13.853680    3.319020   -4.479550
  H    -15.593520    4.848980   -3.645010
  H    -14.996270    6.716560   -2.154860
  H    -12.652090    7.070580   -1.485480
  H     -5.961540    2.392100   -3.831380
  H      0.552080    7.871400   -1.099940
  H      0.154080    7.287420    1.503310
  H     -3.127800    5.099720    1.438690
  H     -0.449980    3.943950    7.295610
  H     -3.274720    9.219160    9.249420
  H     -0.833840    6.237130   12.414640
  H     -1.446360    7.685250   14.251420
  H     -2.577130    9.699820   15.104000
  H     -3.785470   11.193620   13.563300
  H     -3.874460   10.684630   11.154530

 Total Charge           Charge          ....    0
 Multiplicity           Mult            ....    1
 Number of Electrons    NEL             ....  552
 Basis Dimension        Dim             .... 1193

ORBITAL ENERGIES
----------------

  NO   OCC          E(Eh)            E(eV)
   0   2.0000     -88.967126     -2420.9186
   1   2.0000     -88.958609     -2420.6868
   2   2.0000     -88.955525     -2420.6029
   3   2.0000     -88.954680     -2420.5799
   4   2.0000     -19.300341      -525.1890
   5   2.0000     -19.261874      -524.1422
   6   2.0000     -19.260186      -524.0963
   7   2.0000     -19.252385      -523.8840
   8   2.0000     -19.249489      -523.8052
   9   2.0000     -19.246721      -523.7299
  10   2.0000     -19.246649      -523.7279
  11   2.0000     -19.246102      -523.7130
  12   2.0000     -19.246027      -523.7110
  13   2.0000     -19.229901      -523.2722
  14   2.0000     -19.229062      -523.2494
  15   2.0000     -14.479617      -394.0104
  16   2.0000     -14.421897      -392.4398
  17   2.0000     -14.421781      -392.4366
  18   2.0000     -14.421774      -392.4364
  19   2.0000     -14.421664      -392.4334
  20   2.0000     -10.422667      -283.6152
  21   2.0000     -10.419578      -283.5311
  22   2.0000     -10.414275      -283.3868
  23   2.0000     -10.412633      -283.3421
  24   2.0000     -10.411633      -283.3149
  25   2.0000     -10.410919      -283.2955
  26   2.0000     -10.409548      -283.2582
  27   2.0000     -10.408753      -283.2366
  28   2.0000     -10.383728      -282.5556
  29   2.0000     -10.379783      -282.4482
  30   2.0000     -10.378816      -282.4220
  31   2.0000     -10.351631      -281.6822
  32   2.0000     -10.351541      -281.6798
  33   2.0000     -10.347292      -281.5641
  34   2.0000     -10.347243      -281.5628
  35   2.0000     -10.346927      -281.5542
  36   2.0000     -10.343421      -281.4588
  37   2.0000     -10.341298      -281.4010
  38   2.0000     -10.339131      -281.3420
  39   2.0000     -10.338249      -281.3181
  40   2.0000     -10.337551      -281.2991
  41   2.0000     -10.336951      -281.2827
  42   2.0000     -10.336320      -281.2656
  43   2.0000     -10.335988      -281.2565
  44   2.0000     -10.335189      -281.2348
  45   2.0000     -10.334868      -281.2261
  46   2.0000     -10.333904      -281.1998
  47   2.0000     -10.330593      -281.1097
  48   2.0000     -10.328859      -281.0625
  49   2.0000     -10.328654      -281.0570
  50   2.0000     -10.328196      -281.0445
  51   2.0000     -10.323741      -280.9233
  52   2.0000     -10.323720      -280.9227
  53   2.0000     -10.323560      -280.9184
  54   2.0000     -10.323493      -280.9165
  55   2.0000     -10.311175      -280.5813
  56   2.0000     -10.310851      -280.5725
  57   2.0000     -10.310646      -280.5669
  58   2.0000     -10.310586      -280.5653
  59   2.0000     -10.306194      -280.4458
  60   2.0000     -10.305644      -280.4308
  61   2.0000     -10.305481      -280.4264
  62   2.0000     -10.305156      -280.4176
  63   2.0000     -10.305052      -280.4147
  64   2.0000     -10.304748      -280.4064
  65   2.0000     -10.303982      -280.3856
  66   2.0000     -10.303581      -280.3747
  67   2.0000     -10.297511      -280.2095
  68   2.0000     -10.297126      -280.1991
  69   2.0000     -10.293404      -280.0978
  70   2.0000     -10.292968      -280.0859
  71   2.0000     -10.292927      -280.0848
  72   2.0000     -10.292596      -280.0758
  73   2.0000     -10.292519      -280.0737
  74   2.0000     -10.292235      -280.0659
  75   2.0000     -10.291958      -280.0584
  76   2.0000     -10.291541      -280.0471
  77   2.0000     -10.282948      -279.8132
  78   2.0000      -8.066125      -219.4904
  79   2.0000      -8.057738      -219.2622
  80   2.0000      -8.054676      -219.1789
  81   2.0000      -8.053925      -219.1585
  82   2.0000      -6.035097      -164.2233
  83   2.0000      -6.031726      -164.1316
  84   2.0000      -6.027077      -164.0051
  85   2.0000      -6.026654      -163.9936
  86   2.0000      -6.023521      -163.9083
  87   2.0000      -6.023370      -163.9042
  88   2.0000      -6.022784      -163.8883
  89   2.0000      -6.020312      -163.8210
  90   2.0000      -6.019485      -163.7985
  91   2.0000      -6.018684      -163.7767
  92   2.0000      -6.015713      -163.6959
  93   2.0000      -6.015013      -163.6768
  94   2.0000      -1.223881       -33.3035
  95   2.0000      -1.184933       -32.2437
  96   2.0000      -1.180944       -32.1351
  97   2.0000      -1.176163       -32.0050
  98   2.0000      -1.173768       -31.9399
  99   2.0000      -1.173059       -31.9206
 100   2.0000      -1.171217       -31.8704
 101   2.0000      -1.169417       -31.8215
 102   2.0000      -1.168770       -31.8039
 103   2.0000      -1.144657       -31.1477
 104   2.0000      -1.144039       -31.1309
 105   2.0000      -1.089989       -29.6601
 106   2.0000      -1.029340       -28.0098
 107   2.0000      -1.025337       -27.9008
 108   2.0000      -1.024400       -27.8753
 109   2.0000      -1.020791       -27.7771
 110   2.0000      -1.005605       -27.3639
 111   2.0000      -1.005358       -27.3572
 112   2.0000      -1.000143       -27.2153
 113   2.0000      -1.000072       -27.2133
 114   2.0000      -0.978937       -26.6382
 115   2.0000      -0.978758       -26.6334
 116   2.0000      -0.976993       -26.5853
 117   2.0000      -0.973282       -26.4844
 118   2.0000      -0.946174       -25.7467
 119   2.0000      -0.941252       -25.6128
 120   2.0000      -0.931159       -25.3381
 121   2.0000      -0.927299       -25.2331
 122   2.0000      -0.926551       -25.2127
 123   2.0000      -0.920420       -25.0459
 124   2.0000      -0.901852       -24.5407
 125   2.0000      -0.900041       -24.4914
 126   2.0000      -0.889176       -24.1957
 127   2.0000      -0.888133       -24.1673
 128   2.0000      -0.886099       -24.1120
 129   2.0000      -0.870632       -23.6911
 130   2.0000      -0.863151       -23.4875
 131   2.0000      -0.858768       -23.3683
 132   2.0000      -0.857384       -23.3306
 133   2.0000      -0.840733       -22.8775
 134   2.0000      -0.835914       -22.7464
 135   2.0000      -0.835517       -22.7356
 136   2.0000      -0.809742       -22.0342
 137   2.0000      -0.805886       -21.9293
 138   2.0000      -0.803434       -21.8625
 139   2.0000      -0.800658       -21.7870
 140   2.0000      -0.770326       -20.9616
 141   2.0000      -0.769883       -20.9496
 142   2.0000      -0.769037       -20.9266
 143   2.0000      -0.761618       -20.7247
 144   2.0000      -0.740963       -20.1626
 145   2.0000      -0.733171       -19.9506
 146   2.0000      -0.731433       -19.9033
 147   2.0000      -0.727592       -19.7988
 148   2.0000      -0.712236       -19.3809
 149   2.0000      -0.711659       -19.3652
 150   2.0000      -0.708803       -19.2875
 151   2.0000      -0.708104       -19.2685
 152   2.0000      -0.703354       -19.1392
 153   2.0000      -0.700085       -19.0503
 154   2.0000      -0.689267       -18.7559
 155   2.0000      -0.683935       -18.6108
 156   2.0000      -0.678335       -18.4584
 157   2.0000      -0.673700       -18.3323
 158   2.0000      -0.664012       -18.0687
 159   2.0000      -0.658607       -17.9216
 160   2.0000      -0.649208       -17.6658
 161   2.0000      -0.648640       -17.6504
 162   2.0000      -0.639936       -17.4135
 163   2.0000      -0.637192       -17.3389
 164   2.0000      -0.636395       -17.3172
 165   2.0000      -0.635825       -17.3017
 166   2.0000      -0.628952       -17.1147
 167   2.0000      -0.623892       -16.9770
 168   2.0000      -0.617547       -16.8043
 169   2.0000      -0.615611       -16.7516
 170   2.0000      -0.613881       -16.7046
 171   2.0000      -0.613661       -16.6986
 172   2.0000      -0.613050       -16.6820
 173   2.0000      -0.603701       -16.4275
 174   2.0000      -0.596178       -16.2228
 175   2.0000      -0.591690       -16.1007
 176   2.0000      -0.586426       -15.9575
 177   2.0000      -0.579639       -15.7728
 178   2.0000      -0.575142       -15.6504
 179   2.0000      -0.573235       -15.5985
 180   2.0000      -0.570837       -15.5333
 181   2.0000      -0.566470       -15.4144
 182   2.0000      -0.564061       -15.3489
 183   2.0000      -0.561684       -15.2842
 184   2.0000      -0.557636       -15.1741
 185   2.0000      -0.557552       -15.1718
 186   2.0000      -0.556526       -15.1438
 187   2.0000      -0.554394       -15.0858
 188   2.0000      -0.553691       -15.0667
 189   2.0000      -0.552382       -15.0311
 190   2.0000      -0.549601       -14.9554
 191   2.0000      -0.548769       -14.9328
 192   2.0000      -0.544861       -14.8264
 193   2.0000      -0.544037       -14.8040
 194   2.0000      -0.543852       -14.7990
 195   2.0000      -0.542018       -14.7491
 196   2.0000      -0.540851       -14.7173
 197   2.0000      -0.539406       -14.6780
 198   2.0000      -0.538891       -14.6640
 199   2.0000      -0.536391       -14.5959
 200   2.0000      -0.533134       -14.5073
 201   2.0000      -0.530765       -14.4428
 202   2.0000      -0.529434       -14.4066
 203   2.0000      -0.528993       -14.3946
 204   2.0000      -0.526640       -14.3306
 205   2.0000      -0.522854       -14.2276
 206   2.0000      -0.521636       -14.1944
 207   2.0000      -0.520153       -14.1541
 208   2.0000      -0.517847       -14.0913
 209   2.0000      -0.514961       -14.0128
 210   2.0000      -0.512529       -13.9466
 211   2.0000      -0.510971       -13.9042
 212   2.0000      -0.507787       -13.8176
 213   2.0000      -0.506288       -13.7768
 214   2.0000      -0.504076       -13.7166
 215   2.0000      -0.502015       -13.6605
 216   2.0000      -0.501387       -13.6434
 217   2.0000      -0.499558       -13.5937
 218   2.0000      -0.495968       -13.4960
 219   2.0000      -0.490204       -13.3391
 220   2.0000      -0.487836       -13.2747
 221   2.0000      -0.485236       -13.2039
 222   2.0000      -0.479907       -13.0589
 223   2.0000      -0.479025       -13.0349
 224   2.0000      -0.477892       -13.0041
 225   2.0000      -0.474958       -12.9243
 226   2.0000      -0.472143       -12.8477
 227   2.0000      -0.471476       -12.8295
 228   2.0000      -0.461433       -12.5562
 229   2.0000      -0.455467       -12.3939
 230   2.0000      -0.454323       -12.3627
 231   2.0000      -0.454201       -12.3594
 232   2.0000      -0.450163       -12.2495
 233   2.0000      -0.450101       -12.2479
 234   2.0000      -0.446722       -12.1559
 235   2.0000      -0.446180       -12.1412
 236   2.0000      -0.440505       -11.9868
 237   2.0000      -0.440312       -11.9815
 238   2.0000      -0.439633       -11.9630
 239   2.0000      -0.439593       -11.9619
 240   2.0000      -0.432902       -11.7799
 241   2.0000      -0.432778       -11.7765
 242   2.0000      -0.426273       -11.5995
 243   2.0000      -0.426045       -11.5933
 244   2.0000      -0.415224       -11.2988
 245   2.0000      -0.414882       -11.2895
 246   2.0000      -0.414271       -11.2729
 247   2.0000      -0.413166       -11.2428
 248   2.0000      -0.393567       -10.7095
 249   2.0000      -0.390211       -10.6182
 250   2.0000      -0.387902       -10.5553
 251   2.0000      -0.385594       -10.4926
 252   2.0000      -0.384107       -10.4521
 253   2.0000      -0.382491       -10.4081
 254   2.0000      -0.381022       -10.3681
 255   2.0000      -0.375233       -10.2106
 256   2.0000      -0.373248       -10.1566
 257   2.0000      -0.370698       -10.0872
 258   2.0000      -0.370117       -10.0714
 259   2.0000      -0.364449        -9.9171
 260   2.0000      -0.362536        -9.8651
 261   2.0000      -0.357669        -9.7327
 262   2.0000      -0.355743        -9.6803
 263   2.0000      -0.354031        -9.6337
 264   2.0000      -0.350837        -9.5467
 265   2.0000      -0.347595        -9.4585
 266   2.0000      -0.342484        -9.3195
 267   2.0000      -0.342208        -9.3120
 268   2.0000      -0.333446        -9.0735
 269   2.0000      -0.329034        -8.9535
 270   2.0000      -0.324135        -8.8202
 271   2.0000      -0.320521        -8.7218
 272   2.0000      -0.315930        -8.5969
 273   2.0000      -0.299827        -8.1587
 274   2.0000      -0.299435        -8.1480
 275   2.0000      -0.277260        -7.5446
 276   0.0000      -0.107605        -2.9281
 277   0.0000      -0.102088        -2.7780
 278   0.0000      -0.099587        -2.7099
 279   0.0000      -0.098060        -2.6683
 280   0.0000      -0.071320        -1.9407

MULLIKEN ATOMIC CHARGES
-----------------------
   0 C :    0.326193
   1 C :   -0.331865
   2 C :   -0.188518
   3 N :    0.160211
   4 C :   -0.187230
   5 N :    0.163546
   6 C :    0.052116
   7 C :   -0.009429
   8 C :   -0.072074
   9 C :    0.098026
  10 C :    0.099215
  11 C :   -0.083853
  12 C :   -0.018632
  13 C :    0.040158
  14 C :    0.037289
  15 C :   -0.015697
  16 C :    0.158467
  17 O :   -0.157489
  18 C :   -0.024546
  19 C :   -0.070803
  20 C :    0.012487
  21 C :    0.020884
  22 C :    0.055113
  23 O :   -0.125179
  24 S :    0.044804
  25 C :    0.011203
  26 O :   -0.135041
  27 C :    0.061319
  28 C :    0.002782
  29 C :    0.050115
  30 C :    0.067199
  31 C :    0.050278
  32 O :   -0.131463
  33 S :    0.024015
  34 C :    0.033658
  35 O :   -0.101859
  36 C :    0.018180
  37 O :   -0.174975
  38 C :    0.162257
  39 C :   -0.082748
  40 C :    0.141548
  41 N :    0.040848
  42 C :    0.051698
  43 C :   -0.044233
  44 C :    0.006779
  45 O :   -0.107345
  46 S :    0.026212
  47 C :    0.047558
  48 O :   -0.131279
  49 C :    0.083500
  50 C :   -0.004979
  51 C :    0.052125
  52 C :    0.031645
  53 C :    0.050190
  54 O :   -0.198003
  55 S :    0.048302
  56 C :    0.040710
  57 O :   -0.115589
  58 C :   -0.060313
  59 C :   -0.030167
  60 C :    0.322157
  61 C :   -0.331899
  62 C :   -0.186809
  63 N :    0.156565
  64 C :   -0.188544
  65 N :    0.163618
  66 C :    0.049934
  67 C :   -0.007307
  68 C :    0.160724
  69 O :   -0.162466
  70 C :   -0.071902
  71 C :    0.098470
  72 C :    0.098072
  73 C :   -0.082048
  74 C :   -0.017769
  75 C :    0.036912
  76 C :    0.037445
  77 C :   -0.014883
  78 H :   -0.010945
  79 H :   -0.007096
  80 H :   -0.006129
  81 H :   -0.002013
  82 H :   -0.002203
  83 H :   -0.015405
  84 H :    0.053089
  85 H :    0.019164
  86 H :   -0.006248
  87 H :    0.143393
  88 H :    0.047519
  89 H :   -0.009900
  90 H :   -0.006550
  91 H :   -0.006184
  92 H :   -0.000972
  93 H :   -0.002628
  94 H :   -0.014483
Sum of atomic charges:   -0.0000000

LOEWDIN ATOMIC CHARGES
----------------------
   0 C :    0.077802
   1 C :   -0.120053
   2 C :   -0.016014
   3 N :   -0.044017
   4 C :   -0.016502
   5 N :   -0.039741
   6 C :   -0.022026
   7 C :   -0.056768
   8 C :    0.039111
   9 C :   -0.007664
  10 C :   -0.003033
  11 C :    0.022384
  12 C :   -0.004220
  13 C :   -0.009292
  14 C :   -0.009934
  15 C :   -0.007533
  16 C :    0.091426
  17 O :   -0.145246
  18 C :   -0.057758
  19 C :    0.074425
  20 C :    0.027106
  21 C :   -0.042061
  22 C :   -0.043238
  23 O :   -0.104722
  24 S :    0.328553
  25 C :   -0.051163
  26 O :   -0.123021
  27 C :   -0.058574
  28 C :    0.015696
  29 C :   -0.043445
  30 C :   -0.027165
  31 C :   -0.045580
  32 O :   -0.116418
  33 S :    0.314441
  34 C :   -0.042268
  35 O :   -0.093024
  36 C :   -0.021957
  37 O :    0.038715
  38 C :    0.065860
  39 C :   -0.080391
  40 C :    0.013768
  41 N :    0.070826
  42 C :    0.087988
  43 C :   -0.093892
  44 C :   -0.049211
  45 O :   -0.101596
  46 S :    0.311968
  47 C :   -0.045246
  48 O :   -0.116390
  49 C :   -0.009735
  50 C :   -0.004016
  51 C :   -0.034939
  52 C :   -0.095290
  53 C :   -0.033851
  54 O :   -0.151500
  55 S :    0.327227
  56 C :   -0.036847
  57 O :   -0.096451
  58 C :    0.076497
  59 C :   -0.061540
  60 C :    0.077636
  61 C :   -0.120988
  62 C :   -0.015811
  63 N :   -0.044852
  64 C :   -0.017481
  65 N :   -0.040214
  66 C :   -0.022241
  67 C :   -0.056886
  68 C :    0.093000
  69 O :   -0.145879
  70 C :    0.039372
  71 C :   -0.008035
  72 C :   -0.003097
  73 C :    0.022235
  74 C :   -0.004182
  75 C :   -0.009471
  76 C :   -0.009952
  77 C :   -0.007473
  78 H :    0.040273
  79 H :    0.039926
  80 H :    0.035953
  81 H :    0.034471
  82 H :    0.034065
  83 H :    0.032766
  84 H :    0.051930
  85 H :    0.029456
  86 H :    0.030311
  87 H :    0.076885
  88 H :    0.049924
  89 H :    0.040437
  90 H :    0.039940
  91 H :    0.035910
  92 H :    0.034712
  93 H :    0.033954
  94 H :    0.032946

  Mayer bond orders larger than 0.100000
B(  0-C ,  1-C ) :   1.6760 B(  0-C ,  6-C ) :   1.0023 B(  0-C , 18-C ) :   1.0264
B(  1-C ,  2-C ) :   1.1391 B(  1-C ,  4-C ) :   1.1458 B(  2-C ,  3-N ) :   2.9690
B(  4-C ,  5-N ) :   2.9669 B(  6-C ,  7-C ) :   1.2104 B(  6-C , 11-C ) :   1.4411
B(  7-C ,  8-C ) :   1.4599 B(  7-C , 16-C ) :   0.9576 B(  8-C ,  9-C ) :   1.1857
B(  8-C , 78-H ) :   1.0165 B(  9-C , 10-C ) :   1.2520 B(  9-C , 15-C ) :   1.2407
B( 10-C , 11-C ) :   1.2114 B( 10-C , 12-C ) :   1.2371 B( 11-C , 79-H ) :   0.9897
B( 12-C , 13-C ) :   1.4906 B( 12-C , 80-H ) :   0.9978 B( 13-C , 14-C ) :   1.2579
B( 13-C , 81-H ) :   0.9886 B( 14-C , 15-C ) :   1.4908 B( 14-C , 82-H ) :   0.9886
B( 15-C , 83-H ) :   0.9981 B( 16-C , 17-O ) :   2.2003 B( 16-C , 18-C ) :   0.9176
B( 18-C , 19-C ) :   1.7837 B( 19-C , 20-C ) :   1.0016 B( 19-C , 84-H ) :   0.9037
B( 20-C , 21-C ) :   1.4345 B( 20-C , 30-C ) :   1.3626 B( 21-C , 22-C ) :   0.8488
B( 21-C , 27-C ) :   1.2935 B( 22-C , 23-O ) :   2.1556 B( 22-C , 24-S ) :   1.0400
B( 23-O , 24-S ) :   0.1090 B( 24-S , 25-C ) :   1.0319 B( 24-S , 26-O ) :   0.1030
B( 25-C , 26-O ) :   2.1693 B( 25-C , 27-C ) :   0.8292 B( 27-C , 28-C ) :   1.4174
B( 28-C , 29-C ) :   1.3731 B( 28-C , 36-C ) :   0.9952 B( 29-C , 30-C ) :   1.3477
B( 29-C , 34-C ) :   0.8307 B( 30-C , 31-C ) :   0.8317 B( 31-C , 32-O ) :   2.1749
B( 31-C , 33-S ) :   1.0429 B( 32-O , 33-S ) :   0.1112 B( 33-S , 34-C ) :   1.0166
B( 33-S , 35-O ) :   0.1053 B( 34-C , 35-O ) :   2.2126 B( 36-C , 37-O ) :   1.1430
B( 36-C , 40-C ) :   1.5101 B( 37-O , 38-C ) :   1.1662 B( 38-C , 39-C ) :   1.5086
B( 38-C , 85-H ) :   1.0063 B( 39-C , 40-C ) :   1.2070 B( 39-C , 86-H ) :   1.0091
B( 40-C , 41-N ) :   1.1163 B( 41-N , 42-C ) :   1.3399 B( 41-N , 87-H ) :   0.8481
B( 42-C , 43-C ) :   1.2635 B( 42-C , 52-C ) :   1.2943 B( 43-C , 44-C ) :   0.8524
B( 43-C , 49-C ) :   1.3798 B( 44-C , 45-O ) :   2.2078 B( 44-C , 46-S ) :   1.0116
B( 45-O , 46-S ) :   0.1033 B( 46-S , 47-C ) :   1.0402 B( 46-S , 48-O ) :   0.1104
B( 47-C , 48-O ) :   2.1780 B( 47-C , 49-C ) :   0.8298 B( 49-C , 50-C ) :   1.3682
B( 50-C , 51-C ) :   1.4159 B( 50-C , 58-C ) :   1.0098 B( 51-C , 52-C ) :   1.3292
B( 51-C , 56-C ) :   0.8456 B( 52-C , 53-C ) :   0.8834 B( 53-C , 54-O ) :   2.0158
B( 53-C , 55-S ) :   1.0614 B( 55-S , 56-C ) :   1.0253 B( 55-S , 57-O ) :   0.1055
B( 56-C , 57-O ) :   2.1731 B( 58-C , 59-C ) :   1.7680 B( 58-C , 88-H ) :   0.9086
B( 59-C , 60-C ) :   1.0288 B( 59-C , 68-C ) :   0.9210 B( 60-C , 61-C ) :   1.6756
B( 60-C , 66-C ) :   1.0011 B( 61-C , 62-C ) :   1.1397 B( 61-C , 64-C ) :   1.1433
B( 62-C , 63-N ) :   2.9676 B( 64-C , 65-N ) :   2.9718 B( 66-C , 67-C ) :   1.2088
B( 66-C , 73-C ) :   1.4432 B( 67-C , 68-C ) :   0.9609 B( 67-C , 70-C ) :   1.4571
B( 68-C , 69-O ) :   2.1856 B( 70-C , 71-C ) :   1.1862 B( 70-C , 89-H ) :   1.0170
B( 71-C , 72-C ) :   1.2508 B( 71-C , 77-C ) :   1.2389 B( 72-C , 73-C ) :   1.2102
B( 72-C , 74-C ) :   1.2394 B( 73-C , 90-H ) :   0.9897 B( 74-C , 75-C ) :   1.4901
B( 74-C , 91-H ) :   0.9977 B( 75-C , 76-C ) :   1.2566 B( 75-C , 92-H ) :   0.9890
B( 76-C , 77-C ) :   1.4916 B( 76-C , 93-H ) :   0.9887 B( 77-C , 94-H ) :   0.9982

-----------------------------------------------------------------------------
         ABSORPTION SPECTRUM VIA TRANSITION ELECTRIC DIPOLE MOMENTS
-----------------------------------------------------------------------------
State   Energy  Wavelength   fosc         T2         TX        TY        TZ
        (cm-1)    (nm)                  (au**2)     (au)      (au)      (au)
-----------------------------------------------------------------------------
   0   17332.3    577.0   0.004490209   0.08529  -0.21202  -0.04820   0.19497
   1   18674.8    535.5   0.061560856   1.08524   0.40638   0.95747  -0.05789
   2   22304.6    448.3   0.560656342   8.27520   1.48419   0.57857   2.39534
   3   23774.8    420.6   0.058347703   0.80795   0.38915   0.33432  -0.73807
   4   24712.4    404.7   0.047288375   0.62996   0.24678   0.08999   0.74898
   5   24932.8    401.1   0.003005647   0.03969   0.06453  -0.18109   0.05223
   6   26480.8    377.6   0.025862454   0.32153  -0.17797   0.22152  -0.49069
   7   26769.2    373.6   0.087959001   1.08173  -0.06739   0.52177   0.89719
   8   26848.8    372.5   0.022736338   0.27879  -0.39676   0.34512  -0.04754
   9   27080.3    369.3   0.069300846   0.84248  -0.50702  -0.54457  -0.53745
  10   27749.7    360.4   0.034060888   0.40409  -0.45975  -0.04019  -0.43715
  11   27975.0    357.5   0.024035614   0.28285  -0.40601  -0.21524  -0.26773
  12   28271.9    353.7   0.007302845   0.08504  -0.07945   0.24266  -0.14087
  13   28426.0    351.8   0.019783869   0.22912   0.00691   0.30803   0.36632
  14   28882.4    346.2   0.050354047   0.57395  -0.52197  -0.04318  -0.54739
  15   28924.5    345.7   0.019525159   0.22223  -0.08538   0.14339   0.44089
  16   29179.9    342.7   0.005360502   0.06048  -0.18468  -0.09157   0.13412
  17   29687.8    336.8   0.036498242   0.40473  -0.01276  -0.27446  -0.57379
  18   30006.7    333.3   0.050484673   0.55388  -0.05201   0.37453   0.64102
  19   30309.1    329.9   0.003382197   0.03674   0.16358  -0.09975   0.00542
  20   30571.6    327.1   0.258981862   2.78886  -1.32312   0.21050  -0.99694
  21   30625.1    326.5   0.046811696   0.50321  -0.55559  -0.41975  -0.13545
  22   30915.9    323.5   0.001689688   0.01799   0.13011   0.01785  -0.02731
  23   31083.6    321.7   0.023080953   0.24445   0.00795  -0.44131  -0.22279
  24   31692.0    315.5   0.047135704   0.48964  -0.11937   0.46108   0.51264
  25   31892.6    313.6   0.074700664   0.77110   0.84752  -0.07704  -0.21651
  26   32088.0    311.6   0.206577719   2.11941  -0.05857  -0.02878   1.45436
  27   32317.3    309.4   0.043691927   0.44508  -0.60582   0.27832  -0.02454
  28   32463.6    308.0   0.056776732   0.57577  -0.74121  -0.15322   0.05383
  29   32609.7    306.7   0.025890089   0.26137   0.47434  -0.18588  -0.04265
  30   32807.3    304.8   0.094843976   0.95173   0.35020  -0.83538  -0.36226
  31   32971.1    303.3   0.006706951   0.06697   0.13182  -0.22209   0.01637
  32   33047.4    302.6   0.022927273   0.22840   0.16460   0.43707   0.10134
  33   33363.9    299.7   0.078050645   0.77015   0.80041   0.23335  -0.27395
  34   33730.8    296.5   0.648431198   6.32868   1.02731  -1.99862  -1.13086
  35   33894.1    295.0   1.105579507  10.73846  -2.48594   1.72750   1.25473
  36   34246.6    292.0   0.114373806   1.09947   0.28329   0.32717   0.95508
  37   34411.4    290.6   0.040163614   0.38424   0.53908   0.19190  -0.23835
  38   34454.3    290.2   0.016560425   0.15824   0.32954   0.05154   0.21675
  39   34663.3    288.5   0.037585734   0.35697  -0.19749  -0.55971   0.06848
  40   34852.1    286.9   0.051302235   0.48460  -0.62053   0.30398  -0.08454
  41   34981.8    285.9   0.039229073   0.36918   0.55945  -0.15111  -0.18266
  42   35064.7    285.2   0.068057226   0.63897  -0.68023   0.19432  -0.37215
  43   35086.6    285.0   0.042379212   0.39764  -0.09201   0.38205   0.49316
  44   35234.1    283.8   0.003349313   0.03129  -0.01280  -0.17186  -0.03992
  45   35656.3    280.5   0.037360830   0.34495  -0.56621  -0.03672  -0.15167
  46   35809.1    279.3   0.031131064   0.28620   0.32382   0.17290   0.38917
  47   35979.5    277.9   0.040650409   0.37195   0.08628  -0.14627  -0.58576
  48   36025.0    277.6   0.027068877   0.24737   0.13946  -0.09844   0.46715
  49   36439.7    274.4   0.074922895   0.67689  -0.21637   0.00761  -0.79373
  50   36460.8    274.3   0.041570803   0.37535  -0.16801   0.33752   0.48291
  51   36491.1    274.0   0.025009468   0.22563   0.19909  -0.32972  -0.27798
  52   36797.2    271.8   0.027382401   0.24498  -0.35767   0.30988   0.14500
  53   36825.5    271.6   0.010264690   0.09176   0.14104  -0.12731   0.23593
  54   36932.5    270.8   0.020781156   0.18524   0.23835   0.19521   0.30054
  55   37141.9    269.2   0.037553040   0.33286   0.09513   0.24952  -0.51142
  56   37287.9    268.2   0.069018994   0.60936  -0.08693   0.76786   0.11046
  57   37433.1    267.1   0.007380351   0.06491   0.00943   0.25391  -0.01871
  58   37559.5    266.2   0.005242982   0.04596  -0.14207   0.05893  -0.14933
  59   37601.7    265.9   0.022673549   0.19851  -0.32990   0.24620  -0.17048
  60   37858.6    264.1   0.192810362   1.67665  -0.06784   1.23196  -0.39284
  61   37983.6    263.3   0.027918702   0.24198   0.18369  -0.38418  -0.24626
  62   38231.3    261.6   0.063420711   0.54612  -0.03680   0.37045   0.63838
  63   38407.8    260.4   0.003163489   0.02712  -0.14493  -0.01230  -0.07720
  64   38571.9    259.3   0.113985958   0.97287   0.65693   0.12908   0.72433
  65   38614.3    259.0   0.052591612   0.44838  -0.26422   0.36139  -0.49796
  66   38799.3    257.7   0.008598318   0.07296   0.22203   0.14831   0.04076
  67   38967.8    256.6   0.029074554   0.24563  -0.05260   0.46315  -0.16839
  68   39107.6    255.7   0.118162307   0.99470  -0.23462  -0.34453  -0.90607
  69   39369.1    254.0   0.017902274   0.14970   0.36166  -0.09570  -0.09873
  70   39549.0    252.9   0.033961489   0.28270  -0.12899   0.25509  -0.44832
  71   39708.4    251.8   0.234959964   1.94799   0.96677   0.23103   0.97978
  72   39785.5    251.3   0.035226125   0.29148   0.08265  -0.53314   0.02047
  73   40051.2    249.7   0.039615408   0.32563   0.23379   0.43825  -0.28090
  74   40117.2    249.3   0.005277981   0.04331  -0.12104  -0.09874  -0.13752
  75   40267.2    248.3   0.057840269   0.47288  -0.33744  -0.57649  -0.16334

FINAL SINGLE POINT ENERGY     -4909.821911691373

DIPOLE MOMENT
-------------
                                X             Y             Z
Electronic contribution:     27.61599     -17.72262     -22.50592
Nuclear contribution   :    -29.98746      21.04057      24.04534
                        -----------------------------------------
Total Dipole Moment    :     -2.37147       3.31795       1.53942
                        -----------------------------------------
Magnitude (a.u.)       :      4.35918
Magnitude (Debye)      :     11.08017

Rotational constants in cm-1:     0.001414     0.000339     0.000325
Rotational constants in MHz :    42.383205    10.166979     9.751959

                             ****ORCA TERMINATED NORMALLY****
TOTAL RUN TIME: 0 days 0 hours 10 minutes 51 seconds 128 msec
