                         Program Version 4.2.0 -  RELEASE  -
|  1> # ORCA input file
|  2> # SCF done       -172.315277196942          0.000374730678
|  3> ! CAM-B3LYP def2-SVP def2/J RIJCOSX Grid4 TightSCF
|  4> %maxcore 5000
|  5> %tddft
|  6>     Mode sTDDFT
|  7>     Ethresh 5.0
|  8>     maxcore 5000
|  9> end
| 10>
| 11> %pal
| 12>   nprocs 6
| 13>   end
| 14> * xyz 0 1
| 15>    C        1.68202         3.02324         6.15544
| 16>    C        1.05895         4.10515         5.57013
| 17>    C        0.30391         3.97220         4.40034
| 18>    C        0.27271         2.70977         3.76853
| 19>    C        0.89255         1.62180         4.37951
| 20>    C        1.57663         1.76948         5.56949
| 21>    N       -0.31273         2.53570         2.50550
| 22>    C       -0.03873         3.45078         1.48499
| 23>    C        1.20162         4.08441         1.42341
| 24>    C        1.46105         5.01251         0.43433
| 25>    C        0.49676         5.32001        -0.51125
| 26>    C       -0.73337         4.68566        -0.46061
| 27>    C       -1.00445         3.75975         0.52689
| 28>    C       -1.12372         1.42202         2.26654
| 29>    C       -1.97383         0.94749         3.26506
| 30>    C       -2.78019        -0.14935         3.02925
| 31>    C       -2.75613        -0.78608         1.79961
| 32>    C       -1.91206        -0.31933         0.80516
| 33>    C       -1.09747         0.77175         1.03288
| 34>    C       -0.43979         5.11540         3.91935
| 35>    C       -1.64211         5.03047         3.30388
| 36>    C       -2.38404         6.11779         2.79906
| 37>    C       -3.58335         5.95092         2.16131
| 38>    C       -4.41002         6.93760         1.56721
| 39>    C       -5.54271         6.45013         0.99072
| 40>    C       -5.68483         5.04756         1.09951
| 41>    S       -4.32112         4.36477         1.95583
| 42>    C       -6.71061         4.24547         0.64486
| 43>    C       -7.87915         4.61137        -0.05821
| 44>    C       -8.70043         3.56435        -0.34377
| 45>    C       -8.23843         2.30506         0.12170
| 46>    S       -6.69190         2.51465         0.92393
| 47>    C       -8.90594         1.11634        -0.01995
| 48>    C       -8.52005        -0.15420         0.44939
| 49>    C       -7.39579        -0.56229         1.13110
| 50>    C       -7.39136        -1.93202         1.45609
| 51>    C       -8.56015        -2.60490         0.99951
| 52>    S       -9.62604        -1.50256         0.17328
| 53>    C       -8.77587        -3.94392         1.21408
| 54>    C       -7.79826        -4.66401         1.91038
| 55>    C       -6.62711        -3.99176         2.36273
| 56>    C       -6.41361        -2.65220         2.15115
| 57>    S       -5.56362        -5.09013         3.19700
| 58>    C       -6.68478        -6.43208         2.95262
| 59>    C       -7.80207        -6.02859         2.25636
| 60>    C       -6.32601        -7.68815         3.47598
| 61>    C       -7.04808        -8.85414         3.45248
| 62>    C       -6.62253       -10.08573         4.01271
| 63>    C       -7.51460       -11.10642         3.88258
| 64>    C       -8.70144       -10.74649         3.20992
| 65>    S       -8.64114        -9.05890         2.74442
| 66>    C       -9.79551       -11.53966         2.92095
| 67>    C       -9.98826       -12.90337         3.22604
| 68>    C      -11.18493       -13.39881         2.80147
| 69>    C      -12.00445       -12.45584         2.13821
| 70>    S      -11.19193       -10.90356         2.07421
| 71>    C      -13.25253       -12.69852         1.61319
| 72>    C      -14.08862       -11.79525         0.95497
| 73>    S      -13.70988       -10.10782         0.66121
| 74>    C      -15.21309        -9.76895        -0.15699
| 75>    C      -15.98697       -10.92843        -0.20318
| 76>    C      -15.35340       -12.04055         0.41560
| 77>    N      -16.20840       -13.08470         0.29658
| 78>    N      -17.33114       -12.72092        -0.34707
| 79>    C      -17.22736       -11.45342        -0.65417
| 80>    C      -15.45611        -8.45241        -0.64311
| 81>    C      -16.56082        -8.05817        -1.28435
| 82>    H        2.24285         3.15018         7.06911
| 83>    H        1.11472         5.07752         6.03866
| 84>    H        0.84458         0.65742         3.89441
| 85>    H        2.05151         0.91401         6.02583
| 86>    H        1.95921         3.84388         2.15517
| 87>    H        2.42716         5.49456         0.39783
| 88>    H        0.70344         6.04690        -1.28221
| 89>    H       -1.49425         4.92083        -1.19058
| 90>    H       -1.96964         3.27758         0.56769
| 91>    H       -1.99843         1.44661         4.22319
| 92>    H       -3.43578        -0.50326         3.81166
| 93>    H       -3.38377        -1.64431         1.61320
| 94>    H       -1.88189        -0.81542        -0.15382
| 95>    H       -0.43119         1.12592         0.25997
| 96>    H       -0.02293         6.09119         4.13563
| 97>    H       -2.10166         4.05855         3.18080
| 98>    H       -1.98187         7.11780         2.88713
| 99>    H       -4.13507         7.97776         1.58461
|100>    H       -6.27989         7.05589         0.49416
|101>    H       -8.08087         5.63189        -0.33108
|102>    H       -9.63469         3.65092        -0.87032
|103>    H       -9.85360         1.16044        -0.54136
|104>    H       -6.58795         0.09445         1.39585
|105>    H       -9.66926        -4.43586         0.86378
|106>    H       -5.52749        -2.15568         2.51252
|107>    H       -8.60773        -6.68922         1.99498
|108>    H       -5.36243        -7.73718         3.96716
|109>    H       -5.66589       -10.17312         4.49722
|110>    H       -7.35125       -12.10292         4.25216
|111>    H       -9.24554       -13.48052         3.74688
|112>    H      -11.50662       -14.41568         2.94459
|113>    H      -13.63467       -13.70650         1.72032
|114>    H      -16.10222       -14.03246         0.61563
|115>    H      -18.02391       -10.96489        -1.17675
|116>    H      -14.65865        -7.74419        -0.45841
|117>    H      -17.37307        -8.73305        -1.48532
|118>    H      -16.67561        -7.04401        -1.62263
|119> *
|120>
|121>                          ****END OF INPUT****

CARTESIAN COORDINATES (ANGSTROEM)
---------------------------------
  C      1.682020    3.023240    6.155440
  C      1.058950    4.105150    5.570130
  C      0.303910    3.972200    4.400340
  C      0.272710    2.709770    3.768530
  C      0.892550    1.621800    4.379510
  C      1.576630    1.769480    5.569490
  N     -0.312730    2.535700    2.505500
  C     -0.038730    3.450780    1.484990
  C      1.201620    4.084410    1.423410
  C      1.461050    5.012510    0.434330
  C      0.496760    5.320010   -0.511250
  C     -0.733370    4.685660   -0.460610
  C     -1.004450    3.759750    0.526890
  C     -1.123720    1.422020    2.266540
  C     -1.973830    0.947490    3.265060
  C     -2.780190   -0.149350    3.029250
  C     -2.756130   -0.786080    1.799610
  C     -1.912060   -0.319330    0.805160
  C     -1.097470    0.771750    1.032880
  C     -0.439790    5.115400    3.919350
  C     -1.642110    5.030470    3.303880
  C     -2.384040    6.117790    2.799060
  C     -3.583350    5.950920    2.161310
  C     -4.410020    6.937600    1.567210
  C     -5.542710    6.450130    0.990720
  C     -5.684830    5.047560    1.099510
  S     -4.321120    4.364770    1.955830
  C     -6.710610    4.245470    0.644860
  C     -7.879150    4.611370   -0.058210
  C     -8.700430    3.564350   -0.343770
  C     -8.238430    2.305060    0.121700
  S     -6.691900    2.514650    0.923930
  C     -8.905940    1.116340   -0.019950
  C     -8.520050   -0.154200    0.449390
  C     -7.395790   -0.562290    1.131100
  C     -7.391360   -1.932020    1.456090
  C     -8.560150   -2.604900    0.999510
  S     -9.626040   -1.502560    0.173280
  C     -8.775870   -3.943920    1.214080
  C     -7.798260   -4.664010    1.910380
  C     -6.627110   -3.991760    2.362730
  C     -6.413610   -2.652200    2.151150
  S     -5.563620   -5.090130    3.197000
  C     -6.684780   -6.432080    2.952620
  C     -7.802070   -6.028590    2.256360
  C     -6.326010   -7.688150    3.475980
  C     -7.048080   -8.854140    3.452480
  C     -6.622530  -10.085730    4.012710
  C     -7.514600  -11.106420    3.882580
  C     -8.701440  -10.746490    3.209920
  S     -8.641140   -9.058900    2.744420
  C     -9.795510  -11.539660    2.920950
  C     -9.988260  -12.903370    3.226040
  C    -11.184930  -13.398810    2.801470
  C    -12.004450  -12.455840    2.138210
  S    -11.191930  -10.903560    2.074210
  C    -13.252530  -12.698520    1.613190
  C    -14.088620  -11.795250    0.954970
  S    -13.709880  -10.107820    0.661210
  C    -15.213090   -9.768950   -0.156990
  C    -15.986970  -10.928430   -0.203180
  C    -15.353400  -12.040550    0.415600
  N    -16.208400  -13.084700    0.296580
  N    -17.331140  -12.720920   -0.347070
  C    -17.227360  -11.453420   -0.654170
  C    -15.456110   -8.452410   -0.643110
  C    -16.560820   -8.058170   -1.284350
  H      2.242850    3.150180    7.069110
  H      1.114720    5.077520    6.038660
  H      0.844580    0.657420    3.894410
  H      2.051510    0.914010    6.025830
  H      1.959210    3.843880    2.155170
  H      2.427160    5.494560    0.397830
  H      0.703440    6.046900   -1.282210
  H     -1.494250    4.920830   -1.190580
  H     -1.969640    3.277580    0.567690
  H     -1.998430    1.446610    4.223190
  H     -3.435780   -0.503260    3.811660
  H     -3.383770   -1.644310    1.613200
  H     -1.881890   -0.815420   -0.153820
  H     -0.431190    1.125920    0.259970
  H     -0.022930    6.091190    4.135630
  H     -2.101660    4.058550    3.180800
  H     -1.981870    7.117800    2.887130
  H     -4.135070    7.977760    1.584610
  H     -6.279890    7.055890    0.494160
  H     -8.080870    5.631890   -0.331080
  H     -9.634690    3.650920   -0.870320
  H     -9.853600    1.160440   -0.541360
  H     -6.587950    0.094450    1.395850
  H     -9.669260   -4.435860    0.863780
  H     -5.527490   -2.155680    2.512520
  H     -8.607730   -6.689220    1.994980
  H     -5.362430   -7.737180    3.967160
  H     -5.665890  -10.173120    4.497220
  H     -7.351250  -12.102920    4.252160
  H     -9.245540  -13.480520    3.746880
  H    -11.506620  -14.415680    2.944590
  H    -13.634670  -13.706500    1.720320
  H    -16.102220  -14.032460    0.615630
  H    -18.023910  -10.964890   -1.176750
  H    -14.658650   -7.744190   -0.458410
  H    -17.373070   -8.733050   -1.485320
  H    -16.675610   -7.044010   -1.622630

 Total Charge           Charge          ....    0
 Multiplicity           Mult            ....    1
 Number of Electrons    NEL             ....  512
 Basis Dimension        Dim             .... 1151

ORBITAL ENERGIES
----------------

  NO   OCC          E(Eh)            E(eV)
   0   2.0000     -88.958831     -2420.6928
   1   2.0000     -88.942228     -2420.2411
   2   2.0000     -88.940259     -2420.1875
   3   2.0000     -88.937902     -2420.1234
   4   2.0000     -88.937005     -2420.0989
   5   2.0000     -88.932613     -2419.9794
   6   2.0000     -88.931884     -2419.9596
   7   2.0000     -14.477730      -393.9591
   8   2.0000     -14.431746      -392.7078
   9   2.0000     -14.426801      -392.5732
  10   2.0000     -10.310163      -280.5538
  11   2.0000     -10.305827      -280.4358
  12   2.0000     -10.304668      -280.4043
  13   2.0000     -10.303989      -280.3858
  14   2.0000     -10.302997      -280.3588
  15   2.0000     -10.302939      -280.3572
  16   2.0000     -10.302894      -280.3560
  17   2.0000     -10.301702      -280.3236
  18   2.0000     -10.301473      -280.3173
  19   2.0000     -10.300901      -280.3018
  20   2.0000     -10.300521      -280.2914
  21   2.0000     -10.299681      -280.2686
  22   2.0000     -10.297982      -280.2223
  23   2.0000     -10.295830      -280.1638
  24   2.0000     -10.293534      -280.1013
  25   2.0000     -10.292817      -280.0818
  26   2.0000     -10.290327      -280.0140
  27   2.0000     -10.288928      -279.9760
  28   2.0000     -10.286891      -279.9205
  29   2.0000     -10.286334      -279.9054
  30   2.0000     -10.282296      -279.7955
  31   2.0000     -10.281672      -279.7785
  32   2.0000     -10.280403      -279.7440
  33   2.0000     -10.280282      -279.7407
  34   2.0000     -10.280215      -279.7389
  35   2.0000     -10.279973      -279.7323
  36   2.0000     -10.279215      -279.7117
  37   2.0000     -10.277699      -279.6704
  38   2.0000     -10.276796      -279.6458
  39   2.0000     -10.275969      -279.6233
  40   2.0000     -10.274434      -279.5816
  41   2.0000     -10.272116      -279.5185
  42   2.0000     -10.272111      -279.5184
  43   2.0000     -10.270405      -279.4719
  44   2.0000     -10.269075      -279.4357
  45   2.0000     -10.268733      -279.4264
  46   2.0000     -10.266799      -279.3738
  47   2.0000     -10.266600      -279.3684
  48   2.0000     -10.266340      -279.3613
  49   2.0000     -10.264401      -279.3085
  50   2.0000     -10.264210      -279.3034
  51   2.0000     -10.263941      -279.2960
  52   2.0000     -10.263511      -279.2843
  53   2.0000     -10.260376      -279.1990
  54   2.0000     -10.260045      -279.1900
  55   2.0000     -10.259896      -279.1860
  56   2.0000     -10.259866      -279.1852
  57   2.0000     -10.258693      -279.1532
  58   2.0000     -10.258467      -279.1471
  59   2.0000     -10.256756      -279.1005
  60   2.0000     -10.255953      -279.0787
  61   2.0000     -10.255790      -279.0742
  62   2.0000     -10.254813      -279.0477
  63   2.0000     -10.253376      -279.0085
  64   2.0000     -10.251789      -278.9653
  65   2.0000     -10.250568      -278.9321
  66   2.0000     -10.250258      -278.9237
  67   2.0000      -8.053291      -219.1412
  68   2.0000      -8.038289      -218.7330
  69   2.0000      -8.036091      -218.6732
  70   2.0000      -8.033735      -218.6090
  71   2.0000      -8.032837      -218.5846
  72   2.0000      -8.028655      -218.4708
  73   2.0000      -8.027949      -218.4516
  74   2.0000      -6.022619      -163.8838
  75   2.0000      -6.018362      -163.7680
  76   2.0000      -6.015597      -163.6927
  77   2.0000      -6.008078      -163.4881
  78   2.0000      -6.005871      -163.4281
  79   2.0000      -6.003936      -163.3754
  80   2.0000      -6.003528      -163.3643
  81   2.0000      -6.002593      -163.3389
  82   2.0000      -6.001755      -163.3161
  83   2.0000      -5.999377      -163.2514
  84   2.0000      -5.999197      -163.2465
  85   2.0000      -5.998588      -163.2299
  86   2.0000      -5.998264      -163.2211
  87   2.0000      -5.997557      -163.2018
  88   2.0000      -5.997059      -163.1883
  89   2.0000      -5.994693      -163.1239
  90   2.0000      -5.994425      -163.1166
  91   2.0000      -5.993724      -163.0975
  92   2.0000      -5.993719      -163.0974
  93   2.0000      -5.989760      -162.9897
  94   2.0000      -5.989049      -162.9703
  95   2.0000      -1.137714       -30.9588
  96   2.0000      -1.055662       -28.7260
  97   2.0000      -0.991475       -26.9794
  98   2.0000      -0.988375       -26.8950
  99   2.0000      -0.983670       -26.7670
 100   2.0000      -0.979102       -26.6427
 101   2.0000      -0.967937       -26.3389
 102   2.0000      -0.965160       -26.2633
 103   2.0000      -0.956547       -26.0290
 104   2.0000      -0.945112       -25.7178
 105   2.0000      -0.936347       -25.4793
 106   2.0000      -0.917926       -24.9780
 107   2.0000      -0.917678       -24.9713
 108   2.0000      -0.905126       -24.6297
 109   2.0000      -0.897698       -24.4276
 110   2.0000      -0.889169       -24.1955
 111   2.0000      -0.876289       -23.8450
 112   2.0000      -0.868613       -23.6362
 113   2.0000      -0.860553       -23.4168
 114   2.0000      -0.857552       -23.3352
 115   2.0000      -0.850392       -23.1403
 116   2.0000      -0.843751       -22.9596
 117   2.0000      -0.839268       -22.8376
 118   2.0000      -0.838573       -22.8187
 119   2.0000      -0.836105       -22.7516
 120   2.0000      -0.830950       -22.6113
 121   2.0000      -0.819259       -22.2932
 122   2.0000      -0.818772       -22.2799
 123   2.0000      -0.817093       -22.2342
 124   2.0000      -0.815676       -22.1957
 125   2.0000      -0.815488       -22.1905
 126   2.0000      -0.812174       -22.1004
 127   2.0000      -0.806977       -21.9590
 128   2.0000      -0.790566       -21.5124
 129   2.0000      -0.781408       -21.2632
 130   2.0000      -0.771188       -20.9851
 131   2.0000      -0.763917       -20.7872
 132   2.0000      -0.753443       -20.5022
 133   2.0000      -0.736158       -20.0319
 134   2.0000      -0.720947       -19.6180
 135   2.0000      -0.707879       -19.2624
 136   2.0000      -0.703112       -19.1327
 137   2.0000      -0.698263       -19.0007
 138   2.0000      -0.696445       -18.9512
 139   2.0000      -0.693760       -18.8782
 140   2.0000      -0.687090       -18.6967
 141   2.0000      -0.679394       -18.4873
 142   2.0000      -0.676313       -18.4034
 143   2.0000      -0.672970       -18.3124
 144   2.0000      -0.672112       -18.2891
 145   2.0000      -0.668749       -18.1976
 146   2.0000      -0.654043       -17.7974
 147   2.0000      -0.651092       -17.7171
 148   2.0000      -0.646239       -17.5850
 149   2.0000      -0.641523       -17.4567
 150   2.0000      -0.632985       -17.2244
 151   2.0000      -0.630471       -17.1560
 152   2.0000      -0.618619       -16.8335
 153   2.0000      -0.617800       -16.8112
 154   2.0000      -0.613364       -16.6905
 155   2.0000      -0.611266       -16.6334
 156   2.0000      -0.609927       -16.5970
 157   2.0000      -0.607203       -16.5228
 158   2.0000      -0.604424       -16.4472
 159   2.0000      -0.597619       -16.2620
 160   2.0000      -0.595098       -16.1934
 161   2.0000      -0.589273       -16.0349
 162   2.0000      -0.580468       -15.7953
 163   2.0000      -0.574200       -15.6248
 164   2.0000      -0.569862       -15.5067
 165   2.0000      -0.557560       -15.1720
 166   2.0000      -0.552008       -15.0209
 167   2.0000      -0.549563       -14.9544
 168   2.0000      -0.547966       -14.9109
 169   2.0000      -0.545595       -14.8464
 170   2.0000      -0.543731       -14.7957
 171   2.0000      -0.539592       -14.6831
 172   2.0000      -0.539050       -14.6683
 173   2.0000      -0.530109       -14.4250
 174   2.0000      -0.525849       -14.3091
 175   2.0000      -0.525030       -14.2868
 176   2.0000      -0.522866       -14.2279
 177   2.0000      -0.519142       -14.1266
 178   2.0000      -0.516565       -14.0565
 179   2.0000      -0.515184       -14.0189
 180   2.0000      -0.511496       -13.9185
 181   2.0000      -0.510676       -13.8962
 182   2.0000      -0.504286       -13.7223
 183   2.0000      -0.500616       -13.6225
 184   2.0000      -0.498158       -13.5556
 185   2.0000      -0.497743       -13.5443
 186   2.0000      -0.494251       -13.4493
 187   2.0000      -0.494038       -13.4435
 188   2.0000      -0.492001       -13.3880
 189   2.0000      -0.490782       -13.3549
 190   2.0000      -0.488818       -13.3014
 191   2.0000      -0.487978       -13.2785
 192   2.0000      -0.486221       -13.2307
 193   2.0000      -0.485647       -13.2151
 194   2.0000      -0.483295       -13.1511
 195   2.0000      -0.481397       -13.0995
 196   2.0000      -0.471174       -12.8213
 197   2.0000      -0.469187       -12.7672
 198   2.0000      -0.467326       -12.7166
 199   2.0000      -0.463230       -12.6051
 200   2.0000      -0.460385       -12.5277
 201   2.0000      -0.458742       -12.4830
 202   2.0000      -0.457193       -12.4408
 203   2.0000      -0.452725       -12.3193
 204   2.0000      -0.452006       -12.2997
 205   2.0000      -0.449636       -12.2352
 206   2.0000      -0.446559       -12.1515
 207   2.0000      -0.445942       -12.1347
 208   2.0000      -0.442555       -12.0425
 209   2.0000      -0.440804       -11.9949
 210   2.0000      -0.439359       -11.9556
 211   2.0000      -0.436755       -11.8847
 212   2.0000      -0.433700       -11.8016
 213   2.0000      -0.431166       -11.7326
 214   2.0000      -0.427871       -11.6430
 215   2.0000      -0.425149       -11.5689
 216   2.0000      -0.424651       -11.5553
 217   2.0000      -0.420358       -11.4385
 218   2.0000      -0.418360       -11.3841
 219   2.0000      -0.417674       -11.3655
 220   2.0000      -0.413460       -11.2508
 221   2.0000      -0.412432       -11.2229
 222   2.0000      -0.409487       -11.1427
 223   2.0000      -0.406175       -11.0526
 224   2.0000      -0.404143       -10.9973
 225   2.0000      -0.402409       -10.9501
 226   2.0000      -0.401440       -10.9237
 227   2.0000      -0.389832       -10.6079
 228   2.0000      -0.389169       -10.5898
 229   2.0000      -0.387548       -10.5457
 230   2.0000      -0.385453       -10.4887
 231   2.0000      -0.376049       -10.2328
 232   2.0000      -0.372140       -10.1265
 233   2.0000      -0.361975        -9.8499
 234   2.0000      -0.357346        -9.7239
 235   2.0000      -0.356039        -9.6883
 236   2.0000      -0.340312        -9.2604
 237   2.0000      -0.335830        -9.1384
 238   2.0000      -0.332897        -9.0586
 239   2.0000      -0.331928        -9.0322
 240   2.0000      -0.326296        -8.8790
 241   2.0000      -0.321827        -8.7573
 242   2.0000      -0.319314        -8.6890
 243   2.0000      -0.315093        -8.5741
 244   2.0000      -0.313887        -8.5413
 245   2.0000      -0.308343        -8.3904
 246   2.0000      -0.307918        -8.3789
 247   2.0000      -0.305713        -8.3189
 248   2.0000      -0.302822        -8.2402
 249   2.0000      -0.291722        -7.9382
 250   2.0000      -0.268603        -7.3091
 251   2.0000      -0.258870        -7.0442
 252   2.0000      -0.243119        -6.6156
 253   2.0000      -0.235873        -6.4184
 254   2.0000      -0.206876        -5.6294
 255   2.0000      -0.191979        -5.2240
 256   0.0000      -0.081723        -2.2238
 257   0.0000      -0.067732        -1.8431
 258   0.0000      -0.027599        -0.7510
 259   0.0000      -0.011971        -0.3258
 260   0.0000       0.011834         0.3220

MULLIKEN ATOMIC CHARGES
-----------------------
   0 C :    0.037220
   1 C :   -0.044115
   2 C :    0.079234
   3 C :    0.062779
   4 C :   -0.003306
   5 C :    0.024130
   6 N :   -0.174685
   7 C :    0.113142
   8 C :    0.005486
   9 C :    0.009649
  10 C :    0.024957
  11 C :    0.010282
  12 C :   -0.019983
  13 C :    0.117736
  14 C :   -0.009372
  15 C :    0.011503
  16 C :    0.023085
  17 C :    0.015123
  18 C :   -0.024905
  19 C :   -0.035201
  20 C :    0.055996
  21 C :   -0.008975
  22 C :   -0.018412
  23 C :    0.039107
  24 C :    0.024412
  25 C :   -0.042105
  26 S :    0.062267
  27 C :   -0.040290
  28 C :    0.027448
  29 C :    0.035242
  30 C :   -0.026496
  31 S :    0.056964
  32 C :    0.037924
  33 C :   -0.075989
  34 C :   -0.046234
  35 C :    0.109352
  36 C :   -0.036985
  37 S :    0.088665
  38 C :   -0.061558
  39 C :    0.103709
  40 C :   -0.032016
  41 C :   -0.061097
  42 S :    0.089490
  43 C :   -0.076277
  44 C :   -0.043481
  45 C :    0.038087
  46 C :   -0.026764
  47 C :    0.034598
  48 C :    0.026647
  49 C :   -0.040018
  50 S :    0.057902
  51 C :   -0.030868
  52 C :    0.019285
  53 C :    0.035219
  54 C :   -0.039921
  55 S :    0.063669
  56 C :   -0.027990
  57 C :   -0.144556
  58 S :    0.123013
  59 C :   -0.120913
  60 C :    0.029667
  61 C :    0.132303
  62 N :   -0.042451
  63 N :   -0.063186
  64 C :   -0.018030
  65 C :    0.038310
  66 C :   -0.020150
  67 H :   -0.019774
  68 H :   -0.030757
  69 H :   -0.012952
  70 H :   -0.016629
  71 H :   -0.014360
  72 H :   -0.022970
  73 H :   -0.025209
  74 H :   -0.019166
  75 H :   -0.004678
  76 H :   -0.010992
  77 H :   -0.014246
  78 H :   -0.018830
  79 H :   -0.016464
  80 H :   -0.008680
  81 H :   -0.019065
  82 H :    0.009225
  83 H :   -0.019971
  84 H :   -0.013940
  85 H :   -0.015465
  86 H :   -0.017030
  87 H :   -0.015412
  88 H :   -0.021193
  89 H :   -0.007804
  90 H :   -0.035069
  91 H :   -0.048052
  92 H :   -0.012923
  93 H :   -0.019908
  94 H :   -0.014792
  95 H :   -0.017038
  96 H :   -0.016173
  97 H :   -0.017094
  98 H :   -0.027879
  99 H :    0.133798
 100 H :   -0.000154
 101 H :   -0.013328
 102 H :    0.010133
 103 H :    0.027570
Sum of atomic charges:   -0.0000000

LOEWDIN ATOMIC CHARGES
----------------------
   0 C :   -0.035911
   1 C :   -0.013352
   2 C :   -0.042182
   3 C :    0.024954
   4 C :   -0.030485
   5 C :   -0.020826
   6 N :   -0.009089
   7 C :    0.026078
   8 C :   -0.042148
   9 C :   -0.020152
  10 C :   -0.045071
  11 C :   -0.016603
  12 C :   -0.040984
  13 C :    0.023978
  14 C :   -0.044990
  15 C :   -0.019103
  16 C :   -0.044499
  17 C :   -0.015597
  18 C :   -0.040732
  19 C :   -0.012981
  20 C :   -0.022731
  21 C :   -0.042139
  22 C :   -0.145174
  23 C :   -0.030430
  24 C :   -0.035836
  25 C :   -0.174704
  26 S :    0.378597
  27 C :   -0.184551
  28 C :   -0.036719
  29 C :   -0.034903
  30 C :   -0.139716
  31 S :    0.385419
  32 C :   -0.082365
  33 C :   -0.151645
  34 C :   -0.069180
  35 C :   -0.041396
  36 C :   -0.152699
  37 S :    0.377141
  38 C :   -0.040652
  39 C :   -0.043154
  40 C :   -0.152060
  41 C :   -0.044812
  42 S :    0.377328
  43 C :   -0.152709
  44 C :   -0.068079
  45 C :   -0.080290
  46 C :   -0.140769
  47 C :   -0.034165
  48 C :   -0.037445
  49 C :   -0.182797
  50 S :    0.383350
  51 C :   -0.173994
  52 C :   -0.044298
  53 C :   -0.031935
  54 C :   -0.165048
  55 S :    0.367096
  56 C :   -0.070571
  57 C :   -0.214368
  58 S :    0.455714
  59 C :   -0.169284
  60 C :   -0.093675
  61 C :   -0.017483
  62 N :    0.087300
  63 N :   -0.056675
  64 C :   -0.039754
  65 C :   -0.043131
  66 C :   -0.041989
  67 H :    0.026757
  68 H :    0.026306
  69 H :    0.033514
  70 H :    0.028180
  71 H :    0.030198
  72 H :    0.026060
  73 H :    0.023395
  74 H :    0.027927
  75 H :    0.022216
  76 H :    0.030051
  77 H :    0.026979
  78 H :    0.023670
  79 H :    0.029035
  80 H :    0.032181
  81 H :    0.026394
  82 H :    0.021040
  83 H :    0.031725
  84 H :    0.033206
  85 H :    0.031096
  86 H :    0.030646
  87 H :    0.032280
  88 H :    0.031367
  89 H :    0.017021
  90 H :    0.029204
  91 H :    0.027857
  92 H :    0.016041
  93 H :    0.031963
  94 H :    0.032663
  95 H :    0.030764
  96 H :    0.030759
  97 H :    0.031550
  98 H :    0.034220
  99 H :    0.084993
 100 H :    0.020644
 101 H :    0.030023
 102 H :    0.021774
 103 H :    0.027376

  Mayer bond orders larger than 0.100000
B(  0-C ,  1-C ) :   1.3889 B(  0-C ,  5-C ) :   1.3521 B(  0-C , 67-H ) :   0.9931
B(  1-C ,  2-C ) :   1.3366 B(  1-C , 68-H ) :   0.9943 B(  2-C ,  3-C ) :   1.3531
B(  2-C , 19-C ) :   1.0417 B(  3-C ,  4-C ) :   1.3977 B(  3-C ,  6-N ) :   0.9971
B(  4-C ,  5-C ) :   1.3701 B(  4-C , 69-H ) :   0.9871 B(  5-C , 70-H ) :   0.9878
B(  6-N ,  7-C ) :   0.9974 B(  6-N , 13-C ) :   0.9863 B(  7-C ,  8-C ) :   1.3972
B(  7-C , 12-C ) :   1.3660 B(  8-C ,  9-C ) :   1.3765 B(  8-C , 71-H ) :   0.9874
B(  9-C , 10-C ) :   1.3767 B(  9-C , 72-H ) :   0.9852 B( 10-C , 11-C ) :   1.3793
B( 10-C , 73-H ) :   0.9951 B( 11-C , 12-C ) :   1.3844 B( 11-C , 74-H ) :   0.9861
B( 12-C , 75-H ) :   0.9848 B( 13-C , 14-C ) :   1.3903 B( 13-C , 18-C ) :   1.3810
B( 14-C , 15-C ) :   1.3721 B( 14-C , 76-H ) :   0.9852 B( 15-C , 16-C ) :   1.3757
B( 15-C , 77-H ) :   0.9851 B( 16-C , 17-C ) :   1.3851 B( 16-C , 78-H ) :   0.9899
B( 17-C , 18-C ) :   1.3777 B( 17-C , 79-H ) :   0.9855 B( 18-C , 80-H ) :   0.9929
B( 19-C , 20-C ) :   1.6893 B( 19-C , 81-H ) :   0.9725 B( 20-C , 21-C ) :   1.1479
B( 20-C , 82-H ) :   0.9594 B( 21-C , 22-C ) :   1.5838 B( 21-C , 83-H ) :   0.9862
B( 22-C , 23-C ) :   1.1339 B( 22-C , 26-S ) :   1.0237 B( 23-C , 24-C ) :   1.5932
B( 23-C , 84-H ) :   0.9992 B( 24-C , 25-C ) :   1.1837 B( 24-C , 85-H ) :   0.9935
B( 25-C , 26-S ) :   1.0536 B( 25-C , 27-C ) :   1.5126 B( 27-C , 28-C ) :   1.1878
B( 27-C , 31-S ) :   1.0336 B( 28-C , 29-C ) :   1.5913 B( 28-C , 86-H ) :   0.9927
B( 29-C , 30-C ) :   1.1434 B( 29-C , 87-H ) :   0.9983 B( 30-C , 31-S ) :   1.0426
B( 30-C , 32-C ) :   1.6064 B( 32-C , 33-C ) :   1.1597 B( 32-C , 88-H ) :   0.9510
B( 33-C , 34-C ) :   1.5177 B( 33-C , 37-S ) :   1.0563 B( 34-C , 35-C ) :   1.1937
B( 34-C , 89-H ) :   0.9787 B( 35-C , 36-C ) :   1.2710 B( 35-C , 41-C ) :   1.3048
B( 36-C , 37-S ) :   1.0407 B( 36-C , 38-C ) :   1.3936 B( 38-C , 39-C ) :   1.3027
B( 38-C , 90-H ) :   1.0011 B( 39-C , 40-C ) :   1.2705 B( 39-C , 44-C ) :   1.1939
B( 40-C , 41-C ) :   1.3889 B( 40-C , 42-S ) :   1.0417 B( 41-C , 91-H ) :   0.9993
B( 42-S , 43-C ) :   1.0556 B( 43-C , 44-C ) :   1.5164 B( 43-C , 45-C ) :   1.1632
B( 44-C , 92-H ) :   0.9792 B( 45-C , 46-C ) :   1.6002 B( 45-C , 93-H ) :   0.9504
B( 46-C , 47-C ) :   1.1499 B( 46-C , 50-S ) :   1.0420 B( 47-C , 48-C ) :   1.5816
B( 47-C , 94-H ) :   0.9983 B( 48-C , 49-C ) :   1.1963 B( 48-C , 95-H ) :   0.9923
B( 49-C , 50-S ) :   1.0361 B( 49-C , 51-C ) :   1.4999 B( 51-C , 52-C ) :   1.1973
B( 51-C , 55-S ) :   1.0444 B( 52-C , 53-C ) :   1.5741 B( 52-C , 96-H ) :   0.9926
B( 53-C , 54-C ) :   1.1575 B( 53-C , 97-H ) :   0.9995 B( 54-C , 55-S ) :   1.0352
B( 54-C , 56-C ) :   1.5416 B( 56-C , 57-C ) :   1.2258 B( 56-C , 98-H ) :   0.9696
B( 57-C , 58-S ) :   1.0763 B( 57-C , 59-C ) :   0.1050 B( 57-C , 61-C ) :   1.3425
B( 58-S , 59-C ) :   1.1523 B( 59-C , 60-C ) :   1.3130 B( 59-C , 65-C ) :   1.1464
B( 60-C , 61-C ) :   1.2719 B( 60-C , 64-C ) :   1.1516 B( 61-C , 62-N ) :   1.1613
B( 62-N , 63-N ) :   1.1320 B( 62-N , 99-H ) :   0.9490 B( 63-N , 64-C ) :   1.7443
B( 64-C ,100-H ) :   0.9978 B( 65-C , 66-C ) :   1.9027 B( 65-C ,101-H ) :   0.9499
B( 66-C ,102-H ) :   0.9545 B( 66-C ,103-H ) :   0.9477

-----------------------------------------------------------------------------
         ABSORPTION SPECTRUM VIA TRANSITION ELECTRIC DIPOLE MOMENTS
-----------------------------------------------------------------------------
State   Energy  Wavelength   fosc         T2         TX        TY        TZ
        (cm-1)    (nm)                  (au**2)     (au)      (au)      (au)
-----------------------------------------------------------------------------
   0   11781.6    848.8   1.783706747  49.84179  -4.91655  -4.92340  -1.19559
   1   15205.9    657.6   0.155180695   3.35970  -0.49757  -1.76412  -0.00197
   2   17334.4    576.9   0.007309204   0.13882  -0.32449  -0.02323  -0.18161
   3   19444.9    514.3   0.280372621   4.74684   1.12056  -1.79693   0.51209
   4   20808.0    480.6   0.631030664   9.98380   2.55822  -0.78337   1.68096
   5   21243.5    470.7   0.030304550   0.46963   0.43639   0.48867   0.20099
   6   23529.3    425.0   0.294002957   4.11357  -1.42333   1.00375  -1.03932
   7   24464.1    408.8   0.264099683   3.55397  -0.84389   1.53912  -0.68770
   8   25837.1    387.0   1.040105775  13.25285   0.76113  -3.30487   1.32340
   9   26187.7    381.9   0.235665326   2.96261   0.97526  -1.27243   0.62642
  10   27167.7    368.1   0.021807401   0.26426  -0.29449  -0.33309  -0.25805
  11   28606.6    349.6   0.072783041   0.83761  -0.64401   0.63961  -0.11730
  12   29021.3    344.6   0.153223950   1.73814  -1.05343   0.56396  -0.55712
  13   29648.5    337.3   0.015062760   0.16725  -0.22810  -0.27439  -0.19984
  14   30284.5    330.2   0.000216342   0.00235  -0.01642   0.03844   0.02459
  15   30941.1    323.2   0.011034109   0.11740  -0.24092   0.24049   0.03906
  16   31193.9    320.6   0.060999512   0.64377  -0.39517  -0.11869  -0.68813
  17   32178.8    310.8   0.144186643   1.47513  -0.55741  -1.07346  -0.11005
  18   32281.2    309.8   0.014322129   0.14606  -0.15156   0.34128  -0.08134
  19   32475.5    307.9   0.008660473   0.08779   0.15406   0.25232   0.01981
  20   32847.0    304.4   0.018597280   0.18639   0.05377  -0.18005   0.38870
  21   32926.6    303.7   0.001300817   0.01301   0.04552  -0.10315   0.01716
  22   33208.8    301.1   0.036882528   0.36563   0.16391  -0.58147   0.02567
  23   33775.2    296.1   0.010050713   0.09797   0.17342   0.25564   0.05041
  24   33862.9    295.3   0.042644921   0.41459   0.43509   0.00824   0.47457
  25   34354.0    291.1   0.006669388   0.06391  -0.14370   0.10058   0.18206
  26   34574.4    289.2   0.035066940   0.33390   0.25400   0.49932  -0.14165
  27   34866.0    286.8   0.022641371   0.21378  -0.13188   0.42223  -0.13459
  28   35080.6    285.1   0.042617868   0.39994   0.04615  -0.61487   0.14055
  29   35356.8    282.8   0.070678683   0.65810   0.49357  -0.40132   0.50342
  30   35776.5    279.5   0.006196058   0.05702  -0.19549  -0.09347   0.10031
  31   35790.4    279.4   0.052124115   0.47946   0.62090   0.14401   0.27057
  32   36412.1    274.6   0.172610114   1.56061   0.72793  -0.51495   0.87497
  33   36585.8    273.3   0.031297896   0.28163  -0.26573  -0.29146  -0.35506
  34   37002.0    270.3   0.034855561   0.31011  -0.34728  -0.33646  -0.27623
  35   37202.3    268.8   0.052329710   0.46308   0.15875   0.65589  -0.08763
  36   37432.7    267.1   0.014345239   0.12616  -0.00018   0.30530  -0.18153
  37   37753.2    264.9   0.027607297   0.24074  -0.33366  -0.35402  -0.06388
  38   37920.5    263.7   0.078694705   0.68320  -0.76225  -0.23948  -0.21171
  39   38061.2    262.7   0.054896615   0.47483  -0.21295   0.18878  -0.62757
  40   38188.5    261.9   0.018826979   0.16230   0.23141   0.00703   0.32970
  41   38606.3    259.0   0.040372918   0.34428  -0.41448  -0.37205  -0.18456
  42   38904.4    257.0   0.214314176   1.81354  -0.79067  -1.04350   0.31544
  43   38999.9    256.4   0.006027521   0.05088  -0.18465   0.06365  -0.11284
  44   39349.6    254.1   0.135349160   1.13238   0.42965   0.97274  -0.03935
  45   39638.3    252.3   0.058399175   0.48503  -0.49792  -0.46662  -0.13916
  46   39940.2    250.4   0.033599857   0.27695  -0.06323   0.52222   0.01547
  47   40243.8    248.5   0.161369986   1.32008  -0.01628  -0.66503   0.93677

FINAL SINGLE POINT ENERGY     -5141.933833637104

DIPOLE MOMENT
-------------
                                X             Y             Z
Electronic contribution:    -39.40719     -41.70366      -1.21738
Nuclear contribution   :     39.73920      41.75104       1.53380
                        -----------------------------------------
Total Dipole Moment    :      0.33201       0.04737       0.31642
                        -----------------------------------------
Magnitude (a.u.)       :      0.46108
Magnitude (Debye)      :      1.17197

Rotational constants in cm-1:     0.001757     0.000266     0.000237
Rotational constants in MHz :    52.685463     7.984549     7.103707

                             ****ORCA TERMINATED NORMALLY****
TOTAL RUN TIME: 0 days 0 hours 10 minutes 19 seconds 245 msec
