                         Program Version 4.2.0 -  RELEASE  -
|  1> # ORCA input file
|  2> # SCF done       -189.509157398286          0.000681003876
|  3> ! CAM-B3LYP def2-SVP def2/J RIJCOSX Grid4 TightSCF
|  4> %maxcore 5000
|  5> %tddft
|  6>     Mode sTDDFT
|  7>     Ethresh 5.0
|  8>     maxcore 5000
|  9> end
| 10>
| 11> %pal
| 12>   nprocs 6
| 13>   end
| 14> * xyz 0 1
| 15>    C        3.17457         4.53010         6.62494
| 16>    C        3.60682         3.67499         5.65445
| 17>    C        4.95914         3.94779         5.25488
| 18>    C        5.51625         4.99290         5.91433
| 19>    S        4.39881         5.66244         7.04581
| 20>    C        5.37911         3.00636         4.20762
| 21>    O        6.45278         2.95363         3.65364
| 22>    C        4.21087         2.09409         4.05075
| 23>    C        3.09904         2.58954         4.83901
| 24>    C        1.80394         2.15722         4.69702
| 25>    N        0.72721         2.50802         5.56028
| 26>    O        1.00053         2.85693         6.69401
| 27>    O       -0.39582         2.44392         5.10714
| 28>    N        1.40047         1.32829         3.57479
| 29>    O        0.73742         0.34905         3.82224
| 30>    O        1.76511         1.67704         2.47340
| 31>    C        4.27619         0.83343         3.52094
| 32>    C        5.28914         0.35675         2.64246
| 33>    C        5.82050         1.20701         1.69469
| 34>    S        6.92231         0.48486         0.62944
| 35>    C        6.76397        -1.02995         1.47608
| 36>    C        5.84139        -0.98011         2.52968
| 37>    C        5.68083        -2.12207         3.35158
| 38>    C        4.64932        -2.07208         4.44408
| 39>    C        3.24866        -2.32951         3.87345
| 40>    C        6.43799        -3.26679         3.11781
| 41>    C        6.41388        -4.43482         4.06926
| 42>    C        5.27480        -5.42027         3.78759
| 43>    C        7.29239        -3.33769         1.99139
| 44>    C        8.12282        -4.41533         1.50175
| 45>    C        8.85815        -4.02968         0.42117
| 46>    S        8.60692        -2.40644        -0.08707
| 47>    C        7.45712        -2.19295         1.19143
| 48>    C        8.18336        -5.78651         1.98358
| 49>    C        9.29620        -6.52603         1.94727
| 50>    C        9.38154        -7.90015         2.40739
| 51>    C        8.77880        -8.35206         3.54618
| 52>    O        7.93329        -7.64732         4.32535
| 53>    C        7.77945        -8.08806         5.65557
| 54>    S        9.23111        -9.99890         3.93158
| 55>    C       10.25193       -10.06442         2.52521
| 56>    O       10.93924       -11.16570         2.17979
| 57>    C       10.87082       -12.26608         3.05461
| 58>    C       10.21818        -8.89986         1.79462
| 59>    C       10.90962        -8.77882         0.54252
| 60>    C       10.58564        -7.91286        -0.43958
| 61>    C       11.25783        -7.80366        -1.68664
| 62>    S       12.66503        -8.78170        -2.07668
| 63>    C       12.76819        -8.05739        -3.62394
| 64>    C       11.76973        -7.10853        -3.82439
| 65>    C       10.91770        -6.96148        -2.73370
| 66>    C       11.94644        -6.55579        -5.18248
| 67>    O       11.28503        -5.70673        -5.72916
| 68>    C       13.14829        -7.29791        -5.73451
| 69>    C       13.59898        -8.16916        -4.77652
| 70>    C       13.69774        -7.11971        -7.02746
| 71>    C       13.22562        -6.25589        -7.95988
| 72>    C       13.78144        -6.09870        -9.25600
| 73>    C       13.34650        -5.24467       -10.23423
| 74>    C       14.09757        -5.31127       -11.43191
| 75>    C       15.14812        -6.26394       -11.34602
| 76>    S       15.17063        -7.04176        -9.78792
| 77>    C       16.01388        -6.50768       -12.38899
| 78>    C       15.83802        -5.78282       -13.56528
| 79>    C       14.78998        -4.83075       -13.65218
| 80>    C       13.92283        -4.58564       -12.61059
| 81>    S       14.77619        -4.05610       -15.21578
| 82>    C       16.14075        -4.99772       -15.71919
| 83>    C       16.59117        -5.84810       -14.77423
| 84>    H        2.23693         4.54760         7.14336
| 85>    H        6.49637         5.41244         5.80650
| 86>    H        3.49465         0.14071         3.79240
| 87>    H        5.52691         2.22466         1.53064
| 88>    H        4.84912        -2.81568         5.21260
| 89>    H        4.69190        -1.09407         4.92974
| 90>    H        3.15160        -3.36684         3.56544
| 91>    H        3.05423        -1.71983         2.99396
| 92>    H        2.48453        -2.12200         4.61966
| 93>    H        6.33558        -4.07652         5.09712
| 94>    H        7.36757        -4.95640         3.99298
| 95>    H        5.49468        -6.38399         4.24021
| 96>    H        5.14541        -5.56284         2.71692
| 97>    H        4.33428        -5.06025         4.19433
| 98>    H        9.53344        -4.63912        -0.14710
| 99>    H        7.26726        -6.23961         2.32381
|100>    H       10.22862        -6.10311         1.59650
|101>    H        7.12352        -7.36758         6.14015
|102>    H        8.74057        -8.12155         6.17747
|103>    H        7.32233        -9.08308         5.68676
|104>    H       11.47570       -13.04981         2.60354
|105>    H        9.83843       -12.61370         3.16868
|106>    H       11.26974       -12.01085         4.04202
|107>    H       11.70928        -9.49077         0.38367
|108>    H        9.73442        -7.25673        -0.31879
|109>    H       10.08403        -6.28366        -2.69363
|110>    H       14.43786        -8.83471        -4.87130
|111>    H       14.55790        -7.73483        -7.27043
|112>    H       12.37057        -5.63540        -7.73232
|113>    H       12.50803        -4.58459       -10.09941
|114>    H       16.80494        -7.23593       -12.30303
|115>    H       13.13188        -3.85752       -12.69605
|116>    H       16.52429        -4.84828       -16.70982
|117>    H       17.42877        -6.50862       -14.91070
|118> *
|119>
|120>                          ****END OF INPUT****

CARTESIAN COORDINATES (ANGSTROEM)
---------------------------------
  C      3.174570    4.530100    6.624940
  C      3.606820    3.674990    5.654450
  C      4.959140    3.947790    5.254880
  C      5.516250    4.992900    5.914330
  S      4.398810    5.662440    7.045810
  C      5.379110    3.006360    4.207620
  O      6.452780    2.953630    3.653640
  C      4.210870    2.094090    4.050750
  C      3.099040    2.589540    4.839010
  C      1.803940    2.157220    4.697020
  N      0.727210    2.508020    5.560280
  O      1.000530    2.856930    6.694010
  O     -0.395820    2.443920    5.107140
  N      1.400470    1.328290    3.574790
  O      0.737420    0.349050    3.822240
  O      1.765110    1.677040    2.473400
  C      4.276190    0.833430    3.520940
  C      5.289140    0.356750    2.642460
  C      5.820500    1.207010    1.694690
  S      6.922310    0.484860    0.629440
  C      6.763970   -1.029950    1.476080
  C      5.841390   -0.980110    2.529680
  C      5.680830   -2.122070    3.351580
  C      4.649320   -2.072080    4.444080
  C      3.248660   -2.329510    3.873450
  C      6.437990   -3.266790    3.117810
  C      6.413880   -4.434820    4.069260
  C      5.274800   -5.420270    3.787590
  C      7.292390   -3.337690    1.991390
  C      8.122820   -4.415330    1.501750
  C      8.858150   -4.029680    0.421170
  S      8.606920   -2.406440   -0.087070
  C      7.457120   -2.192950    1.191430
  C      8.183360   -5.786510    1.983580
  C      9.296200   -6.526030    1.947270
  C      9.381540   -7.900150    2.407390
  C      8.778800   -8.352060    3.546180
  O      7.933290   -7.647320    4.325350
  C      7.779450   -8.088060    5.655570
  S      9.231110   -9.998900    3.931580
  C     10.251930  -10.064420    2.525210
  O     10.939240  -11.165700    2.179790
  C     10.870820  -12.266080    3.054610
  C     10.218180   -8.899860    1.794620
  C     10.909620   -8.778820    0.542520
  C     10.585640   -7.912860   -0.439580
  C     11.257830   -7.803660   -1.686640
  S     12.665030   -8.781700   -2.076680
  C     12.768190   -8.057390   -3.623940
  C     11.769730   -7.108530   -3.824390
  C     10.917700   -6.961480   -2.733700
  C     11.946440   -6.555790   -5.182480
  O     11.285030   -5.706730   -5.729160
  C     13.148290   -7.297910   -5.734510
  C     13.598980   -8.169160   -4.776520
  C     13.697740   -7.119710   -7.027460
  C     13.225620   -6.255890   -7.959880
  C     13.781440   -6.098700   -9.256000
  C     13.346500   -5.244670  -10.234230
  C     14.097570   -5.311270  -11.431910
  C     15.148120   -6.263940  -11.346020
  S     15.170630   -7.041760   -9.787920
  C     16.013880   -6.507680  -12.388990
  C     15.838020   -5.782820  -13.565280
  C     14.789980   -4.830750  -13.652180
  C     13.922830   -4.585640  -12.610590
  S     14.776190   -4.056100  -15.215780
  C     16.140750   -4.997720  -15.719190
  C     16.591170   -5.848100  -14.774230
  H      2.236930    4.547600    7.143360
  H      6.496370    5.412440    5.806500
  H      3.494650    0.140710    3.792400
  H      5.526910    2.224660    1.530640
  H      4.849120   -2.815680    5.212600
  H      4.691900   -1.094070    4.929740
  H      3.151600   -3.366840    3.565440
  H      3.054230   -1.719830    2.993960
  H      2.484530   -2.122000    4.619660
  H      6.335580   -4.076520    5.097120
  H      7.367570   -4.956400    3.992980
  H      5.494680   -6.383990    4.240210
  H      5.145410   -5.562840    2.716920
  H      4.334280   -5.060250    4.194330
  H      9.533440   -4.639120   -0.147100
  H      7.267260   -6.239610    2.323810
  H     10.228620   -6.103110    1.596500
  H      7.123520   -7.367580    6.140150
  H      8.740570   -8.121550    6.177470
  H      7.322330   -9.083080    5.686760
  H     11.475700  -13.049810    2.603540
  H      9.838430  -12.613700    3.168680
  H     11.269740  -12.010850    4.042020
  H     11.709280   -9.490770    0.383670
  H      9.734420   -7.256730   -0.318790
  H     10.084030   -6.283660   -2.693630
  H     14.437860   -8.834710   -4.871300
  H     14.557900   -7.734830   -7.270430
  H     12.370570   -5.635400   -7.732320
  H     12.508030   -4.584590  -10.099410
  H     16.804940   -7.235930  -12.303030
  H     13.131880   -3.857520  -12.696050
  H     16.524290   -4.848280  -16.709820
  H     17.428770   -6.508620  -14.910700

 Total Charge           Charge          ....    0
 Multiplicity           Mult            ....    1
 Number of Electrons    NEL             ....  536
 Basis Dimension        Dim             .... 1164

ORBITAL ENERGIES
----------------

  NO   OCC          E(Eh)            E(eV)
   0   2.0000     -88.980950     -2421.2947
   1   2.0000     -88.965378     -2420.8710
   2   2.0000     -88.963934     -2420.8317
   3   2.0000     -88.963565     -2420.8217
   4   2.0000     -88.949594     -2420.4415
   5   2.0000     -88.937979     -2420.1254
   6   2.0000     -88.935385     -2420.0549
   7   2.0000     -19.263579      -524.1886
   8   2.0000     -19.262913      -524.1705
   9   2.0000     -19.252466      -523.8862
  10   2.0000     -19.250319      -523.8278
  11   2.0000     -19.244664      -523.6739
  12   2.0000     -19.244560      -523.6711
  13   2.0000     -19.220125      -523.0062
  14   2.0000     -19.213179      -522.8172
  15   2.0000     -14.658646      -398.8820
  16   2.0000     -14.656857      -398.8333
  17   2.0000     -10.369758      -282.1755
  18   2.0000     -10.363477      -282.0046
  19   2.0000     -10.363400      -282.0024
  20   2.0000     -10.350401      -281.6487
  21   2.0000     -10.348085      -281.5857
  22   2.0000     -10.347508      -281.5700
  23   2.0000     -10.335861      -281.2531
  24   2.0000     -10.335343      -281.2390
  25   2.0000     -10.320351      -280.8310
  26   2.0000     -10.319577      -280.8100
  27   2.0000     -10.318644      -280.7846
  28   2.0000     -10.314994      -280.6853
  29   2.0000     -10.304034      -280.3870
  30   2.0000     -10.301586      -280.3204
  31   2.0000     -10.301141      -280.3083
  32   2.0000     -10.299856      -280.2733
  33   2.0000     -10.298881      -280.2468
  34   2.0000     -10.295159      -280.1455
  35   2.0000     -10.293732      -280.1067
  36   2.0000     -10.291653      -280.0501
  37   2.0000     -10.291465      -280.0450
  38   2.0000     -10.290492      -280.0185
  39   2.0000     -10.290014      -280.0055
  40   2.0000     -10.290001      -280.0052
  41   2.0000     -10.289415      -279.9892
  42   2.0000     -10.289047      -279.9792
  43   2.0000     -10.284714      -279.8613
  44   2.0000     -10.279708      -279.7251
  45   2.0000     -10.278333      -279.6877
  46   2.0000     -10.277982      -279.6781
  47   2.0000     -10.277627      -279.6685
  48   2.0000     -10.276692      -279.6430
  49   2.0000     -10.276294      -279.6322
  50   2.0000     -10.273104      -279.5454
  51   2.0000     -10.272810      -279.5374
  52   2.0000     -10.272777      -279.5365
  53   2.0000     -10.272632      -279.5325
  54   2.0000     -10.272197      -279.5207
  55   2.0000     -10.271525      -279.5024
  56   2.0000     -10.271422      -279.4996
  57   2.0000     -10.270975      -279.4874
  58   2.0000     -10.270851      -279.4841
  59   2.0000     -10.269843      -279.4566
  60   2.0000     -10.268612      -279.4231
  61   2.0000     -10.268313      -279.4150
  62   2.0000     -10.266749      -279.3725
  63   2.0000     -10.265862      -279.3483
  64   2.0000     -10.265544      -279.3397
  65   2.0000     -10.264487      -279.3109
  66   2.0000     -10.261567      -279.2314
  67   2.0000     -10.256177      -279.0848
  68   2.0000     -10.255400      -279.0636
  69   2.0000      -8.076981      -219.7858
  70   2.0000      -8.061729      -219.3708
  71   2.0000      -8.059829      -219.3191
  72   2.0000      -8.058827      -219.2918
  73   2.0000      -8.045818      -218.9378
  74   2.0000      -8.034365      -218.6262
  75   2.0000      -8.031368      -218.5446
  76   2.0000      -6.046145      -164.5240
  77   2.0000      -6.041474      -164.3969
  78   2.0000      -6.039770      -164.3505
  79   2.0000      -6.030999      -164.1118
  80   2.0000      -6.029187      -164.0625
  81   2.0000      -6.027903      -164.0276
  82   2.0000      -6.026711      -163.9951
  83   2.0000      -6.025349      -163.9581
  84   2.0000      -6.023971      -163.9206
  85   2.0000      -6.023838      -163.9170
  86   2.0000      -6.021380      -163.8501
  87   2.0000      -6.021303      -163.8480
  88   2.0000      -6.015324      -163.6853
  89   2.0000      -6.011123      -163.5710
  90   2.0000      -6.007458      -163.4712
  91   2.0000      -6.004029      -163.3779
  92   2.0000      -6.000924      -163.2934
  93   2.0000      -5.999801      -163.2629
  94   2.0000      -5.997075      -163.1887
  95   2.0000      -5.995692      -163.1511
  96   2.0000      -5.992567      -163.0660
  97   2.0000      -1.339100       -36.4388
  98   2.0000      -1.321268       -35.9535
  99   2.0000      -1.171369       -31.8746
 100   2.0000      -1.167455       -31.7681
 101   2.0000      -1.153529       -31.3891
 102   2.0000      -1.144167       -31.1344
 103   2.0000      -1.130812       -30.7710
 104   2.0000      -1.130608       -30.7654
 105   2.0000      -1.018498       -27.7147
 106   2.0000      -1.006722       -27.3943
 107   2.0000      -0.996468       -27.1153
 108   2.0000      -0.987646       -26.8752
 109   2.0000      -0.980453       -26.6795
 110   2.0000      -0.975589       -26.5471
 111   2.0000      -0.973370       -26.4867
 112   2.0000      -0.962696       -26.1963
 113   2.0000      -0.935491       -25.4560
 114   2.0000      -0.935347       -25.4521
 115   2.0000      -0.927733       -25.2449
 116   2.0000      -0.903210       -24.5776
 117   2.0000      -0.901120       -24.5207
 118   2.0000      -0.892064       -24.2743
 119   2.0000      -0.885503       -24.0958
 120   2.0000      -0.867300       -23.6004
 121   2.0000      -0.863837       -23.5062
 122   2.0000      -0.863172       -23.4881
 123   2.0000      -0.858840       -23.3702
 124   2.0000      -0.846135       -23.0245
 125   2.0000      -0.845295       -23.0016
 126   2.0000      -0.839906       -22.8550
 127   2.0000      -0.836268       -22.7560
 128   2.0000      -0.830535       -22.6000
 129   2.0000      -0.819647       -22.3037
 130   2.0000      -0.816772       -22.2255
 131   2.0000      -0.811141       -22.0723
 132   2.0000      -0.806794       -21.9540
 133   2.0000      -0.799000       -21.7419
 134   2.0000      -0.794658       -21.6237
 135   2.0000      -0.783569       -21.3220
 136   2.0000      -0.777092       -21.1458
 137   2.0000      -0.769875       -20.9494
 138   2.0000      -0.765632       -20.8339
 139   2.0000      -0.756041       -20.5729
 140   2.0000      -0.745659       -20.2904
 141   2.0000      -0.740463       -20.1490
 142   2.0000      -0.720555       -19.6073
 143   2.0000      -0.716719       -19.5029
 144   2.0000      -0.707536       -19.2530
 145   2.0000      -0.695048       -18.9132
 146   2.0000      -0.692480       -18.8433
 147   2.0000      -0.687472       -18.7071
 148   2.0000      -0.680692       -18.5226
 149   2.0000      -0.672264       -18.2932
 150   2.0000      -0.669681       -18.2229
 151   2.0000      -0.664614       -18.0851
 152   2.0000      -0.652867       -17.7654
 153   2.0000      -0.649611       -17.6768
 154   2.0000      -0.647177       -17.6106
 155   2.0000      -0.647156       -17.6100
 156   2.0000      -0.644965       -17.5504
 157   2.0000      -0.638777       -17.3820
 158   2.0000      -0.634754       -17.2725
 159   2.0000      -0.632469       -17.2104
 160   2.0000      -0.627544       -17.0763
 161   2.0000      -0.625874       -17.0309
 162   2.0000      -0.623232       -16.9590
 163   2.0000      -0.618427       -16.8283
 164   2.0000      -0.614573       -16.7234
 165   2.0000      -0.613676       -16.6990
 166   2.0000      -0.607119       -16.5206
 167   2.0000      -0.597364       -16.2551
 168   2.0000      -0.591413       -16.0932
 169   2.0000      -0.589830       -16.0501
 170   2.0000      -0.588903       -16.0249
 171   2.0000      -0.584219       -15.8974
 172   2.0000      -0.580135       -15.7863
 173   2.0000      -0.579021       -15.7560
 174   2.0000      -0.570839       -15.5333
 175   2.0000      -0.568645       -15.4736
 176   2.0000      -0.563652       -15.3377
 177   2.0000      -0.560384       -15.2488
 178   2.0000      -0.557772       -15.1778
 179   2.0000      -0.555499       -15.1159
 180   2.0000      -0.550437       -14.9781
 181   2.0000      -0.548750       -14.9323
 182   2.0000      -0.545098       -14.8329
 183   2.0000      -0.537507       -14.6263
 184   2.0000      -0.535783       -14.5794
 185   2.0000      -0.532141       -14.4803
 186   2.0000      -0.529365       -14.4048
 187   2.0000      -0.525324       -14.2948
 188   2.0000      -0.523409       -14.2427
 189   2.0000      -0.520203       -14.1554
 190   2.0000      -0.517138       -14.0721
 191   2.0000      -0.516673       -14.0594
 192   2.0000      -0.512726       -13.9520
 193   2.0000      -0.511107       -13.9079
 194   2.0000      -0.505135       -13.7454
 195   2.0000      -0.502355       -13.6698
 196   2.0000      -0.496780       -13.5181
 197   2.0000      -0.496019       -13.4974
 198   2.0000      -0.494294       -13.4504
 199   2.0000      -0.492743       -13.4082
 200   2.0000      -0.492063       -13.3897
 201   2.0000      -0.489576       -13.3220
 202   2.0000      -0.487575       -13.2676
 203   2.0000      -0.483705       -13.1623
 204   2.0000      -0.481491       -13.1020
 205   2.0000      -0.478645       -13.0246
 206   2.0000      -0.473766       -12.8918
 207   2.0000      -0.471717       -12.8361
 208   2.0000      -0.470730       -12.8092
 209   2.0000      -0.467928       -12.7330
 210   2.0000      -0.466899       -12.7050
 211   2.0000      -0.466088       -12.6829
 212   2.0000      -0.463067       -12.6007
 213   2.0000      -0.462426       -12.5832
 214   2.0000      -0.461038       -12.5455
 215   2.0000      -0.456882       -12.4324
 216   2.0000      -0.454741       -12.3741
 217   2.0000      -0.453817       -12.3490
 218   2.0000      -0.452350       -12.3091
 219   2.0000      -0.449031       -12.2188
 220   2.0000      -0.443841       -12.0775
 221   2.0000      -0.443063       -12.0564
 222   2.0000      -0.442033       -12.0283
 223   2.0000      -0.440876       -11.9969
 224   2.0000      -0.438544       -11.9334
 225   2.0000      -0.438154       -11.9228
 226   2.0000      -0.432921       -11.7804
 227   2.0000      -0.427816       -11.6415
 228   2.0000      -0.424859       -11.5610
 229   2.0000      -0.423132       -11.5140
 230   2.0000      -0.419576       -11.4173
 231   2.0000      -0.415924       -11.3179
 232   2.0000      -0.415078       -11.2948
 233   2.0000      -0.409525       -11.1438
 234   2.0000      -0.409470       -11.1423
 235   2.0000      -0.407769       -11.0960
 236   2.0000      -0.406330       -11.0568
 237   2.0000      -0.400327       -10.8935
 238   2.0000      -0.397146       -10.8069
 239   2.0000      -0.395701       -10.7676
 240   2.0000      -0.393100       -10.6968
 241   2.0000      -0.389030       -10.5860
 242   2.0000      -0.388918       -10.5830
 243   2.0000      -0.385291       -10.4843
 244   2.0000      -0.381794       -10.3891
 245   2.0000      -0.378862       -10.3094
 246   2.0000      -0.375500       -10.2179
 247   2.0000      -0.372183       -10.1276
 248   2.0000      -0.369813       -10.0631
 249   2.0000      -0.367027        -9.9873
 250   2.0000      -0.366332        -9.9684
 251   2.0000      -0.358631        -9.7588
 252   2.0000      -0.341588        -9.2951
 253   2.0000      -0.337372        -9.1804
 254   2.0000      -0.334737        -9.1087
 255   2.0000      -0.327892        -8.9224
 256   2.0000      -0.327596        -8.9144
 257   2.0000      -0.325871        -8.8674
 258   2.0000      -0.321782        -8.7561
 259   2.0000      -0.313377        -8.5274
 260   2.0000      -0.311913        -8.4876
 261   2.0000      -0.299622        -8.1531
 262   2.0000      -0.281555        -7.6615
 263   2.0000      -0.267631        -7.2826
 264   2.0000      -0.265330        -7.2200
 265   2.0000      -0.253232        -6.8908
 266   2.0000      -0.245884        -6.6908
 267   2.0000      -0.220669        -6.0047
 268   0.0000      -0.090179        -2.4539
 269   0.0000      -0.074904        -2.0383
 270   0.0000      -0.049226        -1.3395
 271   0.0000      -0.035937        -0.9779
 272   0.0000      -0.014618        -0.3978

MULLIKEN ATOMIC CHARGES
-----------------------
   0 C :   -0.126637
   1 C :    0.065177
   2 C :    0.005376
   3 C :   -0.130723
   4 S :    0.151417
   5 C :    0.159655
   6 O :   -0.142533
   7 C :   -0.117423
   8 C :    0.197187
   9 C :    0.046908
  10 N :    0.259714
  11 O :   -0.255932
  12 O :   -0.228898
  13 N :    0.199654
  14 O :   -0.206516
  15 O :   -0.211802
  16 C :   -0.022075
  17 C :    0.029501
  18 C :   -0.016470
  19 S :    0.171458
  20 C :   -0.152667
  21 C :    0.129193
  22 C :   -0.118366
  23 C :    0.023813
  24 C :    0.037803
  25 C :   -0.114269
  26 C :    0.004563
  27 C :    0.034587
  28 C :    0.103805
  29 C :    0.079798
  30 C :   -0.127587
  31 S :    0.127646
  32 C :   -0.145616
  33 C :   -0.008878
  34 C :   -0.064292
  35 C :    0.070074
  36 C :   -0.018936
  37 O :   -0.290694
  38 C :    0.172888
  39 S :    0.009632
  40 C :   -0.005589
  41 O :   -0.283191
  42 C :    0.173293
  43 C :    0.073235
  44 C :   -0.024198
  45 C :   -0.009425
  46 C :   -0.061487
  47 S :    0.147167
  48 C :   -0.042179
  49 C :    0.000188
  50 C :   -0.025771
  51 C :    0.166974
  52 O :   -0.123482
  53 C :    0.005616
  54 C :   -0.045247
  55 C :   -0.041051
  56 C :    0.014349
  57 C :   -0.011510
  58 C :   -0.039170
  59 C :    0.122729
  60 C :   -0.039002
  61 S :    0.079679
  62 C :   -0.055909
  63 C :    0.090946
  64 C :   -0.066180
  65 C :   -0.057950
  66 S :    0.091967
  67 C :   -0.057330
  68 C :    0.024460
  69 H :    0.055483
  70 H :    0.038815
  71 H :    0.016521
  72 H :    0.040336
  73 H :   -0.006110
  74 H :    0.008203
  75 H :    0.005354
  76 H :    0.026520
  77 H :    0.026303
  78 H :    0.005693
  79 H :    0.020980
  80 H :    0.007670
  81 H :    0.022720
  82 H :    0.010188
  83 H :    0.015308
  84 H :    0.003107
  85 H :    0.013951
  86 H :    0.046148
  87 H :    0.031630
  88 H :    0.031671
  89 H :    0.048472
  90 H :    0.031135
  91 H :    0.028526
  92 H :   -0.006365
  93 H :    0.004001
  94 H :   -0.011407
  95 H :   -0.010873
  96 H :   -0.017081
  97 H :    0.012490
  98 H :   -0.020985
  99 H :   -0.034926
 100 H :   -0.032072
 101 H :    0.026207
 102 H :   -0.019079
Sum of atomic charges:   -0.0000000

LOEWDIN ATOMIC CHARGES
----------------------
   0 C :   -0.144736
   1 C :   -0.065231
   2 C :   -0.087804
   3 C :   -0.143073
   4 S :    0.484256
   5 C :    0.079803
   6 O :   -0.136170
   7 C :   -0.107519
   8 C :    0.061793
   9 C :   -0.076647
  10 N :    0.279945
  11 O :   -0.209865
  12 O :   -0.194161
  13 N :    0.270008
  14 O :   -0.179263
  15 O :   -0.187973
  16 C :    0.081824
  17 C :   -0.082091
  18 C :   -0.095533
  19 S :    0.464067
  20 C :   -0.179990
  21 C :   -0.035913
  22 C :   -0.021429
  23 C :   -0.032123
  24 C :   -0.053454
  25 C :   -0.012855
  26 C :   -0.031903
  27 C :   -0.053092
  28 C :   -0.040516
  29 C :   -0.057203
  30 C :   -0.169491
  31 S :    0.412778
  32 C :   -0.177015
  33 C :   -0.023235
  34 C :   -0.018950
  35 C :   -0.088466
  36 C :   -0.111779
  37 O :   -0.097951
  38 C :    0.069040
  39 S :    0.375567
  40 C :   -0.107148
  41 O :   -0.096224
  42 C :    0.069041
  43 C :   -0.097475
  44 C :   -0.019608
  45 C :   -0.055047
  46 C :   -0.163645
  47 S :    0.455359
  48 C :   -0.174076
  49 C :   -0.109633
  50 C :   -0.031542
  51 C :    0.106489
  52 O :   -0.107280
  53 C :   -0.056120
  54 C :   -0.007461
  55 C :   -0.033558
  56 C :   -0.023953
  57 C :   -0.147836
  58 C :   -0.047344
  59 C :   -0.047070
  60 C :   -0.150759
  61 S :    0.376815
  62 C :   -0.039758
  63 C :   -0.046151
  64 C :   -0.157377
  65 C :   -0.034634
  66 S :    0.385633
  67 C :   -0.161649
  68 C :   -0.063588
  69 H :    0.030515
  70 H :    0.035486
  71 H :    0.035140
  72 H :    0.033063
  73 H :    0.026494
  74 H :    0.026160
  75 H :    0.025982
  76 H :    0.024015
  77 H :    0.027936
  78 H :    0.025239
  79 H :    0.030913
  80 H :    0.022537
  81 H :    0.024993
  82 H :    0.020985
  83 H :    0.020290
  84 H :    0.032222
  85 H :    0.030131
  86 H :    0.029450
  87 H :    0.016539
  88 H :    0.012478
  89 H :    0.033129
  90 H :    0.014133
  91 H :    0.014488
  92 H :    0.023037
  93 H :    0.035779
  94 H :    0.035129
  95 H :    0.030551
  96 H :    0.022922
  97 H :    0.037864
  98 H :    0.031392
  99 H :    0.029181
 100 H :    0.030127
 101 H :    0.023793
 102 H :    0.029859

  Mayer bond orders larger than 0.100000
B(  0-C ,  1-C ) :   1.5460 B(  0-C ,  4-S ) :   1.1870 B(  0-C , 69-H ) :   0.9480
B(  1-C ,  2-C ) :   1.2158 B(  1-C ,  8-C ) :   1.0223 B(  2-C ,  3-C ) :   1.5578
B(  2-C ,  5-C ) :   0.9589 B(  3-C ,  4-S ) :   1.1786 B(  3-C , 70-H ) :   0.9716
B(  5-C ,  6-O ) :   2.2168 B(  5-C ,  7-C ) :   0.9456 B(  7-C ,  8-C ) :   1.0854
B(  7-C , 16-C ) :   1.5846 B(  8-C ,  9-C ) :   1.5812 B(  9-C , 10-N ) :   0.9529
B(  9-C , 13-N ) :   0.8813 B( 10-N , 11-O ) :   1.4902 B( 10-N , 12-O ) :   1.5294
B( 11-O , 12-O ) :   0.2590 B( 13-N , 14-O ) :   1.5203 B( 13-N , 15-O ) :   1.5336
B( 14-O , 15-O ) :   0.2817 B( 16-C , 17-C ) :   1.1312 B( 16-C , 71-H ) :   0.9471
B( 17-C , 18-C ) :   1.5248 B( 17-C , 21-C ) :   1.1219 B( 18-C , 19-S ) :   1.2003
B( 18-C , 72-H ) :   0.9532 B( 19-S , 20-C ) :   1.0570 B( 20-C , 21-C ) :   1.3859
B( 20-C , 32-C ) :   1.3861 B( 21-C , 22-C ) :   1.2678 B( 22-C , 23-C ) :   1.0688
B( 22-C , 25-C ) :   1.5025 B( 23-C , 24-C ) :   1.1058 B( 23-C , 73-H ) :   0.9087
B( 23-C , 74-H ) :   0.9190 B( 24-C , 75-H ) :   0.9489 B( 24-C , 76-H ) :   0.9602
B( 24-C , 77-H ) :   0.9622 B( 25-C , 26-C ) :   1.0551 B( 25-C , 28-C ) :   1.2756
B( 26-C , 27-C ) :   1.0973 B( 26-C , 78-H ) :   0.9230 B( 26-C , 79-H ) :   0.9195
B( 27-C , 80-H ) :   0.9592 B( 27-C , 81-H ) :   0.9610 B( 27-C , 82-H ) :   0.9594
B( 28-C , 29-C ) :   1.1457 B( 28-C , 32-C ) :   1.3626 B( 29-C , 30-C ) :   1.6235
B( 29-C , 33-C ) :   1.0133 B( 30-C , 31-S ) :   1.1070 B( 30-C , 83-H ) :   0.9604
B( 31-S , 32-C ) :   1.0834 B( 33-C , 34-C ) :   1.8101 B( 33-C , 84-H ) :   0.9623
B( 34-C , 35-C ) :   1.0265 B( 34-C , 85-H ) :   0.9622 B( 35-C , 36-C ) :   1.5704
B( 35-C , 43-C ) :   1.1683 B( 36-C , 37-O ) :   1.1374 B( 36-C , 39-S ) :   1.0460
B( 37-O , 38-C ) :   0.9452 B( 38-C , 86-H ) :   0.9795 B( 38-C , 87-H ) :   0.9684
B( 38-C , 88-H ) :   0.9664 B( 39-S , 40-C ) :   1.0706 B( 40-C , 41-O ) :   1.1632
B( 40-C , 43-C ) :   1.4900 B( 41-O , 42-C ) :   0.9506 B( 42-C , 89-H ) :   0.9820
B( 42-C , 90-H ) :   0.9644 B( 42-C , 91-H ) :   0.9670 B( 43-C , 44-C ) :   1.1219
B( 44-C , 45-C ) :   1.6690 B( 44-C , 92-H ) :   0.9649 B( 45-C , 46-C ) :   1.1487
B( 45-C , 93-H ) :   0.9710 B( 46-C , 47-S ) :   1.1004 B( 46-C , 50-C ) :   1.4500
B( 47-S , 48-C ) :   1.1232 B( 48-C , 49-C ) :   1.4731 B( 48-C , 54-C ) :   1.0469
B( 49-C , 50-C ) :   1.2759 B( 49-C , 51-C ) :   0.9388 B( 50-C , 94-H ) :   1.0110
B( 51-C , 52-O ) :   2.2242 B( 51-C , 53-C ) :   0.9088 B( 53-C , 54-C ) :   1.6024
B( 53-C , 55-C ) :   1.1600 B( 54-C , 95-H ) :   1.0252 B( 55-C , 56-C ) :   1.6179
B( 55-C , 96-H ) :   0.9754 B( 56-C , 57-C ) :   1.1313 B( 56-C , 97-H ) :   0.9764
B( 57-C , 58-C ) :   1.5411 B( 57-C , 61-S ) :   1.0542 B( 58-C , 59-C ) :   1.1349
B( 58-C , 98-H ) :   1.0091 B( 59-C , 60-C ) :   1.2806 B( 59-C , 65-C ) :   1.3235
B( 60-C , 61-S ) :   1.0383 B( 60-C , 62-C ) :   1.3937 B( 62-C , 63-C ) :   1.3280
B( 62-C , 65-C ) :   0.1029 B( 62-C , 99-H ) :   1.0019 B( 63-C , 64-C ) :   1.2879
B( 63-C , 68-C ) :   1.1592 B( 64-C , 65-C ) :   1.3869 B( 64-C , 66-S ) :   1.0514
B( 65-C ,100-H ) :   1.0040 B( 66-S , 67-C ) :   1.1129 B( 67-C , 68-C ) :   1.6462
B( 67-C ,101-H ) :   0.9683 B( 68-C ,102-H ) :   0.9983

-----------------------------------------------------------------------------
         ABSORPTION SPECTRUM VIA TRANSITION ELECTRIC DIPOLE MOMENTS
-----------------------------------------------------------------------------
State   Energy  Wavelength   fosc         T2         TX        TY        TZ
        (cm-1)    (nm)                  (au**2)     (au)      (au)      (au)
-----------------------------------------------------------------------------
   0   14389.2    695.0   0.542905053  12.42115   1.15145   0.67784  -3.26127
   1   20927.5    477.8   0.476211015   7.49131   1.85976  -1.40308  -1.43666
   2   21276.2    470.0   0.012293501   0.19022   0.28222  -0.26537  -0.20038
   3   22194.1    450.6   0.026569017   0.39411  -0.27685   0.54237   0.15263
   4   23374.8    427.8   0.036108871   0.50856   0.12337  -0.29600   0.63697
   5   25235.1    396.3   0.083978353   1.09557   0.06858  -0.61505   0.84414
   6   26347.8    379.5   0.000494503   0.00618  -0.00444  -0.05079   0.05983
   7   26854.8    372.4   0.021760044   0.26676   0.01981   0.20177  -0.47503
   8   26976.5    370.7   0.002698835   0.03294   0.06295   0.06088   0.15895
   9   27457.5    364.2   0.014025204   0.16816   0.08519   0.32768   0.23136
  10   28524.9    350.6   1.853034763  21.38626  -1.25414  -1.12188   4.30753
  11   29102.4    343.6   0.146102471   1.65274   0.85486   0.77891   0.56147
  12   29838.8    335.1   0.072930545   0.80464  -0.80163  -0.29490  -0.27397
  13   30165.5    331.5   0.001623831   0.01772   0.05446   0.10359   0.06344
  14   30763.0    325.1   0.012860409   0.13763   0.14944   0.21920   0.25932
  15   30769.8    325.0   0.018453691   0.19744   0.04704   0.14386  -0.41777
  16   30928.7    323.3   0.015290952   0.16276  -0.18569   0.30918   0.18080
  17   31545.2    317.0   0.000970738   0.01013   0.06955  -0.07011  -0.01945
  18   31615.5    316.3   0.022243625   0.23162  -0.40522  -0.03742   0.25694
  19   32289.6    309.7   0.020517914   0.20919   0.06510  -0.08427   0.44481
  20   32396.3    308.7   0.020368009   0.20698  -0.36102   0.18052   0.20990
  21   32592.6    306.8   0.019965100   0.20166  -0.11223   0.35892   0.24545
  22   32607.0    306.7   0.268659332   2.71248   0.35477  -1.31197  -0.93023
  23   33328.1    300.0   0.100021459   0.98800   0.27356  -0.77090  -0.56469
  24   33578.1    297.8   0.000028024   0.00027  -0.00126   0.01030   0.01292
  25   34174.4    292.6   0.066466684   0.64029  -0.13566   0.66586   0.42252
  26   34553.9    289.4   0.052001547   0.49544   0.44195  -0.27294  -0.47500
  27   34910.1    286.5   0.042802830   0.40364  -0.61359  -0.16476   0.00169
  28   35318.2    283.1   0.016161057   0.15064   0.29304   0.01801  -0.25387
  29   35414.0    282.4   0.061610076   0.57273   0.30002  -0.43316   0.54322
  30   35502.5    281.7   0.126934932   1.17706  -0.17753   0.76717  -0.74632
  31   35820.5    279.2   0.228131617   2.09667   0.30039   0.87374  -1.11490
  32   36363.7    275.0   0.008218857   0.07441  -0.22849   0.10679   0.10389
  33   36522.7    273.8   0.038435690   0.34646  -0.40667   0.22267   0.36262
  34   36578.7    273.4   0.002234774   0.02011  -0.04759   0.09985   0.08876
  35   36880.7    271.1   0.303141652   2.70596  -0.05254  -0.65467   1.50818
  36   37259.6    268.4   0.040746542   0.36002   0.21649  -0.52761   0.18650
  37   37468.8    266.9   0.003528607   0.03100   0.00834  -0.02896   0.17348
  38   37740.4    265.0   0.158901811   1.38611  -1.17239   0.06983   0.08209
  39   37989.8    263.2   0.006135239   0.05317   0.14318  -0.12253  -0.13286
  40   38298.5    261.1   0.061099474   0.52521   0.56568  -0.39224   0.22663
  41   38669.6    258.6   0.230702465   1.96408   0.19751   1.29149   0.50706
  42   38863.5    257.3   0.321356811   2.72221  -0.29109   1.62011   0.11275
  43   39127.3    255.6   0.008410888   0.07077   0.01727   0.26511  -0.01359
  44   39411.4    253.7   0.029689888   0.24801   0.02860  -0.43468  -0.24134
  45   39951.1    250.3   0.013972172   0.11514  -0.11906   0.31735   0.01571
  46   39996.1    250.0   0.048624931   0.40024   0.10423  -0.60906   0.13574
  47   40066.7    249.6   0.413314848   3.39604  -0.63219   1.71486  -0.23585

FINAL SINGLE POINT ENERGY     -5496.107791982436

DIPOLE MOMENT
-------------
                                X             Y             Z
Electronic contribution:      2.41704      48.54260     -24.43018
Nuclear contribution   :     -0.13423     -50.59657      26.56970
                        -----------------------------------------
Total Dipole Moment    :      2.28281      -2.05398       2.13951
                        -----------------------------------------
Magnitude (a.u.)       :      3.74266
Magnitude (Debye)      :      9.51310

Rotational constants in cm-1:     0.000931     0.000239     0.000197
Rotational constants in MHz :    27.913198     7.161125     5.903698

                             ****ORCA TERMINATED NORMALLY****
TOTAL RUN TIME: 0 days 0 hours 9 minutes 5 seconds 375 msec
