                         Program Version 4.2.0 -  RELEASE  -
|  1> # ORCA input file
|  2> # SCF done       -157.373376015463          0.000774440585
|  3> ! CAM-B3LYP def2-SVP def2/J RIJCOSX Grid4 TightSCF
|  4> %maxcore 5000
|  5> %tddft
|  6>     Mode sTDDFT
|  7>     Ethresh 5.0
|  8>     maxcore 5000
|  9> end
| 10>
| 11> %pal
| 12>   nprocs 6
| 13>   end
| 14> * xyz 0 1
| 15>    C       -1.45951        -2.76214        -2.50518
| 16>    C       -0.41462        -2.71194        -1.62522
| 17>    C       -0.13739        -3.99854        -1.04649
| 18>    C       -0.95579        -4.98175        -1.49861
| 19>    S       -2.08294        -4.35460        -2.63955
| 20>    C        0.95354        -3.90150        -0.07808
| 21>    O        1.32425        -4.73038         0.71235
| 22>    C        1.36834        -2.44985        -0.13767
| 23>    C        0.55786        -1.75524        -1.13950
| 24>    C        0.83568        -0.50535        -1.60566
| 25>    N        0.06835         0.24144        -2.55231
| 26>    O       -1.09498        -0.05952        -2.71614
| 27>    O        0.64687         1.13961        -3.12431
| 28>    N        2.05477         0.21573        -1.21359
| 29>    O        3.10266        -0.27775        -1.54224
| 30>    O        1.89967         1.23344        -0.58915
| 31>    C        2.23049        -1.91641         0.75377
| 32>    C        3.15200        -2.73784         1.49048
| 33>    C        3.96971        -3.76808         1.04533
| 34>    C        4.11069        -4.26826        -0.33101
| 35>    O        3.29059        -4.13142        -1.20499
| 36>    O        5.28604        -4.85941        -0.52511
| 37>    C        4.73698        -4.08679         2.20296
| 38>    N        4.38434        -3.31768         3.20655
| 39>    O        3.43923        -2.47730         2.76822
| 40>    C        5.73869        -5.11150         2.37849
| 41>    C        6.84914        -5.11835         3.19502
| 42>    C        7.32355        -3.96848         3.98402
| 43>    O        7.37620        -2.84341         3.56781
| 44>    O        7.69376        -4.31352         5.22133
| 45>    C        7.39536        -6.42718         2.99556
| 46>    N        6.63977        -7.08809         2.13870
| 47>    O        5.62446        -6.29165         1.76794
| 48>    C        8.56297        -7.04734         3.54379
| 49>    S        9.62523        -6.24582         4.67658
| 50>    C       10.61615        -7.63167         4.75205
| 51>    C       10.14600        -8.66348         3.94086
| 52>    C        8.98321        -8.33249         3.25194
| 53>    C       11.06287        -9.80803         4.09736
| 54>    O       11.00980       -10.88546         3.55837
| 55>    C       12.09945        -9.32188         5.09828
| 56>    C       11.79635        -8.03313         5.44876
| 57>    C       13.17846       -10.09277         5.59545
| 58>    C       13.44774       -11.37176         5.23265
| 59>    C       14.51012       -12.14613         5.76513
| 60>    C       14.82083       -13.43967         5.43407
| 61>    C       15.92295       -13.96550         6.14730
| 62>    C       16.46542       -13.01861         7.05782
| 63>    S       15.59720       -11.51045         6.99463
| 64>    C       17.53901       -13.30536         7.87142
| 65>    C       18.10077       -14.57729         7.78555
| 66>    C       17.56198       -15.52291         6.87443
| 67>    C       16.48975       -15.23807         6.05898
| 68>    S       18.43098       -17.03383         6.95324
| 69>    C       19.47603       -16.39427         8.17651
| 70>    C       19.19938       -15.11767         8.51497
| 71>    H       -1.91585        -1.96547        -3.05783
| 72>    H       -0.95844        -6.02241        -1.24307
| 73>    H        2.28666        -0.85760         0.96878
| 74>    H        5.36030        -5.18114        -1.43773
| 75>    H        7.98838        -3.53106         5.71444
| 76>    H        8.44538        -8.96717         2.57297
| 77>    H       12.34492        -7.41816         6.13867
| 78>    H       13.81651        -9.60869         6.32719
| 79>    H       12.82402       -11.86313         4.49932
| 80>    H       14.27020       -14.00055         4.69984
| 81>    H       17.93484       -12.57313         8.55725
| 82>    H       16.09333       -15.97001         5.37339
| 83>    H       20.24552       -17.02879         8.57152
| 84>    H       19.74470       -14.56131         9.25605
| 85> *
| 86>
| 87>                          ****END OF INPUT****

CARTESIAN COORDINATES (ANGSTROEM)
---------------------------------
  C     -1.459510   -2.762140   -2.505180
  C     -0.414620   -2.711940   -1.625220
  C     -0.137390   -3.998540   -1.046490
  C     -0.955790   -4.981750   -1.498610
  S     -2.082940   -4.354600   -2.639550
  C      0.953540   -3.901500   -0.078080
  O      1.324250   -4.730380    0.712350
  C      1.368340   -2.449850   -0.137670
  C      0.557860   -1.755240   -1.139500
  C      0.835680   -0.505350   -1.605660
  N      0.068350    0.241440   -2.552310
  O     -1.094980   -0.059520   -2.716140
  O      0.646870    1.139610   -3.124310
  N      2.054770    0.215730   -1.213590
  O      3.102660   -0.277750   -1.542240
  O      1.899670    1.233440   -0.589150
  C      2.230490   -1.916410    0.753770
  C      3.152000   -2.737840    1.490480
  C      3.969710   -3.768080    1.045330
  C      4.110690   -4.268260   -0.331010
  O      3.290590   -4.131420   -1.204990
  O      5.286040   -4.859410   -0.525110
  C      4.736980   -4.086790    2.202960
  N      4.384340   -3.317680    3.206550
  O      3.439230   -2.477300    2.768220
  C      5.738690   -5.111500    2.378490
  C      6.849140   -5.118350    3.195020
  C      7.323550   -3.968480    3.984020
  O      7.376200   -2.843410    3.567810
  O      7.693760   -4.313520    5.221330
  C      7.395360   -6.427180    2.995560
  N      6.639770   -7.088090    2.138700
  O      5.624460   -6.291650    1.767940
  C      8.562970   -7.047340    3.543790
  S      9.625230   -6.245820    4.676580
  C     10.616150   -7.631670    4.752050
  C     10.146000   -8.663480    3.940860
  C      8.983210   -8.332490    3.251940
  C     11.062870   -9.808030    4.097360
  O     11.009800  -10.885460    3.558370
  C     12.099450   -9.321880    5.098280
  C     11.796350   -8.033130    5.448760
  C     13.178460  -10.092770    5.595450
  C     13.447740  -11.371760    5.232650
  C     14.510120  -12.146130    5.765130
  C     14.820830  -13.439670    5.434070
  C     15.922950  -13.965500    6.147300
  C     16.465420  -13.018610    7.057820
  S     15.597200  -11.510450    6.994630
  C     17.539010  -13.305360    7.871420
  C     18.100770  -14.577290    7.785550
  C     17.561980  -15.522910    6.874430
  C     16.489750  -15.238070    6.058980
  S     18.430980  -17.033830    6.953240
  C     19.476030  -16.394270    8.176510
  C     19.199380  -15.117670    8.514970
  H     -1.915850   -1.965470   -3.057830
  H     -0.958440   -6.022410   -1.243070
  H      2.286660   -0.857600    0.968780
  H      5.360300   -5.181140   -1.437730
  H      7.988380   -3.531060    5.714440
  H      8.445380   -8.967170    2.572970
  H     12.344920   -7.418160    6.138670
  H     13.816510   -9.608690    6.327190
  H     12.824020  -11.863130    4.499320
  H     14.270200  -14.000550    4.699840
  H     17.934840  -12.573130    8.557250
  H     16.093330  -15.970010    5.373390
  H     20.245520  -17.028790    8.571520
  H     19.744700  -14.561310    9.256050

 Total Charge           Charge          ....    0
 Multiplicity           Mult            ....    1
 Number of Electrons    NEL             ....  418
 Basis Dimension        Dim             ....  870

ORBITAL ENERGIES
----------------

  NO   OCC          E(Eh)            E(eV)
   0   2.0000     -88.993857     -2421.6460
   1   2.0000     -88.977926     -2421.2125
   2   2.0000     -88.942071     -2420.2368
   3   2.0000     -88.940779     -2420.2016
   4   2.0000     -19.343581      -526.3656
   5   2.0000     -19.328507      -525.9554
   6   2.0000     -19.277775      -524.5749
   7   2.0000     -19.275560      -524.5146
   8   2.0000     -19.269847      -524.3592
   9   2.0000     -19.269813      -524.3583
  10   2.0000     -19.264530      -524.2145
  11   2.0000     -19.263098      -524.1756
  12   2.0000     -19.226286      -523.1738
  13   2.0000     -19.224842      -523.1346
  14   2.0000     -19.221989      -523.0569
  15   2.0000     -19.213004      -522.8124
  16   2.0000     -14.676045      -399.3555
  17   2.0000     -14.675510      -399.3409
  18   2.0000     -14.483867      -394.1261
  19   2.0000     -14.462374      -393.5412
  20   2.0000     -10.428031      -283.7612
  21   2.0000     -10.419719      -283.5350
  22   2.0000     -10.386725      -282.6372
  23   2.0000     -10.384330      -282.5720
  24   2.0000     -10.379319      -282.4356
  25   2.0000     -10.370327      -282.1910
  26   2.0000     -10.369316      -282.1634
  27   2.0000     -10.365091      -282.0485
  28   2.0000     -10.346382      -281.5394
  29   2.0000     -10.336230      -281.2631
  30   2.0000     -10.333955      -281.2012
  31   2.0000     -10.330673      -281.1119
  32   2.0000     -10.329876      -281.0902
  33   2.0000     -10.329250      -281.0732
  34   2.0000     -10.318747      -280.7874
  35   2.0000     -10.316039      -280.7137
  36   2.0000     -10.311756      -280.5971
  37   2.0000     -10.311207      -280.5822
  38   2.0000     -10.304674      -280.4044
  39   2.0000     -10.301988      -280.3314
  40   2.0000     -10.299009      -280.2503
  41   2.0000     -10.297334      -280.2047
  42   2.0000     -10.295654      -280.1590
  43   2.0000     -10.293859      -280.1101
  44   2.0000     -10.292947      -280.0853
  45   2.0000     -10.289425      -279.9895
  46   2.0000     -10.289251      -279.9848
  47   2.0000     -10.279515      -279.7198
  48   2.0000     -10.278860      -279.7020
  49   2.0000     -10.277558      -279.6666
  50   2.0000     -10.277478      -279.6644
  51   2.0000     -10.277111      -279.6544
  52   2.0000     -10.275795      -279.6186
  53   2.0000     -10.272442      -279.5274
  54   2.0000     -10.272245      -279.5220
  55   2.0000     -10.269171      -279.4383
  56   2.0000      -8.089843      -220.1358
  57   2.0000      -8.072114      -219.6534
  58   2.0000      -8.038483      -218.7382
  59   2.0000      -8.036745      -218.6909
  60   2.0000      -6.058922      -164.8717
  61   2.0000      -6.054219      -164.7437
  62   2.0000      -6.052823      -164.7057
  63   2.0000      -6.041216      -164.3899
  64   2.0000      -6.037032      -164.2760
  65   2.0000      -6.034788      -164.2149
  66   2.0000      -6.008131      -163.4896
  67   2.0000      -6.006285      -163.4393
  68   2.0000      -6.003912      -163.3748
  69   2.0000      -6.002450      -163.3350
  70   2.0000      -5.999821      -163.2634
  71   2.0000      -5.997963      -163.2129
  72   2.0000      -1.359354       -36.9899
  73   2.0000      -1.341526       -36.5048
  74   2.0000      -1.285849       -34.9897
  75   2.0000      -1.269021       -34.5318
  76   2.0000      -1.208793       -32.8929
  77   2.0000      -1.202587       -32.7241
  78   2.0000      -1.174432       -31.9579
  79   2.0000      -1.166204       -31.7340
  80   2.0000      -1.145789       -31.1785
  81   2.0000      -1.137842       -30.9622
  82   2.0000      -1.111801       -30.2537
  83   2.0000      -1.105940       -30.0942
  84   2.0000      -1.032412       -28.0934
  85   2.0000      -1.011296       -27.5188
  86   2.0000      -1.002553       -27.2809
  87   2.0000      -0.994862       -27.0716
  88   2.0000      -0.992473       -27.0066
  89   2.0000      -0.977368       -26.5955
  90   2.0000      -0.967538       -26.3281
  91   2.0000      -0.959302       -26.1039
  92   2.0000      -0.938419       -25.5357
  93   2.0000      -0.933776       -25.4093
  94   2.0000      -0.912999       -24.8440
  95   2.0000      -0.905972       -24.6527
  96   2.0000      -0.880333       -23.9551
  97   2.0000      -0.871005       -23.7012
  98   2.0000      -0.868013       -23.6198
  99   2.0000      -0.859099       -23.3773
 100   2.0000      -0.848816       -23.0974
 101   2.0000      -0.826483       -22.4897
 102   2.0000      -0.825522       -22.4636
 103   2.0000      -0.818037       -22.2599
 104   2.0000      -0.809937       -22.0395
 105   2.0000      -0.798270       -21.7220
 106   2.0000      -0.793299       -21.5868
 107   2.0000      -0.781296       -21.2602
 108   2.0000      -0.776384       -21.1265
 109   2.0000      -0.773773       -21.0554
 110   2.0000      -0.752127       -20.4664
 111   2.0000      -0.746322       -20.3084
 112   2.0000      -0.740849       -20.1595
 113   2.0000      -0.711592       -19.3634
 114   2.0000      -0.700738       -19.0680
 115   2.0000      -0.696415       -18.9504
 116   2.0000      -0.688758       -18.7421
 117   2.0000      -0.683795       -18.6070
 118   2.0000      -0.681320       -18.5397
 119   2.0000      -0.669430       -18.2161
 120   2.0000      -0.662817       -18.0362
 121   2.0000      -0.655213       -17.8293
 122   2.0000      -0.651360       -17.7244
 123   2.0000      -0.650096       -17.6900
 124   2.0000      -0.646800       -17.6003
 125   2.0000      -0.642940       -17.4953
 126   2.0000      -0.641158       -17.4468
 127   2.0000      -0.632630       -17.2147
 128   2.0000      -0.628235       -17.0951
 129   2.0000      -0.623613       -16.9694
 130   2.0000      -0.619541       -16.8586
 131   2.0000      -0.614678       -16.7262
 132   2.0000      -0.607833       -16.5400
 133   2.0000      -0.607264       -16.5245
 134   2.0000      -0.603844       -16.4314
 135   2.0000      -0.600594       -16.3430
 136   2.0000      -0.591834       -16.1046
 137   2.0000      -0.588808       -16.0223
 138   2.0000      -0.583737       -15.8843
 139   2.0000      -0.577703       -15.7201
 140   2.0000      -0.571572       -15.5533
 141   2.0000      -0.567221       -15.4349
 142   2.0000      -0.563121       -15.3233
 143   2.0000      -0.559551       -15.2261
 144   2.0000      -0.556346       -15.1389
 145   2.0000      -0.553676       -15.0663
 146   2.0000      -0.550532       -14.9807
 147   2.0000      -0.543324       -14.7846
 148   2.0000      -0.540841       -14.7170
 149   2.0000      -0.537315       -14.6211
 150   2.0000      -0.531289       -14.4571
 151   2.0000      -0.528145       -14.3716
 152   2.0000      -0.524988       -14.2857
 153   2.0000      -0.524073       -14.2608
 154   2.0000      -0.512603       -13.9486
 155   2.0000      -0.509621       -13.8675
 156   2.0000      -0.507496       -13.8097
 157   2.0000      -0.503570       -13.7028
 158   2.0000      -0.498364       -13.5612
 159   2.0000      -0.497529       -13.5384
 160   2.0000      -0.493512       -13.4292
 161   2.0000      -0.492820       -13.4103
 162   2.0000      -0.491454       -13.3731
 163   2.0000      -0.488249       -13.2859
 164   2.0000      -0.483722       -13.1628
 165   2.0000      -0.480075       -13.0635
 166   2.0000      -0.479048       -13.0356
 167   2.0000      -0.472572       -12.8593
 168   2.0000      -0.471938       -12.8421
 169   2.0000      -0.465187       -12.6584
 170   2.0000      -0.462803       -12.5935
 171   2.0000      -0.459898       -12.5145
 172   2.0000      -0.456073       -12.4104
 173   2.0000      -0.447864       -12.1870
 174   2.0000      -0.443832       -12.0773
 175   2.0000      -0.437418       -11.9028
 176   2.0000      -0.429545       -11.6885
 177   2.0000      -0.429187       -11.6788
 178   2.0000      -0.423541       -11.5251
 179   2.0000      -0.422603       -11.4996
 180   2.0000      -0.418507       -11.3881
 181   2.0000      -0.411940       -11.2095
 182   2.0000      -0.411700       -11.2029
 183   2.0000      -0.409394       -11.1402
 184   2.0000      -0.406372       -11.0579
 185   2.0000      -0.403939       -10.9917
 186   2.0000      -0.399583       -10.8732
 187   2.0000      -0.398715       -10.8496
 188   2.0000      -0.397781       -10.8242
 189   2.0000      -0.395939       -10.7741
 190   2.0000      -0.389207       -10.5909
 191   2.0000      -0.388085       -10.5603
 192   2.0000      -0.382804       -10.4166
 193   2.0000      -0.379941       -10.3387
 194   2.0000      -0.374772       -10.1981
 195   2.0000      -0.371066       -10.0972
 196   2.0000      -0.365828        -9.9547
 197   2.0000      -0.356765        -9.7081
 198   2.0000      -0.345775        -9.4090
 199   2.0000      -0.340440        -9.2639
 200   2.0000      -0.336809        -9.1651
 201   2.0000      -0.333985        -9.0882
 202   2.0000      -0.333627        -9.0784
 203   2.0000      -0.331875        -9.0308
 204   2.0000      -0.319691        -8.6992
 205   2.0000      -0.316130        -8.6023
 206   2.0000      -0.290045        -7.8925
 207   2.0000      -0.263357        -7.1663
 208   2.0000      -0.238159        -6.4806
 209   0.0000      -0.110840        -3.0161
 210   0.0000      -0.081006        -2.2043
 211   0.0000      -0.063660        -1.7323
 212   0.0000      -0.047449        -1.2911
 213   0.0000      -0.030929        -0.8416

MULLIKEN ATOMIC CHARGES
-----------------------
   0 C :   -0.123884
   1 C :    0.058510
   2 C :    0.001114
   3 C :   -0.121606
   4 S :    0.169087
   5 C :    0.196997
   6 O :   -0.132754
   7 C :   -0.057466
   8 C :    0.224598
   9 C :    0.068659
  10 N :    0.260694
  11 O :   -0.242058
  12 O :   -0.220516
  13 N :    0.185993
  14 O :   -0.189220
  15 O :   -0.195603
  16 C :   -0.045418
  17 C :    0.175122
  18 C :   -0.036506
  19 C :    0.160006
  20 O :   -0.195962
  21 O :   -0.154869
  22 C :   -0.031650
  23 N :    0.032759
  24 O :   -0.139509
  25 C :    0.186364
  26 C :   -0.088734
  27 C :    0.111752
  28 O :   -0.171058
  29 O :   -0.173034
  30 C :    0.058638
  31 N :   -0.006182
  32 O :   -0.143678
  33 C :   -0.131894
  34 S :    0.179249
  35 C :   -0.020861
  36 C :    0.007693
  37 C :   -0.021025
  38 C :    0.169052
  39 O :   -0.118708
  40 C :    0.010698
  41 C :   -0.048704
  42 C :   -0.044515
  43 C :    0.018650
  44 C :   -0.013438
  45 C :   -0.035430
  46 C :    0.118741
  47 C :   -0.039698
  48 S :    0.083988
  49 C :   -0.052196
  50 C :    0.090213
  51 C :   -0.067553
  52 C :   -0.052555
  53 S :    0.095429
  54 C :   -0.058091
  55 C :    0.024687
  56 H :    0.061037
  57 H :    0.044293
  58 H :    0.048720
  59 H :    0.202011
  60 H :    0.199466
  61 H :    0.011291
  62 H :   -0.010054
  63 H :   -0.013841
  64 H :    0.016636
  65 H :   -0.018850
  66 H :   -0.034629
  67 H :   -0.031789
  68 H :    0.029054
  69 H :   -0.017664
Sum of atomic charges:   -0.0000000

LOEWDIN ATOMIC CHARGES
----------------------
   0 C :   -0.145853
   1 C :   -0.061645
   2 C :   -0.084629
   3 C :   -0.136240
   4 S :    0.504421
   5 C :    0.087681
   6 O :   -0.124683
   7 C :   -0.033469
   8 C :    0.049355
   9 C :   -0.038787
  10 N :    0.279807
  11 O :   -0.193390
  12 O :   -0.186167
  13 N :    0.264964
  14 O :   -0.165796
  15 O :   -0.170400
  16 C :    0.027792
  17 C :    0.069869
  18 C :   -0.095294
  19 C :    0.092017
  20 O :   -0.167195
  21 O :   -0.013474
  22 C :   -0.029242
  23 N :   -0.006283
  24 O :    0.062094
  25 C :    0.056336
  26 C :   -0.112439
  27 C :    0.070270
  28 O :   -0.156153
  29 O :   -0.031723
  30 C :   -0.031796
  31 N :   -0.043771
  32 O :    0.056495
  33 C :   -0.202084
  34 S :    0.490701
  35 C :   -0.166072
  36 C :   -0.113278
  37 C :    0.009077
  38 C :    0.105758
  39 O :   -0.103463
  40 C :   -0.045226
  41 C :   -0.015201
  42 C :   -0.036869
  43 C :   -0.015004
  44 C :   -0.151225
  45 C :   -0.041796
  46 C :   -0.048226
  47 C :   -0.149871
  48 S :    0.379709
  49 C :   -0.039246
  50 C :   -0.044320
  51 C :   -0.157296
  52 C :   -0.032613
  53 S :    0.388449
  54 C :   -0.160380
  55 C :   -0.063488
  56 H :    0.031826
  57 H :    0.038579
  58 H :    0.047457
  59 H :    0.110063
  60 H :    0.105113
  61 H :    0.044856
  62 H :    0.030801
  63 H :    0.023944
  64 H :    0.039076
  65 H :    0.032252
  66 H :    0.029670
  67 H :    0.030594
  68 H :    0.024666
  69 H :    0.030398

  Mayer bond orders larger than 0.100000
B(  0-C ,  1-C ) :   1.5318 B(  0-C ,  4-S ) :   1.1985 B(  0-C , 56-H ) :   0.9473
B(  1-C ,  2-C ) :   1.2225 B(  1-C ,  8-C ) :   1.0243 B(  2-C ,  3-C ) :   1.5445
B(  2-C ,  5-C ) :   0.9723 B(  3-C ,  4-S ) :   1.1892 B(  3-C , 57-H ) :   0.9728
B(  5-C ,  6-O ) :   2.2386 B(  5-C ,  7-C ) :   0.9007 B(  7-C ,  8-C ) :   1.0561
B(  7-C , 16-C ) :   1.7215 B(  8-C ,  9-C ) :   1.6487 B(  9-C , 10-N ) :   0.9470
B(  9-C , 13-N ) :   0.8543 B( 10-N , 11-O ) :   1.4997 B( 10-N , 12-O ) :   1.5338
B( 11-O , 12-O ) :   0.2659 B( 13-N , 14-O ) :   1.5530 B( 13-N , 15-O ) :   1.5339
B( 14-O , 15-O ) :   0.2938 B( 16-C , 17-C ) :   1.0742 B( 16-C , 58-H ) :   0.9458
B( 17-C , 18-C ) :   1.4951 B( 17-C , 24-O ) :   1.1832 B( 18-C , 19-C ) :   0.9254
B( 18-C , 22-C ) :   1.2025 B( 19-C , 20-O ) :   2.0803 B( 19-C , 21-O ) :   1.3176
B( 21-O , 59-H ) :   0.9366 B( 22-C , 23-N ) :   1.6922 B( 22-C , 25-C ) :   0.9723
B( 23-N , 24-O ) :   1.0211 B( 25-C , 26-C ) :   1.5815 B( 25-C , 31-N ) :   0.1052
B( 25-C , 32-O ) :   1.2108 B( 26-C , 27-C ) :   0.8846 B( 26-C , 30-C ) :   1.1840
B( 27-C , 28-O ) :   2.1847 B( 27-C , 29-O ) :   1.2538 B( 29-O , 60-H ) :   0.9392
B( 30-C , 31-N ) :   1.7139 B( 30-C , 33-C ) :   1.0717 B( 31-N , 32-O ) :   1.0027
B( 33-C , 34-S ) :   1.1198 B( 33-C , 37-C ) :   1.4769 B( 34-S , 35-C ) :   1.1452
B( 35-C , 36-C ) :   1.4577 B( 35-C , 41-C ) :   1.0353 B( 36-C , 37-C ) :   1.2625
B( 36-C , 38-C ) :   0.9364 B( 37-C , 61-H ) :   1.0183 B( 38-C , 39-O ) :   2.2269
B( 38-C , 40-C ) :   0.9042 B( 40-C , 41-C ) :   1.6067 B( 40-C , 42-C ) :   1.1611
B( 41-C , 62-H ) :   1.0259 B( 42-C , 43-C ) :   1.6172 B( 42-C , 63-H ) :   0.9759
B( 43-C , 44-C ) :   1.1329 B( 43-C , 64-H ) :   0.9752 B( 44-C , 45-C ) :   1.5371
B( 44-C , 48-S ) :   1.0547 B( 45-C , 46-C ) :   1.1378 B( 45-C , 65-H ) :   1.0090
B( 46-C , 47-C ) :   1.2817 B( 46-C , 52-C ) :   1.3227 B( 47-C , 48-S ) :   1.0401
B( 47-C , 49-C ) :   1.3918 B( 49-C , 50-C ) :   1.3300 B( 49-C , 52-C ) :   0.1038
B( 49-C , 66-H ) :   1.0014 B( 50-C , 51-C ) :   1.2870 B( 50-C , 55-C ) :   1.1601
B( 51-C , 52-C ) :   1.3887 B( 51-C , 53-S ) :   1.0525 B( 52-C , 67-H ) :   1.0034
B( 53-S , 54-C ) :   1.1144 B( 54-C , 55-C ) :   1.6448 B( 54-C , 68-H ) :   0.9683
B( 55-C , 69-H ) :   0.9985

-----------------------------------------------------------------------------
         ABSORPTION SPECTRUM VIA TRANSITION ELECTRIC DIPOLE MOMENTS
-----------------------------------------------------------------------------
State   Energy  Wavelength   fosc         T2         TX        TY        TZ
        (cm-1)    (nm)                  (au**2)     (au)      (au)      (au)
-----------------------------------------------------------------------------
   0   16712.7    598.3   0.562464787  11.07962  -2.38723   2.12478  -0.93063
   1   19988.6    500.3   0.000105262   0.00173  -0.01288  -0.00346  -0.03944
   2   23805.0    420.1   0.156710731   2.16723   0.85549  -0.86844   0.82534
   3   24547.7    407.4   0.058258576   0.78131  -0.26113   0.83281   0.13984
   4   26329.0    379.8   0.000049700   0.00062  -0.00731  -0.00588   0.02310
   5   27211.5    367.5   0.001641795   0.01986   0.07074  -0.06330   0.10417
   6   28131.6    355.5   0.165267267   1.93405  -0.20588  -1.31387   0.40671
   7   28696.2    348.5   0.265981926   3.05143  -1.26112   1.07684  -0.54900
   8   29927.2    334.1   0.399719735   4.39709  -1.50925   0.98145  -1.07518
   9   30270.6    330.4   0.112335335   1.22172  -0.75550   0.75246  -0.29111
  10   30390.0    329.1   0.926586411  10.03761   2.48177  -1.76001   0.88364
  11   30648.2    326.3   0.142501985   1.53070  -0.00352  -1.21870  -0.21319
  12   31745.2    315.0   0.001226552   0.01272   0.02323   0.10139  -0.04360
  13   31873.1    313.7   0.016538614   0.17082   0.09223   0.39663   0.07072
  14   32076.8    311.8   0.132521297   1.36010   0.68879  -0.93846   0.07046
  15   32513.7    307.6   0.048438404   0.49046  -0.44966  -0.45121  -0.29098
  16   33017.3    302.9   0.029597899   0.29512  -0.18906   0.42549  -0.27988
  17   33204.3    301.2   0.030711086   0.30449  -0.36441  -0.26947  -0.31478
  18   34402.4    290.7   0.036630191   0.35053   0.19294   0.50919   0.23245
  19   34632.8    288.7   0.000017090   0.00016  -0.01041   0.00709  -0.00193
  20   35066.8    285.2   0.035279944   0.33121  -0.29619  -0.32522  -0.37110
  21   35236.3    283.8   0.099170522   0.92655  -0.86628   0.22076  -0.35689
  22   35552.5    281.3   0.022056605   0.20424  -0.39622  -0.00073  -0.21737
  23   36810.0    271.7   0.196579071   1.75811   0.62063   1.16684  -0.10688
  24   36895.2    271.0   0.043547415   0.38857  -0.05910  -0.49604  -0.37285
  25   37514.8    266.6   0.011410018   0.10013   0.14808  -0.26780   0.08052
  26   37897.2    263.9   0.126764462   1.10120   0.46812  -0.92598   0.15691
  27   38134.2    262.2   0.121584805   1.04964  -0.90692   0.40151  -0.25678
  28   38308.2    261.0   0.188216580   1.61749   0.69299  -1.06414   0.06965
  29   38738.8    258.1   0.000053930   0.00046  -0.01995   0.00274   0.00727
  30   39234.7    254.9   0.000021712   0.00018   0.00012  -0.01025   0.00878
  31   39455.7    253.4   0.003245319   0.02708  -0.03620   0.09598  -0.12867
  32   39948.6    250.3   0.010536912   0.08683   0.16164   0.23838   0.06231
  33   40267.8    248.3   0.036123337   0.29533  -0.40699  -0.05568  -0.35579

FINAL SINGLE POINT ENERGY     -4090.903756660665

DIPOLE MOMENT
-------------
                                X             Y             Z
Electronic contribution:    -38.42758      30.82554     -18.06457
Nuclear contribution   :     38.35883     -31.93219      18.63374
                        -----------------------------------------
Total Dipole Moment    :     -0.06875      -1.10665       0.56917
                        -----------------------------------------
Magnitude (a.u.)       :      1.24633
Magnitude (Debye)      :      3.16793

Rotational constants in cm-1:     0.005337     0.000269     0.000261
Rotational constants in MHz :   160.011000     8.061479     7.817627

                             ****ORCA TERMINATED NORMALLY****
TOTAL RUN TIME: 0 days 0 hours 4 minutes 40 seconds 355 msec
