                         Program Version 4.2.0 -  RELEASE  -
|  1> # ORCA input file
|  2> # SCF done       -162.024129458329          0.000736741792
|  3> ! CAM-B3LYP def2-SVP def2/J RIJCOSX Grid4 TightSCF
|  4> %maxcore 5000
|  5> %tddft
|  6>     Mode sTDDFT
|  7>     Ethresh 5.0
|  8>     maxcore 5000
|  9> end
| 10>
| 11> %pal
| 12>   nprocs 6
| 13>   end
| 14> * xyz 0 1
| 15>    C       -3.46928         1.23501        -2.73380
| 16>    C       -2.91402         0.12149        -2.15218
| 17>    C       -2.25834        -0.89859        -2.87062
| 18>    N       -1.70819        -1.75831        -3.39707
| 19>    C       -2.93436        -0.18782        -0.77664
| 20>    N       -2.91855        -0.52941         0.32034
| 21>    C       -3.50173         1.50508        -4.16984
| 22>    C       -4.22616         2.70245        -4.38854
| 23>    C       -4.44158         3.22320        -5.64041
| 24>    C       -3.91251         2.52954        -6.73447
| 25>    C       -3.18752         1.33680        -6.50765
| 26>    C       -2.97237         0.80906        -5.23944
| 27>    S       -2.62012         0.64115        -7.99574
| 28>    C       -3.35394         1.94600        -8.88946
| 29>    C       -3.99269         2.85555        -8.11627
| 30>   Br       -3.21179         1.98271       -10.75961
| 31>    C       -4.66797         3.24037        -3.08846
| 32>    O       -5.32114         4.25732        -2.91761
| 33>    C       -4.15479         2.32236        -2.07218
| 34>    C       -4.25716         2.50307        -0.71118
| 35>    C       -4.91614         3.50015         0.00774
| 36>    S       -5.88641         4.81207        -0.60529
| 37>    C       -6.25539         5.35825         1.00225
| 38>    C       -5.61785         4.57684         1.97404
| 39>    C       -4.87881         3.53715         1.41972
| 40>    O       -4.11600         2.63518         2.07922
| 41>    S       -4.55465         2.20471         3.62765
| 42>    C       -4.47145         3.86307         4.35029
| 43>    S       -5.78068         4.94389         3.68828
| 44>    C       -7.07371         6.46993         1.26727
| 45>    C       -7.61112         7.26919         0.30119
| 46>    C       -8.39240         8.40334         0.58578
| 47>    O       -8.69901         8.71884         1.86912
| 48>    C       -9.39537         9.87697         1.86078
| 49>    C       -9.54741        10.31486         0.54281
| 50>    C       -8.91932         9.38013        -0.27372
| 51>    C       -8.80852         9.39497        -1.75556
| 52>    C       -9.82057        10.43739         3.07434
| 53>    C       -9.64605         9.82719         4.29336
| 54>    C       -9.99566        10.34851         5.56293
| 55>    C       -9.72253         9.51259         6.60235
| 56>    C       -9.16367         8.27573         6.20693
| 57>    S       -8.95418         8.22690         4.46982
| 58>    C       -8.82757         7.20709         7.01529
| 59>    C       -8.83673         7.15224         8.42822
| 60>    C       -8.44824         5.95228         8.93577
| 61>    C       -8.13237         4.97787         7.95232
| 62>    S       -8.32173         5.66716         6.34901
| 63>    C       -7.74241         3.69044         8.20422
| 64>    C       -7.49571         2.66998         7.26818
| 65>    S       -7.75278         2.79109         5.53522
| 66>    C       -7.26507         1.17526         5.22157
| 67>    C       -6.91293         0.53860         6.38899
| 68>    C       -7.05003         1.38508         7.53009
| 69>    O       -6.70124         0.73488         8.65918
| 70>    C       -6.34577        -0.51590         8.25354
| 71>    N       -5.93277        -1.43184         9.25123
| 72>    O       -5.63163        -2.54721         8.87180
| 73>    O       -5.90669        -1.04565        10.39981
| 74>    C       -6.44742        -0.70385         6.90166
| 75>    H       -4.99946         4.13688        -5.77302
| 76>    H       -2.41212        -0.10312        -5.12158
| 77>    H       -4.49985         3.72089        -8.50235
| 78>    H       -3.75762         1.78323        -0.07363
| 79>    H       -4.64233         3.77423         5.41879
| 80>    H       -3.49409         4.29317         4.14138
| 81>    H       -7.26480         6.69831         2.30821
| 82>    H       -7.41863         7.05682        -0.74034
| 83>    H      -10.05749        11.20529         0.23526
| 84>    H       -9.25046        10.30289        -2.15700
| 85>    H       -9.32325         8.53499        -2.18290
| 86>    H       -7.76448         9.34446        -2.06100
| 87>    H      -10.30554        11.40036         3.03520
| 88>    H      -10.43556        11.32495         5.66355
| 89>    H       -9.92712         9.74287         7.63239
| 90>    H       -9.11459         8.00068         9.02709
| 91>    H       -8.38638         5.72350         9.98484
| 92>    H       -7.61386         3.40029         9.23902
| 93>    H       -7.26616         0.79826         4.22069
| 94>    H       -6.21760        -1.60380         6.37034
| 95> *
| 96>
| 97>                          ****END OF INPUT****

CARTESIAN COORDINATES (ANGSTROEM)
---------------------------------
  C     -3.469280    1.235010   -2.733800
  C     -2.914020    0.121490   -2.152180
  C     -2.258340   -0.898590   -2.870620
  N     -1.708190   -1.758310   -3.397070
  C     -2.934360   -0.187820   -0.776640
  N     -2.918550   -0.529410    0.320340
  C     -3.501730    1.505080   -4.169840
  C     -4.226160    2.702450   -4.388540
  C     -4.441580    3.223200   -5.640410
  C     -3.912510    2.529540   -6.734470
  C     -3.187520    1.336800   -6.507650
  C     -2.972370    0.809060   -5.239440
  S     -2.620120    0.641150   -7.995740
  C     -3.353940    1.946000   -8.889460
  C     -3.992690    2.855550   -8.116270
  Br    -3.211790    1.982710  -10.759610
  C     -4.667970    3.240370   -3.088460
  O     -5.321140    4.257320   -2.917610
  C     -4.154790    2.322360   -2.072180
  C     -4.257160    2.503070   -0.711180
  C     -4.916140    3.500150    0.007740
  S     -5.886410    4.812070   -0.605290
  C     -6.255390    5.358250    1.002250
  C     -5.617850    4.576840    1.974040
  C     -4.878810    3.537150    1.419720
  O     -4.116000    2.635180    2.079220
  S     -4.554650    2.204710    3.627650
  C     -4.471450    3.863070    4.350290
  S     -5.780680    4.943890    3.688280
  C     -7.073710    6.469930    1.267270
  C     -7.611120    7.269190    0.301190
  C     -8.392400    8.403340    0.585780
  O     -8.699010    8.718840    1.869120
  C     -9.395370    9.876970    1.860780
  C     -9.547410   10.314860    0.542810
  C     -8.919320    9.380130   -0.273720
  C     -8.808520    9.394970   -1.755560
  C     -9.820570   10.437390    3.074340
  C     -9.646050    9.827190    4.293360
  C     -9.995660   10.348510    5.562930
  C     -9.722530    9.512590    6.602350
  C     -9.163670    8.275730    6.206930
  S     -8.954180    8.226900    4.469820
  C     -8.827570    7.207090    7.015290
  C     -8.836730    7.152240    8.428220
  C     -8.448240    5.952280    8.935770
  C     -8.132370    4.977870    7.952320
  S     -8.321730    5.667160    6.349010
  C     -7.742410    3.690440    8.204220
  C     -7.495710    2.669980    7.268180
  S     -7.752780    2.791090    5.535220
  C     -7.265070    1.175260    5.221570
  C     -6.912930    0.538600    6.388990
  C     -7.050030    1.385080    7.530090
  O     -6.701240    0.734880    8.659180
  C     -6.345770   -0.515900    8.253540
  N     -5.932770   -1.431840    9.251230
  O     -5.631630   -2.547210    8.871800
  O     -5.906690   -1.045650   10.399810
  C     -6.447420   -0.703850    6.901660
  H     -4.999460    4.136880   -5.773020
  H     -2.412120   -0.103120   -5.121580
  H     -4.499850    3.720890   -8.502350
  H     -3.757620    1.783230   -0.073630
  H     -4.642330    3.774230    5.418790
  H     -3.494090    4.293170    4.141380
  H     -7.264800    6.698310    2.308210
  H     -7.418630    7.056820   -0.740340
  H    -10.057490   11.205290    0.235260
  H     -9.250460   10.302890   -2.157000
  H     -9.323250    8.534990   -2.182900
  H     -7.764480    9.344460   -2.061000
  H    -10.305540   11.400360    3.035200
  H    -10.435560   11.324950    5.663550
  H     -9.927120    9.742870    7.632390
  H     -9.114590    8.000680    9.027090
  H     -8.386380    5.723500    9.984840
  H     -7.613860    3.400290    9.239020
  H     -7.266160    0.798260    4.220690
  H     -6.217600   -1.603800    6.370340

 Total Charge           Charge          ....    0
 Multiplicity           Mult            ....    1
 Number of Electrons    NEL             ....  494
 Basis Dimension        Dim             ....  986

ORBITAL ENERGIES
----------------

  NO   OCC          E(Eh)            E(eV)
   0   2.0000    -482.880508    -13139.8466
   1   2.0000     -88.985029     -2421.4057
   2   2.0000     -88.979277     -2421.2492
   3   2.0000     -88.968847     -2420.9654
   4   2.0000     -88.958179     -2420.6751
   5   2.0000     -88.955238     -2420.5951
   6   2.0000     -88.951117     -2420.4829
   7   2.0000     -88.943123     -2420.2654
   8   2.0000     -62.558222     -1702.2958
   9   2.0000     -56.392162     -1534.5087
  10   2.0000     -56.389466     -1534.4354
  11   2.0000     -56.389426     -1534.4343
  12   2.0000     -19.311751      -525.4995
  13   2.0000     -19.296325      -525.0797
  14   2.0000     -19.283050      -524.7185
  15   2.0000     -19.243745      -523.6489
  16   2.0000     -19.241957      -523.6003
  17   2.0000     -19.210111      -522.7337
  18   2.0000     -14.655680      -398.8013
  19   2.0000     -14.403760      -391.9462
  20   2.0000     -14.402335      -391.9074
  21   2.0000     -10.388212      -282.6776
  22   2.0000     -10.358614      -281.8722
  23   2.0000     -10.358171      -281.8601
  24   2.0000     -10.352320      -281.7009
  25   2.0000     -10.349831      -281.6332
  26   2.0000     -10.342670      -281.4383
  27   2.0000     -10.337570      -281.2996
  28   2.0000     -10.331614      -281.1375
  29   2.0000     -10.329182      -281.0713
  30   2.0000     -10.327130      -281.0155
  31   2.0000     -10.320710      -280.8408
  32   2.0000     -10.319401      -280.8052
  33   2.0000     -10.317559      -280.7551
  34   2.0000     -10.317392      -280.7505
  35   2.0000     -10.316211      -280.7184
  36   2.0000     -10.315405      -280.6964
  37   2.0000     -10.313784      -280.6523
  38   2.0000     -10.313709      -280.6503
  39   2.0000     -10.313553      -280.6461
  40   2.0000     -10.309252      -280.5290
  41   2.0000     -10.308473      -280.5078
  42   2.0000     -10.307123      -280.4711
  43   2.0000     -10.306809      -280.4625
  44   2.0000     -10.306335      -280.4496
  45   2.0000     -10.300321      -280.2860
  46   2.0000     -10.299649      -280.2677
  47   2.0000     -10.298576      -280.2385
  48   2.0000     -10.298309      -280.2312
  49   2.0000     -10.296413      -280.1796
  50   2.0000     -10.295277      -280.1487
  51   2.0000     -10.294550      -280.1289
  52   2.0000     -10.293922      -280.1119
  53   2.0000     -10.293349      -280.0963
  54   2.0000     -10.293124      -280.0902
  55   2.0000     -10.291079      -280.0345
  56   2.0000     -10.290922      -280.0302
  57   2.0000     -10.290731      -280.0250
  58   2.0000     -10.290542      -280.0199
  59   2.0000     -10.283748      -279.8350
  60   2.0000     -10.283270      -279.8220
  61   2.0000     -10.281257      -279.7672
  62   2.0000     -10.279300      -279.7140
  63   2.0000     -10.278116      -279.6817
  64   2.0000      -8.787654      -239.1242
  65   2.0000      -8.076308      -219.7675
  66   2.0000      -8.073287      -219.6853
  67   2.0000      -8.064821      -219.4549
  68   2.0000      -8.051457      -219.0913
  69   2.0000      -8.051162      -219.0832
  70   2.0000      -8.046502      -218.9564
  71   2.0000      -8.037990      -218.7248
  72   2.0000      -6.623912      -180.2458
  73   2.0000      -6.609399      -179.8509
  74   2.0000      -6.609233      -179.8464
  75   2.0000      -6.050296      -164.6369
  76   2.0000      -6.042635      -164.4284
  77   2.0000      -6.042533      -164.4257
  78   2.0000      -6.038151      -164.3064
  79   2.0000      -6.035787      -164.2421
  80   2.0000      -6.034533      -164.2080
  81   2.0000      -6.032731      -164.1590
  82   2.0000      -6.030217      -164.0905
  83   2.0000      -6.026051      -163.9772
  84   2.0000      -6.020981      -163.8392
  85   2.0000      -6.020960      -163.8387
  86   2.0000      -6.016814      -163.7258
  87   2.0000      -6.016751      -163.7241
  88   2.0000      -6.016376      -163.7139
  89   2.0000      -6.013153      -163.6262
  90   2.0000      -6.012070      -163.5968
  91   2.0000      -6.012042      -163.5960
  92   2.0000      -6.008458      -163.4984
  93   2.0000      -6.007452      -163.4711
  94   2.0000      -6.004580      -163.3929
  95   2.0000      -5.997306      -163.1950
  96   2.0000      -2.739778       -74.5532
  97   2.0000      -2.735710       -74.4425
  98   2.0000      -2.735595       -74.4393
  99   2.0000      -2.724056       -74.1253
 100   2.0000      -2.724028       -74.1246
 101   2.0000      -1.327291       -36.1174
 102   2.0000      -1.231472       -33.5100
 103   2.0000      -1.216237       -33.0955
 104   2.0000      -1.181625       -32.1537
 105   2.0000      -1.143579       -31.1184
 106   2.0000      -1.124806       -30.6075
 107   2.0000      -1.014064       -27.5941
 108   2.0000      -1.005389       -27.3580
 109   2.0000      -1.002998       -27.2930
 110   2.0000      -0.997885       -27.1538
 111   2.0000      -0.994948       -27.0739
 112   2.0000      -0.982134       -26.7252
 113   2.0000      -0.979989       -26.6668
 114   2.0000      -0.979598       -26.6562
 115   2.0000      -0.938787       -25.5457
 116   2.0000      -0.937111       -25.5001
 117   2.0000      -0.930946       -25.3323
 118   2.0000      -0.925904       -25.1951
 119   2.0000      -0.916673       -24.9439
 120   2.0000      -0.905452       -24.6386
 121   2.0000      -0.899966       -24.4893
 122   2.0000      -0.896531       -24.3959
 123   2.0000      -0.887747       -24.1568
 124   2.0000      -0.879762       -23.9396
 125   2.0000      -0.877607       -23.8809
 126   2.0000      -0.869199       -23.6521
 127   2.0000      -0.861590       -23.4451
 128   2.0000      -0.854279       -23.2461
 129   2.0000      -0.841774       -22.9058
 130   2.0000      -0.833821       -22.6894
 131   2.0000      -0.823759       -22.4156
 132   2.0000      -0.821230       -22.3468
 133   2.0000      -0.812018       -22.0961
 134   2.0000      -0.799931       -21.7672
 135   2.0000      -0.788754       -21.4631
 136   2.0000      -0.783674       -21.3248
 137   2.0000      -0.775535       -21.1034
 138   2.0000      -0.764678       -20.8079
 139   2.0000      -0.750723       -20.4282
 140   2.0000      -0.748914       -20.3790
 141   2.0000      -0.724946       -19.7268
 142   2.0000      -0.717656       -19.5284
 143   2.0000      -0.709432       -19.3046
 144   2.0000      -0.698743       -19.0138
 145   2.0000      -0.691794       -18.8247
 146   2.0000      -0.684545       -18.6274
 147   2.0000      -0.681080       -18.5331
 148   2.0000      -0.678025       -18.4500
 149   2.0000      -0.666434       -18.1346
 150   2.0000      -0.653310       -17.7775
 151   2.0000      -0.648606       -17.6495
 152   2.0000      -0.645387       -17.5619
 153   2.0000      -0.641168       -17.4471
 154   2.0000      -0.641013       -17.4428
 155   2.0000      -0.638033       -17.3618
 156   2.0000      -0.631778       -17.1915
 157   2.0000      -0.627732       -17.0814
 158   2.0000      -0.623041       -16.9538
 159   2.0000      -0.615019       -16.7355
 160   2.0000      -0.608379       -16.5548
 161   2.0000      -0.604492       -16.4491
 162   2.0000      -0.602058       -16.3828
 163   2.0000      -0.595510       -16.2047
 164   2.0000      -0.590666       -16.0728
 165   2.0000      -0.589953       -16.0534
 166   2.0000      -0.585358       -15.9284
 167   2.0000      -0.578555       -15.7433
 168   2.0000      -0.569392       -15.4940
 169   2.0000      -0.568620       -15.4729
 170   2.0000      -0.566273       -15.4091
 171   2.0000      -0.561874       -15.2894
 172   2.0000      -0.554928       -15.1004
 173   2.0000      -0.552466       -15.0334
 174   2.0000      -0.549996       -14.9662
 175   2.0000      -0.537596       -14.6287
 176   2.0000      -0.535718       -14.5776
 177   2.0000      -0.532466       -14.4891
 178   2.0000      -0.529928       -14.4201
 179   2.0000      -0.529687       -14.4135
 180   2.0000      -0.524223       -14.2648
 181   2.0000      -0.520761       -14.1706
 182   2.0000      -0.515351       -14.0234
 183   2.0000      -0.512034       -13.9332
 184   2.0000      -0.507942       -13.8218
 185   2.0000      -0.506442       -13.7810
 186   2.0000      -0.505137       -13.7455
 187   2.0000      -0.502583       -13.6760
 188   2.0000      -0.501719       -13.6525
 189   2.0000      -0.501098       -13.6356
 190   2.0000      -0.498121       -13.5546
 191   2.0000      -0.496221       -13.5029
 192   2.0000      -0.492542       -13.4027
 193   2.0000      -0.490654       -13.3514
 194   2.0000      -0.487557       -13.2671
 195   2.0000      -0.483254       -13.1500
 196   2.0000      -0.481874       -13.1125
 197   2.0000      -0.479987       -13.0611
 198   2.0000      -0.474824       -12.9206
 199   2.0000      -0.470574       -12.8050
 200   2.0000      -0.469950       -12.7880
 201   2.0000      -0.464790       -12.6476
 202   2.0000      -0.463583       -12.6147
 203   2.0000      -0.457672       -12.4539
 204   2.0000      -0.456649       -12.4261
 205   2.0000      -0.450611       -12.2617
 206   2.0000      -0.449407       -12.2290
 207   2.0000      -0.446399       -12.1471
 208   2.0000      -0.444275       -12.0893
 209   2.0000      -0.440882       -11.9970
 210   2.0000      -0.437433       -11.9032
 211   2.0000      -0.433935       -11.8080
 212   2.0000      -0.432846       -11.7783
 213   2.0000      -0.430729       -11.7207
 214   2.0000      -0.423561       -11.5257
 215   2.0000      -0.420751       -11.4492
 216   2.0000      -0.417631       -11.3643
 217   2.0000      -0.416748       -11.3403
 218   2.0000      -0.414877       -11.2894
 219   2.0000      -0.405968       -11.0470
 220   2.0000      -0.403011       -10.9665
 221   2.0000      -0.398158       -10.8344
 222   2.0000      -0.395776       -10.7696
 223   2.0000      -0.394367       -10.7313
 224   2.0000      -0.393504       -10.7078
 225   2.0000      -0.389762       -10.6060
 226   2.0000      -0.380727       -10.3601
 227   2.0000      -0.379609       -10.3297
 228   2.0000      -0.374348       -10.1865
 229   2.0000      -0.371506       -10.1092
 230   2.0000      -0.370089       -10.0706
 231   2.0000      -0.367030        -9.9874
 232   2.0000      -0.359683        -9.7875
 233   2.0000      -0.352105        -9.5813
 234   2.0000      -0.344752        -9.3812
 235   2.0000      -0.335187        -9.1209
 236   2.0000      -0.333821        -9.0837
 237   2.0000      -0.325131        -8.8473
 238   2.0000      -0.322148        -8.7661
 239   2.0000      -0.315233        -8.5779
 240   2.0000      -0.309016        -8.4088
 241   2.0000      -0.304764        -8.2930
 242   2.0000      -0.288360        -7.8467
 243   2.0000      -0.282215        -7.6795
 244   2.0000      -0.278844        -7.5877
 245   2.0000      -0.246890        -6.7182
 246   2.0000      -0.210524        -5.7287
 247   0.0000      -0.099015        -2.6943
 248   0.0000      -0.077279        -2.1029
 249   0.0000      -0.060884        -1.6567
 250   0.0000      -0.052786        -1.4364
 251   0.0000      -0.027627        -0.7518

MULLIKEN ATOMIC CHARGES
-----------------------
   0 C :    0.327228
   1 C :   -0.364093
   2 C :   -0.189295
   3 N :    0.143194
   4 C :   -0.194860
   5 N :    0.142148
   6 C :    0.012421
   7 C :   -0.012080
   8 C :   -0.075200
   9 C :    0.119873
  10 C :   -0.094657
  11 C :   -0.021420
  12 S :    0.182991
  13 C :   -0.122777
  14 C :    0.035070
  15 Br:    0.017031
  16 C :    0.160915
  17 O :   -0.192546
  18 C :   -0.101737
  19 C :   -0.032770
  20 C :   -0.114875
  21 S :    0.175633
  22 C :   -0.080192
  23 C :   -0.027225
  24 C :    0.220856
  25 O :   -0.389543
  26 S :    0.262517
  27 C :   -0.142719
  28 S :    0.046913
  29 C :   -0.031019
  30 C :   -0.038201
  31 C :    0.133507
  32 O :   -0.226831
  33 C :    0.198070
  34 C :   -0.081749
  35 C :   -0.084933
  36 C :    0.118300
  37 C :   -0.046252
  38 C :   -0.014560
  39 C :    0.034696
  40 C :    0.026022
  41 C :   -0.046827
  42 S :    0.105228
  43 C :   -0.040186
  44 C :    0.029319
  45 C :    0.035867
  46 C :   -0.029820
  47 S :    0.074512
  48 C :   -0.010781
  49 C :   -0.213759
  50 S :    0.152372
  51 C :   -0.132203
  52 C :    0.120949
  53 C :    0.200293
  54 O :   -0.185202
  55 C :    0.236767
  56 N :    0.270068
  57 O :   -0.245825
  58 O :   -0.231321
  59 C :   -0.066919
  60 H :   -0.016176
  61 H :   -0.009113
  62 H :   -0.006325
  63 H :    0.025212
  64 H :    0.094371
  65 H :    0.113522
  66 H :    0.009996
  67 H :    0.009172
  68 H :   -0.022878
  69 H :    0.014644
  70 H :    0.037880
  71 H :    0.036544
  72 H :   -0.010606
  73 H :   -0.012042
  74 H :   -0.012466
  75 H :   -0.011237
  76 H :   -0.006028
  77 H :    0.007242
  78 H :    0.040315
  79 H :    0.017588
Sum of atomic charges:   -0.0000000

LOEWDIN ATOMIC CHARGES
----------------------
   0 C :    0.076600
   1 C :   -0.152549
   2 C :   -0.018563
   3 N :   -0.064539
   4 C :   -0.022928
   5 N :   -0.059500
   6 C :   -0.018235
   7 C :   -0.049342
   8 C :    0.017764
   9 C :   -0.035779
  10 C :   -0.145401
  11 C :   -0.011499
  12 S :    0.430099
  13 C :   -0.274150
  14 C :   -0.071428
  15 Br:    0.131657
  16 C :    0.082938
  17 O :   -0.179148
  18 C :   -0.123857
  19 C :    0.055488
  20 C :   -0.213214
  21 S :    0.497905
  22 C :   -0.160056
  23 C :   -0.239876
  24 C :    0.005940
  25 O :   -0.225611
  26 S :    0.405580
  27 C :   -0.257829
  28 S :    0.298039
  29 C :   -0.061306
  30 C :   -0.014964
  31 C :    0.014189
  32 O :    0.004327
  33 C :    0.043973
  34 C :   -0.065140
  35 C :   -0.038713
  36 C :   -0.045092
  37 C :   -0.082404
  38 C :   -0.136054
  39 C :   -0.036175
  40 C :   -0.028530
  41 C :   -0.184987
  42 S :    0.398037
  43 C :   -0.171362
  44 C :   -0.035857
  45 C :   -0.026871
  46 C :   -0.155717
  47 S :    0.368642
  48 C :   -0.067218
  49 C :   -0.215142
  50 S :    0.485617
  51 C :   -0.188555
  52 C :   -0.090194
  53 C :    0.019281
  54 O :    0.000532
  55 C :    0.025331
  56 N :    0.271367
  57 O :   -0.207333
  58 O :   -0.193171
  59 C :   -0.006063
  60 H :    0.038548
  61 H :    0.040482
  62 H :    0.037430
  63 H :    0.050017
  64 H :    0.034343
  65 H :    0.030187
  66 H :    0.027152
  67 H :    0.034694
  68 H :    0.029759
  69 H :    0.036239
  70 H :    0.042108
  71 H :    0.040969
  72 H :    0.041470
  73 H :    0.033676
  74 H :    0.031799
  75 H :    0.033012
  76 H :    0.035858
  77 H :    0.046894
  78 H :    0.027011
  79 H :    0.049398

  Mayer bond orders larger than 0.100000
B(  0-C ,  1-C ) :   1.6014 B(  0-C ,  6-C ) :   0.9907 B(  0-C , 18-C ) :   1.1034
B(  1-C ,  2-C ) :   1.1494 B(  1-C ,  4-C ) :   1.1490 B(  2-C ,  3-N ) :   2.9655
B(  4-C ,  5-N ) :   2.9635 B(  6-C ,  7-C ) :   1.2768 B(  6-C , 11-C ) :   1.4201
B(  7-C ,  8-C ) :   1.4278 B(  7-C , 16-C ) :   0.9545 B(  8-C ,  9-C ) :   1.2393
B(  8-C , 60-H ) :   1.0162 B(  9-C , 10-C ) :   1.3136 B(  9-C , 14-C ) :   1.1607
B( 10-C , 11-C ) :   1.3208 B( 10-C , 12-S ) :   1.0856 B( 11-C , 61-H ) :   0.9796
B( 12-S , 13-C ) :   1.0861 B( 13-C , 14-C ) :   1.6204 B( 13-C , 15-Br) :   1.0144
B( 14-C , 62-H ) :   1.0000 B( 16-C , 17-O ) :   2.1184 B( 16-C , 18-C ) :   0.9952
B( 18-C , 19-C ) :   1.4252 B( 19-C , 20-C ) :   1.3342 B( 19-C , 63-H ) :   0.9340
B( 20-C , 21-S ) :   1.0615 B( 20-C , 24-C ) :   1.3573 B( 21-S , 22-C ) :   1.1089
B( 22-C , 23-C ) :   1.3975 B( 22-C , 29-C ) :   1.2062 B( 23-C , 24-C ) :   1.3479
B( 23-C , 28-S ) :   0.9861 B( 24-C , 25-O ) :   1.0944 B( 25-O , 26-S ) :   0.8637
B( 26-S , 27-C ) :   0.9895 B( 27-C , 28-S ) :   0.9831 B( 27-C , 64-H ) :   0.9473
B( 27-C , 65-H ) :   0.9397 B( 29-C , 30-C ) :   1.5549 B( 29-C , 66-H ) :   0.9783
B( 30-C , 31-C ) :   1.2363 B( 30-C , 67-H ) :   0.9570 B( 31-C , 32-O ) :   1.1160
B( 31-C , 35-C ) :   1.3651 B( 32-O , 33-C ) :   1.1274 B( 33-C , 34-C ) :   1.3390
B( 33-C , 37-C ) :   1.1968 B( 34-C , 35-C ) :   1.3143 B( 34-C , 68-H ) :   1.0171
B( 35-C , 36-C ) :   1.0968 B( 36-C , 69-H ) :   0.9506 B( 36-C , 70-H ) :   0.9462
B( 36-C , 71-H ) :   0.9442 B( 37-C , 38-C ) :   1.5322 B( 37-C , 72-H ) :   0.9675
B( 38-C , 39-C ) :   1.1516 B( 38-C , 42-S ) :   1.0582 B( 39-C , 40-C ) :   1.5845
B( 39-C , 73-H ) :   0.9995 B( 40-C , 41-C ) :   1.1926 B( 40-C , 74-H ) :   0.9949
B( 41-C , 42-S ) :   1.0286 B( 41-C , 43-C ) :   1.5082 B( 43-C , 44-C ) :   1.1848
B( 43-C , 47-S ) :   1.0451 B( 44-C , 45-C ) :   1.5917 B( 44-C , 75-H ) :   0.9930
B( 45-C , 46-C ) :   1.1383 B( 45-C , 76-H ) :   1.0014 B( 46-C , 47-S ) :   1.0312
B( 46-C , 48-C ) :   1.5712 B( 48-C , 49-C ) :   1.1700 B( 48-C , 77-H ) :   0.9739
B( 49-C , 50-S ) :   1.1028 B( 49-C , 51-C ) :   0.1052 B( 49-C , 53-C ) :   1.4288
B( 50-S , 51-C ) :   1.1926 B( 51-C , 52-C ) :   1.4027 B( 51-C , 78-H ) :   0.9744
B( 52-C , 53-C ) :   1.2297 B( 52-C , 59-C ) :   1.0588 B( 53-C , 54-O ) :   1.1251
B( 54-O , 55-C ) :   1.1191 B( 55-C , 56-N ) :   0.9129 B( 55-C , 59-C ) :   1.5774
B( 56-N , 57-O ) :   1.5369 B( 56-N , 58-O ) :   1.5147 B( 57-O , 58-O ) :   0.2807
B( 59-C , 79-H ) :   1.0275

-----------------------------------------------------------------------------
         ABSORPTION SPECTRUM VIA TRANSITION ELECTRIC DIPOLE MOMENTS
-----------------------------------------------------------------------------
State   Energy  Wavelength   fosc         T2         TX        TY        TZ
        (cm-1)    (nm)                  (au**2)     (au)      (au)      (au)
-----------------------------------------------------------------------------
   0    9835.9   1016.7   0.459924494  15.39394  -1.31596   0.08371   3.69529
   1   15864.9    630.3   0.296018096   6.14268  -1.01817   2.25953   0.02278
   2   18345.7    545.1   1.361057929  24.42411  -2.15364   4.26604   1.25969
   3   19537.9    511.8   0.174015444   2.93215   0.60699  -1.39906   0.77867
   4   21845.3    457.8   0.142750943   2.15127   0.64223  -1.31862   0.00749
   5   22633.1    441.8   0.201896899   2.93671  -0.10051  -0.42814   1.65629
   6   23425.2    426.9   0.017222444   0.24204   0.01431   0.27752   0.40598
   7   25088.6    398.6   0.074304352   0.97502  -0.34977   0.87456  -0.29634
   8   26473.3    377.7   0.255316062   3.17502  -0.73144   1.61317   0.19419
   9   27281.6    366.5   0.085136893   1.02736  -0.51697   0.85744  -0.15777
  10   27701.8    361.0   0.058366617   0.69364   0.02263  -0.24689   0.79509
  11   28105.6    355.8   0.140443937   1.64508   0.05271   0.51393  -1.17396
  12   28473.1    351.2   0.093544497   1.08158  -0.08980   0.45525  -0.93073
  13   28627.0    349.3   0.029600495   0.34041   0.19887  -0.23509   0.49557
  14   29291.9    341.4   0.157237098   1.76719   0.32834  -1.04690   0.75058
  15   30000.9    333.3   0.008909892   0.09777  -0.21429   0.22770  -0.00203
  16   30727.1    325.4   0.040554899   0.43451  -0.17630   0.39774  -0.49521
  17   31320.2    319.3   0.047939017   0.50390  -0.01120  -0.17074  -0.68893
  18   31550.3    317.0   0.110793501   1.15608  -0.27512   0.35467  -0.97703
  19   31762.7    314.8   0.169690867   1.75880   0.07352   0.12288   1.31844
  20   31909.3    313.4   0.001133097   0.01169   0.05696   0.03637   0.08439
  21   32425.0    308.4   0.007022906   0.07130   0.04134  -0.20354   0.16782
  22   32794.5    304.9   0.061479561   0.61717  -0.15732   0.28158  -0.71634
  23   32913.8    303.8   0.111617013   1.11642   0.09483   0.16030   1.04006
  24   33129.9    301.8   0.162930691   1.61904  -0.12837   0.81520  -0.96851
  25   33391.0    299.5   0.718900909   7.08786  -0.50798   1.04034  -2.39740
  26   33831.4    295.6   0.033884001   0.32972  -0.29785   0.46969  -0.14284
  27   34729.4    287.9   0.045643489   0.43267  -0.20360   0.50264  -0.37225
  28   34836.4    287.1   0.063648839   0.60150   0.16643  -0.16585   0.73911
  29   35255.3    283.6   0.024873147   0.23226   0.02378  -0.10860  -0.46894
  30   35421.0    282.3   0.018173588   0.16891  -0.00431   0.03172  -0.40974
  31   35851.0    278.9   0.015442837   0.14181  -0.21912   0.28174  -0.12008
  32   36083.9    277.1   0.040648058   0.37085   0.08239  -0.45441  -0.39695
  33   36596.4    273.3   0.036125814   0.32498   0.29442  -0.39729  -0.28365
  34   36811.4    271.7   0.090189871   0.80659  -0.05568   0.06076  -0.89431
  35   37413.2    267.3   0.103897454   0.91423  -0.02634  -0.08892  -0.95165
  36   37836.6    264.3   0.083898615   0.72999   0.32334  -0.42288  -0.66829
  37   38007.7    263.1   0.106997163   0.92678   0.16277  -0.37004  -0.87370
  38   38249.2    261.4   0.029902936   0.25738  -0.11622   0.22003   0.44211
  39   38467.2    260.0   0.671970937   5.75090   0.85273  -1.63809   1.52984
  40   38743.9    258.1   0.020842688   0.17710  -0.14388   0.02108   0.39492
  41   39043.8    256.1   0.031938099   0.26930   0.15812  -0.37546  -0.32144
  42   39581.0    252.6   0.007712871   0.06415   0.06188  -0.16153   0.18501
  43   39624.9    252.4   0.016756857   0.13922  -0.05959   0.32396  -0.17526
  44   40147.5    249.1   0.005958323   0.04886  -0.11538   0.10309   0.15785
  45   40312.8    248.1   0.037354044   0.30505  -0.10793   0.30948  -0.44454

FINAL SINGLE POINT ENERGY     -7623.612301520128

DIPOLE MOMENT
-------------
                                X             Y             Z
Electronic contribution:     46.49816     -53.09962    -129.92903
Nuclear contribution   :    -49.11559      58.16249     129.69296
                        -----------------------------------------
Total Dipole Moment    :     -2.61743       5.06287      -0.23607
                        -----------------------------------------
Magnitude (a.u.)       :      5.70432
Magnitude (Debye)      :     14.49924

Rotational constants in cm-1:     0.001320     0.000434     0.000332
Rotational constants in MHz :    39.580208    13.017243     9.964019

                             ****ORCA TERMINATED NORMALLY****
TOTAL RUN TIME: 0 days 0 hours 8 minutes 47 seconds 353 msec
