                         Program Version 4.2.0 -  RELEASE  -
|  1> # ORCA input file
|  2> # SCF done       -176.001232294631          0.000361291498
|  3> ! CAM-B3LYP def2-SVP def2/J RIJCOSX Grid4 TightSCF
|  4> %maxcore 5000
|  5> %tddft
|  6>     Mode sTDDFT
|  7>     Ethresh 5.0
|  8>     maxcore 5000
|  9> end
| 10>
| 11> %pal
| 12>   nprocs 6
| 13>   end
| 14> * xyz 0 1
| 15>    C       -4.10076         2.82753        -5.50829
| 16>    C       -3.14280         3.68731        -5.98750
| 17>    C       -2.41069         3.47274        -7.17163
| 18>    N       -1.79103         3.35372        -8.13144
| 19>    C       -2.74672         4.88153        -5.35210
| 20>    N       -2.35977         5.85643        -4.88356
| 21>    C       -4.46503         1.54398        -6.09966
| 22>    C       -5.41460         0.91372        -5.25980
| 23>    C       -5.95581        -0.31493        -5.54556
| 24>    C       -5.53492        -0.95754        -6.71531
| 25>    C       -4.58778        -0.31950        -7.54907
| 26>    C       -4.04294         0.92658        -7.26146
| 27>    S       -4.21459        -1.28368        -8.94643
| 28>    C       -5.32064        -2.51418        -8.39666
| 29>    C       -5.93803        -2.22122        -7.22800
| 30>   Br       -5.55669        -4.07041        -9.41736
| 31>    C       -5.70901         1.79021        -4.10726
| 32>    O       -6.55796         1.59345        -3.25999
| 33>    C       -4.86419         2.98695        -4.29401
| 34>    C       -4.97252         4.13436        -3.54512
| 35>    C       -5.54838         4.21014        -2.26910
| 36>    S       -6.34125         5.67026        -1.73746
| 37>    C       -6.84168         4.92889        -0.24784
| 38>    C       -6.34459         3.62819        -0.14954
| 39>    C       -5.58941         3.23349        -1.26365
| 40>    O       -4.90525         2.09004        -1.43705
| 41>    S       -4.55099         1.11846        -0.13549
| 42>    C       -6.23154         1.02228         0.53026
| 43>    S       -6.70355         2.62584         1.24774
| 44>    C       -7.67521         5.56634         0.68897
| 45>    C       -8.12362         6.84563         0.55364
| 46>    C       -9.01386         7.50655         1.42089
| 47>    S       -9.54246         9.11699         1.04962
| 48>    C      -10.59344         9.18397         2.44382
| 49>    C      -10.52819         7.97815         3.16239
| 50>    C       -9.63379         7.05506         2.59314
| 51>    O       -9.37535         5.80082         3.03300
| 52>    S       -9.48081         5.47569         4.67325
| 53>    C      -11.21938         5.90899         4.84676
| 54>    S      -11.47303         7.69735         4.61737
| 55>    C      -11.33951        10.35506         2.62559
| 56>    C      -12.24790        10.61553         3.62151
| 57>    C      -12.98341        11.79619         3.70558
| 58>    C      -13.94174        12.01681         4.67618
| 59>    C      -14.75818        13.15472         4.85008
| 60>    C      -15.63714        13.05825         5.89275
| 61>    C      -15.55124        11.83732         6.58963
| 62>    S      -14.32052        10.81462         5.89241
| 63>    C      -16.28356        11.38925         7.67942
| 64>    C      -17.32525        12.01912         8.38842
| 65>    C      -17.82101        11.26616         9.41237
| 66>    C      -17.19371        10.00293         9.56575
| 67>    S      -15.94943         9.81265         8.34869
| 68>    C      -17.50396         9.07097        10.52657
| 69>    C      -16.91025         7.81122        10.72969
| 70>    S      -17.44786         6.80864        12.07418
| 71>    C      -16.35522         5.52538        11.73528
| 72>    C      -15.59399         5.82979        10.63190
| 73>    C      -15.91108         7.10951        10.07288
| 74>    O      -15.14354         7.35278         8.99148
| 75>    C      -14.34411         6.26438         8.85239
| 76>    N      -13.43681         6.26597         7.78214
| 77>    O      -12.71253         5.28423         7.66893
| 78>    O      -13.41602         7.22264         7.03237
| 79>    C      -14.56168         5.30448         9.80928
| 80>    H       -6.68025        -0.76953        -4.88805
| 81>    H       -3.32926         1.37504        -7.93217
| 82>    H       -6.64945        -2.86715        -6.74655
| 83>    H       -4.64984         5.07497        -3.97356
| 84>    H       -6.91140         0.75850        -0.27823
| 85>    H       -6.24513         0.28749         1.32850
| 86>    H       -7.97188         4.97143         1.54055
| 87>    H       -7.79077         7.42092        -0.30180
| 88>    H      -11.80399         5.35565         4.11434
| 89>    H      -11.53285         5.66929         5.86039
| 90>    H      -11.17797        11.11817         1.87385
| 91>    H      -12.43192         9.87161         4.38273
| 92>    H      -12.81495        12.57719         2.97568
| 93>    H      -14.67733        14.00984         4.20216
| 94>    H      -16.33554        13.82704         6.17130
| 95>    H      -17.68229        12.99988         8.12952
| 96>    H      -18.61771        11.57627        10.06521
| 97>    H      -18.29212         9.33046        11.22053
| 98>    H      -16.34202         4.65157        12.35158
| 99>    H      -14.04904         4.36892         9.89315
|100> *
|101>
|102>                          ****END OF INPUT****

CARTESIAN COORDINATES (ANGSTROEM)
---------------------------------
  C     -4.100760    2.827530   -5.508290
  C     -3.142800    3.687310   -5.987500
  C     -2.410690    3.472740   -7.171630
  N     -1.791030    3.353720   -8.131440
  C     -2.746720    4.881530   -5.352100
  N     -2.359770    5.856430   -4.883560
  C     -4.465030    1.543980   -6.099660
  C     -5.414600    0.913720   -5.259800
  C     -5.955810   -0.314930   -5.545560
  C     -5.534920   -0.957540   -6.715310
  C     -4.587780   -0.319500   -7.549070
  C     -4.042940    0.926580   -7.261460
  S     -4.214590   -1.283680   -8.946430
  C     -5.320640   -2.514180   -8.396660
  C     -5.938030   -2.221220   -7.228000
  Br    -5.556690   -4.070410   -9.417360
  C     -5.709010    1.790210   -4.107260
  O     -6.557960    1.593450   -3.259990
  C     -4.864190    2.986950   -4.294010
  C     -4.972520    4.134360   -3.545120
  C     -5.548380    4.210140   -2.269100
  S     -6.341250    5.670260   -1.737460
  C     -6.841680    4.928890   -0.247840
  C     -6.344590    3.628190   -0.149540
  C     -5.589410    3.233490   -1.263650
  O     -4.905250    2.090040   -1.437050
  S     -4.550990    1.118460   -0.135490
  C     -6.231540    1.022280    0.530260
  S     -6.703550    2.625840    1.247740
  C     -7.675210    5.566340    0.688970
  C     -8.123620    6.845630    0.553640
  C     -9.013860    7.506550    1.420890
  S     -9.542460    9.116990    1.049620
  C    -10.593440    9.183970    2.443820
  C    -10.528190    7.978150    3.162390
  C     -9.633790    7.055060    2.593140
  O     -9.375350    5.800820    3.033000
  S     -9.480810    5.475690    4.673250
  C    -11.219380    5.908990    4.846760
  S    -11.473030    7.697350    4.617370
  C    -11.339510   10.355060    2.625590
  C    -12.247900   10.615530    3.621510
  C    -12.983410   11.796190    3.705580
  C    -13.941740   12.016810    4.676180
  C    -14.758180   13.154720    4.850080
  C    -15.637140   13.058250    5.892750
  C    -15.551240   11.837320    6.589630
  S    -14.320520   10.814620    5.892410
  C    -16.283560   11.389250    7.679420
  C    -17.325250   12.019120    8.388420
  C    -17.821010   11.266160    9.412370
  C    -17.193710   10.002930    9.565750
  S    -15.949430    9.812650    8.348690
  C    -17.503960    9.070970   10.526570
  C    -16.910250    7.811220   10.729690
  S    -17.447860    6.808640   12.074180
  C    -16.355220    5.525380   11.735280
  C    -15.593990    5.829790   10.631900
  C    -15.911080    7.109510   10.072880
  O    -15.143540    7.352780    8.991480
  C    -14.344110    6.264380    8.852390
  N    -13.436810    6.265970    7.782140
  O    -12.712530    5.284230    7.668930
  O    -13.416020    7.222640    7.032370
  C    -14.561680    5.304480    9.809280
  H     -6.680250   -0.769530   -4.888050
  H     -3.329260    1.375040   -7.932170
  H     -6.649450   -2.867150   -6.746550
  H     -4.649840    5.074970   -3.973560
  H     -6.911400    0.758500   -0.278230
  H     -6.245130    0.287490    1.328500
  H     -7.971880    4.971430    1.540550
  H     -7.790770    7.420920   -0.301800
  H    -11.803990    5.355650    4.114340
  H    -11.532850    5.669290    5.860390
  H    -11.177970   11.118170    1.873850
  H    -12.431920    9.871610    4.382730
  H    -12.814950   12.577190    2.975680
  H    -14.677330   14.009840    4.202160
  H    -16.335540   13.827040    6.171300
  H    -17.682290   12.999880    8.129520
  H    -18.617710   11.576270   10.065210
  H    -18.292120    9.330460   11.220530
  H    -16.342020    4.651570   12.351580
  H    -14.049040    4.368920    9.893150

 Total Charge           Charge          ....    0
 Multiplicity           Mult            ....    1
 Number of Electrons    NEL             ....  554
 Basis Dimension        Dim             .... 1068

ORBITAL ENERGIES
----------------

  NO   OCC          E(Eh)            E(eV)
   0   2.0000    -482.877220    -13139.7572
   1   2.0000     -88.980867     -2421.2925
   2   2.0000     -88.977110     -2421.1903
   3   2.0000     -88.973310     -2421.0868
   4   2.0000     -88.964516     -2420.8475
   5   2.0000     -88.958088     -2420.6726
   6   2.0000     -88.956252     -2420.6227
   7   2.0000     -88.942332     -2420.2439
   8   2.0000     -88.941536     -2420.2222
   9   2.0000     -88.939110     -2420.1562
  10   2.0000     -88.936648     -2420.0892
  11   2.0000     -62.554920     -1702.2059
  12   2.0000     -56.388860     -1534.4189
  13   2.0000     -56.386165     -1534.3455
  14   2.0000     -56.386130     -1534.3446
  15   2.0000     -19.316846      -525.6381
  16   2.0000     -19.276021      -524.5272
  17   2.0000     -19.272365      -524.4277
  18   2.0000     -19.267098      -524.2844
  19   2.0000     -19.263764      -524.1937
  20   2.0000     -19.197178      -522.3818
  21   2.0000     -14.675110      -399.3300
  22   2.0000     -14.399510      -391.8306
  23   2.0000     -14.398915      -391.8144
  24   2.0000     -10.400203      -283.0039
  25   2.0000     -10.356622      -281.8180
  26   2.0000     -10.354225      -281.7528
  27   2.0000     -10.348470      -281.5962
  28   2.0000     -10.347582      -281.5720
  29   2.0000     -10.346078      -281.5311
  30   2.0000     -10.332284      -281.1557
  31   2.0000     -10.325781      -280.9788
  32   2.0000     -10.325639      -280.9749
  33   2.0000     -10.324157      -280.9346
  34   2.0000     -10.323417      -280.9144
  35   2.0000     -10.319920      -280.8193
  36   2.0000     -10.317517      -280.7539
  37   2.0000     -10.317106      -280.7427
  38   2.0000     -10.313567      -280.6464
  39   2.0000     -10.312815      -280.6260
  40   2.0000     -10.311571      -280.5921
  41   2.0000     -10.309949      -280.5480
  42   2.0000     -10.307966      -280.4940
  43   2.0000     -10.307306      -280.4761
  44   2.0000     -10.307018      -280.4682
  45   2.0000     -10.306038      -280.4416
  46   2.0000     -10.305744      -280.4335
  47   2.0000     -10.304875      -280.4099
  48   2.0000     -10.303231      -280.3652
  49   2.0000     -10.303054      -280.3603
  50   2.0000     -10.302512      -280.3456
  51   2.0000     -10.301159      -280.3088
  52   2.0000     -10.295106      -280.1441
  53   2.0000     -10.293319      -280.0954
  54   2.0000     -10.292648      -280.0772
  55   2.0000     -10.292062      -280.0612
  56   2.0000     -10.291048      -280.0337
  57   2.0000     -10.289695      -279.9968
  58   2.0000     -10.287847      -279.9466
  59   2.0000     -10.287357      -279.9332
  60   2.0000     -10.286677      -279.9147
  61   2.0000     -10.286349      -279.9058
  62   2.0000     -10.284914      -279.8667
  63   2.0000     -10.284856      -279.8652
  64   2.0000     -10.280783      -279.7543
  65   2.0000     -10.278048      -279.6799
  66   2.0000     -10.277712      -279.6708
  67   2.0000     -10.277503      -279.6651
  68   2.0000     -10.275717      -279.6165
  69   2.0000      -8.784335      -239.0339
  70   2.0000      -8.075842      -219.7548
  71   2.0000      -8.069170      -219.5733
  72   2.0000      -8.065231      -219.4661
  73   2.0000      -8.060542      -219.3385
  74   2.0000      -8.053680      -219.1518
  75   2.0000      -8.052013      -219.1064
  76   2.0000      -8.038627      -218.7422
  77   2.0000      -8.037863      -218.7214
  78   2.0000      -8.034498      -218.6298
  79   2.0000      -8.031096      -218.5372
  80   2.0000      -6.620586      -180.1553
  81   2.0000      -6.606098      -179.7611
  82   2.0000      -6.605898      -179.7556
  83   2.0000      -6.045186      -164.4979
  84   2.0000      -6.043267      -164.4457
  85   2.0000      -6.040859      -164.3801
  86   2.0000      -6.039304      -164.3378
  87   2.0000      -6.038141      -164.3062
  88   2.0000      -6.035427      -164.2323
  89   2.0000      -6.031367      -164.1218
  90   2.0000      -6.030238      -164.0911
  91   2.0000      -6.025968      -163.9749
  92   2.0000      -6.025354      -163.9582
  93   2.0000      -6.023054      -163.8956
  94   2.0000      -6.021747      -163.8601
  95   2.0000      -6.021634      -163.8570
  96   2.0000      -6.021283      -163.8474
  97   2.0000      -6.019280      -163.7929
  98   2.0000      -6.017566      -163.7463
  99   2.0000      -6.015195      -163.6818
 100   2.0000      -6.013702      -163.6412
 101   2.0000      -6.008341      -163.4953
 102   2.0000      -6.007592      -163.4749
 103   2.0000      -6.004988      -163.4040
 104   2.0000      -6.004243      -163.3838
 105   2.0000      -6.003436      -163.3618
 106   2.0000      -6.001517      -163.3096
 107   2.0000      -6.001064      -163.2973
 108   2.0000      -5.999578      -163.2568
 109   2.0000      -5.998677      -163.2323
 110   2.0000      -5.997388      -163.1972
 111   2.0000      -5.993785      -163.0992
 112   2.0000      -5.990787      -163.0176
 113   2.0000      -2.736450       -74.4626
 114   2.0000      -2.732357       -74.3512
 115   2.0000      -2.732315       -74.3501
 116   2.0000      -2.720738       -74.0350
 117   2.0000      -2.720728       -74.0348
 118   2.0000      -1.345218       -36.6052
 119   2.0000      -1.240375       -33.7523
 120   2.0000      -1.177689       -32.0466
 121   2.0000      -1.168729       -31.8027
 122   2.0000      -1.159379       -31.5483
 123   2.0000      -1.110044       -30.2058
 124   2.0000      -1.009424       -27.4678
 125   2.0000      -1.002862       -27.2893
 126   2.0000      -0.999007       -27.1844
 127   2.0000      -0.995285       -27.0831
 128   2.0000      -0.994769       -27.0690
 129   2.0000      -0.989300       -26.9202
 130   2.0000      -0.978223       -26.6188
 131   2.0000      -0.974340       -26.5132
 132   2.0000      -0.973926       -26.5019
 133   2.0000      -0.950519       -25.8649
 134   2.0000      -0.935440       -25.4546
 135   2.0000      -0.928103       -25.2550
 136   2.0000      -0.926786       -25.2191
 137   2.0000      -0.912207       -24.8224
 138   2.0000      -0.905725       -24.6460
 139   2.0000      -0.900246       -24.4969
 140   2.0000      -0.895297       -24.3623
 141   2.0000      -0.886321       -24.1180
 142   2.0000      -0.882470       -24.0132
 143   2.0000      -0.873012       -23.7559
 144   2.0000      -0.867771       -23.6132
 145   2.0000      -0.867446       -23.6044
 146   2.0000      -0.861922       -23.4541
 147   2.0000      -0.852224       -23.1902
 148   2.0000      -0.843434       -22.9510
 149   2.0000      -0.829791       -22.5798
 150   2.0000      -0.821806       -22.3625
 151   2.0000      -0.817056       -22.2332
 152   2.0000      -0.815319       -22.1859
 153   2.0000      -0.803031       -21.8516
 154   2.0000      -0.791748       -21.5446
 155   2.0000      -0.778720       -21.1900
 156   2.0000      -0.772070       -21.0091
 157   2.0000      -0.766456       -20.8563
 158   2.0000      -0.763717       -20.7818
 159   2.0000      -0.746100       -20.3024
 160   2.0000      -0.743899       -20.2425
 161   2.0000      -0.742733       -20.2108
 162   2.0000      -0.719215       -19.5708
 163   2.0000      -0.716218       -19.4893
 164   2.0000      -0.709565       -19.3083
 165   2.0000      -0.692478       -18.8433
 166   2.0000      -0.680527       -18.5181
 167   2.0000      -0.676561       -18.4101
 168   2.0000      -0.673966       -18.3396
 169   2.0000      -0.667193       -18.1552
 170   2.0000      -0.661497       -18.0003
 171   2.0000      -0.658236       -17.9115
 172   2.0000      -0.655883       -17.8475
 173   2.0000      -0.654574       -17.8119
 174   2.0000      -0.645361       -17.5612
 175   2.0000      -0.643138       -17.5007
 176   2.0000      -0.638306       -17.3692
 177   2.0000      -0.637359       -17.3434
 178   2.0000      -0.623620       -16.9696
 179   2.0000      -0.621062       -16.9000
 180   2.0000      -0.617957       -16.8155
 181   2.0000      -0.613631       -16.6978
 182   2.0000      -0.612227       -16.6595
 183   2.0000      -0.607809       -16.5393
 184   2.0000      -0.605406       -16.4739
 185   2.0000      -0.598306       -16.2807
 186   2.0000      -0.584548       -15.9064
 187   2.0000      -0.584008       -15.8917
 188   2.0000      -0.581733       -15.8298
 189   2.0000      -0.576665       -15.6919
 190   2.0000      -0.576283       -15.6814
 191   2.0000      -0.572088       -15.5673
 192   2.0000      -0.560591       -15.2545
 193   2.0000      -0.556183       -15.1345
 194   2.0000      -0.555697       -15.1213
 195   2.0000      -0.544366       -14.8130
 196   2.0000      -0.540281       -14.7018
 197   2.0000      -0.535169       -14.5627
 198   2.0000      -0.532869       -14.5001
 199   2.0000      -0.532083       -14.4787
 200   2.0000      -0.526889       -14.3374
 201   2.0000      -0.525893       -14.3103
 202   2.0000      -0.524826       -14.2813
 203   2.0000      -0.523009       -14.2318
 204   2.0000      -0.520838       -14.1727
 205   2.0000      -0.515897       -14.0383
 206   2.0000      -0.514463       -13.9993
 207   2.0000      -0.511212       -13.9108
 208   2.0000      -0.508436       -13.8353
 209   2.0000      -0.498800       -13.5730
 210   2.0000      -0.498119       -13.5545
 211   2.0000      -0.497801       -13.5459
 212   2.0000      -0.494064       -13.4442
 213   2.0000      -0.491358       -13.3705
 214   2.0000      -0.486726       -13.2445
 215   2.0000      -0.484369       -13.1803
 216   2.0000      -0.483053       -13.1445
 217   2.0000      -0.480657       -13.0793
 218   2.0000      -0.480000       -13.0615
 219   2.0000      -0.477944       -13.0055
 220   2.0000      -0.477596       -12.9961
 221   2.0000      -0.472276       -12.8513
 222   2.0000      -0.470347       -12.7988
 223   2.0000      -0.466932       -12.7059
 224   2.0000      -0.463265       -12.6061
 225   2.0000      -0.461604       -12.5609
 226   2.0000      -0.458315       -12.4714
 227   2.0000      -0.454882       -12.3780
 228   2.0000      -0.453291       -12.3347
 229   2.0000      -0.447365       -12.1734
 230   2.0000      -0.442612       -12.0441
 231   2.0000      -0.441118       -12.0034
 232   2.0000      -0.440623       -11.9900
 233   2.0000      -0.437026       -11.8921
 234   2.0000      -0.433957       -11.8086
 235   2.0000      -0.433109       -11.7855
 236   2.0000      -0.431343       -11.7375
 237   2.0000      -0.429030       -11.6745
 238   2.0000      -0.426636       -11.6094
 239   2.0000      -0.423073       -11.5124
 240   2.0000      -0.421007       -11.4562
 241   2.0000      -0.418755       -11.3949
 242   2.0000      -0.415927       -11.3179
 243   2.0000      -0.413720       -11.2579
 244   2.0000      -0.411962       -11.2100
 245   2.0000      -0.408453       -11.1146
 246   2.0000      -0.408111       -11.1053
 247   2.0000      -0.402637       -10.9563
 248   2.0000      -0.401154       -10.9160
 249   2.0000      -0.399151       -10.8614
 250   2.0000      -0.395366       -10.7585
 251   2.0000      -0.393699       -10.7131
 252   2.0000      -0.391881       -10.6636
 253   2.0000      -0.389675       -10.6036
 254   2.0000      -0.383143       -10.4259
 255   2.0000      -0.381282       -10.3752
 256   2.0000      -0.374172       -10.1817
 257   2.0000      -0.366830        -9.9820
 258   2.0000      -0.364815        -9.9271
 259   2.0000      -0.353745        -9.6259
 260   2.0000      -0.348658        -9.4875
 261   2.0000      -0.340058        -9.2535
 262   2.0000      -0.335419        -9.1272
 263   2.0000      -0.329253        -8.9594
 264   2.0000      -0.325831        -8.8663
 265   2.0000      -0.322105        -8.7649
 266   2.0000      -0.321614        -8.7516
 267   2.0000      -0.311313        -8.4713
 268   2.0000      -0.310148        -8.4396
 269   2.0000      -0.302149        -8.2219
 270   2.0000      -0.296825        -8.0770
 271   2.0000      -0.282422        -7.6851
 272   2.0000      -0.277569        -7.5530
 273   2.0000      -0.273305        -7.4370
 274   2.0000      -0.267642        -7.2829
 275   2.0000      -0.238438        -6.4882
 276   2.0000      -0.200812        -5.4644
 277   0.0000      -0.096143        -2.6162
 278   0.0000      -0.082810        -2.2534
 279   0.0000      -0.073005        -1.9866
 280   0.0000      -0.049240        -1.3399
 281   0.0000      -0.030360        -0.8261

MULLIKEN ATOMIC CHARGES
-----------------------
   0 C :    0.299831
   1 C :   -0.351225
   2 C :   -0.188096
   3 N :    0.138942
   4 C :   -0.205929
   5 N :    0.154980
   6 C :    0.019888
   7 C :   -0.007520
   8 C :   -0.080480
   9 C :    0.123133
  10 C :   -0.090539
  11 C :   -0.029450
  12 S :    0.179227
  13 C :   -0.121944
  14 C :    0.032962
  15 Br:    0.014234
  16 C :    0.148163
  17 O :   -0.164013
  18 C :   -0.101369
  19 C :    0.022123
  20 C :   -0.144937
  21 S :    0.140712
  22 C :   -0.082034
  23 C :   -0.071960
  24 C :    0.279672
  25 O :   -0.382805
  26 S :    0.266777
  27 C :   -0.164162
  28 S :    0.051834
  29 C :   -0.024702
  30 C :    0.042948
  31 C :   -0.123096
  32 S :    0.137608
  33 C :   -0.135324
  34 C :   -0.026773
  35 C :    0.205789
  36 O :   -0.410643
  37 S :    0.247724
  38 C :   -0.133138
  39 S :    0.045381
  40 C :    0.038554
  41 C :   -0.027606
  42 C :   -0.002303
  43 C :   -0.026815
  44 C :    0.038097
  45 C :    0.021656
  46 C :   -0.034293
  47 S :    0.079570
  48 C :   -0.041476
  49 C :    0.038238
  50 C :    0.025233
  51 C :   -0.026751
  52 S :    0.084656
  53 C :    0.037181
  54 C :   -0.223477
  55 S :    0.151409
  56 C :   -0.139588
  57 C :    0.125275
  58 C :    0.190669
  59 O :   -0.191775
  60 C :    0.246026
  61 N :    0.291661
  62 O :   -0.253302
  63 O :   -0.219768
  64 C :   -0.074298
  65 H :   -0.018686
  66 H :   -0.009050
  67 H :   -0.007247
  68 H :    0.025675
  69 H :    0.125690
  70 H :    0.093239
  71 H :    0.021338
  72 H :   -0.010817
  73 H :    0.104246
  74 H :    0.085130
  75 H :   -0.019609
  76 H :    0.041098
  77 H :   -0.016042
  78 H :   -0.011352
  79 H :   -0.014302
  80 H :   -0.014247
  81 H :   -0.015498
  82 H :   -0.024336
  83 H :    0.032261
  84 H :    0.013947
Sum of atomic charges:   -0.0000000

LOEWDIN ATOMIC CHARGES
----------------------
   0 C :    0.075690
   1 C :   -0.150778
   2 C :   -0.018454
   3 N :   -0.064512
   4 C :   -0.024061
   5 N :   -0.060140
   6 C :   -0.019912
   7 C :   -0.045056
   8 C :    0.015737
   9 C :   -0.035010
  10 C :   -0.146483
  11 C :   -0.012343
  12 S :    0.427083
  13 C :   -0.274414
  14 C :   -0.071715
  15 Br:    0.129827
  16 C :    0.078459
  17 O :   -0.155483
  18 C :   -0.106401
  19 C :    0.048033
  20 C :   -0.207513
  21 S :    0.444558
  22 C :   -0.152311
  23 C :   -0.230190
  24 C :    0.018139
  25 O :   -0.204770
  26 S :    0.386380
  27 C :   -0.256698
  28 S :    0.298244
  29 C :   -0.056821
  30 C :   -0.021575
  31 C :   -0.200228
  32 S :    0.441812
  33 C :   -0.178905
  34 C :   -0.219993
  35 C :   -0.015642
  36 O :   -0.232954
  37 S :    0.383382
  38 C :   -0.261349
  39 S :    0.336503
  40 C :   -0.045225
  41 C :   -0.038136
  42 C :   -0.045926
  43 C :   -0.149003
  44 C :   -0.029893
  45 C :   -0.036712
  46 C :   -0.170756
  47 S :    0.392691
  48 C :   -0.190136
  49 C :   -0.027355
  50 C :   -0.042049
  51 C :   -0.138533
  52 S :    0.400475
  53 C :   -0.098519
  54 C :   -0.193340
  55 S :    0.476212
  56 C :   -0.194252
  57 C :   -0.081708
  58 C :    0.007115
  59 O :    0.000496
  60 C :    0.021048
  61 N :    0.282287
  62 O :   -0.215423
  63 O :   -0.183426
  64 C :    0.001015
  65 H :    0.037619
  66 H :    0.040094
  67 H :    0.037125
  68 H :    0.043876
  69 H :    0.035575
  70 H :    0.035423
  71 H :    0.029026
  72 H :    0.025049
  73 H :    0.027133
  74 H :    0.020912
  75 H :    0.028359
  76 H :    0.008854
  77 H :    0.032349
  78 H :    0.033726
  79 H :    0.031501
  80 H :    0.031824
  81 H :    0.031507
  82 H :    0.032704
  83 H :    0.028578
  84 H :    0.047685

  Mayer bond orders larger than 0.100000
B(  0-C ,  1-C ) :   1.6151 B(  0-C ,  6-C ) :   0.9971 B(  0-C , 18-C ) :   1.1040
B(  1-C ,  2-C ) :   1.1456 B(  1-C ,  4-C ) :   1.1449 B(  2-C ,  3-N ) :   2.9665
B(  4-C ,  5-N ) :   2.9922 B(  6-C ,  7-C ) :   1.2784 B(  6-C , 11-C ) :   1.4143
B(  7-C ,  8-C ) :   1.4295 B(  7-C , 16-C ) :   0.9359 B(  8-C ,  9-C ) :   1.2396
B(  8-C , 65-H ) :   1.0171 B(  9-C , 10-C ) :   1.3143 B(  9-C , 14-C ) :   1.1588
B( 10-C , 11-C ) :   1.3233 B( 10-C , 12-S ) :   1.0815 B( 11-C , 66-H ) :   0.9811
B( 12-S , 13-C ) :   1.0857 B( 13-C , 14-C ) :   1.6202 B( 13-C , 15-Br) :   1.0132
B( 14-C , 67-H ) :   1.0010 B( 16-C , 17-O ) :   2.1954 B( 16-C , 18-C ) :   0.9750
B( 18-C , 19-C ) :   1.5256 B( 19-C , 20-C ) :   1.2403 B( 19-C , 68-H ) :   0.9328
B( 20-C , 21-S ) :   1.0688 B( 20-C , 24-C ) :   1.4234 B( 21-S , 22-C ) :   1.1305
B( 22-C , 23-C ) :   1.4610 B( 22-C , 29-C ) :   1.1957 B( 23-C , 24-C ) :   1.2814
B( 23-C , 28-S ) :   0.9945 B( 24-C , 25-O ) :   1.1099 B( 25-O , 26-S ) :   0.8645
B( 26-S , 27-C ) :   0.9880 B( 27-C , 28-S ) :   0.9841 B( 27-C , 69-H ) :   0.9328
B( 27-C , 70-H ) :   0.9505 B( 29-C , 30-C ) :   1.6122 B( 29-C , 71-H ) :   0.9586
B( 30-C , 31-C ) :   1.1861 B( 30-C , 72-H ) :   0.9518 B( 31-C , 32-S ) :   1.1004
B( 31-C , 33-C ) :   0.1035 B( 31-C , 35-C ) :   1.4522 B( 32-S , 33-C ) :   1.1157
B( 33-C , 34-C ) :   1.4355 B( 33-C , 40-C ) :   1.2016 B( 34-C , 35-C ) :   1.2892
B( 34-C , 39-S ) :   0.9977 B( 35-C , 36-O ) :   1.0704 B( 36-O , 37-S ) :   0.8535
B( 37-S , 38-C ) :   0.9949 B( 38-C , 39-S ) :   0.9790 B( 38-C , 73-H ) :   0.9360
B( 38-C , 74-H ) :   0.9151 B( 40-C , 41-C ) :   1.5744 B( 40-C , 75-H ) :   0.9576
B( 41-C , 42-C ) :   1.2084 B( 41-C , 76-H ) :   0.9545 B( 42-C , 43-C ) :   1.5088
B( 42-C , 77-H ) :   0.9881 B( 43-C , 44-C ) :   1.1657 B( 43-C , 47-S ) :   1.0417
B( 44-C , 45-C ) :   1.5601 B( 44-C , 78-H ) :   0.9991 B( 45-C , 46-C ) :   1.2077
B( 45-C , 79-H ) :   0.9953 B( 46-C , 47-S ) :   1.0616 B( 46-C , 48-C ) :   1.4708
B( 48-C , 49-C ) :   1.2019 B( 48-C , 52-S ) :   1.0361 B( 49-C , 50-C ) :   1.5770
B( 49-C , 80-H ) :   0.9932 B( 50-C , 51-C ) :   1.1502 B( 50-C , 81-H ) :   1.0006
B( 51-C , 52-S ) :   1.0540 B( 51-C , 53-C ) :   1.5814 B( 53-C , 54-C ) :   1.1600
B( 53-C , 82-H ) :   0.9456 B( 54-C , 55-S ) :   1.1358 B( 54-C , 56-C ) :   0.1071
B( 54-C , 58-C ) :   1.4207 B( 55-S , 56-C ) :   1.1792 B( 56-C , 57-C ) :   1.4252
B( 56-C , 83-H ) :   0.9769 B( 57-C , 58-C ) :   1.2303 B( 57-C , 64-C ) :   1.0757
B( 58-C , 59-O ) :   1.0873 B( 59-O , 60-C ) :   1.1203 B( 60-C , 61-N ) :   0.9322
B( 60-C , 64-C ) :   1.5531 B( 61-N , 62-O ) :   1.4802 B( 61-N , 63-O ) :   1.5094
B( 62-O , 63-O ) :   0.2625 B( 62-O , 74-H ) :   0.1049 B( 64-C , 84-H ) :   1.0249

-----------------------------------------------------------------------------
         ABSORPTION SPECTRUM VIA TRANSITION ELECTRIC DIPOLE MOMENTS
-----------------------------------------------------------------------------
State   Energy  Wavelength   fosc         T2         TX        TY        TZ
        (cm-1)    (nm)                  (au**2)     (au)      (au)      (au)
-----------------------------------------------------------------------------
   0    9322.9   1072.6   0.422468561  14.91823  -2.20511  -0.07422   3.17021
   1   11341.6    881.7   1.381773470  40.10858  -3.97950   1.82312   4.57694
   2   16419.8    609.0   0.339752862   6.81193   0.70816  -2.37747  -0.81121
   3   18182.6    550.0   0.390013200   7.06152   1.17625  -2.05432  -1.20736
   4   20513.1    487.5   0.041008616   0.65814  -0.20296  -0.03777   0.78455
   5   22256.1    449.3   0.186838532   2.76371  -0.67219   1.38977   0.61677
   6   22860.1    437.4   0.393209926   5.66269   0.30211  -1.98814   1.27230
   7   23373.7    427.8   0.006495020   0.09148  -0.20345  -0.22380  -0.00138
   8   23922.0    418.0   0.002344858   0.03227   0.04548  -0.17348  -0.01032
   9   24485.9    408.4   0.350163549   4.70793   0.75990  -1.78673   0.96855
  10   25068.8    398.9   0.030487731   0.40037  -0.20641  -0.35729   0.47970
  11   26339.4    379.7   0.173163540   2.16435   0.69978  -1.29195  -0.07439
  12   27442.6    364.4   0.041844000   0.50198  -0.18865  -0.03377  -0.68209
  13   27932.8    358.0   0.001194472   0.01408  -0.09369  -0.07278   0.00162
  14   28125.4    355.6   0.156238138   1.82879  -0.77392  -1.07592  -0.26877
  15   28242.5    354.1   0.039069348   0.45542  -0.63085   0.23358  -0.05368
  16   29003.7    344.8   0.078849411   0.89499  -0.16718  -0.73141  -0.57626
  17   29692.0    336.8   0.058579314   0.64950   0.08923  -0.78027  -0.18090
  18   30053.4    332.7   0.024591429   0.26938   0.32242   0.37949   0.14632
  19   30252.1    330.6   0.049375109   0.53731  -0.25749   0.13735   0.67242
  20   30583.4    327.0   0.000614211   0.00661   0.00137  -0.02633   0.07692
  21   31264.7    319.8   0.031869032   0.33558   0.21335  -0.26200  -0.47054
  22   31627.7    316.2   0.017546679   0.18264  -0.02575   0.40684  -0.12830
  23   31909.3    313.4   0.023979738   0.24740  -0.02670  -0.38686   0.31149
  24   32040.4    312.1   0.122717277   1.26091   0.81196  -0.43869  -0.63967
  25   32263.1    310.0   0.009763404   0.09963   0.13832   0.16314  -0.23212
  26   32372.2    308.9   0.023438298   0.23836   0.17007  -0.45704  -0.02334
  27   32667.1    306.1   0.040209746   0.40523  -0.22892   0.59368  -0.01911
  28   32722.9    305.6   0.005426117   0.05459   0.22425  -0.01983   0.06252
  29   33181.1    301.4   0.012511060   0.12413   0.17639  -0.07020  -0.29680
  30   33252.1    300.7   0.078283327   0.77504  -0.54895  -0.66758   0.16744
  31   33386.5    299.5   0.325858049   3.21316   0.68844   1.57393   0.51182
  32   33642.4    297.2   0.164697968   1.61167  -0.16051  -1.01694  -0.74279
  33   33929.6    294.7   0.081544727   0.79121   0.69554   0.29454  -0.46977
  34   34217.6    292.2   0.028179541   0.27112   0.29860  -0.01171  -0.42640
  35   34674.3    288.4   0.007194924   0.06831  -0.00647   0.25262   0.06673
  36   35100.8    284.9   0.172639915   1.61920  -0.71063   0.23245   1.02965
  37   35170.7    284.3   0.183042252   1.71335   0.95299  -0.05315  -0.89573
  38   35615.2    280.8   0.173572404   1.60443  -0.75956  -0.56523   0.84143
  39   35840.6    279.0   0.008696512   0.07988  -0.09099   0.12465   0.23678
  40   36037.1    277.5   0.030832543   0.28167   0.31338   0.14318  -0.40368
  41   36075.6    277.2   0.028636428   0.26132   0.29143   0.02367  -0.41932
  42   36190.6    276.3   0.038425341   0.34954   0.46476   0.35397  -0.09081
  43   36866.3    271.3   0.079572521   0.71057   0.65704   0.33901  -0.40490
  44   37118.8    269.4   0.039372673   0.34920  -0.12962  -0.26386   0.51262
  45   37446.3    267.0   0.044555865   0.39172   0.02415   0.60458   0.16006
  46   37660.7    265.5   0.089688459   0.78401  -0.40543  -0.45708   0.64087
  47   37810.0    264.5   0.025248703   0.21984  -0.02217   0.34569   0.31599
  48   37981.3    263.3   0.050456912   0.43735  -0.45433  -0.19784   0.43794
  49   38153.7    262.1   0.013078722   0.11285  -0.25682  -0.08319   0.19994
  50   38581.2    259.2   0.022290601   0.19020  -0.08212  -0.36540   0.22348
  51   38696.8    258.4   0.069790184   0.59374   0.57709  -0.04361  -0.50872
  52   38725.7    258.2   0.026744608   0.22736  -0.30075   0.06163   0.36484
  53   38928.9    256.9   0.006180669   0.05227  -0.13733  -0.15958   0.08912
  54   39046.0    256.1   0.010714225   0.09034  -0.25139  -0.16031   0.03793
  55   39145.4    255.5   0.030348840   0.25523  -0.14295  -0.11813   0.46994
  56   39226.7    254.9   0.021668325   0.18185   0.05349   0.00090  -0.42307
  57   39421.7    253.7   0.023362340   0.19510   0.30632   0.05947  -0.31262
  58   39605.1    252.5   0.071341464   0.59302   0.31638  -0.70044  -0.04793
  59   39768.3    251.5   0.008455999   0.07000  -0.15928   0.19554   0.07998
  60   40089.9    249.4   0.046518718   0.38200  -0.07109   0.58881  -0.17395
  61   40274.0    248.3   0.007558899   0.06179   0.05444  -0.12813   0.20593

FINAL SINGLE POINT ENERGY     -8893.887761029453

DIPOLE MOMENT
-------------
                                X             Y             Z
Electronic contribution:     65.27068    -113.86405    -128.22503
Nuclear contribution   :    -70.28588     113.60733     133.12053
                        -----------------------------------------
Total Dipole Moment    :     -5.01520      -0.25672       4.89550
                        -----------------------------------------
Magnitude (a.u.)       :      7.01314
Magnitude (Debye)      :     17.82597

Rotational constants in cm-1:     0.001713     0.000195     0.000185
Rotational constants in MHz :    51.354588     5.832307     5.542802

                             ****ORCA TERMINATED NORMALLY****
TOTAL RUN TIME: 0 days 0 hours 8 minutes 33 seconds 203 msec
