                         Program Version 4.2.0 -  RELEASE  -
|  1> # ORCA input file
|  2> # SCF done       -198.414798113620          0.000747283097
|  3> ! CAM-B3LYP def2-SVP def2/J RIJCOSX Grid4 TightSCF
|  4> %maxcore 5000
|  5> %tddft
|  6>     Mode sTDDFT
|  7>     Ethresh 5.0
|  8>     maxcore 5000
|  9> end
| 10>
| 11> %pal
| 12>   nprocs 6
| 13>   end
| 14> * xyz 0 1
| 15>    C       -4.40291         6.90570        -5.17932
| 16>    C       -3.58414         6.10341        -5.92944
| 17>    C       -2.91535         6.52688        -7.09629
| 18>    N       -2.34318         6.81846        -8.04782
| 19>    C       -3.33939         4.74093        -5.65695
| 20>    N       -3.11922         3.62476        -5.50219
| 21>    C       -4.78100         8.27700        -5.48979
| 22>    C       -5.78080         8.69405        -4.57638
| 23>    C       -6.34697         9.94474        -4.62080
| 24>    C       -5.90676        10.82615        -5.61363
| 25>    C       -4.90343        10.40260        -6.51818
| 26>    C       -4.33033         9.13838        -6.47373
| 27>    S       -4.50095        11.65202        -7.65702
| 28>    C       -5.67159        12.71030        -6.91511
| 29>    C       -6.33013        12.15924        -5.86788
| 30>   Br       -5.91205        14.44300        -7.59145
| 31>    C       -6.06149         7.60729        -3.61505
| 32>    O       -6.82759         7.64988        -2.67828
| 33>    C       -5.13374         6.50561        -3.99020
| 34>    C       -4.89788         5.41508        -3.21614
| 35>    C       -5.67331         5.03856        -2.06421
| 36>    C       -5.00275         4.79845        -0.89238
| 37>    S       -6.01097         4.62293         0.47304
| 38>    C       -7.41626         4.76885        -0.54260
| 39>    C       -7.10618         4.95489        -1.89655
| 40>    C       -8.15652         4.95575        -2.84788
| 41>    C       -7.82056         4.88143        -4.31488
| 42>    C       -7.11277         3.56722        -4.65121
| 43>    C       -9.47793         4.92477        -2.41620
| 44>    C      -10.62178         5.05427        -3.38860
| 45>    C      -11.04630         3.70143        -3.96577
| 46>    C       -9.78406         4.77986        -1.04141
| 47>    C      -11.05471         4.69996        -0.35827
| 48>    C      -10.89828         4.57578         0.98780
| 49>    S       -9.26302         4.52795         1.52391
| 50>    C       -8.73027         4.69312        -0.11686
| 51>    C      -12.39308         4.70089        -0.93320
| 52>    C      -13.40300         5.40345        -0.41210
| 53>    N      -14.65872         5.46611        -0.96104
| 54>    C      -15.83102         5.80089        -0.17408
| 55>    C      -16.09054         4.79512         0.94787
| 56>    C      -17.43286         5.05010         1.63219
| 57>    N      -17.65258         3.98822         2.59833
| 58>    S      -18.56961         2.78446         1.77828
| 59>    N      -19.50364         3.93373         0.90883
| 60>    C      -18.61568         5.03818         0.58919
| 61>    C      -18.09502         4.83779        -0.83255
| 62>    C      -17.01435         5.86148        -1.17585
| 63>    N      -16.44268         5.59880        -2.48097
| 64>    S      -15.13961         4.51849        -2.30060
| 65>    C      -16.96898         5.92917        -3.67873
| 66>    C      -18.09427         6.63863        -3.97161
| 67>    C      -18.51918         6.94913        -5.29359
| 68>    C      -19.66022         7.68118        -5.36698
| 69>    C      -20.22007         8.01359        -4.10991
| 70>    S      -19.24012         7.34796        -2.82214
| 71>    C      -21.34668         8.75652        -3.83961
| 72>    C      -22.22792         9.37832        -4.75279
| 73>    C      -23.24235        10.06361        -4.16185
| 74>    C      -23.22636        10.02922        -2.74212
| 75>    S      -21.86704         9.06969        -2.18791
| 76>    C      -24.11705        10.65358        -1.91263
| 77>    C      -24.11767        10.65062        -0.50628
| 78>    S      -22.96939         9.79249         0.50781
| 79>    C      -23.67772        10.32701         1.98445
| 80>    C      -24.75869        11.13702         1.73319
| 81>    C      -24.99637        11.30978         0.33552
| 82>    O      -26.06085        12.11431         0.12109
| 83>    C      -26.50224        12.45543         1.36152
| 84>    N      -27.62369        13.30944         1.44894
| 85>    O      -27.99827        13.59933         2.57154
| 86>    O      -28.13226        13.69476         0.41731
| 87>    C      -25.76739        11.90372         2.37763
| 88>    H       -7.10644        10.23339        -3.91120
| 89>    H       -3.56468         8.86263        -7.17962
| 90>    H       -7.08251        12.67075        -5.29584
| 91>    H       -3.99686         4.83773        -3.38538
| 92>    H       -3.93738         4.81138        -0.75971
| 93>    H       -7.18778         5.71865        -4.61002
| 94>    H       -8.72209         4.94208        -4.91812
| 95>    H       -6.13916         3.50303        -4.17188
| 96>    H       -6.96442         3.48704        -5.72603
| 97>    H       -7.71052         2.72120        -4.31913
| 98>    H      -10.35198         5.73191        -4.19977
| 99>    H      -11.46381         5.51101        -2.86900
|100>    H      -10.26940         3.29011        -4.60488
|101>    H      -11.95506         3.80962        -4.55447
|102>    H      -11.23100         2.98507        -3.16845
|103>    H      -11.67969         4.47396         1.71537
|104>    H      -12.59121         4.06292        -1.78210
|105>    H      -13.27019         6.04306         0.44937
|106>    H      -15.65907         6.79304         0.26153
|107>    H      -15.29764         4.86328         1.69402
|108>    H      -16.07974         3.77731         0.55500
|109>    H      -17.39825         6.01256         2.15218
|110>    H      -18.13905         4.30789         3.43041
|111>    H      -20.31885         4.22271         1.43960
|112>    H      -19.17253         5.97909         0.63595
|113>    H      -18.92974         4.93933        -1.52566
|114>    H      -17.70297         3.82460        -0.93197
|115>    H      -17.44803         6.86515        -1.18574
|116>    H      -16.37484         5.57977        -4.51325
|117>    H      -17.95922         6.61037        -6.14727
|118>    H      -20.12011         7.99368        -6.28680
|119>    H      -22.08591         9.30423        -5.81614
|120>    H      -24.00692        10.60177        -4.69339
|121>    H      -24.91292        11.22638        -2.36970
|122>    H      -23.26173        10.01866         2.92011
|123>    H      -25.94075        12.04127         3.42457
|124> *
|125>
|126>                          ****END OF INPUT****

CARTESIAN COORDINATES (ANGSTROEM)
---------------------------------
  C     -4.402910    6.905700   -5.179320
  C     -3.584140    6.103410   -5.929440
  C     -2.915350    6.526880   -7.096290
  N     -2.343180    6.818460   -8.047820
  C     -3.339390    4.740930   -5.656950
  N     -3.119220    3.624760   -5.502190
  C     -4.781000    8.277000   -5.489790
  C     -5.780800    8.694050   -4.576380
  C     -6.346970    9.944740   -4.620800
  C     -5.906760   10.826150   -5.613630
  C     -4.903430   10.402600   -6.518180
  C     -4.330330    9.138380   -6.473730
  S     -4.500950   11.652020   -7.657020
  C     -5.671590   12.710300   -6.915110
  C     -6.330130   12.159240   -5.867880
  Br    -5.912050   14.443000   -7.591450
  C     -6.061490    7.607290   -3.615050
  O     -6.827590    7.649880   -2.678280
  C     -5.133740    6.505610   -3.990200
  C     -4.897880    5.415080   -3.216140
  C     -5.673310    5.038560   -2.064210
  C     -5.002750    4.798450   -0.892380
  S     -6.010970    4.622930    0.473040
  C     -7.416260    4.768850   -0.542600
  C     -7.106180    4.954890   -1.896550
  C     -8.156520    4.955750   -2.847880
  C     -7.820560    4.881430   -4.314880
  C     -7.112770    3.567220   -4.651210
  C     -9.477930    4.924770   -2.416200
  C    -10.621780    5.054270   -3.388600
  C    -11.046300    3.701430   -3.965770
  C     -9.784060    4.779860   -1.041410
  C    -11.054710    4.699960   -0.358270
  C    -10.898280    4.575780    0.987800
  S     -9.263020    4.527950    1.523910
  C     -8.730270    4.693120   -0.116860
  C    -12.393080    4.700890   -0.933200
  C    -13.403000    5.403450   -0.412100
  N    -14.658720    5.466110   -0.961040
  C    -15.831020    5.800890   -0.174080
  C    -16.090540    4.795120    0.947870
  C    -17.432860    5.050100    1.632190
  N    -17.652580    3.988220    2.598330
  S    -18.569610    2.784460    1.778280
  N    -19.503640    3.933730    0.908830
  C    -18.615680    5.038180    0.589190
  C    -18.095020    4.837790   -0.832550
  C    -17.014350    5.861480   -1.175850
  N    -16.442680    5.598800   -2.480970
  S    -15.139610    4.518490   -2.300600
  C    -16.968980    5.929170   -3.678730
  C    -18.094270    6.638630   -3.971610
  C    -18.519180    6.949130   -5.293590
  C    -19.660220    7.681180   -5.366980
  C    -20.220070    8.013590   -4.109910
  S    -19.240120    7.347960   -2.822140
  C    -21.346680    8.756520   -3.839610
  C    -22.227920    9.378320   -4.752790
  C    -23.242350   10.063610   -4.161850
  C    -23.226360   10.029220   -2.742120
  S    -21.867040    9.069690   -2.187910
  C    -24.117050   10.653580   -1.912630
  C    -24.117670   10.650620   -0.506280
  S    -22.969390    9.792490    0.507810
  C    -23.677720   10.327010    1.984450
  C    -24.758690   11.137020    1.733190
  C    -24.996370   11.309780    0.335520
  O    -26.060850   12.114310    0.121090
  C    -26.502240   12.455430    1.361520
  N    -27.623690   13.309440    1.448940
  O    -27.998270   13.599330    2.571540
  O    -28.132260   13.694760    0.417310
  C    -25.767390   11.903720    2.377630
  H     -7.106440   10.233390   -3.911200
  H     -3.564680    8.862630   -7.179620
  H     -7.082510   12.670750   -5.295840
  H     -3.996860    4.837730   -3.385380
  H     -3.937380    4.811380   -0.759710
  H     -7.187780    5.718650   -4.610020
  H     -8.722090    4.942080   -4.918120
  H     -6.139160    3.503030   -4.171880
  H     -6.964420    3.487040   -5.726030
  H     -7.710520    2.721200   -4.319130
  H    -10.351980    5.731910   -4.199770
  H    -11.463810    5.511010   -2.869000
  H    -10.269400    3.290110   -4.604880
  H    -11.955060    3.809620   -4.554470
  H    -11.231000    2.985070   -3.168450
  H    -11.679690    4.473960    1.715370
  H    -12.591210    4.062920   -1.782100
  H    -13.270190    6.043060    0.449370
  H    -15.659070    6.793040    0.261530
  H    -15.297640    4.863280    1.694020
  H    -16.079740    3.777310    0.555000
  H    -17.398250    6.012560    2.152180
  H    -18.139050    4.307890    3.430410
  H    -20.318850    4.222710    1.439600
  H    -19.172530    5.979090    0.635950
  H    -18.929740    4.939330   -1.525660
  H    -17.702970    3.824600   -0.931970
  H    -17.448030    6.865150   -1.185740
  H    -16.374840    5.579770   -4.513250
  H    -17.959220    6.610370   -6.147270
  H    -20.120110    7.993680   -6.286800
  H    -22.085910    9.304230   -5.816140
  H    -24.006920   10.601770   -4.693390
  H    -24.912920   11.226380   -2.369700
  H    -23.261730   10.018660    2.920110
  H    -25.940750   12.041270    3.424570

 Total Charge           Charge          ....    0
 Multiplicity           Mult            ....    1
 Number of Electrons    NEL             ....  598
 Basis Dimension        Dim             .... 1252

ORBITAL ENERGIES
----------------

  NO   OCC          E(Eh)            E(eV)
   0   2.0000    -482.888232    -13140.0568
   1   2.0000     -89.000451     -2421.8254
   2   2.0000     -88.978171     -2421.2191
   3   2.0000     -88.966024     -2420.8886
   4   2.0000     -88.961326     -2420.7608
   5   2.0000     -88.960840     -2420.7475
   6   2.0000     -88.948466     -2420.4108
   7   2.0000     -88.946412     -2420.3549
   8   2.0000     -88.938745     -2420.1463
   9   2.0000     -62.565949     -1702.5060
  10   2.0000     -56.399904     -1534.7194
  11   2.0000     -56.397179     -1534.6453
  12   2.0000     -56.397150     -1534.6445
  13   2.0000     -19.299306      -525.1608
  14   2.0000     -19.236738      -523.4582
  15   2.0000     -19.234400      -523.3946
  16   2.0000     -19.216861      -522.9174
  17   2.0000     -14.648049      -398.5937
  18   2.0000     -14.475583      -393.9006
  19   2.0000     -14.453905      -393.3107
  20   2.0000     -14.423606      -392.4863
  21   2.0000     -14.421776      -392.4365
  22   2.0000     -14.418183      -392.3387
  23   2.0000     -14.417757      -392.3271
  24   2.0000     -10.378504      -282.4135
  25   2.0000     -10.367998      -282.1276
  26   2.0000     -10.361925      -281.9623
  27   2.0000     -10.345255      -281.5087
  28   2.0000     -10.343654      -281.4651
  29   2.0000     -10.341051      -281.3943
  30   2.0000     -10.333308      -281.1836
  31   2.0000     -10.332087      -281.1504
  32   2.0000     -10.330253      -281.1005
  33   2.0000     -10.328528      -281.0535
  34   2.0000     -10.320787      -280.8429
  35   2.0000     -10.320422      -280.8330
  36   2.0000     -10.320236      -280.8279
  37   2.0000     -10.316356      -280.7223
  38   2.0000     -10.316032      -280.7135
  39   2.0000     -10.314076      -280.6603
  40   2.0000     -10.311176      -280.5814
  41   2.0000     -10.311118      -280.5798
  42   2.0000     -10.310964      -280.5756
  43   2.0000     -10.310728      -280.5692
  44   2.0000     -10.308846      -280.5180
  45   2.0000     -10.308094      -280.4975
  46   2.0000     -10.303917      -280.3838
  47   2.0000     -10.303476      -280.3718
  48   2.0000     -10.301610      -280.3211
  49   2.0000     -10.301596      -280.3207
  50   2.0000     -10.299452      -280.2623
  51   2.0000     -10.299390      -280.2606
  52   2.0000     -10.299055      -280.2515
  53   2.0000     -10.298518      -280.2369
  54   2.0000     -10.295732      -280.1611
  55   2.0000     -10.295523      -280.1554
  56   2.0000     -10.295183      -280.1462
  57   2.0000     -10.293583      -280.1026
  58   2.0000     -10.290328      -280.0141
  59   2.0000     -10.288327      -279.9596
  60   2.0000     -10.286394      -279.9070
  61   2.0000     -10.280119      -279.7363
  62   2.0000     -10.279941      -279.7314
  63   2.0000     -10.279315      -279.7144
  64   2.0000     -10.279134      -279.7095
  65   2.0000     -10.274635      -279.5870
  66   2.0000     -10.274626      -279.5868
  67   2.0000     -10.273719      -279.5621
  68   2.0000     -10.272691      -279.5341
  69   2.0000     -10.272459      -279.5278
  70   2.0000     -10.271965      -279.5144
  71   2.0000     -10.270842      -279.4838
  72   2.0000     -10.263845      -279.2934
  73   2.0000     -10.261123      -279.2194
  74   2.0000     -10.260542      -279.2035
  75   2.0000     -10.257635      -279.1244
  76   2.0000     -10.251873      -278.9676
  77   2.0000      -8.795378      -239.3344
  78   2.0000      -8.090578      -220.1558
  79   2.0000      -8.074224      -219.7108
  80   2.0000      -8.060419      -219.3351
  81   2.0000      -8.057469      -219.2549
  82   2.0000      -8.052593      -219.1222
  83   2.0000      -8.043877      -218.8850
  84   2.0000      -8.042766      -218.8548
  85   2.0000      -8.034789      -218.6377
  86   2.0000      -6.631696      -180.4576
  87   2.0000      -6.617117      -180.0609
  88   2.0000      -6.616893      -180.0548
  89   2.0000      -6.062835      -164.9781
  90   2.0000      -6.058559      -164.8618
  91   2.0000      -6.047362      -164.5571
  92   2.0000      -6.043914      -164.4633
  93   2.0000      -6.039641      -164.3470
  94   2.0000      -6.035422      -164.2322
  95   2.0000      -6.029800      -164.0792
  96   2.0000      -6.026847      -163.9988
  97   2.0000      -6.025724      -163.9683
  98   2.0000      -6.025364      -163.9585
  99   2.0000      -6.022853      -163.8902
 100   2.0000      -6.022640      -163.8844
 101   2.0000      -6.019347      -163.7948
 102   2.0000      -6.019346      -163.7947
 103   2.0000      -6.013804      -163.6439
 104   2.0000      -6.012275      -163.6023
 105   2.0000      -6.009712      -163.5326
 106   2.0000      -6.009652      -163.5309
 107   2.0000      -6.008117      -163.4892
 108   2.0000      -6.004642      -163.3946
 109   2.0000      -6.004615      -163.3939
 110   2.0000      -6.004332      -163.3862
 111   2.0000      -6.000530      -163.2827
 112   2.0000      -5.995634      -163.1495
 113   2.0000      -2.747559       -74.7649
 114   2.0000      -2.743466       -74.6535
 115   2.0000      -2.743324       -74.6497
 116   2.0000      -2.731726       -74.3340
 117   2.0000      -2.731712       -74.3337
 118   2.0000      -1.318960       -35.8907
 119   2.0000      -1.218801       -33.1653
 120   2.0000      -1.134990       -30.8846
 121   2.0000      -1.132033       -30.8042
 122   2.0000      -1.113649       -30.3039
 123   2.0000      -1.063213       -28.9315
 124   2.0000      -1.036980       -28.2176
 125   2.0000      -1.025585       -27.9076
 126   2.0000      -1.015923       -27.6447
 127   2.0000      -1.003831       -27.3156
 128   2.0000      -0.996538       -27.1172
 129   2.0000      -0.991858       -26.9898
 130   2.0000      -0.990704       -26.9584
 131   2.0000      -0.984255       -26.7829
 132   2.0000      -0.973247       -26.4834
 133   2.0000      -0.964642       -26.2492
 134   2.0000      -0.962316       -26.1860
 135   2.0000      -0.945353       -25.7244
 136   2.0000      -0.933016       -25.3887
 137   2.0000      -0.926798       -25.2195
 138   2.0000      -0.923771       -25.1371
 139   2.0000      -0.911107       -24.7925
 140   2.0000      -0.908162       -24.7123
 141   2.0000      -0.896889       -24.4056
 142   2.0000      -0.889197       -24.1963
 143   2.0000      -0.888688       -24.1824
 144   2.0000      -0.879525       -23.9331
 145   2.0000      -0.872407       -23.7394
 146   2.0000      -0.865564       -23.5532
 147   2.0000      -0.858294       -23.3554
 148   2.0000      -0.852252       -23.1910
 149   2.0000      -0.851799       -23.1786
 150   2.0000      -0.843750       -22.9596
 151   2.0000      -0.836416       -22.7600
 152   2.0000      -0.832326       -22.6488
 153   2.0000      -0.829827       -22.5807
 154   2.0000      -0.821870       -22.3642
 155   2.0000      -0.819616       -22.3029
 156   2.0000      -0.809950       -22.0399
 157   2.0000      -0.799984       -21.7687
 158   2.0000      -0.788674       -21.4609
 159   2.0000      -0.778034       -21.1714
 160   2.0000      -0.772799       -21.0289
 161   2.0000      -0.766701       -20.8630
 162   2.0000      -0.764898       -20.8139
 163   2.0000      -0.756350       -20.5813
 164   2.0000      -0.748321       -20.3629
 165   2.0000      -0.724006       -19.7012
 166   2.0000      -0.718015       -19.5382
 167   2.0000      -0.708991       -19.2926
 168   2.0000      -0.708087       -19.2680
 169   2.0000      -0.705654       -19.2018
 170   2.0000      -0.699576       -19.0364
 171   2.0000      -0.697354       -18.9760
 172   2.0000      -0.693605       -18.8740
 173   2.0000      -0.691219       -18.8090
 174   2.0000      -0.681958       -18.5570
 175   2.0000      -0.676084       -18.3972
 176   2.0000      -0.668199       -18.1826
 177   2.0000      -0.664236       -18.0748
 178   2.0000      -0.660038       -17.9606
 179   2.0000      -0.651817       -17.7368
 180   2.0000      -0.648759       -17.6536
 181   2.0000      -0.646546       -17.5934
 182   2.0000      -0.635969       -17.3056
 183   2.0000      -0.632987       -17.2244
 184   2.0000      -0.632819       -17.2199
 185   2.0000      -0.625832       -17.0297
 186   2.0000      -0.624713       -16.9993
 187   2.0000      -0.619813       -16.8660
 188   2.0000      -0.616544       -16.7770
 189   2.0000      -0.615986       -16.7618
 190   2.0000      -0.612915       -16.6783
 191   2.0000      -0.606154       -16.4943
 192   2.0000      -0.603824       -16.4309
 193   2.0000      -0.601226       -16.3602
 194   2.0000      -0.594032       -16.1644
 195   2.0000      -0.591563       -16.0972
 196   2.0000      -0.586666       -15.9640
 197   2.0000      -0.579988       -15.7823
 198   2.0000      -0.577820       -15.7233
 199   2.0000      -0.574563       -15.6346
 200   2.0000      -0.572219       -15.5709
 201   2.0000      -0.568939       -15.4816
 202   2.0000      -0.562991       -15.3198
 203   2.0000      -0.556185       -15.1346
 204   2.0000      -0.552624       -15.0377
 205   2.0000      -0.550537       -14.9809
 206   2.0000      -0.548220       -14.9178
 207   2.0000      -0.545025       -14.8309
 208   2.0000      -0.542653       -14.7664
 209   2.0000      -0.540220       -14.7001
 210   2.0000      -0.537930       -14.6378
 211   2.0000      -0.530227       -14.4282
 212   2.0000      -0.528440       -14.3796
 213   2.0000      -0.525331       -14.2950
 214   2.0000      -0.524834       -14.2815
 215   2.0000      -0.519491       -14.1361
 216   2.0000      -0.513168       -13.9640
 217   2.0000      -0.511464       -13.9176
 218   2.0000      -0.510250       -13.8846
 219   2.0000      -0.507821       -13.8185
 220   2.0000      -0.505079       -13.7439
 221   2.0000      -0.501976       -13.6595
 222   2.0000      -0.500548       -13.6206
 223   2.0000      -0.499330       -13.5875
 224   2.0000      -0.495777       -13.4908
 225   2.0000      -0.493635       -13.4325
 226   2.0000      -0.492772       -13.4090
 227   2.0000      -0.490689       -13.3523
 228   2.0000      -0.490087       -13.3360
 229   2.0000      -0.487376       -13.2622
 230   2.0000      -0.486782       -13.2460
 231   2.0000      -0.485100       -13.2002
 232   2.0000      -0.483354       -13.1527
 233   2.0000      -0.481853       -13.1119
 234   2.0000      -0.478804       -13.0289
 235   2.0000      -0.476814       -12.9748
 236   2.0000      -0.474086       -12.9005
 237   2.0000      -0.472104       -12.8466
 238   2.0000      -0.465856       -12.6766
 239   2.0000      -0.462247       -12.5784
 240   2.0000      -0.461977       -12.5710
 241   2.0000      -0.460797       -12.5389
 242   2.0000      -0.456820       -12.4307
 243   2.0000      -0.453463       -12.3394
 244   2.0000      -0.451766       -12.2932
 245   2.0000      -0.450875       -12.2689
 246   2.0000      -0.448824       -12.2131
 247   2.0000      -0.447977       -12.1901
 248   2.0000      -0.445793       -12.1306
 249   2.0000      -0.444025       -12.0825
 250   2.0000      -0.441745       -12.0205
 251   2.0000      -0.440868       -11.9966
 252   2.0000      -0.438768       -11.9395
 253   2.0000      -0.436342       -11.8735
 254   2.0000      -0.433986       -11.8094
 255   2.0000      -0.430625       -11.7179
 256   2.0000      -0.429787       -11.6951
 257   2.0000      -0.427802       -11.6411
 258   2.0000      -0.425558       -11.5800
 259   2.0000      -0.422954       -11.5092
 260   2.0000      -0.420921       -11.4538
 261   2.0000      -0.417650       -11.3648
 262   2.0000      -0.417418       -11.3585
 263   2.0000      -0.416682       -11.3385
 264   2.0000      -0.412847       -11.2341
 265   2.0000      -0.411065       -11.1857
 266   2.0000      -0.407684       -11.0937
 267   2.0000      -0.406637       -11.0652
 268   2.0000      -0.404748       -11.0138
 269   2.0000      -0.395853       -10.7717
 270   2.0000      -0.390415       -10.6237
 271   2.0000      -0.388181       -10.5629
 272   2.0000      -0.387026       -10.5315
 273   2.0000      -0.382232       -10.4011
 274   2.0000      -0.378339       -10.2951
 275   2.0000      -0.377348       -10.2682
 276   2.0000      -0.375789       -10.2257
 277   2.0000      -0.373879       -10.1738
 278   2.0000      -0.371404       -10.1064
 279   2.0000      -0.367899       -10.0110
 280   2.0000      -0.364052        -9.9064
 281   2.0000      -0.356836        -9.7100
 282   2.0000      -0.346388        -9.4257
 283   2.0000      -0.340646        -9.2695
 284   2.0000      -0.335819        -9.1381
 285   2.0000      -0.333563        -9.0767
 286   2.0000      -0.326881        -8.8949
 287   2.0000      -0.324542        -8.8312
 288   2.0000      -0.318384        -8.6637
 289   2.0000      -0.317021        -8.6266
 290   2.0000      -0.306074        -8.3287
 291   2.0000      -0.302387        -8.2284
 292   2.0000      -0.295758        -8.0480
 293   2.0000      -0.293549        -7.9879
 294   2.0000      -0.284079        -7.7302
 295   2.0000      -0.269606        -7.3363
 296   2.0000      -0.266812        -7.2603
 297   2.0000      -0.247457        -6.7336
 298   2.0000      -0.202185        -5.5017
 299   0.0000      -0.087817        -2.3896
 300   0.0000      -0.065102        -1.7715
 301   0.0000      -0.057875        -1.5749
 302   0.0000      -0.046611        -1.2684
 303   0.0000      -0.011862        -0.3228

MULLIKEN ATOMIC CHARGES
-----------------------
   0 C :    0.308673
   1 C :   -0.342730
   2 C :   -0.183882
   3 N :    0.151631
   4 C :   -0.198353
   5 N :    0.162218
   6 C :    0.016848
   7 C :   -0.015099
   8 C :   -0.073345
   9 C :    0.119567
  10 C :   -0.085435
  11 C :   -0.026730
  12 S :    0.187147
  13 C :   -0.122828
  14 C :    0.036161
  15 Br:    0.025582
  16 C :    0.137955
  17 O :   -0.126646
  18 C :   -0.098654
  19 C :   -0.082605
  20 C :    0.038185
  21 C :   -0.083504
  22 S :    0.151641
  23 C :   -0.161927
  24 C :    0.176027
  25 C :   -0.102587
  26 C :    0.060922
  27 C :    0.016347
  28 C :   -0.128203
  29 C :    0.006706
  30 C :    0.035899
  31 C :    0.112457
  32 C :    0.068905
  33 C :   -0.130894
  34 S :    0.111878
  35 C :   -0.137186
  36 C :   -0.091453
  37 C :    0.134570
  38 N :   -0.381649
  39 C :    0.059417
  40 C :    0.252928
  41 C :   -0.047430
  42 N :   -0.302563
  43 S :    0.215962
  44 N :   -0.308240
  45 C :   -0.032170
  46 C :    0.277140
  47 C :   -0.012037
  48 N :   -0.338832
  49 S :    0.337170
  50 C :    0.105328
  51 C :   -0.060566
  52 C :    0.045155
  53 C :    0.013867
  54 C :   -0.033240
  55 S :    0.035937
  56 C :   -0.052693
  57 C :    0.031571
  58 C :    0.023907
  59 C :   -0.015186
  60 S :    0.035104
  61 C :   -0.026861
  62 C :   -0.181179
  63 S :    0.119927
  64 C :   -0.145446
  65 C :    0.132534
  66 C :    0.185022
  67 O :   -0.185682
  68 C :    0.230625
  69 N :    0.274501
  70 O :   -0.254530
  71 O :   -0.233290
  72 C :   -0.075312
  73 H :   -0.009756
  74 H :   -0.005433
  75 H :   -0.002285
  76 H :    0.040361
  77 H :    0.028481
  78 H :    0.003750
  79 H :   -0.011475
  80 H :    0.021580
  81 H :    0.016471
  82 H :    0.014666
  83 H :    0.008943
  84 H :    0.012871
  85 H :    0.008567
  86 H :    0.009215
  87 H :    0.017628
  88 H :    0.009810
  89 H :    0.003211
  90 H :    0.012038
  91 H :    0.009175
  92 H :    0.006262
  93 H :   -0.018139
  94 H :    0.000539
  95 H :    0.125297
  96 H :    0.128432
  97 H :    0.005496
  98 H :    0.021333
  99 H :   -0.021028
 100 H :    0.036648
 101 H :    0.009659
 102 H :   -0.013771
 103 H :   -0.018223
 104 H :   -0.016556
 105 H :   -0.015449
 106 H :   -0.002988
 107 H :    0.019659
 108 H :    0.008571
Sum of atomic charges:   -0.0000000

LOEWDIN ATOMIC CHARGES
----------------------
   0 C :    0.075646
   1 C :   -0.139060
   2 C :   -0.018940
   3 N :   -0.051636
   4 C :   -0.022866
   5 N :   -0.050010
   6 C :   -0.022411
   7 C :   -0.049648
   8 C :    0.021585
   9 C :   -0.031641
  10 C :   -0.144100
  11 C :   -0.009325
  12 S :    0.432846
  13 C :   -0.270834
  14 C :   -0.070527
  15 Br:    0.138110
  16 C :    0.076116
  17 O :   -0.124379
  18 C :   -0.099206
  19 C :    0.076513
  20 C :   -0.068726
  21 C :   -0.142769
  22 S :    0.438588
  23 C :   -0.175833
  24 C :   -0.028276
  25 C :   -0.015508
  26 C :   -0.030336
  27 C :   -0.047503
  28 C :   -0.012122
  29 C :   -0.032943
  30 C :   -0.053048
  31 C :   -0.042036
  32 C :   -0.052264
  33 C :   -0.182248
  34 S :    0.400228
  35 C :   -0.176255
  36 C :   -0.108722
  37 C :    0.014975
  38 N :   -0.179382
  39 C :    0.016381
  40 C :   -0.038644
  41 C :   -0.012433
  42 N :   -0.226303
  43 S :    0.358605
  44 N :   -0.225114
  45 C :   -0.008730
  46 C :   -0.037854
  47 C :    0.007765
  48 N :   -0.141002
  49 S :    0.436076
  50 C :    0.007689
  51 C :   -0.220299
  52 C :   -0.014183
  53 C :   -0.061859
  54 C :   -0.160801
  55 S :    0.362195
  56 C :   -0.207247
  57 C :   -0.029304
  58 C :   -0.048761
  59 C :   -0.143036
  60 S :    0.342806
  61 C :   -0.094673
  62 C :   -0.195893
  63 S :    0.457200
  64 C :   -0.208465
  65 C :   -0.083462
  66 C :    0.011094
  67 O :   -0.000890
  68 C :    0.022724
  69 N :    0.272520
  70 O :   -0.215555
  71 O :   -0.194966
  72 C :   -0.012134
  73 H :    0.041397
  74 H :    0.041180
  75 H :    0.039171
  76 H :    0.047807
  77 H :    0.028313
  78 H :    0.025057
  79 H :    0.024864
  80 H :    0.023284
  81 H :    0.026418
  82 H :    0.024894
  83 H :    0.026256
  84 H :    0.029600
  85 H :    0.023596
  86 H :    0.022305
  87 H :    0.022158
  88 H :    0.018654
  89 H :    0.017592
  90 H :    0.030375
  91 H :    0.027441
  92 H :    0.027244
  93 H :    0.024962
  94 H :    0.019822
  95 H :    0.046137
  96 H :    0.047636
  97 H :    0.022082
  98 H :    0.023506
  99 H :    0.023024
 100 H :    0.019170
 101 H :    0.033620
 102 H :    0.032374
 103 H :    0.030548
 104 H :    0.030885
 105 H :    0.032034
 106 H :    0.043019
 107 H :    0.023212
 108 H :    0.044859

  Mayer bond orders larger than 0.100000
B(  0-C ,  1-C ) :   1.6557 B(  0-C ,  6-C ) :   1.0118 B(  0-C , 18-C ) :   1.0408
B(  1-C ,  2-C ) :   1.1324 B(  1-C ,  4-C ) :   1.1531 B(  2-C ,  3-N ) :   2.9759
B(  4-C ,  5-N ) :   2.9695 B(  6-C ,  7-C ) :   1.2718 B(  6-C , 11-C ) :   1.4016
B(  7-C ,  8-C ) :   1.4238 B(  7-C , 16-C ) :   0.9361 B(  8-C ,  9-C ) :   1.2436
B(  8-C , 73-H ) :   1.0189 B(  9-C , 10-C ) :   1.3034 B(  9-C , 14-C ) :   1.1604
B( 10-C , 11-C ) :   1.3318 B( 10-C , 12-S ) :   1.0847 B( 11-C , 74-H ) :   0.9827
B( 12-S , 13-C ) :   1.0868 B( 13-C , 14-C ) :   1.6177 B( 13-C , 15-Br) :   1.0201
B( 14-C , 75-H ) :   1.0015 B( 16-C , 17-O ) :   2.2422 B( 16-C , 18-C ) :   0.9318
B( 18-C , 19-C ) :   1.6547 B( 19-C , 20-C ) :   1.0666 B( 19-C , 76-H ) :   0.9475
B( 20-C , 21-C ) :   1.5418 B( 20-C , 24-C ) :   1.1311 B( 21-C , 22-S ) :   1.1609
B( 21-C , 77-H ) :   0.9691 B( 22-S , 23-C ) :   1.0602 B( 23-C , 24-C ) :   1.3902
B( 23-C , 35-C ) :   1.3824 B( 24-C , 25-C ) :   1.2530 B( 25-C , 26-C ) :   1.0837
B( 25-C , 28-C ) :   1.5129 B( 26-C , 27-C ) :   1.1045 B( 26-C , 78-H ) :   0.9113
B( 26-C , 79-H ) :   0.9062 B( 27-C , 80-H ) :   0.9607 B( 27-C , 81-H ) :   0.9653
B( 27-C , 82-H ) :   0.9574 B( 28-C , 29-C ) :   1.0550 B( 28-C , 31-C ) :   1.2656
B( 29-C , 30-C ) :   1.1039 B( 29-C , 83-H ) :   0.9205 B( 29-C , 84-H ) :   0.9167
B( 30-C , 85-H ) :   0.9614 B( 30-C , 86-H ) :   0.9643 B( 30-C , 87-H ) :   0.9576
B( 31-C , 32-C ) :   1.1588 B( 31-C , 35-C ) :   1.3636 B( 32-C , 33-C ) :   1.6330
B( 32-C , 36-C ) :   1.0255 B( 33-C , 34-S ) :   1.0931 B( 33-C , 88-H ) :   0.9658
B( 34-S , 35-C ) :   1.0822 B( 36-C , 37-C ) :   1.7676 B( 36-C , 89-H ) :   0.9296
B( 37-C , 38-N ) :   1.0738 B( 37-C , 90-H ) :   0.9686 B( 38-N , 39-C ) :   0.9469
B( 38-N , 49-S ) :   0.9394 B( 39-C , 40-C ) :   1.0974 B( 39-C , 47-C ) :   0.9805
B( 39-C , 91-H ) :   0.8991 B( 40-C , 41-C ) :   1.0810 B( 40-C , 46-C ) :   0.1293
B( 40-C , 92-H ) :   0.9281 B( 40-C , 93-H ) :   0.8409 B( 41-C , 42-N ) :   1.0589
B( 41-C , 45-C ) :   0.9616 B( 41-C , 94-H ) :   0.9164 B( 42-N , 43-S ) :   0.9757
B( 42-N , 95-H ) :   0.9448 B( 43-S , 44-N ) :   0.9806 B( 44-N , 45-C ) :   1.0480
B( 44-N , 96-H ) :   0.9435 B( 45-C , 46-C ) :   1.0927 B( 45-C , 97-H ) :   0.9173
B( 46-C , 47-C ) :   1.0896 B( 46-C , 98-H ) :   0.9200 B( 46-C , 99-H ) :   0.8390
B( 47-C , 48-N ) :   0.9217 B( 47-C ,100-H ) :   0.8949 B( 48-N , 49-S ) :   0.9388
B( 48-N , 50-C ) :   1.1501 B( 50-C , 51-C ) :   1.6226 B( 50-C ,101-H ) :   0.9452
B( 51-C , 52-C ) :   1.1485 B( 51-C , 55-S ) :   0.9820 B( 52-C , 53-C ) :   1.6095
B( 52-C ,102-H ) :   0.9953 B( 53-C , 54-C ) :   1.1782 B( 53-C ,103-H ) :   0.9932
B( 54-C , 55-S ) :   1.0515 B( 54-C , 56-C ) :   1.5291 B( 56-C , 57-C ) :   1.1860
B( 56-C , 60-S ) :   1.0135 B( 57-C , 58-C ) :   1.5944 B( 57-C ,104-H ) :   0.9923
B( 58-C , 59-C ) :   1.1407 B( 58-C ,105-H ) :   1.0001 B( 59-C , 60-S ) :   1.0402
B( 59-C , 61-C ) :   1.5667 B( 61-C , 62-C ) :   1.1727 B( 61-C ,106-H ) :   0.9731
B( 62-C , 63-S ) :   1.1086 B( 62-C , 64-C ) :   0.1090 B( 62-C , 66-C ) :   1.4472
B( 63-S , 64-C ) :   1.1679 B( 64-C , 65-C ) :   1.4179 B( 64-C ,107-H ) :   0.9762
B( 65-C , 66-C ) :   1.2299 B( 65-C , 72-C ) :   1.0614 B( 66-C , 67-O ) :   1.1118
B( 67-O , 68-C ) :   1.1307 B( 68-C , 69-N ) :   0.9203 B( 68-C , 72-C ) :   1.5693
B( 69-N , 70-O ) :   1.5289 B( 69-N , 71-O ) :   1.5131 B( 70-O , 71-O ) :   0.2780
B( 72-C ,108-H ) :   1.0255

-----------------------------------------------------------------------------
         ABSORPTION SPECTRUM VIA TRANSITION ELECTRIC DIPOLE MOMENTS
-----------------------------------------------------------------------------
State   Energy  Wavelength   fosc         T2         TX        TY        TZ
        (cm-1)    (nm)                  (au**2)     (au)      (au)      (au)
-----------------------------------------------------------------------------
   0   15616.6    640.3   0.651797291  13.74051   2.73912  -1.74610  -1.78574
   1   18253.5    547.8   0.000006768   0.00012  -0.00997   0.00062  -0.00472
   2   19701.0    507.6   0.848957856  14.18642   3.15654  -1.94819  -0.65362
   3   21587.1    463.2   0.033685393   0.51372  -0.49509  -0.34800   0.38406
   4   22856.8    437.5   0.328925278   4.73759   0.81519   1.02875  -1.73630
   5   24246.1    412.4   0.000047243   0.00064   0.02104   0.00838  -0.01133
   6   26749.8    373.8   0.050455512   0.62096  -0.59196  -0.17984   0.48806
   7   26974.2    370.7   0.024456139   0.29848   0.08225   0.10950   0.52889
   8   27253.4    366.9   0.012780253   0.15438  -0.00868  -0.20052  -0.33778
   9   27369.7    365.4   0.078538976   0.94469  -0.28216   0.14586  -0.91859
  10   27640.4    361.8   0.040810620   0.48608   0.32566  -0.04409  -0.61488
  11   28465.7    351.3   0.006755283   0.07813  -0.21934   0.17263  -0.01472
  12   28777.4    347.5   0.431138195   4.93220  -0.37799   2.11920  -0.54617
  13   29361.3    340.6   0.083516425   0.93642   0.11652   0.67163  -0.68685
  14   29724.6    336.4   0.012886884   0.14273   0.25318  -0.07773   0.26942
  15   29753.4    336.1   0.052082143   0.57627  -0.46773   0.21437   0.55817
  16   30691.1    325.8   0.062670754   0.67225  -0.43735   0.66600   0.19343
  17   31637.9    316.1   0.087764610   0.91325  -0.63529   0.61360  -0.36490
  18   31943.9    313.0   0.056255145   0.57976   0.68152  -0.16342   0.29763
  19   32681.1    306.0   0.001949847   0.01964   0.01569   0.09137  -0.10510
  20   33030.5    302.8   0.518626374   5.16911   0.28956  -0.07222   2.25390
  21   33610.3    297.5   0.011753518   0.11513  -0.12491   0.10203  -0.29852
  22   34089.0    293.3   0.247496369   2.39018  -0.98698   0.93498   0.73611
  23   34164.6    292.7   0.418152724   4.02934  -0.50007   1.88429  -0.47823
  24   34479.5    290.0   0.210109933   2.00614  -1.08863   0.79515  -0.43448
  25   34754.8    287.7   0.180112266   1.70610  -0.32746  -0.48069   1.16953
  26   34943.1    286.2   0.026787600   0.25238   0.23543   0.30425   0.32308
  27   35500.8    281.7   0.003426537   0.03178  -0.13985   0.05164   0.09773
  28   35717.9    280.0   0.010604972   0.09775   0.14920   0.01930   0.27407
  29   36706.7    272.4   0.012194906   0.10937   0.05081  -0.01822   0.32628
  30   36859.2    271.3   0.089780707   0.80189   0.10128   0.83315  -0.31222
  31   37266.9    268.3   0.010195767   0.09007   0.16269  -0.11484  -0.22453
  32   37595.8    266.0   0.053121477   0.46516  -0.41027   0.38881   0.38167
  33   37985.8    263.3   0.002411418   0.02090   0.13452   0.04118  -0.03327
  34   38076.9    262.6   0.315239403   2.72556   1.37288  -0.90836  -0.12502
  35   38547.8    259.4   0.220590990   1.88393   1.12171  -0.70844   0.35185
  36   38585.7    259.2   0.002311023   0.01972   0.07342   0.11491  -0.03353
  37   39069.2    256.0   0.002049370   0.01727   0.01406   0.06146   0.11530
  38   39271.0    254.6   0.050129938   0.42024   0.41548   0.21121  -0.45057
  39   39443.8    253.5   0.012746457   0.10639  -0.08156   0.02360   0.31492
  40   39783.3    251.4   0.284041395   2.35048  -1.26139  -0.53088   0.69104
  41   40227.4    248.6   0.156628782   1.28181   0.45521  -0.49310   0.91184

FINAL SINGLE POINT ENERGY     -8480.294961582218

DIPOLE MOMENT
-------------
                                X             Y             Z
Electronic contribution:     91.29853     114.74099     -54.64984
Nuclear contribution   :    -90.41166    -114.91208      55.48661
                        -----------------------------------------
Total Dipole Moment    :      0.88686      -0.17109       0.83677
                        -----------------------------------------
Magnitude (a.u.)       :      1.23125
Magnitude (Debye)      :      3.12959

Rotational constants in cm-1:     0.000843     0.000213     0.000183
Rotational constants in MHz :    25.280756     6.375167     5.490688

                             ****ORCA TERMINATED NORMALLY****
TOTAL RUN TIME: 0 days 0 hours 10 minutes 34 seconds 935 msec
