                         Program Version 4.2.0 -  RELEASE  -
|  1> # ORCA input file
|  2> # SCF done       -192.138068817543          0.000353492514
|  3> ! CAM-B3LYP def2-SVP def2/J RIJCOSX Grid4 TightSCF
|  4> %maxcore 5000
|  5> %tddft
|  6>     Mode sTDDFT
|  7>     Ethresh 5.0
|  8>     maxcore 5000
|  9> end
| 10>
| 11> %pal
| 12>   nprocs 6
| 13>   end
| 14> * xyz 0 1
| 15>    C      -15.72127        -5.65889        -7.60418
| 16>    C      -15.44233        -6.66487        -6.69485
| 17>    C      -15.85866        -7.99748        -6.83159
| 18>    N      -16.17529        -9.10417        -6.85278
| 19>    C      -14.74405        -6.50886        -5.48858
| 20>    N      -14.18996        -6.48418        -4.47902
| 21>    C      -16.43083        -5.85906        -8.86804
| 22>    C      -16.59931        -4.60108        -9.49081
| 23>    C      -17.23978        -4.44986       -10.69325
| 24>    C      -17.72867        -5.60165       -11.32150
| 25>    C      -17.52980        -6.85641       -10.70658
| 26>    C      -16.88494        -7.00713        -9.48265
| 27>    S      -18.17661        -8.14985       -11.67455
| 28>    C      -18.68701        -6.99938       -12.87841
| 29>    C      -18.40289        -5.71319       -12.56841
| 30>   Br      -19.51773        -7.59850       -14.45283
| 31>    C      -15.96499        -3.55874        -8.64794
| 32>    O      -15.90987        -2.37065        -8.91107
| 33>    C      -15.42089        -4.26960        -7.48426
| 34>    C      -14.71779        -3.65801        -6.44706
| 35>    C      -14.47978        -2.30371        -6.34588
| 36>    C      -13.68791        -1.73834        -5.34701
| 37>    C      -13.35042        -0.38673        -5.20077
| 38>    C      -12.50207        -0.13058        -4.14693
| 39>    C      -12.14955        -1.27316        -3.42601
| 40>    S      -12.91999        -2.68883        -4.09855
| 41>    C      -11.31592        -1.38772        -2.30530
| 42>    C      -10.66593        -0.39852        -1.56609
| 43>    C       -9.95799        -0.89963        -0.49450
| 44>    C      -10.05039        -2.28751        -0.33190
| 45>    S      -10.99798        -2.95883        -1.62978
| 46>    C       -9.40686        -3.00579         0.69127
| 47>    C       -9.52383        -4.29718         1.14507
| 48>    C      -10.46014        -5.31235         0.88560
| 49>    C      -10.39794        -6.60380         1.43233
| 50>    C      -11.45668        -7.42001         1.10216
| 51>    C      -12.39845        -6.79153         0.28387
| 52>    S      -11.91899        -5.14595        -0.03988
| 53>    C      -13.57727        -7.26213        -0.29648
| 54>    C      -14.24505        -8.48729        -0.11449
| 55>    C      -15.40523        -8.58220        -0.82804
| 56>    C      -15.70121        -7.44544        -1.62512
| 57>    S      -14.43841        -6.24989        -1.41397
| 58>    C      -16.77322        -7.34770        -2.47671
| 59>    C      -17.09090        -6.26357        -3.34256
| 60>    C      -16.60902        -4.99463        -3.09424
| 61>    S      -17.04215        -3.80903        -4.23269
| 62>    C      -17.91198        -5.00970        -5.14348
| 63>    C      -17.89030        -6.28628        -4.56249
| 64>    C      -18.59046        -7.32440        -5.22591
| 65>    C      -18.64404        -8.69222        -4.59910
| 66>    C      -19.69240        -8.75109        -3.48348
| 67>    C      -19.26318        -7.08241        -6.42370
| 68>    C      -20.13878        -8.15896        -7.01839
| 69>    C      -19.39009        -9.15349        -7.91159
| 70>    C      -19.20250        -5.80877        -7.03657
| 71>    C      -19.75894        -5.30609        -8.27694
| 72>    C      -19.55554        -3.96055        -8.40666
| 73>    S      -18.68767        -3.22755        -7.12378
| 74>    C      -18.55616        -4.77159        -6.34315
| 75>    C      -20.36754        -6.07617        -9.33169
| 76>    C      -21.16881        -5.58297       -10.29679
| 77>    C      -21.71054        -6.41952       -11.33130
| 78>    C      -22.48970        -5.99090       -12.36588
| 79>    O      -23.02252        -6.84974       -13.30968
| 80>    C      -22.68541        -8.16033       -13.16806
| 81>    C      -21.85034        -8.60968       -12.10573
| 82>    C      -21.61153        -9.94222       -12.14657
| 83>    S      -22.41320       -10.67654       -13.48632
| 84>    C      -23.07087        -9.16452       -13.99225
| 85>    O      -21.35711        -7.75363       -11.16805
| 86>    C      -22.83755        -4.60982       -12.61284
| 87>    C      -23.56873        -4.21411       -13.65376
| 88>    H      -17.35174        -3.47642       -11.14471
| 89>    H      -16.74374        -7.98580        -9.05594
| 90>    H      -18.64937        -4.87706       -13.19736
| 91>    H      -14.29490        -4.29321        -5.67806
| 92>    H      -14.89520        -1.63845        -7.08866
| 93>    H      -13.72694         0.36438        -5.87201
| 94>    H      -12.13315         0.84704        -3.89267
| 95>    H      -10.73250         0.64662        -1.80861
| 96>    H       -9.40104        -0.28538         0.19177
| 97>    H       -8.67041        -2.40649         1.21649
| 98>    H       -8.78840        -4.58903         1.88684
| 99>    H       -9.57297        -6.91626         2.04881
|100>    H      -11.55079        -8.44386         1.41701
|101>    H      -13.86263        -9.25761         0.53105
|102>    H      -16.05258        -9.44165        -0.81709
|103>    H      -17.41120        -8.21436        -2.48211
|104>    H      -16.05349        -4.67779        -2.23511
|105>    H      -17.65166        -8.94320        -4.22461
|106>    H      -18.87981        -9.44791        -5.34205
|107>    H      -20.69139        -8.64350        -3.90093
|108>    H      -19.55339        -7.94901        -2.76185
|109>    H      -19.64223        -9.70595        -2.96417
|110>    H      -20.94124        -7.68697        -7.58610
|111>    H      -20.61877        -8.70880        -6.20849
|112>    H      -20.04107        -9.99037        -8.15551
|113>    H      -18.49767        -9.53289        -7.42034
|114>    H      -19.07272        -8.69247        -8.84280
|115>    H      -19.83882        -3.34644        -9.23832
|116>    H      -20.12740        -7.12291        -9.37655
|117>    H      -21.45617        -4.54585       -10.29945
|118>    H      -21.01455       -10.52653       -11.47855
|119>    H      -23.68892        -9.10309       -14.86285
|120>    H      -22.46247        -3.88569       -11.90796
|121>    H      -23.94623        -4.91773       -14.37433
|122>    H      -23.80104        -3.17603       -13.81123
|123> *
|124>
|125>                          ****END OF INPUT****

CARTESIAN COORDINATES (ANGSTROEM)
---------------------------------
  C    -15.721270   -5.658890   -7.604180
  C    -15.442330   -6.664870   -6.694850
  C    -15.858660   -7.997480   -6.831590
  N    -16.175290   -9.104170   -6.852780
  C    -14.744050   -6.508860   -5.488580
  N    -14.189960   -6.484180   -4.479020
  C    -16.430830   -5.859060   -8.868040
  C    -16.599310   -4.601080   -9.490810
  C    -17.239780   -4.449860  -10.693250
  C    -17.728670   -5.601650  -11.321500
  C    -17.529800   -6.856410  -10.706580
  C    -16.884940   -7.007130   -9.482650
  S    -18.176610   -8.149850  -11.674550
  C    -18.687010   -6.999380  -12.878410
  C    -18.402890   -5.713190  -12.568410
  Br   -19.517730   -7.598500  -14.452830
  C    -15.964990   -3.558740   -8.647940
  O    -15.909870   -2.370650   -8.911070
  C    -15.420890   -4.269600   -7.484260
  C    -14.717790   -3.658010   -6.447060
  C    -14.479780   -2.303710   -6.345880
  C    -13.687910   -1.738340   -5.347010
  C    -13.350420   -0.386730   -5.200770
  C    -12.502070   -0.130580   -4.146930
  C    -12.149550   -1.273160   -3.426010
  S    -12.919990   -2.688830   -4.098550
  C    -11.315920   -1.387720   -2.305300
  C    -10.665930   -0.398520   -1.566090
  C     -9.957990   -0.899630   -0.494500
  C    -10.050390   -2.287510   -0.331900
  S    -10.997980   -2.958830   -1.629780
  C     -9.406860   -3.005790    0.691270
  C     -9.523830   -4.297180    1.145070
  C    -10.460140   -5.312350    0.885600
  C    -10.397940   -6.603800    1.432330
  C    -11.456680   -7.420010    1.102160
  C    -12.398450   -6.791530    0.283870
  S    -11.918990   -5.145950   -0.039880
  C    -13.577270   -7.262130   -0.296480
  C    -14.245050   -8.487290   -0.114490
  C    -15.405230   -8.582200   -0.828040
  C    -15.701210   -7.445440   -1.625120
  S    -14.438410   -6.249890   -1.413970
  C    -16.773220   -7.347700   -2.476710
  C    -17.090900   -6.263570   -3.342560
  C    -16.609020   -4.994630   -3.094240
  S    -17.042150   -3.809030   -4.232690
  C    -17.911980   -5.009700   -5.143480
  C    -17.890300   -6.286280   -4.562490
  C    -18.590460   -7.324400   -5.225910
  C    -18.644040   -8.692220   -4.599100
  C    -19.692400   -8.751090   -3.483480
  C    -19.263180   -7.082410   -6.423700
  C    -20.138780   -8.158960   -7.018390
  C    -19.390090   -9.153490   -7.911590
  C    -19.202500   -5.808770   -7.036570
  C    -19.758940   -5.306090   -8.276940
  C    -19.555540   -3.960550   -8.406660
  S    -18.687670   -3.227550   -7.123780
  C    -18.556160   -4.771590   -6.343150
  C    -20.367540   -6.076170   -9.331690
  C    -21.168810   -5.582970  -10.296790
  C    -21.710540   -6.419520  -11.331300
  C    -22.489700   -5.990900  -12.365880
  O    -23.022520   -6.849740  -13.309680
  C    -22.685410   -8.160330  -13.168060
  C    -21.850340   -8.609680  -12.105730
  C    -21.611530   -9.942220  -12.146570
  S    -22.413200  -10.676540  -13.486320
  C    -23.070870   -9.164520  -13.992250
  O    -21.357110   -7.753630  -11.168050
  C    -22.837550   -4.609820  -12.612840
  C    -23.568730   -4.214110  -13.653760
  H    -17.351740   -3.476420  -11.144710
  H    -16.743740   -7.985800   -9.055940
  H    -18.649370   -4.877060  -13.197360
  H    -14.294900   -4.293210   -5.678060
  H    -14.895200   -1.638450   -7.088660
  H    -13.726940    0.364380   -5.872010
  H    -12.133150    0.847040   -3.892670
  H    -10.732500    0.646620   -1.808610
  H     -9.401040   -0.285380    0.191770
  H     -8.670410   -2.406490    1.216490
  H     -8.788400   -4.589030    1.886840
  H     -9.572970   -6.916260    2.048810
  H    -11.550790   -8.443860    1.417010
  H    -13.862630   -9.257610    0.531050
  H    -16.052580   -9.441650   -0.817090
  H    -17.411200   -8.214360   -2.482110
  H    -16.053490   -4.677790   -2.235110
  H    -17.651660   -8.943200   -4.224610
  H    -18.879810   -9.447910   -5.342050
  H    -20.691390   -8.643500   -3.900930
  H    -19.553390   -7.949010   -2.761850
  H    -19.642230   -9.705950   -2.964170
  H    -20.941240   -7.686970   -7.586100
  H    -20.618770   -8.708800   -6.208490
  H    -20.041070   -9.990370   -8.155510
  H    -18.497670   -9.532890   -7.420340
  H    -19.072720   -8.692470   -8.842800
  H    -19.838820   -3.346440   -9.238320
  H    -20.127400   -7.122910   -9.376550
  H    -21.456170   -4.545850  -10.299450
  H    -21.014550  -10.526530  -11.478550
  H    -23.688920   -9.103090  -14.862850
  H    -22.462470   -3.885690  -11.907960
  H    -23.946230   -4.917730  -14.374330
  H    -23.801040   -3.176030  -13.811230

 Total Charge           Charge          ....    0
 Multiplicity           Mult            ....    1
 Number of Electrons    NEL             ....  590
 Basis Dimension        Dim             .... 1247

ORBITAL ENERGIES
----------------

  NO   OCC          E(Eh)            E(eV)
   0   2.0000    -482.865614    -13139.4413
   1   2.0000     -88.966057     -2420.8895
   2   2.0000     -88.965100     -2420.8634
   3   2.0000     -88.961877     -2420.7757
   4   2.0000     -88.953816     -2420.5564
   5   2.0000     -88.951425     -2420.4913
   6   2.0000     -88.947827     -2420.3934
   7   2.0000     -88.945174     -2420.3212
   8   2.0000     -88.943680     -2420.2806
   9   2.0000     -62.542872     -1701.8781
  10   2.0000     -56.376818     -1534.0912
  11   2.0000     -56.374158     -1534.0188
  12   2.0000     -56.374113     -1534.0176
  13   2.0000     -19.260973      -524.1177
  14   2.0000     -19.259847      -524.0871
  15   2.0000     -19.175696      -521.7972
  16   2.0000     -14.383911      -391.4061
  17   2.0000     -14.381627      -391.3440
  18   2.0000     -10.336438      -281.2688
  19   2.0000     -10.333541      -281.1899
  20   2.0000     -10.332024      -281.1487
  21   2.0000     -10.329557      -281.0815
  22   2.0000     -10.327241      -281.0185
  23   2.0000     -10.326821      -281.0071
  24   2.0000     -10.326420      -280.9962
  25   2.0000     -10.323201      -280.9086
  26   2.0000     -10.317988      -280.7667
  27   2.0000     -10.315595      -280.7016
  28   2.0000     -10.315532      -280.6999
  29   2.0000     -10.311553      -280.5916
  30   2.0000     -10.309150      -280.5262
  31   2.0000     -10.306345      -280.4499
  32   2.0000     -10.304331      -280.3951
  33   2.0000     -10.299389      -280.2606
  34   2.0000     -10.298876      -280.2467
  35   2.0000     -10.298722      -280.2425
  36   2.0000     -10.298524      -280.2371
  37   2.0000     -10.298352      -280.2324
  38   2.0000     -10.297517      -280.2097
  39   2.0000     -10.297040      -280.1967
  40   2.0000     -10.296602      -280.1848
  41   2.0000     -10.295230      -280.1474
  42   2.0000     -10.294688      -280.1327
  43   2.0000     -10.292487      -280.0728
  44   2.0000     -10.291299      -280.0405
  45   2.0000     -10.290325      -280.0140
  46   2.0000     -10.289162      -279.9823
  47   2.0000     -10.288402      -279.9617
  48   2.0000     -10.287081      -279.9257
  49   2.0000     -10.285603      -279.8855
  50   2.0000     -10.282549      -279.8024
  51   2.0000     -10.281187      -279.7653
  52   2.0000     -10.281064      -279.7620
  53   2.0000     -10.279446      -279.7180
  54   2.0000     -10.278221      -279.6846
  55   2.0000     -10.277170      -279.6560
  56   2.0000     -10.275759      -279.6176
  57   2.0000     -10.274244      -279.5764
  58   2.0000     -10.274151      -279.5739
  59   2.0000     -10.273182      -279.5475
  60   2.0000     -10.272981      -279.5420
  61   2.0000     -10.272908      -279.5400
  62   2.0000     -10.271864      -279.5116
  63   2.0000     -10.271792      -279.5097
  64   2.0000     -10.269837      -279.4565
  65   2.0000     -10.268963      -279.4327
  66   2.0000     -10.268284      -279.4142
  67   2.0000     -10.265760      -279.3455
  68   2.0000     -10.265434      -279.3367
  69   2.0000     -10.258720      -279.1540
  70   2.0000     -10.257805      -279.1291
  71   2.0000     -10.257329      -279.1161
  72   2.0000     -10.256944      -279.1056
  73   2.0000     -10.255485      -279.0659
  74   2.0000     -10.249000      -278.8895
  75   2.0000     -10.244423      -278.7649
  76   2.0000     -10.239948      -278.6432
  77   2.0000      -8.772101      -238.7010
  78   2.0000      -8.060948      -219.3495
  79   2.0000      -8.060382      -219.3341
  80   2.0000      -8.057988      -219.2690
  81   2.0000      -8.050034      -219.0526
  82   2.0000      -8.046621      -218.9597
  83   2.0000      -8.043018      -218.8616
  84   2.0000      -8.040898      -218.8040
  85   2.0000      -8.039284      -218.7600
  86   2.0000      -6.608241      -179.8194
  87   2.0000      -6.593937      -179.4301
  88   2.0000      -6.593705      -179.4238
  89   2.0000      -6.030180      -164.0895
  90   2.0000      -6.029899      -164.0819
  91   2.0000      -6.027368      -164.0130
  92   2.0000      -6.025867      -163.9722
  93   2.0000      -6.025631      -163.9658
  94   2.0000      -6.023387      -163.9047
  95   2.0000      -6.023106      -163.8970
  96   2.0000      -6.021950      -163.8656
  97   2.0000      -6.019669      -163.8035
  98   2.0000      -6.019400      -163.7962
  99   2.0000      -6.016365      -163.7136
 100   2.0000      -6.015195      -163.6818
 101   2.0000      -6.012584      -163.6107
 102   2.0000      -6.012118      -163.5981
 103   2.0000      -6.011717      -163.5871
 104   2.0000      -6.010422      -163.5519
 105   2.0000      -6.008647      -163.5036
 106   2.0000      -6.008306      -163.4943
 107   2.0000      -6.007880      -163.4827
 108   2.0000      -6.006294      -163.4396
 109   2.0000      -6.004729      -163.3970
 110   2.0000      -6.004681      -163.3957
 111   2.0000      -6.002540      -163.3374
 112   2.0000      -6.001036      -163.2965
 113   2.0000      -2.724153       -74.1280
 114   2.0000      -2.720149       -74.0190
 115   2.0000      -2.719961       -74.0139
 116   2.0000      -2.708595       -73.7046
 117   2.0000      -2.708585       -73.7043
 118   2.0000      -1.185827       -32.2680
 119   2.0000      -1.148695       -31.2576
 120   2.0000      -1.089022       -29.6338
 121   2.0000      -1.012671       -27.5562
 122   2.0000      -1.004162       -27.3246
 123   2.0000      -0.995363       -27.0852
 124   2.0000      -0.992508       -27.0075
 125   2.0000      -0.987164       -26.8621
 126   2.0000      -0.982999       -26.7488
 127   2.0000      -0.973711       -26.4960
 128   2.0000      -0.971684       -26.4409
 129   2.0000      -0.968869       -26.3643
 130   2.0000      -0.963855       -26.2278
 131   2.0000      -0.955215       -25.9927
 132   2.0000      -0.923238       -25.1226
 133   2.0000      -0.914817       -24.8934
 134   2.0000      -0.912630       -24.8339
 135   2.0000      -0.908020       -24.7085
 136   2.0000      -0.899991       -24.4900
 137   2.0000      -0.884346       -24.0643
 138   2.0000      -0.880976       -23.9726
 139   2.0000      -0.877536       -23.8790
 140   2.0000      -0.869284       -23.6544
 141   2.0000      -0.860805       -23.4237
 142   2.0000      -0.858032       -23.3482
 143   2.0000      -0.855751       -23.2862
 144   2.0000      -0.855203       -23.2713
 145   2.0000      -0.845526       -23.0079
 146   2.0000      -0.843466       -22.9519
 147   2.0000      -0.838069       -22.8050
 148   2.0000      -0.835498       -22.7351
 149   2.0000      -0.829525       -22.5725
 150   2.0000      -0.816919       -22.2295
 151   2.0000      -0.815977       -22.2039
 152   2.0000      -0.812293       -22.1036
 153   2.0000      -0.809040       -22.0151
 154   2.0000      -0.800380       -21.7794
 155   2.0000      -0.798433       -21.7265
 156   2.0000      -0.795154       -21.6372
 157   2.0000      -0.783064       -21.3083
 158   2.0000      -0.774158       -21.0659
 159   2.0000      -0.763928       -20.7875
 160   2.0000      -0.749705       -20.4005
 161   2.0000      -0.726569       -19.7709
 162   2.0000      -0.722996       -19.6737
 163   2.0000      -0.719302       -19.5732
 164   2.0000      -0.717881       -19.5345
 165   2.0000      -0.705198       -19.1894
 166   2.0000      -0.698071       -18.9955
 167   2.0000      -0.693603       -18.8739
 168   2.0000      -0.687980       -18.7209
 169   2.0000      -0.685044       -18.6410
 170   2.0000      -0.676183       -18.3999
 171   2.0000      -0.669096       -18.2070
 172   2.0000      -0.665292       -18.1035
 173   2.0000      -0.663517       -18.0552
 174   2.0000      -0.661551       -18.0017
 175   2.0000      -0.656308       -17.8590
 176   2.0000      -0.646450       -17.5908
 177   2.0000      -0.645761       -17.5721
 178   2.0000      -0.640781       -17.4365
 179   2.0000      -0.638418       -17.3722
 180   2.0000      -0.631272       -17.1778
 181   2.0000      -0.630150       -17.1472
 182   2.0000      -0.626793       -17.0559
 183   2.0000      -0.622538       -16.9401
 184   2.0000      -0.617783       -16.8107
 185   2.0000      -0.609976       -16.5983
 186   2.0000      -0.598118       -16.2756
 187   2.0000      -0.595772       -16.2118
 188   2.0000      -0.591637       -16.0993
 189   2.0000      -0.589534       -16.0420
 190   2.0000      -0.579450       -15.7676
 191   2.0000      -0.577222       -15.7070
 192   2.0000      -0.568360       -15.4659
 193   2.0000      -0.566790       -15.4231
 194   2.0000      -0.563911       -15.3448
 195   2.0000      -0.561876       -15.2894
 196   2.0000      -0.557603       -15.1732
 197   2.0000      -0.555483       -15.1155
 198   2.0000      -0.546743       -14.8776
 199   2.0000      -0.544499       -14.8166
 200   2.0000      -0.543815       -14.7980
 201   2.0000      -0.535495       -14.5716
 202   2.0000      -0.532086       -14.4788
 203   2.0000      -0.531640       -14.4667
 204   2.0000      -0.527727       -14.3602
 205   2.0000      -0.523906       -14.2562
 206   2.0000      -0.516544       -14.0559
 207   2.0000      -0.514744       -14.0069
 208   2.0000      -0.512538       -13.9469
 209   2.0000      -0.511375       -13.9152
 210   2.0000      -0.507127       -13.7996
 211   2.0000      -0.503832       -13.7100
 212   2.0000      -0.502588       -13.6761
 213   2.0000      -0.500423       -13.6172
 214   2.0000      -0.498669       -13.5695
 215   2.0000      -0.497776       -13.5452
 216   2.0000      -0.496931       -13.5222
 217   2.0000      -0.494503       -13.4561
 218   2.0000      -0.492942       -13.4136
 219   2.0000      -0.492592       -13.4041
 220   2.0000      -0.490273       -13.3410
 221   2.0000      -0.488250       -13.2860
 222   2.0000      -0.487568       -13.2674
 223   2.0000      -0.485494       -13.2110
 224   2.0000      -0.479755       -13.0548
 225   2.0000      -0.478835       -13.0298
 226   2.0000      -0.477999       -13.0070
 227   2.0000      -0.474400       -12.9091
 228   2.0000      -0.471442       -12.8286
 229   2.0000      -0.470928       -12.8146
 230   2.0000      -0.467719       -12.7273
 231   2.0000      -0.466446       -12.6926
 232   2.0000      -0.463751       -12.6193
 233   2.0000      -0.462810       -12.5937
 234   2.0000      -0.461873       -12.5682
 235   2.0000      -0.459478       -12.5030
 236   2.0000      -0.457709       -12.4549
 237   2.0000      -0.456072       -12.4104
 238   2.0000      -0.453191       -12.3319
 239   2.0000      -0.452755       -12.3201
 240   2.0000      -0.449958       -12.2440
 241   2.0000      -0.446467       -12.1490
 242   2.0000      -0.442654       -12.0452
 243   2.0000      -0.440686       -11.9917
 244   2.0000      -0.439511       -11.9597
 245   2.0000      -0.437591       -11.9075
 246   2.0000      -0.436772       -11.8852
 247   2.0000      -0.430904       -11.7255
 248   2.0000      -0.430126       -11.7043
 249   2.0000      -0.428465       -11.6591
 250   2.0000      -0.427927       -11.6445
 251   2.0000      -0.424598       -11.5539
 252   2.0000      -0.422301       -11.4914
 253   2.0000      -0.420306       -11.4371
 254   2.0000      -0.419836       -11.4243
 255   2.0000      -0.416048       -11.3212
 256   2.0000      -0.414495       -11.2790
 257   2.0000      -0.412976       -11.2376
 258   2.0000      -0.410203       -11.1622
 259   2.0000      -0.409596       -11.1457
 260   2.0000      -0.404787       -11.0148
 261   2.0000      -0.403908       -10.9909
 262   2.0000      -0.403132       -10.9698
 263   2.0000      -0.395622       -10.7654
 264   2.0000      -0.392280       -10.6745
 265   2.0000      -0.390923       -10.6376
 266   2.0000      -0.389461       -10.5978
 267   2.0000      -0.387576       -10.5465
 268   2.0000      -0.382925       -10.4199
 269   2.0000      -0.379506       -10.3269
 270   2.0000      -0.378118       -10.2891
 271   2.0000      -0.372038       -10.1237
 272   2.0000      -0.370007       -10.0684
 273   2.0000      -0.361661        -9.8413
 274   2.0000      -0.355910        -9.6848
 275   2.0000      -0.354084        -9.6351
 276   2.0000      -0.345290        -9.3958
 277   2.0000      -0.342934        -9.3317
 278   2.0000      -0.336866        -9.1666
 279   2.0000      -0.331164        -9.0114
 280   2.0000      -0.329272        -8.9599
 281   2.0000      -0.321489        -8.7482
 282   2.0000      -0.316649        -8.6165
 283   2.0000      -0.311686        -8.4814
 284   2.0000      -0.300547        -8.1783
 285   2.0000      -0.297335        -8.0909
 286   2.0000      -0.291080        -7.9207
 287   2.0000      -0.290168        -7.8959
 288   2.0000      -0.284022        -7.7286
 289   2.0000      -0.269582        -7.3357
 290   2.0000      -0.265390        -7.2216
 291   2.0000      -0.260752        -7.0954
 292   2.0000      -0.239041        -6.5046
 293   2.0000      -0.230448        -6.2708
 294   2.0000      -0.196584        -5.3493
 295   0.0000      -0.110606        -3.0098
 296   0.0000      -0.065071        -1.7707
 297   0.0000      -0.036385        -0.9901
 298   0.0000      -0.023981        -0.6526
 299   0.0000      -0.016774        -0.4564

MULLIKEN ATOMIC CHARGES
-----------------------
   0 C :    0.363188
   1 C :   -0.404683
   2 C :   -0.178252
   3 N :    0.104929
   4 C :   -0.187804
   5 N :    0.100006
   6 C :    0.031140
   7 C :   -0.003117
   8 C :   -0.103839
   9 C :    0.139890
  10 C :   -0.099756
  11 C :   -0.063771
  12 S :    0.166284
  13 C :   -0.130240
  14 C :    0.041616
  15 Br:    0.011824
  16 C :    0.141732
  17 O :   -0.179074
  18 C :   -0.136327
  19 C :   -0.053080
  20 C :   -0.021163
  21 C :   -0.000690
  22 C :    0.007686
  23 C :    0.031457
  24 C :   -0.053577
  25 S :    0.087480
  26 C :   -0.023728
  27 C :    0.003903
  28 C :    0.040557
  29 C :   -0.075747
  30 S :    0.116770
  31 C :    0.024835
  32 C :   -0.013658
  33 C :   -0.026221
  34 C :    0.012865
  35 C :    0.043836
  36 C :   -0.061852
  37 S :    0.115618
  38 C :   -0.021107
  39 C :    0.023864
  40 C :    0.049588
  41 C :   -0.044004
  42 S :    0.157975
  43 C :    0.011075
  44 C :    0.069266
  45 C :   -0.116186
  46 S :    0.191629
  47 C :   -0.165778
  48 C :    0.132778
  49 C :   -0.112394
  50 C :    0.027279
  51 C :    0.037737
  52 C :   -0.111754
  53 C :    0.016104
  54 C :    0.040041
  55 C :    0.127911
  56 C :    0.079418
  57 C :   -0.100635
  58 S :    0.139011
  59 C :   -0.150710
  60 C :    0.011809
  61 C :   -0.070963
  62 C :    0.199500
  63 C :    0.127119
  64 O :   -0.256840
  65 C :    0.233046
  66 C :    0.226416
  67 C :   -0.179535
  68 S :    0.101046
  69 C :   -0.185564
  70 O :   -0.273859
  71 C :   -0.057389
  72 C :    0.013688
  73 H :   -0.029922
  74 H :   -0.016033
  75 H :   -0.014964
  76 H :    0.003325
  77 H :    0.005706
  78 H :   -0.013331
  79 H :   -0.017771
  80 H :   -0.015822
  81 H :   -0.012465
  82 H :    0.000594
  83 H :   -0.009487
  84 H :   -0.010570
  85 H :   -0.009144
  86 H :   -0.008821
  87 H :    0.002707
  88 H :   -0.003904
  89 H :    0.042443
  90 H :    0.013915
  91 H :    0.007404
  92 H :    0.010010
  93 H :    0.013315
  94 H :    0.013149
  95 H :    0.011859
  96 H :   -0.007707
  97 H :    0.007484
  98 H :    0.032227
  99 H :   -0.006968
 100 H :    0.018174
 101 H :    0.008436
 102 H :   -0.022700
 103 H :    0.021531
 104 H :    0.019685
 105 H :   -0.014435
 106 H :    0.028767
 107 H :    0.014697
Sum of atomic charges:   -0.0000000

LOEWDIN ATOMIC CHARGES
----------------------
   0 C :    0.069282
   1 C :   -0.194649
   2 C :   -0.008400
   3 N :   -0.107736
   4 C :   -0.011784
   5 N :   -0.112353
   6 C :   -0.010876
   7 C :   -0.046174
   8 C :    0.008404
   9 C :   -0.040936
  10 C :   -0.147923
  11 C :   -0.027570
  12 S :    0.425811
  13 C :   -0.279799
  14 C :   -0.068686
  15 Br:    0.138997
  16 C :    0.066450
  17 O :   -0.176515
  18 C :   -0.141226
  19 C :    0.009086
  20 C :   -0.079210
  21 C :   -0.122634
  22 C :   -0.063446
  23 C :   -0.025120
  24 C :   -0.208341
  25 S :    0.410382
  26 C :   -0.153673
  27 C :   -0.066590
  28 C :   -0.020794
  29 C :   -0.196428
  30 S :    0.426837
  31 C :   -0.023615
  32 C :   -0.086679
  33 C :   -0.138513
  34 C :   -0.052270
  35 C :   -0.021344
  36 C :   -0.205893
  37 S :    0.434732
  38 C :   -0.136169
  39 C :   -0.053381
  40 C :    0.006277
  41 C :   -0.161803
  42 S :    0.475307
  43 C :    0.027218
  44 C :   -0.070811
  45 C :   -0.148639
  46 S :    0.498627
  47 C :   -0.176363
  48 C :   -0.038231
  49 C :   -0.010940
  50 C :   -0.031259
  51 C :   -0.055269
  52 C :   -0.009552
  53 C :   -0.030936
  54 C :   -0.055743
  55 C :   -0.033054
  56 C :   -0.062796
  57 C :   -0.152664
  58 S :    0.449021
  59 C :   -0.177425
  60 C :   -0.009149
  61 C :   -0.042400
  62 C :    0.028539
  63 C :    0.017137
  64 O :   -0.052808
  65 C :   -0.009435
  66 C :   -0.013551
  67 C :   -0.215191
  68 S :    0.427881
  69 C :   -0.217365
  70 O :   -0.056477
  71 C :   -0.040336
  72 C :   -0.037620
  73 H :    0.032573
  74 H :    0.035699
  75 H :    0.034471
  76 H :    0.022355
  77 H :    0.034819
  78 H :    0.033075
  79 H :    0.030637
  80 H :    0.030676
  81 H :    0.032682
  82 H :    0.042156
  83 H :    0.038297
  84 H :    0.033177
  85 H :    0.034133
  86 H :    0.034598
  87 H :    0.038632
  88 H :    0.042747
  89 H :    0.010939
  90 H :    0.026951
  91 H :    0.033263
  92 H :    0.026393
  93 H :    0.020214
  94 H :    0.023360
  95 H :    0.029832
  96 H :    0.026077
  97 H :    0.023589
  98 H :    0.025638
  99 H :    0.012128
 100 H :    0.020981
 101 H :    0.028703
 102 H :    0.025904
 103 H :    0.026838
 104 H :    0.026681
 105 H :    0.030522
 106 H :    0.025715
 107 H :    0.024100

  Mayer bond orders larger than 0.100000
B(  0-C ,  1-C ) :   1.4867 B(  0-C ,  6-C ) :   0.9632 B(  0-C , 18-C ) :   1.2106
B(  1-C ,  2-C ) :   1.1892 B(  1-C ,  4-C ) :   1.1845 B(  2-C ,  3-N ) :   2.8551
B(  4-C ,  5-N ) :   2.8829 B(  6-C ,  7-C ) :   1.2952 B(  6-C , 11-C ) :   1.4224
B(  7-C ,  8-C ) :   1.4168 B(  7-C , 16-C ) :   0.9229 B(  8-C ,  9-C ) :   1.2205
B(  8-C , 73-H ) :   1.0219 B(  9-C , 10-C ) :   1.3326 B(  9-C , 14-C ) :   1.1568
B( 10-C , 11-C ) :   1.2987 B( 10-C , 12-S ) :   1.0825 B( 11-C , 74-H ) :   0.9793
B( 12-S , 13-C ) :   1.0862 B( 13-C , 14-C ) :   1.6119 B( 13-C , 15-Br) :   1.0143
B( 14-C , 75-H ) :   1.0032 B( 16-C , 17-O ) :   2.1748 B( 16-C , 18-C ) :   0.9896
B( 18-C , 19-C ) :   1.3201 B( 19-C , 20-C ) :   1.4100 B( 19-C , 76-H ) :   0.9398
B( 20-C , 21-C ) :   1.2595 B( 20-C , 77-H ) :   0.9776 B( 21-C , 22-C ) :   1.3136
B( 21-C , 25-S ) :   1.1022 B( 22-C , 23-C ) :   1.3858 B( 22-C , 78-H ) :   1.0014
B( 23-C , 24-C ) :   1.3686 B( 23-C , 79-H ) :   0.9966 B( 24-C , 25-S ) :   1.0697
B( 24-C , 26-C ) :   1.2589 B( 26-C , 27-C ) :   1.3516 B( 26-C , 30-S ) :   1.1233
B( 27-C , 28-C ) :   1.4037 B( 27-C , 80-H ) :   0.9951 B( 28-C , 29-C ) :   1.3265
B( 28-C , 81-H ) :   0.9986 B( 29-C , 30-S ) :   1.0649 B( 29-C , 31-C ) :   1.2855
B( 31-C , 32-C ) :   1.5095 B( 31-C , 82-H ) :   0.9539 B( 32-C , 33-C ) :   1.2827
B( 32-C , 83-H ) :   0.9524 B( 33-C , 34-C ) :   1.3085 B( 33-C , 37-S ) :   1.1186
B( 34-C , 35-C ) :   1.4297 B( 34-C , 84-H ) :   0.9988 B( 35-C , 36-C ) :   1.3252
B( 35-C , 85-H ) :   0.9935 B( 36-C , 37-S ) :   1.0727 B( 36-C , 38-C ) :   1.3132
B( 38-C , 39-C ) :   1.2522 B( 38-C , 42-S ) :   1.1556 B( 39-C , 40-C ) :   1.5171
B( 39-C , 86-H ) :   0.9963 B( 40-C , 41-C ) :   1.1876 B( 40-C , 87-H ) :   0.9961
B( 41-C , 42-S ) :   1.0468 B( 41-C , 43-C ) :   1.5436 B( 43-C , 44-C ) :   1.1317
B( 43-C , 88-H ) :   0.9554 B( 44-C , 45-C ) :   1.4645 B( 44-C , 48-C ) :   1.1313
B( 45-C , 46-S ) :   1.2003 B( 45-C , 89-H ) :   0.9446 B( 46-S , 47-C ) :   1.0719
B( 47-C , 48-C ) :   1.3735 B( 47-C , 59-C ) :   1.3914 B( 48-C , 49-C ) :   1.2734
B( 49-C , 50-C ) :   1.0638 B( 49-C , 52-C ) :   1.4926 B( 50-C , 51-C ) :   1.1007
B( 50-C , 90-H ) :   0.9182 B( 50-C , 91-H ) :   0.9037 B( 51-C , 92-H ) :   0.9536
B( 51-C , 93-H ) :   0.9640 B( 51-C , 94-H ) :   0.9650 B( 52-C , 53-C ) :   1.0627
B( 52-C , 55-C ) :   1.2810 B( 53-C , 54-C ) :   1.1128 B( 53-C , 95-H ) :   0.9245
B( 53-C , 96-H ) :   0.9079 B( 54-C , 97-H ) :   0.9580 B( 54-C , 98-H ) :   0.9428
B( 54-C , 99-H ) :   0.9474 B( 55-C , 56-C ) :   1.1267 B( 55-C , 59-C ) :   1.3577
B( 56-C , 57-C ) :   1.6059 B( 56-C , 60-C ) :   1.0265 B( 57-C , 58-S ) :   1.1274
B( 57-C ,100-H ) :   0.9503 B( 58-S , 59-C ) :   1.0854 B( 60-C , 61-C ) :   1.7372
B( 60-C ,101-H ) :   0.9543 B( 61-C , 62-C ) :   1.1350 B( 61-C ,102-H ) :   0.9610
B( 62-C , 63-C ) :   1.5121 B( 62-C , 70-O ) :   1.0363 B( 63-C , 64-O ) :   1.0506
B( 63-C , 71-C ) :   1.1373 B( 64-O , 65-C ) :   1.0620 B( 65-C , 66-C ) :   1.2012
B( 65-C , 69-C ) :   1.5728 B( 66-C , 67-C ) :   1.5746 B( 66-C , 70-O ) :   1.0400
B( 67-C , 68-S ) :   1.1359 B( 67-C ,103-H ) :   0.9724 B( 68-S , 69-C ) :   1.1379
B( 69-C ,104-H ) :   0.9717 B( 71-C , 72-C ) :   1.9324 B( 71-C ,105-H ) :   0.9519
B( 72-C ,106-H ) :   0.9495 B( 72-C ,107-H ) :   0.9417

-----------------------------------------------------------------------------
         ABSORPTION SPECTRUM VIA TRANSITION ELECTRIC DIPOLE MOMENTS
-----------------------------------------------------------------------------
State   Energy  Wavelength   fosc         T2         TX        TY        TZ
        (cm-1)    (nm)                  (au**2)     (au)      (au)      (au)
-----------------------------------------------------------------------------
   0    4810.5   2078.8   0.100413920   6.87197  -0.16970  -1.08429   2.38065
   1   10790.0    926.8   0.012211183   0.37258   0.57294   0.05729  -0.20256
   2   15345.7    651.7   0.016917260   0.36293   0.37173   0.47221  -0.04196
   3   16432.7    608.5   1.781474385  35.69005  -4.19995  -2.23385  -3.61392
   4   18450.9    542.0   0.020268373   0.36164   0.06618  -0.58419   0.12644
   5   19181.5    521.3   0.318784943   5.47130   1.50143  -0.96770   1.51015
   6   20322.9    492.1   0.160782645   2.60453  -1.04087  -0.90382  -0.83919
   7   22046.6    453.6   0.153990860   2.29947   0.79231   0.83909   0.98368
   8   22116.9    452.1   0.097913723   1.45746  -0.23121   0.29554  -1.14746
   9   23524.0    425.1   0.130824412   1.83085  -0.21439   1.09948  -0.75897
  10   24011.6    416.5   0.079328086   1.08763   0.10168   1.01326  -0.22492
  11   24405.7    409.7   0.130109453   1.75506  -0.28251   0.98570  -0.83883
  12   25247.4    396.1   0.432905816   5.64486   0.89939  -1.62172   1.48525
  13   25979.8    384.9   0.014413256   0.18264   0.12712  -0.38595   0.13237
  14   26067.1    383.6   0.025933832   0.32753   0.23112  -0.48512   0.19691
  15   27088.1    369.2   0.033018485   0.40129  -0.03520  -0.63136  -0.03787
  16   27552.7    362.9   0.011221933   0.13408  -0.14539  -0.27931   0.18690
  17   27638.1    361.8   0.082816626   0.98647   0.67395   0.12558   0.71867
  18   28003.8    357.1   0.310610999   3.65153  -1.44305   0.33678  -1.20653
  19   28337.3    352.9   0.036544355   0.42456   0.40584  -0.45402   0.23177
  20   28755.0    347.8   0.071736590   0.82130   0.34856   0.76321   0.34252
  21   29054.2    344.2   0.132519117   1.50157   0.74115  -0.02633   0.97548
  22   29317.3    341.1   0.176696440   1.98417  -0.46910  -0.80217  -1.05861
  23   29604.6    337.8   0.025770763   0.28658  -0.41206   0.18390  -0.28804
  24   29987.3    333.5   0.030498202   0.33482   0.36104   0.06722   0.44716
  25   30152.3    331.6   0.049199522   0.53718  -0.56007   0.01309  -0.47257
  26   30272.2    330.3   0.025273025   0.27485   0.43594   0.03817   0.28870
  27   30602.0    326.8   0.002937778   0.03160   0.11754  -0.00097   0.13337
  28   30777.9    324.9   0.005865897   0.06274  -0.00547  -0.06806   0.24100
  29   31054.4    322.0   0.028097062   0.29786   0.23515   0.24176   0.42909
  30   31613.6    316.3   0.021615512   0.22510   0.27839   0.24597   0.29511
  31   31948.5    313.0   0.046735421   0.48158  -0.32070  -0.55409  -0.26779
  32   32081.5    311.7   0.020084396   0.20610  -0.02286  -0.45324  -0.01250
  33   32230.0    310.3   0.226595008   2.31454   0.69104  -0.14456   1.34763
  34   32594.5    306.8   0.042028819   0.42450   0.52263  -0.06032   0.38434
  35   32985.7    303.2   0.024529160   0.24481   0.06667   0.26895   0.40992
  36   33177.0    301.4   0.007481662   0.07424  -0.00330  -0.23332   0.14067
  37   33312.9    300.2   0.078217286   0.77298   0.16989   0.75886  -0.41017
  38   33706.8    296.7   0.091847990   0.89707   0.49649  -0.13645   0.79495
  39   34037.6    293.8   0.080810418   0.78160  -0.21684  -0.76604   0.38441
  40   34212.5    292.3   0.015099278   0.14529  -0.00083  -0.23779   0.29791
  41   34384.7    290.8   0.057445145   0.55000  -0.28510   0.60654  -0.31753
  42   34690.4    288.3   0.152479253   1.44703   0.65725   0.24414   0.97747
  43   34834.6    287.1   0.075425297   0.71282   0.27208   0.17915   0.77891
  44   35144.6    284.5   0.018332657   0.17173   0.13888  -0.04154   0.38822
  45   35346.3    282.9   0.039785798   0.37056  -0.33062  -0.51047  -0.02600
  46   35751.9    279.7   0.222137920   2.04550  -0.86007   0.15161  -1.13260
  47   36108.6    276.9   0.071472688   0.65164  -0.48761  -0.27705  -0.58062
  48   36244.8    275.9   0.067055439   0.60907  -0.18764   0.28943  -0.70006
  49   36515.2    273.9   0.005607827   0.05056   0.02565  -0.21054  -0.07467
  50   36893.5    271.1   0.084922974   0.75779   0.16520   0.81772  -0.24866
  51   36906.6    271.0   0.012989387   0.11587   0.10465  -0.19634   0.25762
  52   37128.5    269.3   0.005545135   0.04917  -0.16459   0.09127  -0.11724
  53   37275.3    268.3   0.005461600   0.04824   0.10495   0.15188   0.11897
  54   37618.9    265.8   0.021965099   0.19222  -0.13253   0.07020  -0.41198
  55   37794.9    264.6   0.037423485   0.32598   0.01916   0.38199  -0.42391
  56   37887.1    263.9   0.003753421   0.03261   0.15878  -0.08228   0.02518
  57   38328.9    260.9   0.007112872   0.06109   0.19003   0.06213   0.14533
  58   38475.6    259.9   0.043498675   0.37219   0.16709   0.50256  -0.30283
  59   38635.2    258.8   0.057080019   0.48638  -0.16799  -0.45221  -0.50365
  60   38761.5    258.0   0.130376831   1.10732   0.54134  -0.39302   0.81229
  61   38983.1    256.5   0.041836452   0.35331  -0.14481  -0.04225  -0.57494
  62   39061.9    256.0   0.077717824   0.65500   0.29615   0.46785   0.59026
  63   39179.6    255.2   0.008480940   0.07126   0.02829  -0.05755   0.25913
  64   39554.3    252.8   0.036540127   0.30412   0.10629   0.48351   0.24300
  65   39682.7    252.0   0.080017529   0.66383   0.27380   0.66316   0.38612
  66   39794.2    251.3   0.020651067   0.17084   0.05751  -0.24556  -0.32747
  67   40168.8    248.9   0.004934096   0.04044  -0.19323   0.03716  -0.04148
  68   40294.9    248.2   0.054699106   0.44689  -0.27874   0.28054  -0.53897

FINAL SINGLE POINT ENERGY     -8359.558072776472

DIPOLE MOMENT
-------------
                                X             Y             Z
Electronic contribution:    -10.23251      -7.73648     -94.21392
Nuclear contribution   :     10.73741       8.08540      97.87420
                        -----------------------------------------
Total Dipole Moment    :      0.50491       0.34892       3.66028
                        -----------------------------------------
Magnitude (a.u.)       :      3.71138
Magnitude (Debye)      :      9.43357

Rotational constants in cm-1:     0.001941     0.000382     0.000351
Rotational constants in MHz :    58.197504    11.463413    10.536741

                             ****ORCA TERMINATED NORMALLY****
TOTAL RUN TIME: 0 days 0 hours 15 minutes 12 seconds 977 msec
