                         Program Version 4.2.0 -  RELEASE  -
|  1> # ORCA input file
|  2> # SCF done       -164.705784899411          0.000863707963
|  3> ! CAM-B3LYP def2-SVP def2/J RIJCOSX Grid4 TightSCF
|  4> %maxcore 5000
|  5> %tddft
|  6>     Mode sTDDFT
|  7>     Ethresh 5.0
|  8>     maxcore 5000
|  9> end
| 10>
| 11> %pal
| 12>   nprocs 6
| 13>   end
| 14> * xyz 0 1
| 15>    C       12.21485        -0.95180        -1.81844
| 16>    C       11.37676        -1.65459        -2.59263
| 17>    C       11.33749        -1.70184        -4.02634
| 18>    C       10.37604        -2.50526        -4.53211
| 19>    C        9.57801        -3.15717        -3.55072
| 20>    S       10.10551        -2.70318        -1.94232
| 21>    C        8.53346        -4.02471        -3.76245
| 22>    C        8.01572        -4.47575        -5.00151
| 23>    C        6.97313        -5.33493        -4.87475
| 24>    C        6.59631        -5.62161        -3.53205
| 25>    S        7.63199        -4.73194        -2.43430
| 26>    C        5.58771        -6.49480        -3.21478
| 27>    C        5.06463        -6.91685        -1.97944
| 28>    S        3.86583        -8.18863        -2.01231
| 29>    C        3.70179        -8.19106        -0.28179
| 30>    C        4.55696        -7.25223         0.28263
| 31>    C        5.31441        -6.53569        -0.65947
| 32>    O        6.24128        -5.58620        -0.36821
| 33>    S        5.96762        -4.59853         0.94680
| 34>    C        6.03092        -5.91468         2.18661
| 35>    S        4.59190        -7.02101         2.03039
| 36>    C        2.82072        -9.05097         0.41261
| 37>    C        2.03484        -9.97685        -0.18410
| 38>    C        1.13341       -10.88147         0.46717
| 39>    C        0.49847       -11.89314        -0.29510
| 40>    O        0.80600       -11.93736        -1.61726
| 41>    C        0.17696       -12.89884        -2.43153
| 42>    C       -0.36496       -12.77688         0.32183
| 43>    C       -0.66536       -12.69801         1.68603
| 44>    C       -0.00717       -11.70651         2.45225
| 45>    C        0.85891       -10.82578         1.83712
| 46>    O       -0.28692       -11.69362         3.78259
| 47>    C        0.39861       -10.79367         4.63407
| 48>    C       -0.01044       -11.09014         6.07934
| 49>    C        0.85311       -10.29256         7.06430
| 50>    C        2.24909       -10.87802         7.24653
| 51>    C       -1.51208       -10.84958         6.30228
| 52>    C       -1.94933        -9.39218         6.20584
| 53>    C       -1.58020       -13.61216         2.31300
| 54>    S       -1.56240       -13.79052         4.04369
| 55>    C       -2.76578       -15.04917         4.01667
| 56>    C       -3.18201       -15.27998         2.71428
| 57>    C       -2.52634       -14.46798         1.76742
| 58>    S       -2.97033       -14.41909         0.05852
| 59>    C       -4.55960       -15.17401        -0.14523
| 60>    O       -5.16877       -14.89582        -1.14073
| 61>    C       -5.05841       -16.25492         0.78132
| 62>    O       -5.93479       -16.99395         0.42000
| 63>    S       -4.35357       -16.54648         2.36952
| 64>    C       -3.18170       -15.63837         5.23023
| 65>    S       -4.29274       -16.98152         5.35747
| 66>    C       -4.22644       -17.04724         7.09670
| 67>    C       -3.37328       -16.05487         7.56561
| 68>    C       -2.79593       -15.28071         6.51575
| 69>    N       -1.99890       -14.36128         7.11020
| 70>    N       -2.03086       -14.48736         8.44821
| 71>    C       -2.82879       -15.47814         8.74611
| 72>    C       -4.99503       -18.03667         7.78230
| 73>    C       -5.02052       -18.20772         9.10582
| 74>    H       12.97338        -0.32722        -2.25621
| 75>    H       12.15794        -0.98715        -0.74613
| 76>    H       12.03380        -1.12914        -4.61298
| 77>    H       10.20413        -2.65786        -5.58291
| 78>    H        8.42712        -4.15821        -5.94287
| 79>    H        6.45190        -5.78443        -5.70194
| 80>    H        5.10783        -6.96261        -4.06683
| 81>    H        6.95101        -6.48192         2.05857
| 82>    H        5.97752        -5.46341         3.17261
| 83>    H        2.82849        -8.92223         1.48686
| 84>    H        2.08863       -10.07244        -1.26008
| 85>    H        0.54033       -12.70743        -3.44011
| 86>    H       -0.91214       -12.79382        -2.41142
| 87>    H        0.45081       -13.91669        -2.13679
| 88>    H       -0.80132       -13.57528        -0.25004
| 89>    H        1.34053       -10.05907         2.41923
| 90>    H        0.14690        -9.75955         4.36969
| 91>    H        1.48054       -10.93287         4.51939
| 92>    H        0.18136       -12.15700         6.24482
| 93>    H        0.35148       -10.28747         8.03360
| 94>    H        0.93634        -9.25906         6.72405
| 95>    H        2.18827       -11.90442         7.60087
| 96>    H        2.80475       -10.29730         7.97871
| 97>    H        2.80991       -10.86858         6.31536
| 98>    H       -1.77453       -11.22658         7.29374
| 99>    H       -2.06571       -11.43086         5.56248
|100>    H       -1.43424        -8.77765         6.93873
|101>    H       -3.01767        -9.32148         6.39620
|102>    H       -1.76031        -8.98620         5.21570
|103>    H       -1.45372       -13.63203         6.68243
|104>    H       -2.99139       -15.74518         9.76996
|105>    H       -5.58519       -18.67927         7.14187
|106>    H       -4.44488       -17.58885         9.77018
|107>    H       -5.62309       -18.97589         9.55630
|108> *
|109>
|110>                          ****END OF INPUT****

CARTESIAN COORDINATES (ANGSTROEM)
---------------------------------
  C     12.214850   -0.951800   -1.818440
  C     11.376760   -1.654590   -2.592630
  C     11.337490   -1.701840   -4.026340
  C     10.376040   -2.505260   -4.532110
  C      9.578010   -3.157170   -3.550720
  S     10.105510   -2.703180   -1.942320
  C      8.533460   -4.024710   -3.762450
  C      8.015720   -4.475750   -5.001510
  C      6.973130   -5.334930   -4.874750
  C      6.596310   -5.621610   -3.532050
  S      7.631990   -4.731940   -2.434300
  C      5.587710   -6.494800   -3.214780
  C      5.064630   -6.916850   -1.979440
  S      3.865830   -8.188630   -2.012310
  C      3.701790   -8.191060   -0.281790
  C      4.556960   -7.252230    0.282630
  C      5.314410   -6.535690   -0.659470
  O      6.241280   -5.586200   -0.368210
  S      5.967620   -4.598530    0.946800
  C      6.030920   -5.914680    2.186610
  S      4.591900   -7.021010    2.030390
  C      2.820720   -9.050970    0.412610
  C      2.034840   -9.976850   -0.184100
  C      1.133410  -10.881470    0.467170
  C      0.498470  -11.893140   -0.295100
  O      0.806000  -11.937360   -1.617260
  C      0.176960  -12.898840   -2.431530
  C     -0.364960  -12.776880    0.321830
  C     -0.665360  -12.698010    1.686030
  C     -0.007170  -11.706510    2.452250
  C      0.858910  -10.825780    1.837120
  O     -0.286920  -11.693620    3.782590
  C      0.398610  -10.793670    4.634070
  C     -0.010440  -11.090140    6.079340
  C      0.853110  -10.292560    7.064300
  C      2.249090  -10.878020    7.246530
  C     -1.512080  -10.849580    6.302280
  C     -1.949330   -9.392180    6.205840
  C     -1.580200  -13.612160    2.313000
  S     -1.562400  -13.790520    4.043690
  C     -2.765780  -15.049170    4.016670
  C     -3.182010  -15.279980    2.714280
  C     -2.526340  -14.467980    1.767420
  S     -2.970330  -14.419090    0.058520
  C     -4.559600  -15.174010   -0.145230
  O     -5.168770  -14.895820   -1.140730
  C     -5.058410  -16.254920    0.781320
  O     -5.934790  -16.993950    0.420000
  S     -4.353570  -16.546480    2.369520
  C     -3.181700  -15.638370    5.230230
  S     -4.292740  -16.981520    5.357470
  C     -4.226440  -17.047240    7.096700
  C     -3.373280  -16.054870    7.565610
  C     -2.795930  -15.280710    6.515750
  N     -1.998900  -14.361280    7.110200
  N     -2.030860  -14.487360    8.448210
  C     -2.828790  -15.478140    8.746110
  C     -4.995030  -18.036670    7.782300
  C     -5.020520  -18.207720    9.105820
  H     12.973380   -0.327220   -2.256210
  H     12.157940   -0.987150   -0.746130
  H     12.033800   -1.129140   -4.612980
  H     10.204130   -2.657860   -5.582910
  H      8.427120   -4.158210   -5.942870
  H      6.451900   -5.784430   -5.701940
  H      5.107830   -6.962610   -4.066830
  H      6.951010   -6.481920    2.058570
  H      5.977520   -5.463410    3.172610
  H      2.828490   -8.922230    1.486860
  H      2.088630  -10.072440   -1.260080
  H      0.540330  -12.707430   -3.440110
  H     -0.912140  -12.793820   -2.411420
  H      0.450810  -13.916690   -2.136790
  H     -0.801320  -13.575280   -0.250040
  H      1.340530  -10.059070    2.419230
  H      0.146900   -9.759550    4.369690
  H      1.480540  -10.932870    4.519390
  H      0.181360  -12.157000    6.244820
  H      0.351480  -10.287470    8.033600
  H      0.936340   -9.259060    6.724050
  H      2.188270  -11.904420    7.600870
  H      2.804750  -10.297300    7.978710
  H      2.809910  -10.868580    6.315360
  H     -1.774530  -11.226580    7.293740
  H     -2.065710  -11.430860    5.562480
  H     -1.434240   -8.777650    6.938730
  H     -3.017670   -9.321480    6.396200
  H     -1.760310   -8.986200    5.215700
  H     -1.453720  -13.632030    6.682430
  H     -2.991390  -15.745180    9.769960
  H     -5.585190  -18.679270    7.141870
  H     -4.444880  -17.588850    9.770180
  H     -5.623090  -18.975890    9.556300

 Total Charge           Charge          ....    0
 Multiplicity           Mult            ....    1
 Number of Electrons    NEL             ....  490
 Basis Dimension        Dim             .... 1032

ORBITAL ENERGIES
----------------

  NO   OCC          E(Eh)            E(eV)
   0   2.0000     -88.976174     -2421.1648
   1   2.0000     -88.966441     -2420.8999
   2   2.0000     -88.966434     -2420.8998
   3   2.0000     -88.961974     -2420.7784
   4   2.0000     -88.961327     -2420.7608
   5   2.0000     -88.951456     -2420.4922
   6   2.0000     -88.939724     -2420.1729
   7   2.0000     -88.930869     -2419.9320
   8   2.0000     -88.929093     -2419.8837
   9   2.0000     -19.270339      -524.3726
  10   2.0000     -19.259545      -524.0789
  11   2.0000     -19.246026      -523.7110
  12   2.0000     -19.238301      -523.5008
  13   2.0000     -19.233074      -523.3585
  14   2.0000     -14.479391      -394.0043
  15   2.0000     -14.436638      -392.8409
  16   2.0000     -10.399510      -282.9850
  17   2.0000     -10.397242      -282.9233
  18   2.0000     -10.338443      -281.3233
  19   2.0000     -10.337546      -281.2989
  20   2.0000     -10.333374      -281.1854
  21   2.0000     -10.331608      -281.1373
  22   2.0000     -10.330608      -281.1101
  23   2.0000     -10.322495      -280.8894
  24   2.0000     -10.321557      -280.8638
  25   2.0000     -10.317969      -280.7662
  26   2.0000     -10.316483      -280.7258
  27   2.0000     -10.315650      -280.7031
  28   2.0000     -10.315190      -280.6906
  29   2.0000     -10.310905      -280.5740
  30   2.0000     -10.309228      -280.5284
  31   2.0000     -10.304797      -280.4078
  32   2.0000     -10.301867      -280.3280
  33   2.0000     -10.301189      -280.3096
  34   2.0000     -10.300722      -280.2969
  35   2.0000     -10.299262      -280.2572
  36   2.0000     -10.298147      -280.2268
  37   2.0000     -10.295281      -280.1488
  38   2.0000     -10.294869      -280.1376
  39   2.0000     -10.294478      -280.1270
  40   2.0000     -10.284198      -279.8473
  41   2.0000     -10.281825      -279.7827
  42   2.0000     -10.281457      -279.7727
  43   2.0000     -10.280104      -279.7359
  44   2.0000     -10.279169      -279.7104
  45   2.0000     -10.277645      -279.6689
  46   2.0000     -10.277430      -279.6631
  47   2.0000     -10.277287      -279.6592
  48   2.0000     -10.275861      -279.6204
  49   2.0000     -10.275532      -279.6114
  50   2.0000     -10.275421      -279.6084
  51   2.0000     -10.274674      -279.5881
  52   2.0000     -10.270742      -279.4811
  53   2.0000     -10.269631      -279.4509
  54   2.0000     -10.267808      -279.4013
  55   2.0000     -10.261480      -279.2291
  56   2.0000     -10.261177      -279.2208
  57   2.0000     -10.259111      -279.1646
  58   2.0000     -10.255016      -279.0532
  59   2.0000      -8.068006      -219.5416
  60   2.0000      -8.060570      -219.3393
  61   2.0000      -8.059976      -219.3231
  62   2.0000      -8.058168      -219.2739
  63   2.0000      -8.057869      -219.2658
  64   2.0000      -8.046803      -218.9646
  65   2.0000      -8.034965      -218.6425
  66   2.0000      -8.026391      -218.4092
  67   2.0000      -8.025771      -218.3923
  68   2.0000      -6.041863      -164.4074
  69   2.0000      -6.034372      -164.2036
  70   2.0000      -6.029965      -164.0837
  71   2.0000      -6.029686      -164.0761
  72   2.0000      -6.028085      -164.0325
  73   2.0000      -6.027659      -164.0209
  74   2.0000      -6.025573      -163.9642
  75   2.0000      -6.025180      -163.9535
  76   2.0000      -6.024389      -163.9320
  77   2.0000      -6.023508      -163.9080
  78   2.0000      -6.023165      -163.8987
  79   2.0000      -6.022911      -163.8917
  80   2.0000      -6.021773      -163.8608
  81   2.0000      -6.018957      -163.7841
  82   2.0000      -6.018778      -163.7793
  83   2.0000      -6.016102      -163.7064
  84   2.0000      -6.012430      -163.6065
  85   2.0000      -6.008453      -163.4983
  86   2.0000      -6.005419      -163.4158
  87   2.0000      -6.001522      -163.3097
  88   2.0000      -5.996245      -163.1661
  89   2.0000      -5.995588      -163.1482
  90   2.0000      -5.994393      -163.1157
  91   2.0000      -5.992055      -163.0521
  92   2.0000      -5.991694      -163.0423
  93   2.0000      -5.987159      -162.9189
  94   2.0000      -5.986318      -162.8960
  95   2.0000      -1.172351       -31.9013
  96   2.0000      -1.168401       -31.7938
  97   2.0000      -1.165134       -31.7049
  98   2.0000      -1.151128       -31.3238
  99   2.0000      -1.141532       -31.0627
 100   2.0000      -1.140573       -31.0366
 101   2.0000      -1.012323       -27.5467
 102   2.0000      -0.987644       -26.8752
 103   2.0000      -0.982491       -26.7349
 104   2.0000      -0.981343       -26.7037
 105   2.0000      -0.959777       -26.1169
 106   2.0000      -0.958503       -26.0822
 107   2.0000      -0.929487       -25.2926
 108   2.0000      -0.927577       -25.2406
 109   2.0000      -0.921855       -25.0849
 110   2.0000      -0.915932       -24.9238
 111   2.0000      -0.908214       -24.7138
 112   2.0000      -0.894232       -24.3333
 113   2.0000      -0.881846       -23.9963
 114   2.0000      -0.878635       -23.9089
 115   2.0000      -0.864592       -23.5267
 116   2.0000      -0.863056       -23.4850
 117   2.0000      -0.849867       -23.1260
 118   2.0000      -0.846662       -23.0388
 119   2.0000      -0.841710       -22.9041
 120   2.0000      -0.839404       -22.8414
 121   2.0000      -0.835013       -22.7219
 122   2.0000      -0.830591       -22.6015
 123   2.0000      -0.825296       -22.4575
 124   2.0000      -0.812661       -22.1136
 125   2.0000      -0.810760       -22.0619
 126   2.0000      -0.802326       -21.8324
 127   2.0000      -0.784030       -21.3346
 128   2.0000      -0.775901       -21.1133
 129   2.0000      -0.769507       -20.9394
 130   2.0000      -0.764175       -20.7943
 131   2.0000      -0.749110       -20.3843
 132   2.0000      -0.743082       -20.2203
 133   2.0000      -0.737150       -20.0589
 134   2.0000      -0.729919       -19.8621
 135   2.0000      -0.712181       -19.3794
 136   2.0000      -0.703510       -19.1435
 137   2.0000      -0.702740       -19.1225
 138   2.0000      -0.700517       -19.0620
 139   2.0000      -0.695609       -18.9285
 140   2.0000      -0.685119       -18.6430
 141   2.0000      -0.683941       -18.6110
 142   2.0000      -0.663225       -18.0473
 143   2.0000      -0.661804       -18.0086
 144   2.0000      -0.650793       -17.7090
 145   2.0000      -0.641859       -17.4659
 146   2.0000      -0.639763       -17.4088
 147   2.0000      -0.634649       -17.2697
 148   2.0000      -0.627562       -17.0768
 149   2.0000      -0.620184       -16.8761
 150   2.0000      -0.618534       -16.8312
 151   2.0000      -0.612846       -16.6764
 152   2.0000      -0.608862       -16.5680
 153   2.0000      -0.607327       -16.5262
 154   2.0000      -0.601853       -16.3773
 155   2.0000      -0.591402       -16.0929
 156   2.0000      -0.589825       -16.0499
 157   2.0000      -0.586592       -15.9620
 158   2.0000      -0.579551       -15.7704
 159   2.0000      -0.571980       -15.5644
 160   2.0000      -0.567351       -15.4384
 161   2.0000      -0.563143       -15.3239
 162   2.0000      -0.556724       -15.1492
 163   2.0000      -0.554510       -15.0890
 164   2.0000      -0.550865       -14.9898
 165   2.0000      -0.548772       -14.9329
 166   2.0000      -0.546793       -14.8790
 167   2.0000      -0.545436       -14.8421
 168   2.0000      -0.543280       -14.7834
 169   2.0000      -0.540531       -14.7086
 170   2.0000      -0.532707       -14.4957
 171   2.0000      -0.531196       -14.4546
 172   2.0000      -0.528387       -14.3781
 173   2.0000      -0.526716       -14.3327
 174   2.0000      -0.522737       -14.2244
 175   2.0000      -0.520183       -14.1549
 176   2.0000      -0.518836       -14.1182
 177   2.0000      -0.518322       -14.1042
 178   2.0000      -0.512850       -13.9554
 179   2.0000      -0.509935       -13.8760
 180   2.0000      -0.504515       -13.7285
 181   2.0000      -0.501430       -13.6446
 182   2.0000      -0.499074       -13.5805
 183   2.0000      -0.497771       -13.5450
 184   2.0000      -0.493054       -13.4167
 185   2.0000      -0.490614       -13.3503
 186   2.0000      -0.485658       -13.2154
 187   2.0000      -0.484515       -13.1843
 188   2.0000      -0.481751       -13.1091
 189   2.0000      -0.478600       -13.0234
 190   2.0000      -0.475877       -12.9493
 191   2.0000      -0.474324       -12.9070
 192   2.0000      -0.472780       -12.8650
 193   2.0000      -0.469674       -12.7805
 194   2.0000      -0.467685       -12.7263
 195   2.0000      -0.463333       -12.6079
 196   2.0000      -0.461857       -12.5678
 197   2.0000      -0.458737       -12.4829
 198   2.0000      -0.457202       -12.4411
 199   2.0000      -0.452943       -12.3252
 200   2.0000      -0.451595       -12.2885
 201   2.0000      -0.447949       -12.1893
 202   2.0000      -0.446727       -12.1561
 203   2.0000      -0.442983       -12.0542
 204   2.0000      -0.438047       -11.9199
 205   2.0000      -0.436866       -11.8877
 206   2.0000      -0.435960       -11.8631
 207   2.0000      -0.433888       -11.8067
 208   2.0000      -0.426052       -11.5935
 209   2.0000      -0.420900       -11.4533
 210   2.0000      -0.419898       -11.4260
 211   2.0000      -0.419577       -11.4173
 212   2.0000      -0.414764       -11.2863
 213   2.0000      -0.411467       -11.1966
 214   2.0000      -0.408456       -11.1146
 215   2.0000      -0.406447       -11.0600
 216   2.0000      -0.404821       -11.0157
 217   2.0000      -0.402790       -10.9605
 218   2.0000      -0.399570       -10.8728
 219   2.0000      -0.392955       -10.6928
 220   2.0000      -0.392252       -10.6737
 221   2.0000      -0.388871       -10.5817
 222   2.0000      -0.386651       -10.5213
 223   2.0000      -0.381513       -10.3815
 224   2.0000      -0.380301       -10.3485
 225   2.0000      -0.375216       -10.2101
 226   2.0000      -0.370284       -10.0759
 227   2.0000      -0.364921        -9.9300
 228   2.0000      -0.362920        -9.8755
 229   2.0000      -0.357730        -9.7343
 230   2.0000      -0.344592        -9.3768
 231   2.0000      -0.337636        -9.1876
 232   2.0000      -0.331839        -9.0298
 233   2.0000      -0.327929        -8.9234
 234   2.0000      -0.322331        -8.7711
 235   2.0000      -0.315072        -8.5736
 236   2.0000      -0.311172        -8.4674
 237   2.0000      -0.309636        -8.4256
 238   2.0000      -0.301832        -8.2133
 239   2.0000      -0.296273        -8.0620
 240   2.0000      -0.280887        -7.6433
 241   2.0000      -0.278236        -7.5712
 242   2.0000      -0.255605        -6.9554
 243   2.0000      -0.228898        -6.2286
 244   2.0000      -0.201021        -5.4701
 245   0.0000      -0.071053        -1.9334
 246   0.0000      -0.056900        -1.5483
 247   0.0000      -0.045253        -1.2314
 248   0.0000      -0.027249        -0.7415
 249   0.0000       0.005283         0.1438

MULLIKEN ATOMIC CHARGES
-----------------------
   0 C :   -0.036439
   1 C :   -0.061392
   2 C :    0.046809
   3 C :    0.031857
   4 C :   -0.077747
   5 S :    0.074940
   6 C :   -0.040657
   7 C :    0.034274
   8 C :    0.025264
   9 C :   -0.015935
  10 S :    0.097969
  11 C :    0.000772
  12 C :   -0.146133
  13 S :    0.123591
  14 C :   -0.109595
  15 C :   -0.044868
  16 C :    0.237002
  17 O :   -0.418942
  18 S :    0.259438
  19 C :   -0.136531
  20 S :    0.014581
  21 C :    0.014874
  22 C :   -0.014704
  23 C :    0.058388
  24 C :    0.228124
  25 O :   -0.316113
  26 C :    0.177559
  27 C :   -0.187089
  28 C :    0.095688
  29 C :    0.225089
  30 C :   -0.158204
  31 O :   -0.351591
  32 C :    0.214481
  33 C :   -0.109286
  34 C :   -0.008217
  35 C :    0.021004
  36 C :   -0.009646
  37 C :    0.005054
  38 C :   -0.099878
  39 S :    0.125914
  40 C :   -0.058012
  41 C :   -0.081780
  42 C :   -0.027805
  43 S :    0.040471
  44 C :    0.084239
  45 O :   -0.127968
  46 C :    0.091611
  47 O :   -0.140655
  48 S :    0.074319
  49 C :   -0.191697
  50 S :    0.151008
  51 C :   -0.126487
  52 C :    0.018346
  53 C :    0.116402
  54 N :   -0.056663
  55 N :   -0.057693
  56 C :   -0.014806
  57 C :    0.045007
  58 C :   -0.020019
  59 H :    0.016777
  60 H :    0.018880
  61 H :   -0.014565
  62 H :   -0.014320
  63 H :   -0.018716
  64 H :   -0.016805
  65 H :   -0.020645
  66 H :    0.111477
  67 H :    0.089661
  68 H :   -0.006562
  69 H :   -0.004294
  70 H :    0.037808
  71 H :    0.031383
  72 H :    0.026696
  73 H :   -0.020389
  74 H :   -0.038388
  75 H :    0.017201
  76 H :    0.017281
  77 H :   -0.007683
  78 H :    0.012182
  79 H :    0.008015
  80 H :    0.015972
  81 H :    0.015792
  82 H :    0.008902
  83 H :    0.015290
  84 H :    0.014685
  85 H :    0.013542
  86 H :    0.018530
  87 H :    0.013210
  88 H :    0.140682
  89 H :    0.000387
  90 H :   -0.010673
  91 H :    0.011021
  92 H :    0.030148
Sum of atomic charges:   -0.0000000

LOEWDIN ATOMIC CHARGES
----------------------
   0 C :   -0.084725
   1 C :   -0.138653
   2 C :   -0.036550
   3 C :   -0.026467
   4 C :   -0.181432
   5 S :    0.347341
   6 C :   -0.185548
   7 C :   -0.034877
   8 C :   -0.034628
   9 C :   -0.144180
  10 S :    0.389677
  11 C :   -0.087251
  12 C :   -0.186208
  13 S :    0.440279
  14 C :   -0.191371
  15 C :   -0.215298
  16 C :   -0.037618
  17 O :   -0.243272
  18 S :    0.386711
  19 C :   -0.258518
  20 S :    0.281765
  21 C :   -0.043471
  22 C :   -0.021129
  23 C :   -0.036243
  24 C :    0.053194
  25 O :   -0.101235
  26 C :    0.077598
  27 C :   -0.067458
  28 C :   -0.059269
  29 C :    0.046064
  30 C :   -0.054442
  31 O :   -0.109182
  32 C :    0.092677
  33 C :   -0.042608
  34 C :   -0.030149
  35 C :   -0.055499
  36 C :   -0.042280
  37 C :   -0.055875
  38 C :   -0.178444
  39 S :    0.483709
  40 C :   -0.197696
  41 C :   -0.242981
  42 C :   -0.213822
  43 S :    0.379274
  44 C :   -0.109454
  45 O :   -0.100034
  46 C :   -0.115548
  47 O :   -0.110554
  48 S :    0.379149
  49 C :   -0.243733
  50 S :    0.467891
  51 C :   -0.168517
  52 C :   -0.092098
  53 C :   -0.019140
  54 N :    0.084196
  55 N :   -0.053097
  56 C :   -0.038553
  57 C :   -0.041884
  58 C :   -0.037730
  59 H :    0.027024
  60 H :    0.024654
  61 H :    0.031850
  62 H :    0.031220
  63 H :    0.029005
  64 H :    0.030874
  65 H :    0.032423
  66 H :    0.028953
  67 H :    0.034441
  68 H :    0.021534
  69 H :    0.024384
  70 H :    0.030182
  71 H :    0.018560
  72 H :    0.016492
  73 H :    0.011860
  74 H :    0.028471
  75 H :    0.013441
  76 H :    0.014657
  77 H :    0.015008
  78 H :    0.026935
  79 H :    0.020313
  80 H :    0.024811
  81 H :    0.026919
  82 H :    0.018839
  83 H :    0.021863
  84 H :    0.011927
  85 H :    0.021466
  86 H :    0.029613
  87 H :    0.020764
  88 H :    0.068010
  89 H :    0.021039
  90 H :    0.030758
  91 H :    0.022348
  92 H :    0.028561

  Mayer bond orders larger than 0.100000
B(  0-C ,  1-C ) :   1.8610 B(  0-C , 59-H ) :   0.9507 B(  0-C , 60-H ) :   0.9417
B(  1-C ,  2-C ) :   1.0812 B(  1-C ,  5-S ) :   1.0080 B(  2-C ,  3-C ) :   1.6587
B(  2-C , 61-H ) :   0.9927 B(  3-C ,  4-C ) :   1.1541 B(  3-C , 62-H ) :   0.9914
B(  4-C ,  5-S ) :   1.0407 B(  4-C ,  6-C ) :   1.5568 B(  6-C ,  7-C ) :   1.1645
B(  6-C , 10-S ) :   1.0171 B(  7-C ,  8-C ) :   1.6068 B(  7-C , 63-H ) :   0.9930
B(  8-C ,  9-C ) :   1.1308 B(  8-C , 64-H ) :   1.0001 B(  9-C , 10-S ) :   1.0439
B(  9-C , 11-C ) :   1.6137 B( 11-C , 12-C ) :   1.1583 B( 11-C , 65-H ) :   0.9373
B( 12-C , 13-S ) :   1.1106 B( 12-C , 14-C ) :   0.1090 B( 12-C , 16-C ) :   1.4760
B( 13-S , 14-C ) :   1.0997 B( 14-C , 15-C ) :   1.5057 B( 14-C , 21-C ) :   1.1853
B( 15-C , 16-C ) :   1.2737 B( 15-C , 20-S ) :   0.9905 B( 16-C , 17-O ) :   1.0400
B( 17-O , 18-S ) :   0.8749 B( 18-S , 19-C ) :   0.9927 B( 19-C , 20-S ) :   0.9806
B( 19-C , 66-H ) :   0.9383 B( 19-C , 67-H ) :   0.9506 B( 21-C , 22-C ) :   1.6379
B( 21-C , 68-H ) :   0.9528 B( 22-C , 23-C ) :   1.1291 B( 22-C , 69-H ) :   0.9757
B( 23-C , 24-C ) :   1.3144 B( 23-C , 30-C ) :   1.2885 B( 24-C , 25-O ) :   1.1576
B( 24-C , 27-C ) :   1.3374 B( 25-O , 26-C ) :   0.9587 B( 26-C , 70-H ) :   0.9770
B( 26-C , 71-H ) :   0.9680 B( 26-C , 72-H ) :   0.9675 B( 27-C , 28-C ) :   1.2917
B( 27-C , 73-H ) :   0.9725 B( 28-C , 29-C ) :   1.3184 B( 28-C , 38-C ) :   1.1000
B( 29-C , 30-C ) :   1.3308 B( 29-C , 31-O ) :   1.0943 B( 30-C , 74-H ) :   0.9953
B( 31-O , 32-C ) :   0.9342 B( 32-C , 33-C ) :   1.0200 B( 32-C , 75-H ) :   0.9413
B( 32-C , 76-H ) :   0.9473 B( 33-C , 34-C ) :   1.0380 B( 33-C , 36-C ) :   1.0655
B( 33-C , 77-H ) :   0.9177 B( 34-C , 35-C ) :   1.1015 B( 34-C , 78-H ) :   0.9459
B( 34-C , 79-H ) :   0.9427 B( 35-C , 80-H ) :   0.9689 B( 35-C , 81-H ) :   0.9644
B( 35-C , 82-H ) :   0.9678 B( 36-C , 37-C ) :   1.0935 B( 36-C , 83-H ) :   0.9385
B( 36-C , 84-H ) :   0.9395 B( 37-C , 85-H ) :   0.9681 B( 37-C , 86-H ) :   0.9635
B( 37-C , 87-H ) :   0.9708 B( 38-C , 39-S ) :   1.1200 B( 38-C , 40-C ) :   0.1026
B( 38-C , 42-C ) :   1.5785 B( 39-S , 40-C ) :   1.0889 B( 40-C , 41-C ) :   1.5503
B( 40-C , 49-C ) :   1.1971 B( 41-C , 42-C ) :   1.2813 B( 41-C , 48-S ) :   0.9646
B( 42-C , 43-S ) :   0.9585 B( 43-S , 44-C ) :   1.0485 B( 43-S , 45-O ) :   0.1319
B( 44-C , 45-O ) :   2.1658 B( 44-C , 46-C ) :   0.7693 B( 46-C , 47-O ) :   2.1464
B( 46-C , 48-S ) :   1.0625 B( 47-O , 48-S ) :   0.1385 B( 49-C , 50-S ) :   1.0975
B( 49-C , 51-C ) :   0.1185 B( 49-C , 53-C ) :   1.3974 B( 50-S , 51-C ) :   1.1527
B( 51-C , 52-C ) :   1.3426 B( 51-C , 57-C ) :   1.1308 B( 52-C , 53-C ) :   1.2597
B( 52-C , 56-C ) :   1.1425 B( 53-C , 54-N ) :   1.1594 B( 54-N , 55-N ) :   1.1276
B( 54-N , 88-H ) :   0.9341 B( 55-N , 56-C ) :   1.7495 B( 56-C , 89-H ) :   0.9977
B( 57-C , 58-C ) :   1.9152 B( 57-C , 90-H ) :   0.9506 B( 58-C , 91-H ) :   0.9552
B( 58-C , 92-H ) :   0.9477

-----------------------------------------------------------------------------
         ABSORPTION SPECTRUM VIA TRANSITION ELECTRIC DIPOLE MOMENTS
-----------------------------------------------------------------------------
State   Energy  Wavelength   fosc         T2         TX        TY        TZ
        (cm-1)    (nm)                  (au**2)     (au)      (au)      (au)
-----------------------------------------------------------------------------
   0   15368.3    650.7   2.383876708  51.06629   4.97313   4.61540  -2.24330
   1   19870.4    503.3   0.094670902   1.56851   0.14089  -0.25838   1.21733
   2   22186.3    450.7   0.144067395   2.13775   0.85104   0.88159  -0.79767
   3   22370.7    447.0   0.325072099   4.78384  -0.62015  -1.15882   1.74825
   4   24915.9    401.3   0.048002618   0.63425  -0.08219   0.12758  -0.78181
   5   25927.2    385.7   0.099593287   1.26459  -0.11617  -0.25054   1.09010
   6   27074.3    369.4   0.046359530   0.56371  -0.06006  -0.07265   0.74487
   7   28343.0    352.8   0.045632714   0.53004  -0.47978  -0.44792  -0.31499
   8   28690.2    348.6   0.036481266   0.41861  -0.47223  -0.43341   0.08809
   9   29175.6    342.8   0.050996187   0.57543  -0.27327  -0.56811   0.42191
  10   29438.1    339.7   0.043444489   0.48585   0.55091   0.40783   0.12657
  11   30203.7    331.1   0.251447677   2.74071  -0.36967  -0.32668  -1.58030
  12   31037.2    322.2   0.254154569   2.69582  -0.82064  -0.56129  -1.30664
  13   31734.6    315.1   0.010399939   0.10789   0.32817  -0.00844   0.01102
  14   32879.5    304.1   0.003768381   0.03773  -0.12019  -0.06083  -0.13995
  15   33569.6    297.9   0.145214337   1.42409   0.76046   0.55658   0.73213
  16   33643.1    297.2   0.067529465   0.66080   0.59580   0.28168   0.47590
  17   33968.7    294.4   0.052189546   0.50580  -0.45930  -0.28374   0.46296
  18   35331.2    283.0   0.012533092   0.11678  -0.30817  -0.12680  -0.07572
  19   35550.0    281.3   0.045722203   0.42341  -0.00049   0.15060  -0.63303
  20   35724.1    279.9   0.033672510   0.31031   0.13987   0.30945   0.44157
  21   35795.9    279.4   0.004665544   0.04291  -0.02157  -0.07082  -0.19346
  22   36019.5    277.6   0.003181568   0.02908   0.12766   0.11306  -0.00028
  23   36505.0    273.9   0.010349284   0.09333  -0.11983  -0.14418  -0.24121
  24   36856.8    271.3   0.003114761   0.02782   0.15918   0.04028   0.02933
  25   37015.7    270.2   0.002568530   0.02284  -0.01428   0.00970  -0.15015
  26   37313.9    268.0   0.001015743   0.00896  -0.04216  -0.06701  -0.05190
  27   37494.0    266.7   0.035309477   0.31003   0.32105   0.44816   0.07815
  28   38085.7    262.6   0.027815569   0.24044   0.14942   0.28763   0.36794
  29   39108.3    255.7   0.002497501   0.02102  -0.09223   0.09081   0.06536
  30   39152.0    255.4   0.099891857   0.83995   0.64500   0.61581   0.21144
  31   39482.4    253.3   0.083926388   0.69979   0.55899   0.61307  -0.10709
  32   39733.4    251.7   0.200923895   1.66476  -0.85190  -0.87462  -0.41721
  33   39757.1    251.5   0.006642185   0.05500   0.02537  -0.02747   0.23152
  34   39928.1    250.5   0.046862763   0.38639  -0.41899  -0.38378  -0.25208

FINAL SINGLE POINT ENERGY     -5724.454266045172

DIPOLE MOMENT
-------------
                                X             Y             Z
Electronic contribution:    -11.11673     -16.42543     -42.27278
Nuclear contribution   :     12.96684      17.49196      43.21011
                        -----------------------------------------
Total Dipole Moment    :      1.85011       1.06653       0.93733
                        -----------------------------------------
Magnitude (a.u.)       :      2.33216
Magnitude (Debye)      :      5.92788

Rotational constants in cm-1:     0.002469     0.000316     0.000285
Rotational constants in MHz :    74.031395     9.484304     8.535008

                             ****ORCA TERMINATED NORMALLY****
TOTAL RUN TIME: 0 days 0 hours 8 minutes 0 seconds 641 msec
