                         Program Version 4.2.0 -  RELEASE  -
|  1> # ORCA input file
|  2> # SCF done       -178.804835650455          0.000475716636
|  3> ! CAM-B3LYP def2-SVP def2/J RIJCOSX Grid4 TightSCF
|  4> %maxcore 5000
|  5> %tddft
|  6>     Mode sTDDFT
|  7>     Ethresh 5.0
|  8>     maxcore 5000
|  9> end
| 10>
| 11> %pal
| 12>   nprocs 6
| 13>   end
| 14> * xyz 0 1
| 15>    C        4.36560        -2.71280        10.76219
| 16>    C        5.16637        -2.74190         9.68998
| 17>    C        6.40852        -2.04374         9.50243
| 18>    C        6.99523        -2.26292         8.30812
| 19>    C        6.27114        -3.14998         7.45476
| 20>    S        4.80837        -3.69480         8.23968
| 21>    C        6.61866        -3.54942         6.18889
| 22>    C        7.76054        -3.17344         5.43434
| 23>    C        7.81484        -3.73118         4.20106
| 24>    C        6.71576        -4.58976         3.89446
| 25>    S        5.61921        -4.65847         5.26355
| 26>    C        6.51636        -5.18963         2.68355
| 27>    C        5.42133        -6.00877         2.28656
| 28>    C        4.54727        -6.88580         2.92513
| 29>    C        4.55906        -7.48407         4.26400
| 30>    O        3.58419        -7.94965         4.79102
| 31>    O        5.76352        -7.55352         4.86836
| 32>    C        3.64299        -7.27491         1.88062
| 33>    N        3.99131        -6.70231         0.74632
| 34>    O        5.07195        -5.93475         0.98273
| 35>    C        2.52405        -8.15345         1.96802
| 36>    C        1.73611        -8.41892         0.89361
| 37>    C        0.58007        -9.25681         0.86462
| 38>    C       -0.02542        -9.31321        -0.34467
| 39>    C        0.61996        -8.52754        -1.34179
| 40>    S        2.02766        -7.72104        -0.68931
| 41>    C        0.22649        -8.36421        -2.65281
| 42>    C       -0.88133        -8.94544        -3.31818
| 43>    C       -1.01022        -8.53594        -4.60619
| 44>    C        0.00344        -7.63338        -5.03956
| 45>    S        1.11917        -7.32534        -3.74621
| 46>    C       -0.00619        -7.01943        -6.27466
| 47>    C        0.91643        -6.15044        -6.86365
| 48>    O        0.45173        -5.37338        -7.86636
| 49>    C        1.45379        -4.55484        -8.28478
| 50>    C        2.60044        -4.81449        -7.56338
| 51>    C        2.29256        -5.85489        -6.65795
| 52>    C        3.20917        -6.59540        -5.85112
| 53>    O        2.99025        -7.66675        -5.31043
| 54>    C        4.60868        -5.95140        -5.69688
| 55>    F        4.53726        -4.66989        -5.29072
| 56>    F        5.36142        -6.60029        -4.81241
| 57>    F        5.29075        -5.93786        -6.85930
| 58>    C        1.22645        -3.60822        -9.31208
| 59>    C        0.02968        -3.45248        -9.94230
| 60>    C       -0.16013        -2.48035       -10.94564
| 61>    C       -1.33485        -2.26289       -11.61467
| 62>    C       -1.57820        -1.26956       -12.64201
| 63>    C       -0.69561        -0.33004       -13.11286
| 64>    C       -1.00427         0.61536       -14.11291
| 65>    N       -1.19076         1.41054       -14.92015
| 66>    C        0.63349        -0.15413       -12.67545
| 67>    N        1.72201         0.06226       -12.37872
| 68>    C       -2.95801        -1.42517       -13.09304
| 69>    C       -3.56418        -2.47012       -12.35478
| 70>    C       -2.58443        -3.03204       -11.40306
| 71>    O       -2.78662        -3.93861       -10.62223
| 72>    C       -4.86860        -2.85495       -12.54586
| 73>    C       -5.61358        -2.17717       -13.51625
| 74>    C       -4.99944        -1.13670       -14.25264
| 75>    C       -3.68030        -0.74667       -14.05751
| 76>    S       -6.09681        -0.43456       -15.40310
| 77>    C       -7.34804        -1.53299       -14.88493
| 78>    C       -6.96667        -2.38230       -13.90181
| 79>   Br       -9.04011        -1.45438       -15.69025
| 80>    H        4.61897        -2.11850        11.62252
| 81>    H        3.45142        -3.27657        10.80000
| 82>    H        6.80259        -1.40913        10.27623
| 83>    H        7.92656        -1.82394         7.99785
| 84>    H        8.50072        -2.49888         5.82516
| 85>    H        8.59877        -3.56024         3.48512
| 86>    H        7.18594        -4.92089         1.87790
| 87>    H        6.47446        -7.17812         4.33265
| 88>    H        2.31345        -8.58590         2.93434
| 89>    H        0.25018        -9.77543         1.74728
| 90>    H       -0.90997        -9.88664        -0.55606
| 91>    H       -1.54166        -9.64108        -2.83295
| 92>    H       -1.79106        -8.85575        -5.27319
| 93>    H       -0.90304        -7.16207        -6.86597
| 94>    H        3.54580        -4.33008        -7.69756
| 95>    H        2.07113        -2.98606        -9.57540
| 96>    H       -0.80283        -4.08260        -9.66699
| 97>    H        0.69893        -1.86854       -11.18966
| 98>    H       -5.30035        -3.65455       -11.96455
| 99>    H       -3.26053         0.05175       -14.64585
|100>    H       -7.61096        -3.12343       -13.46523
|101> *
|102>
|103>                          ****END OF INPUT****

CARTESIAN COORDINATES (ANGSTROEM)
---------------------------------
  C      4.365600   -2.712800   10.762190
  C      5.166370   -2.741900    9.689980
  C      6.408520   -2.043740    9.502430
  C      6.995230   -2.262920    8.308120
  C      6.271140   -3.149980    7.454760
  S      4.808370   -3.694800    8.239680
  C      6.618660   -3.549420    6.188890
  C      7.760540   -3.173440    5.434340
  C      7.814840   -3.731180    4.201060
  C      6.715760   -4.589760    3.894460
  S      5.619210   -4.658470    5.263550
  C      6.516360   -5.189630    2.683550
  C      5.421330   -6.008770    2.286560
  C      4.547270   -6.885800    2.925130
  C      4.559060   -7.484070    4.264000
  O      3.584190   -7.949650    4.791020
  O      5.763520   -7.553520    4.868360
  C      3.642990   -7.274910    1.880620
  N      3.991310   -6.702310    0.746320
  O      5.071950   -5.934750    0.982730
  C      2.524050   -8.153450    1.968020
  C      1.736110   -8.418920    0.893610
  C      0.580070   -9.256810    0.864620
  C     -0.025420   -9.313210   -0.344670
  C      0.619960   -8.527540   -1.341790
  S      2.027660   -7.721040   -0.689310
  C      0.226490   -8.364210   -2.652810
  C     -0.881330   -8.945440   -3.318180
  C     -1.010220   -8.535940   -4.606190
  C      0.003440   -7.633380   -5.039560
  S      1.119170   -7.325340   -3.746210
  C     -0.006190   -7.019430   -6.274660
  C      0.916430   -6.150440   -6.863650
  O      0.451730   -5.373380   -7.866360
  C      1.453790   -4.554840   -8.284780
  C      2.600440   -4.814490   -7.563380
  C      2.292560   -5.854890   -6.657950
  C      3.209170   -6.595400   -5.851120
  O      2.990250   -7.666750   -5.310430
  C      4.608680   -5.951400   -5.696880
  F      4.537260   -4.669890   -5.290720
  F      5.361420   -6.600290   -4.812410
  F      5.290750   -5.937860   -6.859300
  C      1.226450   -3.608220   -9.312080
  C      0.029680   -3.452480   -9.942300
  C     -0.160130   -2.480350  -10.945640
  C     -1.334850   -2.262890  -11.614670
  C     -1.578200   -1.269560  -12.642010
  C     -0.695610   -0.330040  -13.112860
  C     -1.004270    0.615360  -14.112910
  N     -1.190760    1.410540  -14.920150
  C      0.633490   -0.154130  -12.675450
  N      1.722010    0.062260  -12.378720
  C     -2.958010   -1.425170  -13.093040
  C     -3.564180   -2.470120  -12.354780
  C     -2.584430   -3.032040  -11.403060
  O     -2.786620   -3.938610  -10.622230
  C     -4.868600   -2.854950  -12.545860
  C     -5.613580   -2.177170  -13.516250
  C     -4.999440   -1.136700  -14.252640
  C     -3.680300   -0.746670  -14.057510
  S     -6.096810   -0.434560  -15.403100
  C     -7.348040   -1.532990  -14.884930
  C     -6.966670   -2.382300  -13.901810
  Br    -9.040110   -1.454380  -15.690250
  H      4.618970   -2.118500   11.622520
  H      3.451420   -3.276570   10.800000
  H      6.802590   -1.409130   10.276230
  H      7.926560   -1.823940    7.997850
  H      8.500720   -2.498880    5.825160
  H      8.598770   -3.560240    3.485120
  H      7.185940   -4.920890    1.877900
  H      6.474460   -7.178120    4.332650
  H      2.313450   -8.585900    2.934340
  H      0.250180   -9.775430    1.747280
  H     -0.909970   -9.886640   -0.556060
  H     -1.541660   -9.641080   -2.832950
  H     -1.791060   -8.855750   -5.273190
  H     -0.903040   -7.162070   -6.865970
  H      3.545800   -4.330080   -7.697560
  H      2.071130   -2.986060   -9.575400
  H     -0.802830   -4.082600   -9.666990
  H      0.698930   -1.868540  -11.189660
  H     -5.300350   -3.654550  -11.964550
  H     -3.260530    0.051750  -14.645850
  H     -7.610960   -3.123430  -13.465230

 Total Charge           Charge          ....    0
 Multiplicity           Mult            ....    1
 Number of Electrons    NEL             ....  514
 Basis Dimension        Dim             .... 1053

ORBITAL ENERGIES
----------------

  NO   OCC          E(Eh)            E(eV)
   0   2.0000    -482.881316    -13139.8686
   1   2.0000     -88.969938     -2420.9951
   2   2.0000     -88.961486     -2420.7651
   3   2.0000     -88.956402     -2420.6268
   4   2.0000     -88.952533     -2420.5215
   5   2.0000     -88.946520     -2420.3579
   6   2.0000     -62.559054     -1702.3184
   7   2.0000     -56.393000     -1534.5315
   8   2.0000     -56.390291     -1534.4578
   9   2.0000     -56.390256     -1534.4569
  10   2.0000     -24.795555      -674.7214
  11   2.0000     -24.794641      -674.6965
  12   2.0000     -24.790775      -674.5913
  13   2.0000     -19.315585      -525.6038
  14   2.0000     -19.295706      -525.0629
  15   2.0000     -19.256259      -523.9894
  16   2.0000     -19.219726      -522.9953
  17   2.0000     -19.208000      -522.6763
  18   2.0000     -19.198177      -522.4089
  19   2.0000     -14.456746      -393.3881
  20   2.0000     -14.408614      -392.0783
  21   2.0000     -14.406822      -392.0296
  22   2.0000     -10.504905      -285.8530
  23   2.0000     -10.406807      -283.1836
  24   2.0000     -10.367292      -282.1084
  25   2.0000     -10.363481      -282.0047
  26   2.0000     -10.358617      -281.8723
  27   2.0000     -10.358118      -281.8587
  28   2.0000     -10.353842      -281.7424
  29   2.0000     -10.338502      -281.3249
  30   2.0000     -10.337613      -281.3007
  31   2.0000     -10.333819      -281.1975
  32   2.0000     -10.333291      -281.1831
  33   2.0000     -10.332569      -281.1635
  34   2.0000     -10.323239      -280.9096
  35   2.0000     -10.323173      -280.9078
  36   2.0000     -10.321402      -280.8596
  37   2.0000     -10.319442      -280.8063
  38   2.0000     -10.318992      -280.7940
  39   2.0000     -10.318835      -280.7898
  40   2.0000     -10.314481      -280.6713
  41   2.0000     -10.311975      -280.6031
  42   2.0000     -10.311920      -280.6016
  43   2.0000     -10.310358      -280.5591
  44   2.0000     -10.308354      -280.5046
  45   2.0000     -10.306562      -280.4558
  46   2.0000     -10.305393      -280.4240
  47   2.0000     -10.305081      -280.4155
  48   2.0000     -10.303673      -280.3772
  49   2.0000     -10.301639      -280.3218
  50   2.0000     -10.301099      -280.3072
  51   2.0000     -10.298974      -280.2493
  52   2.0000     -10.298703      -280.2420
  53   2.0000     -10.298332      -280.2319
  54   2.0000     -10.295183      -280.1462
  55   2.0000     -10.294386      -280.1245
  56   2.0000     -10.294276      -280.1215
  57   2.0000     -10.293512      -280.1007
  58   2.0000     -10.292831      -280.0822
  59   2.0000     -10.292800      -280.0813
  60   2.0000     -10.291801      -280.0541
  61   2.0000     -10.290262      -280.0123
  62   2.0000     -10.288523      -279.9650
  63   2.0000     -10.286892      -279.9206
  64   2.0000     -10.286770      -279.9172
  65   2.0000     -10.284721      -279.8615
  66   2.0000     -10.284426      -279.8535
  67   2.0000     -10.283480      -279.8277
  68   2.0000     -10.275900      -279.6215
  69   2.0000      -8.788498      -239.1472
  70   2.0000      -8.066018      -219.4875
  71   2.0000      -8.057518      -219.2562
  72   2.0000      -8.053191      -219.1385
  73   2.0000      -8.047918      -218.9950
  74   2.0000      -8.041733      -218.8267
  75   2.0000      -6.624796      -180.2699
  76   2.0000      -6.610229      -179.8735
  77   2.0000      -6.610045      -179.8685
  78   2.0000      -6.035702      -164.2398
  79   2.0000      -6.031447      -164.1240
  80   2.0000      -6.027313      -164.0115
  81   2.0000      -6.027208      -164.0087
  82   2.0000      -6.023191      -163.8994
  83   2.0000      -6.022977      -163.8935
  84   2.0000      -6.019041      -163.7864
  85   2.0000      -6.018303      -163.7663
  86   2.0000      -6.017416      -163.7422
  87   2.0000      -6.013731      -163.6419
  88   2.0000      -6.013203      -163.6276
  89   2.0000      -6.011614      -163.5843
  90   2.0000      -6.009397      -163.5240
  91   2.0000      -6.007173      -163.4635
  92   2.0000      -6.002622      -163.3396
  93   2.0000      -2.740620       -74.5761
  94   2.0000      -2.736608       -74.4669
  95   2.0000      -2.736450       -74.4626
  96   2.0000      -2.724879       -74.1477
  97   2.0000      -2.724855       -74.1471
  98   2.0000      -1.382834       -37.6288
  99   2.0000      -1.285536       -34.9812
 100   2.0000      -1.284933       -34.9648
 101   2.0000      -1.253783       -34.1172
 102   2.0000      -1.217051       -33.1176
 103   2.0000      -1.179877       -32.1061
 104   2.0000      -1.133180       -30.8354
 105   2.0000      -1.122428       -30.5428
 106   2.0000      -1.095761       -29.8172
 107   2.0000      -1.016060       -27.6484
 108   2.0000      -1.011169       -27.5153
 109   2.0000      -1.006506       -27.3884
 110   2.0000      -1.001954       -27.2645
 111   2.0000      -0.989054       -26.9135
 112   2.0000      -0.986627       -26.8475
 113   2.0000      -0.984578       -26.7917
 114   2.0000      -0.981860       -26.7178
 115   2.0000      -0.967182       -26.3183
 116   2.0000      -0.938506       -25.5381
 117   2.0000      -0.928626       -25.2692
 118   2.0000      -0.926261       -25.2048
 119   2.0000      -0.921048       -25.0630
 120   2.0000      -0.902124       -24.5480
 121   2.0000      -0.901071       -24.5194
 122   2.0000      -0.895641       -24.3716
 123   2.0000      -0.883880       -24.0516
 124   2.0000      -0.879516       -23.9329
 125   2.0000      -0.869309       -23.6551
 126   2.0000      -0.863918       -23.5084
 127   2.0000      -0.861686       -23.4477
 128   2.0000      -0.852987       -23.2110
 129   2.0000      -0.849908       -23.1272
 130   2.0000      -0.837397       -22.7867
 131   2.0000      -0.828897       -22.5554
 132   2.0000      -0.823340       -22.4042
 133   2.0000      -0.819402       -22.2971
 134   2.0000      -0.816851       -22.2277
 135   2.0000      -0.803695       -21.8697
 136   2.0000      -0.791201       -21.5297
 137   2.0000      -0.767797       -20.8928
 138   2.0000      -0.759025       -20.6541
 139   2.0000      -0.752418       -20.4743
 140   2.0000      -0.749249       -20.3881
 141   2.0000      -0.735425       -20.0119
 142   2.0000      -0.728941       -19.8355
 143   2.0000      -0.713318       -19.4104
 144   2.0000      -0.708389       -19.2762
 145   2.0000      -0.702834       -19.1251
 146   2.0000      -0.699923       -19.0459
 147   2.0000      -0.691695       -18.8220
 148   2.0000      -0.685021       -18.6404
 149   2.0000      -0.677715       -18.4416
 150   2.0000      -0.671720       -18.2784
 151   2.0000      -0.671397       -18.2696
 152   2.0000      -0.666337       -18.1319
 153   2.0000      -0.664459       -18.0809
 154   2.0000      -0.657590       -17.8939
 155   2.0000      -0.650199       -17.6928
 156   2.0000      -0.644746       -17.5444
 157   2.0000      -0.643959       -17.5230
 158   2.0000      -0.642085       -17.4720
 159   2.0000      -0.633435       -17.2366
 160   2.0000      -0.627769       -17.0824
 161   2.0000      -0.621263       -16.9054
 162   2.0000      -0.617685       -16.8081
 163   2.0000      -0.616292       -16.7701
 164   2.0000      -0.615808       -16.7570
 165   2.0000      -0.601672       -16.3723
 166   2.0000      -0.599081       -16.3018
 167   2.0000      -0.590771       -16.0757
 168   2.0000      -0.588828       -16.0228
 169   2.0000      -0.582423       -15.8485
 170   2.0000      -0.579960       -15.7815
 171   2.0000      -0.569552       -15.4983
 172   2.0000      -0.566752       -15.4221
 173   2.0000      -0.562305       -15.3011
 174   2.0000      -0.561705       -15.2848
 175   2.0000      -0.550942       -14.9919
 176   2.0000      -0.545082       -14.8324
 177   2.0000      -0.543381       -14.7861
 178   2.0000      -0.542322       -14.7573
 179   2.0000      -0.541390       -14.7320
 180   2.0000      -0.534753       -14.5514
 181   2.0000      -0.532408       -14.4875
 182   2.0000      -0.531718       -14.4688
 183   2.0000      -0.530891       -14.4463
 184   2.0000      -0.528647       -14.3852
 185   2.0000      -0.525784       -14.3073
 186   2.0000      -0.523940       -14.2571
 187   2.0000      -0.519129       -14.1262
 188   2.0000      -0.516830       -14.0637
 189   2.0000      -0.511873       -13.9288
 190   2.0000      -0.510840       -13.9007
 191   2.0000      -0.508701       -13.8425
 192   2.0000      -0.507801       -13.8180
 193   2.0000      -0.505042       -13.7429
 194   2.0000      -0.502749       -13.6805
 195   2.0000      -0.502606       -13.6766
 196   2.0000      -0.500601       -13.6220
 197   2.0000      -0.500255       -13.6126
 198   2.0000      -0.499584       -13.5944
 199   2.0000      -0.495793       -13.4912
 200   2.0000      -0.491460       -13.3733
 201   2.0000      -0.488392       -13.2898
 202   2.0000      -0.486930       -13.2500
 203   2.0000      -0.486263       -13.2319
 204   2.0000      -0.485402       -13.2085
 205   2.0000      -0.484012       -13.1706
 206   2.0000      -0.483458       -13.1555
 207   2.0000      -0.480194       -13.0667
 208   2.0000      -0.478856       -13.0303
 209   2.0000      -0.472980       -12.8704
 210   2.0000      -0.469353       -12.7717
 211   2.0000      -0.468562       -12.7502
 212   2.0000      -0.466078       -12.6826
 213   2.0000      -0.461376       -12.5547
 214   2.0000      -0.458035       -12.4638
 215   2.0000      -0.451369       -12.2824
 216   2.0000      -0.450248       -12.2519
 217   2.0000      -0.445580       -12.1249
 218   2.0000      -0.442391       -12.0381
 219   2.0000      -0.441800       -12.0220
 220   2.0000      -0.438050       -11.9200
 221   2.0000      -0.437245       -11.8980
 222   2.0000      -0.436338       -11.8734
 223   2.0000      -0.432691       -11.7741
 224   2.0000      -0.430305       -11.7092
 225   2.0000      -0.426961       -11.6182
 226   2.0000      -0.422845       -11.5062
 227   2.0000      -0.419359       -11.4113
 228   2.0000      -0.416142       -11.3238
 229   2.0000      -0.415740       -11.3129
 230   2.0000      -0.412559       -11.2263
 231   2.0000      -0.406191       -11.0530
 232   2.0000      -0.402745       -10.9592
 233   2.0000      -0.400089       -10.8870
 234   2.0000      -0.393249       -10.7009
 235   2.0000      -0.384499       -10.4628
 236   2.0000      -0.380268       -10.3476
 237   2.0000      -0.372847       -10.1457
 238   2.0000      -0.370846       -10.0912
 239   2.0000      -0.369782       -10.0623
 240   2.0000      -0.362527        -9.8649
 241   2.0000      -0.359485        -9.7821
 242   2.0000      -0.353832        -9.6283
 243   2.0000      -0.352088        -9.5808
 244   2.0000      -0.351645        -9.5688
 245   2.0000      -0.341149        -9.2831
 246   2.0000      -0.339840        -9.2475
 247   2.0000      -0.334167        -9.0931
 248   2.0000      -0.327333        -8.9072
 249   2.0000      -0.318001        -8.6532
 250   2.0000      -0.314598        -8.5606
 251   2.0000      -0.309525        -8.4226
 252   2.0000      -0.309175        -8.4131
 253   2.0000      -0.288268        -7.8442
 254   2.0000      -0.270169        -7.3517
 255   2.0000      -0.245360        -6.6766
 256   2.0000      -0.227749        -6.1974
 257   0.0000      -0.097295        -2.6475
 258   0.0000      -0.085460        -2.3255
 259   0.0000      -0.079822        -2.1721
 260   0.0000      -0.053100        -1.4449
 261   0.0000      -0.018730        -0.5097

MULLIKEN ATOMIC CHARGES
-----------------------
   0 C :   -0.012646
   1 C :   -0.073258
   2 C :    0.064053
   3 C :    0.029667
   4 C :   -0.054374
   5 S :    0.110589
   6 C :   -0.064910
   7 C :    0.049460
   8 C :    0.030326
   9 C :   -0.031108
  10 S :    0.113559
  11 C :   -0.111300
  12 C :    0.187929
  13 C :   -0.143153
  14 C :    0.155376
  15 O :   -0.176903
  16 O :   -0.161957
  17 C :   -0.008792
  18 N :   -0.037208
  19 O :   -0.161289
  20 C :   -0.015836
  21 C :   -0.002549
  22 C :    0.050125
  23 C :    0.031917
  24 C :   -0.024589
  25 S :    0.144474
  26 C :   -0.076267
  27 C :    0.047139
  28 C :    0.022888
  29 C :    0.001824
  30 S :    0.165259
  31 C :   -0.084615
  32 C :    0.186590
  33 O :   -0.199974
  34 C :    0.195403
  35 C :   -0.024501
  36 C :   -0.053281
  37 C :    0.006047
  38 O :   -0.174016
  39 C :    0.478405
  40 F :   -0.170749
  41 F :   -0.136738
  42 F :   -0.175580
  43 C :    0.006784
  44 C :   -0.002140
  45 C :   -0.035756
  46 C :   -0.066105
  47 C :    0.329356
  48 C :   -0.356734
  49 C :   -0.187451
  50 N :    0.142652
  51 C :   -0.188628
  52 N :    0.143125
  53 C :    0.011874
  54 C :   -0.010046
  55 C :    0.142585
  56 O :   -0.153847
  57 C :   -0.074483
  58 C :    0.119279
  59 C :   -0.089096
  60 C :   -0.023248
  61 S :    0.183802
  62 C :   -0.122304
  63 C :    0.035909
  64 Br:    0.019735
  65 H :    0.029631
  66 H :    0.033738
  67 H :   -0.001906
  68 H :   -0.005753
  69 H :   -0.005338
  70 H :   -0.002991
  71 H :    0.016260
  72 H :    0.181630
  73 H :    0.012433
  74 H :    0.000153
  75 H :   -0.009408
  76 H :   -0.010051
  77 H :   -0.007697
  78 H :    0.008477
  79 H :    0.009052
  80 H :    0.015908
  81 H :    0.033479
  82 H :    0.008143
  83 H :   -0.013102
  84 H :   -0.008424
  85 H :   -0.004931
Sum of atomic charges:   -0.0000000

LOEWDIN ATOMIC CHARGES
----------------------
   0 C :   -0.050649
   1 C :   -0.142078
   2 C :   -0.013132
   3 C :   -0.027929
   4 C :   -0.154160
   5 S :    0.375140
   6 C :   -0.192841
   7 C :   -0.011145
   8 C :   -0.043053
   9 C :   -0.124605
  10 S :    0.402331
  11 C :   -0.122231
  12 C :    0.052663
  13 C :   -0.159673
  14 C :    0.071488
  15 O :   -0.159775
  16 O :   -0.031314
  17 C :   -0.020404
  18 N :   -0.060708
  19 O :    0.032317
  20 C :   -0.053724
  21 C :   -0.125178
  22 C :   -0.010657
  23 C :   -0.030345
  24 C :   -0.155152
  25 S :    0.431921
  26 C :   -0.187004
  27 C :   -0.021832
  28 C :   -0.036607
  29 C :   -0.117572
  30 S :    0.471874
  31 C :   -0.100694
  32 C :    0.091849
  33 O :    0.015876
  34 C :    0.018501
  35 C :   -0.010717
  36 C :   -0.129633
  37 C :    0.004235
  38 O :   -0.142421
  39 C :    0.144637
  40 F :   -0.066059
  41 F :   -0.037219
  42 F :   -0.067397
  43 C :    0.018851
  44 C :   -0.034663
  45 C :    0.068107
  46 C :   -0.101248
  47 C :    0.076018
  48 C :   -0.145866
  49 C :   -0.017948
  50 N :   -0.059592
  51 C :   -0.020021
  52 N :   -0.057920
  53 C :   -0.020091
  54 C :   -0.049488
  55 C :    0.083838
  56 O :   -0.146947
  57 C :    0.019975
  58 C :   -0.033489
  59 C :   -0.144425
  60 C :   -0.010908
  61 S :    0.430272
  62 C :   -0.272631
  63 C :   -0.070716
  64 Br:    0.133924
  65 H :    0.033270
  66 H :    0.031950
  67 H :    0.037736
  68 H :    0.034613
  69 H :    0.035624
  70 H :    0.036583
  71 H :    0.046939
  72 H :    0.084383
  73 H :    0.043705
  74 H :    0.038830
  75 H :    0.032509
  76 H :    0.033332
  77 H :    0.034868
  78 H :    0.046528
  79 H :    0.036241
  80 H :    0.045326
  81 H :    0.035910
  82 H :    0.040969
  83 H :    0.039888
  84 H :    0.040599
  85 H :    0.038240

  Mayer bond orders larger than 0.100000
B(  0-C ,  1-C ) :   1.8728 B(  0-C , 65-H ) :   0.9512 B(  0-C , 66-H ) :   0.9410
B(  1-C ,  2-C ) :   1.0741 B(  1-C ,  5-S ) :   1.0033 B(  2-C ,  3-C ) :   1.6742
B(  2-C , 67-H ) :   0.9930 B(  3-C ,  4-C ) :   1.1387 B(  3-C , 68-H ) :   0.9927
B(  4-C ,  5-S ) :   1.0699 B(  4-C ,  6-C ) :   1.5651 B(  6-C ,  7-C ) :   1.1627
B(  6-C , 10-S ) :   1.0333 B(  7-C ,  8-C ) :   1.6219 B(  7-C , 69-H ) :   0.9925
B(  8-C ,  9-C ) :   1.1187 B(  8-C , 70-H ) :   1.0007 B(  9-C , 10-S ) :   1.0782
B(  9-C , 11-C ) :   1.5934 B( 11-C , 12-C ) :   1.1067 B( 11-C , 71-H ) :   0.9533
B( 12-C , 13-C ) :   1.4175 B( 12-C , 19-O ) :   1.1601 B( 13-C , 14-C ) :   0.9277
B( 13-C , 17-C ) :   1.1835 B( 14-C , 15-O ) :   2.1365 B( 14-C , 16-O ) :   1.2318
B( 16-O , 72-H ) :   0.9455 B( 17-C , 18-N ) :   1.6295 B( 17-C , 20-C ) :   1.1303
B( 18-N , 19-O ) :   1.0073 B( 20-C , 21-C ) :   1.6057 B( 20-C , 73-H ) :   0.9562
B( 21-C , 22-C ) :   1.1020 B( 21-C , 25-S ) :   1.0548 B( 22-C , 23-C ) :   1.6275
B( 22-C , 74-H ) :   1.0011 B( 23-C , 24-C ) :   1.1514 B( 23-C , 75-H ) :   0.9959
B( 24-C , 25-S ) :   1.0330 B( 24-C , 26-C ) :   1.5314 B( 26-C , 27-C ) :   1.1685
B( 26-C , 30-S ) :   1.0602 B( 27-C , 28-C ) :   1.5963 B( 27-C , 76-H ) :   0.9923
B( 28-C , 29-C ) :   1.1456 B( 28-C , 77-H ) :   0.9997 B( 29-C , 30-S ) :   1.1122
B( 29-C , 31-C ) :   1.4985 B( 31-C , 32-C ) :   1.2623 B( 31-C , 78-H ) :   0.9476
B( 32-C , 33-O ) :   1.1573 B( 32-C , 36-C ) :   1.2892 B( 33-O , 34-C ) :   1.1050
B( 34-C , 35-C ) :   1.4176 B( 34-C , 43-C ) :   1.1497 B( 35-C , 36-C ) :   1.2156
B( 35-C , 79-H ) :   0.9954 B( 36-C , 37-C ) :   1.0324 B( 37-C , 38-O ) :   2.0875
B( 37-C , 39-C ) :   0.8796 B( 39-C , 40-F ) :   1.1368 B( 39-C , 41-F ) :   1.1911
B( 39-C , 42-F ) :   1.1106 B( 43-C , 44-C ) :   1.5252 B( 43-C , 80-H ) :   0.9758
B( 44-C , 45-C ) :   1.1700 B( 44-C , 81-H ) :   0.9884 B( 45-C , 46-C ) :   1.5133
B( 45-C , 82-H ) :   0.9607 B( 46-C , 47-C ) :   1.0796 B( 46-C , 55-C ) :   0.9508
B( 47-C , 48-C ) :   1.6150 B( 47-C , 53-C ) :   0.9963 B( 48-C , 49-C ) :   1.1430
B( 48-C , 51-C ) :   1.1488 B( 49-C , 50-N ) :   2.9656 B( 51-C , 52-N ) :   2.9600
B( 53-C , 54-C ) :   1.2792 B( 53-C , 60-C ) :   1.4077 B( 54-C , 55-C ) :   0.9404
B( 54-C , 57-C ) :   1.4210 B( 55-C , 56-O ) :   2.2015 B( 57-C , 58-C ) :   1.2434
B( 57-C , 83-H ) :   1.0180 B( 58-C , 59-C ) :   1.3084 B( 58-C , 63-C ) :   1.1599
B( 59-C , 60-C ) :   1.3281 B( 59-C , 61-S ) :   1.0846 B( 60-C , 84-H ) :   0.9809
B( 61-S , 62-C ) :   1.0860 B( 62-C , 63-C ) :   1.6190 B( 62-C , 64-Br) :   1.0160
B( 63-C , 85-H ) :   1.0010

-----------------------------------------------------------------------------
         ABSORPTION SPECTRUM VIA TRANSITION ELECTRIC DIPOLE MOMENTS
-----------------------------------------------------------------------------
State   Energy  Wavelength   fosc         T2         TX        TY        TZ
        (cm-1)    (nm)                  (au**2)     (au)      (au)      (au)
-----------------------------------------------------------------------------
   0   14219.2    703.3   2.019362772  46.75350  -1.70323   2.04910  -6.29712
   1   19208.0    520.6   0.344431011   5.90330   0.59770  -1.68980  -1.64032
   2   20327.8    491.9   0.228746526   3.70459  -0.11595  -0.95667  -1.66611
   3   20781.1    481.2   0.507241607   8.03565   0.11031   1.56185   2.36307
   4   22054.5    453.4   0.016590368   0.24765   0.02729   0.48452  -0.11021
   5   23874.8    418.9   0.148465032   2.04720   0.04119  -1.22359   0.74049
   6   25152.8    397.6   0.007713225   0.10095   0.16842  -0.26838   0.02370
   7   26746.5    373.9   0.140647319   1.73117  -0.50463   0.70800  -0.98755
   8   27653.4    361.6   0.000892981   0.01063   0.09699   0.02833  -0.02054
   9   27699.1    361.0   0.400566796   4.76085  -1.94528   0.19035  -0.96980
  10   28228.5    354.3   0.000364460   0.00425  -0.06298  -0.01019  -0.01342
  11   28586.6    349.8   0.014991978   0.17265  -0.27795   0.15114  -0.26936
  12   29401.0    340.1   0.298258224   3.33969   1.69114   0.46701   0.51150
  13   29761.7    336.0   0.015998970   0.17697   0.33428  -0.06428   0.24718
  14   31234.9    320.2   0.012176327   0.12834  -0.03107  -0.08031  -0.34774
  15   31573.5    316.7   0.008847258   0.09225  -0.29859   0.01500   0.05357
  16   31945.8    313.0   0.000274940   0.00283  -0.04242  -0.02570  -0.01932
  17   32093.1    311.6   0.001770878   0.01817   0.12338   0.03217   0.04367
  18   32532.7    307.4   0.064089090   0.64854  -0.75372  -0.18212   0.21746
  19   32845.1    304.5   0.960562514   9.62787   2.94464   0.67068   0.71214
  20   33039.1    302.7   0.064876366   0.64645  -0.30395   0.08998  -0.73890
  21   33270.4    300.6   0.090208362   0.89262   0.85322   0.38255  -0.13523
  22   34774.4    287.6   0.142382638   1.34795  -0.91443  -0.71050   0.08349
  23   35076.7    285.1   0.065085788   0.61086  -0.71579  -0.30881  -0.05611
  24   35098.7    284.9   0.136279330   1.27825   1.09450   0.26434   0.10213
  25   35918.1    278.4   0.005182198   0.04750   0.19123   0.09351  -0.04674
  26   36035.0    277.5   0.132570045   1.21115  -0.87925  -0.62188   0.22654
  27   36202.6    276.2   0.078628484   0.71502   0.67147   0.51262  -0.03691
  28   36321.0    275.3   0.038464226   0.34864  -0.39661  -0.41096   0.14983
  29   36711.1    272.4   0.027874259   0.24997  -0.28364  -0.27903  -0.30275
  30   36791.8    271.8   0.047479812   0.42485  -0.24676   0.35839  -0.48530
  31   37250.3    268.5   0.030131107   0.26629  -0.35267  -0.17087  -0.33573
  32   38033.5    262.9   0.022330968   0.19329   0.00479   0.40965  -0.15955
  33   38236.8    261.5   0.009309740   0.08016   0.02825   0.25690  -0.11559
  34   38280.3    261.2   0.075117168   0.64601  -0.29212   0.34228  -0.66597
  35   38433.3    260.2   0.145188174   1.24365   0.15255   0.86846  -0.68276
  36   38656.1    258.7   0.023529171   0.20038  -0.21795  -0.28230   0.27054
  37   38964.9    256.6   0.031614778   0.26711  -0.11701   0.12229   0.48833
  38   39469.2    253.4   0.215520322   1.79765  -0.91844  -0.31250   0.92545
  39   39532.4    253.0   0.012170422   0.10135  -0.22203  -0.02914   0.22628
  40   39706.8    251.8   0.012646859   0.10486  -0.09317  -0.19361  -0.24226

FINAL SINGLE POINT ENERGY     -7279.611293737466

DIPOLE MOMENT
-------------
                                X             Y             Z
Electronic contribution:   -101.47214      30.76530    -160.85651
Nuclear contribution   :    101.57396     -31.32746     165.74847
                        -----------------------------------------
Total Dipole Moment    :      0.10183      -0.56217       4.89196
                        -----------------------------------------
Magnitude (a.u.)       :      4.92521
Magnitude (Debye)      :     12.51888

Rotational constants in cm-1:     0.001542     0.000187     0.000185
Rotational constants in MHz :    46.222214     5.593059     5.551610

                             ****ORCA TERMINATED NORMALLY****
TOTAL RUN TIME: 0 days 0 hours 7 minutes 28 seconds 907 msec
