                         Program Version 4.2.0 -  RELEASE  -
|  1> # ORCA input file
|  2> # SCF done       -167.563604477426          0.000522540210
|  3> ! CAM-B3LYP def2-SVP def2/J RIJCOSX Grid4 TightSCF
|  4> %maxcore 5000
|  5> %tddft
|  6>     Mode sTDDFT
|  7>     Ethresh 5.0
|  8>     maxcore 5000
|  9> end
| 10>
| 11> %pal
| 12>   nprocs 6
| 13>   end
| 14> * xyz 0 1
| 15>    C       10.03230       -18.82431         2.09802
| 16>    C        9.39050       -17.64777         2.04847
| 17>    C        8.01807       -17.37972         2.36429
| 18>    C        7.65688       -16.08368         2.21953
| 19>    C        8.70615       -15.23114         1.78159
| 20>    S       10.17952       -16.13942         1.55791
| 21>    C        8.63136       -13.87009         1.54988
| 22>    C        7.50614       -13.02922         1.69831
| 23>    C        7.74266       -11.71955         1.39938
| 24>    C        9.06534       -11.44179         0.99554
| 25>    S       10.00165       -12.93527         1.00979
| 26>    C        9.74613       -10.30493         0.60045
| 27>    C        9.43597        -8.94316         0.46293
| 28>    C        8.23134        -8.23740         0.75654
| 29>    C        8.09420        -6.80334         0.56480
| 30>    N        6.92868        -6.21507         0.85591
| 31>    C        5.92166        -6.92675         1.32531
| 32>    C        6.06324        -8.32446         1.52897
| 33>    N        7.19876        -8.92607         1.23671
| 34>    C        4.99919        -9.10400         2.04073
| 35>    N        4.13215        -9.73125         2.45180
| 36>    C        4.70232        -6.27128         1.61955
| 37>    N        3.70851        -5.75490         1.86384
| 38>    C        9.15926        -5.99276         0.08115
| 39>    C       10.35620        -6.70089        -0.20922
| 40>    C       10.49173        -8.11588        -0.02890
| 41>    N       11.70346        -8.54129        -0.37074
| 42>    S       12.59081        -7.29525        -0.86948
| 43>    N       11.47102        -6.14806        -0.67351
| 44>    C        9.12611        -4.59783        -0.11148
| 45>    S       10.57198        -3.77548        -0.66820
| 46>    C        9.84406        -2.18210        -0.64240
| 47>    C        8.50888        -2.29120        -0.22827
| 48>    C        8.12400        -3.62983         0.06373
| 49>    N        6.83016        -3.57054         0.44174
| 50>    N        6.36646        -2.32083         0.41590
| 51>    C        7.34023        -1.53451         0.02136
| 52>    C       10.62080        -1.07309        -0.99074
| 53>    C       10.17915         0.22264        -0.98370
| 54>    C       10.97279         1.34055        -1.29810
| 55>    S       10.29023         2.93958        -1.21487
| 56>    C       11.80339         3.67438        -1.66889
| 57>    C       12.77215         2.69364        -1.87837
| 58>    C       12.31494         1.40744        -1.67527
| 59>    C       11.91574         5.07457        -1.75900
| 60>    C       13.06837         5.74272        -2.06238
| 61>    C       13.12264         7.14681        -2.10197
| 62>    C       14.25638         7.87638        -2.35713
| 63>    C       14.37140         9.31902        -2.37677
| 64>    C       13.35607        10.23391        -2.24036
| 65>    C       13.54128        11.63114        -2.26973
| 66>    N       13.61803        12.77717        -2.28067
| 67>    C       11.99082         9.92997        -2.06699
| 68>    N       10.86101         9.77186        -1.92786
| 69>    C       15.77756         9.65150        -2.58864
| 70>    C       16.51154         8.44143        -2.74289
| 71>    C       15.59508         7.29424        -2.61711
| 72>    O       15.89636         6.11974        -2.70618
| 73>    C       17.85857         8.43556        -2.96015
| 74>    C       18.55126         9.66540        -3.02760
| 75>    C       17.82651        10.88074        -2.86615
| 76>    C       16.42930        10.85444        -2.64808
| 77>    C       18.52771        12.10201        -2.92684
| 78>    C       19.87955        12.12380        -3.13810
| 79>    C       20.59179        10.92628        -3.29950
| 80>    C       19.94153         9.72320        -3.24558
| 81>    H        9.51741       -19.71789         2.40395
| 82>    H       11.07173       -18.91274         1.84020
| 83>    H        7.36306       -18.16969         2.68543
| 84>    H        6.66930       -15.70445         2.41183
| 85>    H        6.55069       -13.40172         2.02094
| 86>    H        7.00203       -10.94668         1.45919
| 87>    H       10.77833       -10.49639         0.32322
| 88>    H        6.25548        -4.35195         0.72475
| 89>    H        7.17122        -0.48115        -0.06920
| 90>    H       11.64363        -1.28487        -1.26894
| 91>    H        9.15495         0.42188        -0.70647
| 92>    H       13.77926         2.93064        -2.16976
| 93>    H       12.92894         0.53297        -1.79120
| 94>    H       11.01805         5.64683        -1.55786
| 95>    H       13.97637         5.19758        -2.26665
| 96>    H       12.19990         7.67404        -1.89608
| 97>    H       18.39075         7.50291        -3.07631
| 98>    H       15.91152        11.79284        -2.52978
| 99>    H       17.97464        13.02156        -2.80263
|100>    H       20.40765        13.06463        -3.18202
|101>    H       21.65814        10.96154        -3.46624
|102>    H       20.48480         8.79747        -3.36857
|103> *
|104>
|105>                          ****END OF INPUT****

CARTESIAN COORDINATES (ANGSTROEM)
---------------------------------
  C     10.032300  -18.824310    2.098020
  C      9.390500  -17.647770    2.048470
  C      8.018070  -17.379720    2.364290
  C      7.656880  -16.083680    2.219530
  C      8.706150  -15.231140    1.781590
  S     10.179520  -16.139420    1.557910
  C      8.631360  -13.870090    1.549880
  C      7.506140  -13.029220    1.698310
  C      7.742660  -11.719550    1.399380
  C      9.065340  -11.441790    0.995540
  S     10.001650  -12.935270    1.009790
  C      9.746130  -10.304930    0.600450
  C      9.435970   -8.943160    0.462930
  C      8.231340   -8.237400    0.756540
  C      8.094200   -6.803340    0.564800
  N      6.928680   -6.215070    0.855910
  C      5.921660   -6.926750    1.325310
  C      6.063240   -8.324460    1.528970
  N      7.198760   -8.926070    1.236710
  C      4.999190   -9.104000    2.040730
  N      4.132150   -9.731250    2.451800
  C      4.702320   -6.271280    1.619550
  N      3.708510   -5.754900    1.863840
  C      9.159260   -5.992760    0.081150
  C     10.356200   -6.700890   -0.209220
  C     10.491730   -8.115880   -0.028900
  N     11.703460   -8.541290   -0.370740
  S     12.590810   -7.295250   -0.869480
  N     11.471020   -6.148060   -0.673510
  C      9.126110   -4.597830   -0.111480
  S     10.571980   -3.775480   -0.668200
  C      9.844060   -2.182100   -0.642400
  C      8.508880   -2.291200   -0.228270
  C      8.124000   -3.629830    0.063730
  N      6.830160   -3.570540    0.441740
  N      6.366460   -2.320830    0.415900
  C      7.340230   -1.534510    0.021360
  C     10.620800   -1.073090   -0.990740
  C     10.179150    0.222640   -0.983700
  C     10.972790    1.340550   -1.298100
  S     10.290230    2.939580   -1.214870
  C     11.803390    3.674380   -1.668890
  C     12.772150    2.693640   -1.878370
  C     12.314940    1.407440   -1.675270
  C     11.915740    5.074570   -1.759000
  C     13.068370    5.742720   -2.062380
  C     13.122640    7.146810   -2.101970
  C     14.256380    7.876380   -2.357130
  C     14.371400    9.319020   -2.376770
  C     13.356070   10.233910   -2.240360
  C     13.541280   11.631140   -2.269730
  N     13.618030   12.777170   -2.280670
  C     11.990820    9.929970   -2.066990
  N     10.861010    9.771860   -1.927860
  C     15.777560    9.651500   -2.588640
  C     16.511540    8.441430   -2.742890
  C     15.595080    7.294240   -2.617110
  O     15.896360    6.119740   -2.706180
  C     17.858570    8.435560   -2.960150
  C     18.551260    9.665400   -3.027600
  C     17.826510   10.880740   -2.866150
  C     16.429300   10.854440   -2.648080
  C     18.527710   12.102010   -2.926840
  C     19.879550   12.123800   -3.138100
  C     20.591790   10.926280   -3.299500
  C     19.941530    9.723200   -3.245580
  H      9.517410  -19.717890    2.403950
  H     11.071730  -18.912740    1.840200
  H      7.363060  -18.169690    2.685430
  H      6.669300  -15.704450    2.411830
  H      6.550690  -13.401720    2.020940
  H      7.002030  -10.946680    1.459190
  H     10.778330  -10.496390    0.323220
  H      6.255480   -4.351950    0.724750
  H      7.171220   -0.481150   -0.069200
  H     11.643630   -1.284870   -1.268940
  H      9.154950    0.421880   -0.706470
  H     13.779260    2.930640   -2.169760
  H     12.928940    0.532970   -1.791200
  H     11.018050    5.646830   -1.557860
  H     13.976370    5.197580   -2.266650
  H     12.199900    7.674040   -1.896080
  H     18.390750    7.502910   -3.076310
  H     15.911520   11.792840   -2.529780
  H     17.974640   13.021560   -2.802630
  H     20.407650   13.064630   -3.182020
  H     21.658140   10.961540   -3.466240
  H     20.484800    8.797470   -3.368570

 Total Charge           Charge          ....    0
 Multiplicity           Mult            ....    1
 Number of Electrons    NEL             ....  480
 Basis Dimension        Dim             .... 1054

ORBITAL ENERGIES
----------------

  NO   OCC          E(Eh)            E(eV)
   0   2.0000     -89.038584     -2422.8630
   1   2.0000     -88.969632     -2420.9868
   2   2.0000     -88.965442     -2420.8728
   3   2.0000     -88.957092     -2420.6455
   4   2.0000     -88.954730     -2420.5813
   5   2.0000     -19.207256      -522.6560
   6   2.0000     -14.476873      -393.9357
   7   2.0000     -14.465743      -393.6329
   8   2.0000     -14.459146      -393.4534
   9   2.0000     -14.451818      -393.2540
  10   2.0000     -14.451477      -393.2447
  11   2.0000     -14.434216      -392.7750
  12   2.0000     -14.433413      -392.7531
  13   2.0000     -14.430366      -392.6702
  14   2.0000     -14.407375      -392.0446
  15   2.0000     -14.404650      -391.9705
  16   2.0000     -10.379795      -282.4486
  17   2.0000     -10.375915      -282.3430
  18   2.0000     -10.357818      -281.8506
  19   2.0000     -10.351722      -281.6847
  20   2.0000     -10.347954      -281.5821
  21   2.0000     -10.339379      -281.3488
  22   2.0000     -10.338650      -281.3290
  23   2.0000     -10.331039      -281.1219
  24   2.0000     -10.330780      -281.1148
  25   2.0000     -10.330130      -281.0971
  26   2.0000     -10.326804      -281.0066
  27   2.0000     -10.324632      -280.9475
  28   2.0000     -10.323623      -280.9201
  29   2.0000     -10.322709      -280.8952
  30   2.0000     -10.322210      -280.8816
  31   2.0000     -10.321442      -280.8607
  32   2.0000     -10.320620      -280.8383
  33   2.0000     -10.319959      -280.8204
  34   2.0000     -10.316802      -280.7345
  35   2.0000     -10.315945      -280.7111
  36   2.0000     -10.314053      -280.6596
  37   2.0000     -10.311325      -280.5854
  38   2.0000     -10.310726      -280.5691
  39   2.0000     -10.308304      -280.5032
  40   2.0000     -10.308048      -280.4962
  41   2.0000     -10.305900      -280.4378
  42   2.0000     -10.303604      -280.3753
  43   2.0000     -10.301771      -280.3254
  44   2.0000     -10.299846      -280.2731
  45   2.0000     -10.299283      -280.2577
  46   2.0000     -10.296883      -280.1924
  47   2.0000     -10.294990      -280.1409
  48   2.0000     -10.294391      -280.1246
  49   2.0000     -10.292579      -280.0753
  50   2.0000     -10.290710      -280.0245
  51   2.0000     -10.290339      -280.0144
  52   2.0000     -10.290222      -280.0112
  53   2.0000     -10.290083      -280.0074
  54   2.0000     -10.289045      -279.9792
  55   2.0000     -10.288840      -279.9736
  56   2.0000     -10.288487      -279.9640
  57   2.0000     -10.286368      -279.9063
  58   2.0000     -10.280825      -279.7555
  59   2.0000     -10.280814      -279.7552
  60   2.0000     -10.280523      -279.7472
  61   2.0000     -10.280223      -279.7391
  62   2.0000     -10.280093      -279.7355
  63   2.0000     -10.279814      -279.7279
  64   2.0000     -10.279241      -279.7124
  65   2.0000     -10.278949      -279.7044
  66   2.0000      -8.129946      -221.2271
  67   2.0000      -8.065454      -219.4722
  68   2.0000      -8.058822      -219.2917
  69   2.0000      -8.053780      -219.1545
  70   2.0000      -8.051263      -219.0860
  71   2.0000      -6.101246      -166.0233
  72   2.0000      -6.093552      -165.8140
  73   2.0000      -6.092166      -165.7763
  74   2.0000      -6.034516      -164.2075
  75   2.0000      -6.030631      -164.1018
  76   2.0000      -6.028422      -164.0417
  77   2.0000      -6.027746      -164.0233
  78   2.0000      -6.023789      -163.9156
  79   2.0000      -6.023521      -163.9084
  80   2.0000      -6.020877      -163.8364
  81   2.0000      -6.020852      -163.8357
  82   2.0000      -6.019566      -163.8007
  83   2.0000      -6.016901      -163.7282
  84   2.0000      -6.014495      -163.6627
  85   2.0000      -6.012313      -163.6033
  86   2.0000      -1.144322       -31.1386
  87   2.0000      -1.139227       -30.9999
  88   2.0000      -1.120824       -30.4992
  89   2.0000      -1.119942       -30.4752
  90   2.0000      -1.046980       -28.4898
  91   2.0000      -1.016453       -27.6591
  92   2.0000      -1.008674       -27.4474
  93   2.0000      -1.007312       -27.4103
  94   2.0000      -1.005865       -27.3710
  95   2.0000      -1.002195       -27.2711
  96   2.0000      -0.998840       -27.1798
  97   2.0000      -0.990164       -26.9437
  98   2.0000      -0.986828       -26.8530
  99   2.0000      -0.984373       -26.7861
 100   2.0000      -0.981305       -26.7027
 101   2.0000      -0.968725       -26.3603
 102   2.0000      -0.963598       -26.2208
 103   2.0000      -0.929512       -25.2933
 104   2.0000      -0.921549       -25.0766
 105   2.0000      -0.912704       -24.8359
 106   2.0000      -0.910206       -24.7680
 107   2.0000      -0.904870       -24.6228
 108   2.0000      -0.899369       -24.4731
 109   2.0000      -0.887449       -24.1487
 110   2.0000      -0.881902       -23.9978
 111   2.0000      -0.873498       -23.7691
 112   2.0000      -0.861627       -23.4461
 113   2.0000      -0.858015       -23.3478
 114   2.0000      -0.855862       -23.2892
 115   2.0000      -0.850995       -23.1568
 116   2.0000      -0.846148       -23.0249
 117   2.0000      -0.834932       -22.7197
 118   2.0000      -0.827317       -22.5124
 119   2.0000      -0.825745       -22.4697
 120   2.0000      -0.820966       -22.3396
 121   2.0000      -0.808603       -22.0032
 122   2.0000      -0.802498       -21.8371
 123   2.0000      -0.783509       -21.3204
 124   2.0000      -0.766433       -20.8557
 125   2.0000      -0.752997       -20.4901
 126   2.0000      -0.748738       -20.3742
 127   2.0000      -0.732640       -19.9362
 128   2.0000      -0.727799       -19.8044
 129   2.0000      -0.715818       -19.4784
 130   2.0000      -0.711438       -19.3592
 131   2.0000      -0.708756       -19.2862
 132   2.0000      -0.698490       -19.0069
 133   2.0000      -0.696760       -18.9598
 134   2.0000      -0.696224       -18.9452
 135   2.0000      -0.691049       -18.8044
 136   2.0000      -0.686452       -18.6793
 137   2.0000      -0.684100       -18.6153
 138   2.0000      -0.678494       -18.4628
 139   2.0000      -0.663040       -18.0422
 140   2.0000      -0.655035       -17.8244
 141   2.0000      -0.649187       -17.6653
 142   2.0000      -0.646550       -17.5935
 143   2.0000      -0.639829       -17.4106
 144   2.0000      -0.634948       -17.2778
 145   2.0000      -0.631762       -17.1911
 146   2.0000      -0.631217       -17.1763
 147   2.0000      -0.617827       -16.8119
 148   2.0000      -0.611013       -16.6265
 149   2.0000      -0.610774       -16.6200
 150   2.0000      -0.608245       -16.5512
 151   2.0000      -0.602649       -16.3989
 152   2.0000      -0.599278       -16.3072
 153   2.0000      -0.594773       -16.1846
 154   2.0000      -0.587138       -15.9768
 155   2.0000      -0.580358       -15.7924
 156   2.0000      -0.579273       -15.7628
 157   2.0000      -0.566722       -15.4213
 158   2.0000      -0.557470       -15.1695
 159   2.0000      -0.556609       -15.1461
 160   2.0000      -0.551545       -15.0083
 161   2.0000      -0.546281       -14.8651
 162   2.0000      -0.544973       -14.8295
 163   2.0000      -0.542482       -14.7617
 164   2.0000      -0.539158       -14.6712
 165   2.0000      -0.534525       -14.5452
 166   2.0000      -0.529948       -14.4206
 167   2.0000      -0.528677       -14.3860
 168   2.0000      -0.527669       -14.3586
 169   2.0000      -0.527115       -14.3435
 170   2.0000      -0.525030       -14.2868
 171   2.0000      -0.513456       -13.9718
 172   2.0000      -0.512514       -13.9462
 173   2.0000      -0.508130       -13.8269
 174   2.0000      -0.507092       -13.7987
 175   2.0000      -0.504852       -13.7377
 176   2.0000      -0.500955       -13.6317
 177   2.0000      -0.497960       -13.5502
 178   2.0000      -0.497701       -13.5431
 179   2.0000      -0.489956       -13.3324
 180   2.0000      -0.488226       -13.2853
 181   2.0000      -0.488156       -13.2834
 182   2.0000      -0.487715       -13.2714
 183   2.0000      -0.484373       -13.1804
 184   2.0000      -0.483709       -13.1624
 185   2.0000      -0.480350       -13.0710
 186   2.0000      -0.478992       -13.0340
 187   2.0000      -0.478336       -13.0162
 188   2.0000      -0.472212       -12.8495
 189   2.0000      -0.466275       -12.6880
 190   2.0000      -0.464674       -12.6444
 191   2.0000      -0.463620       -12.6157
 192   2.0000      -0.461146       -12.5484
 193   2.0000      -0.458064       -12.4645
 194   2.0000      -0.455868       -12.4048
 195   2.0000      -0.455791       -12.4027
 196   2.0000      -0.451826       -12.2948
 197   2.0000      -0.447840       -12.1863
 198   2.0000      -0.447115       -12.1666
 199   2.0000      -0.444750       -12.1023
 200   2.0000      -0.443635       -12.0719
 201   2.0000      -0.440548       -11.9879
 202   2.0000      -0.436574       -11.8798
 203   2.0000      -0.436473       -11.8770
 204   2.0000      -0.432927       -11.7806
 205   2.0000      -0.432788       -11.7768
 206   2.0000      -0.432071       -11.7573
 207   2.0000      -0.430136       -11.7046
 208   2.0000      -0.426199       -11.5975
 209   2.0000      -0.424507       -11.5514
 210   2.0000      -0.422996       -11.5103
 211   2.0000      -0.417498       -11.3607
 212   2.0000      -0.416297       -11.3280
 213   2.0000      -0.414695       -11.2844
 214   2.0000      -0.413280       -11.2459
 215   2.0000      -0.411298       -11.1920
 216   2.0000      -0.403989       -10.9931
 217   2.0000      -0.399839       -10.8802
 218   2.0000      -0.397250       -10.8097
 219   2.0000      -0.396286       -10.7835
 220   2.0000      -0.383371       -10.4320
 221   2.0000      -0.374352       -10.1866
 222   2.0000      -0.370893       -10.0925
 223   2.0000      -0.361348        -9.8328
 224   2.0000      -0.359597        -9.7851
 225   2.0000      -0.351666        -9.5693
 226   2.0000      -0.351184        -9.5562
 227   2.0000      -0.350635        -9.5413
 228   2.0000      -0.347918        -9.4673
 229   2.0000      -0.340023        -9.2525
 230   2.0000      -0.333230        -9.0677
 231   2.0000      -0.327787        -8.9196
 232   2.0000      -0.326588        -8.8869
 233   2.0000      -0.316784        -8.6201
 234   2.0000      -0.311369        -8.4728
 235   2.0000      -0.306915        -8.3516
 236   2.0000      -0.288894        -7.8612
 237   2.0000      -0.275927        -7.5084
 238   2.0000      -0.251467        -6.8428
 239   2.0000      -0.207043        -5.6339
 240   0.0000      -0.131308        -3.5731
 241   0.0000      -0.094733        -2.5778
 242   0.0000      -0.072097        -1.9619
 243   0.0000      -0.060029        -1.6335
 244   0.0000      -0.048749        -1.3265

MULLIKEN ATOMIC CHARGES
-----------------------
   0 C :   -0.011310
   1 C :   -0.074987
   2 C :    0.062528
   3 C :    0.031483
   4 C :   -0.056031
   5 S :    0.104189
   6 C :   -0.040866
   7 C :    0.020424
   8 C :    0.051977
   9 C :   -0.048871
  10 S :    0.100268
  11 C :   -0.050676
  12 C :    0.095040
  13 C :   -0.048323
  14 C :   -0.071224
  15 N :   -0.028495
  16 C :   -0.071483
  17 C :   -0.109206
  18 N :    0.032931
  19 C :   -0.254837
  20 N :    0.240808
  21 C :   -0.284473
  22 N :    0.256468
  23 C :    0.215176
  24 C :   -0.035011
  25 C :    0.003588
  26 N :   -0.277779
  27 S :    0.530538
  28 N :   -0.331290
  29 C :   -0.293947
  30 S :    0.177656
  31 C :   -0.083217
  32 C :    0.004095
  33 C :    0.162000
  34 N :   -0.010675
  35 N :   -0.043740
  36 C :   -0.030142
  37 C :    0.055366
  38 C :    0.063396
  39 C :   -0.072487
  40 S :    0.152580
  41 C :   -0.098195
  42 C :    0.040274
  43 C :    0.011370
  44 C :    0.097759
  45 C :   -0.017367
  46 C :   -0.032768
  47 C :   -0.082629
  48 C :    0.336094
  49 C :   -0.357286
  50 C :   -0.183961
  51 N :    0.139846
  52 C :   -0.191119
  53 N :    0.139862
  54 C :    0.047584
  55 C :   -0.000372
  56 C :    0.147222
  57 O :   -0.163553
  58 C :   -0.083456
  59 C :    0.098376
  60 C :    0.093785
  61 C :   -0.084869
  62 C :   -0.018465
  63 C :    0.035565
  64 C :    0.033225
  65 C :   -0.016793
  66 H :    0.029513
  67 H :    0.030811
  68 H :   -0.002542
  69 H :   -0.001181
  70 H :   -0.006348
  71 H :   -0.020905
  72 H :    0.000078
  73 H :    0.137734
  74 H :    0.003202
  75 H :   -0.024767
  76 H :   -0.027907
  77 H :    0.005009
  78 H :   -0.008424
  79 H :    0.005511
  80 H :    0.024651
  81 H :    0.007426
  82 H :   -0.017838
  83 H :   -0.010526
  84 H :   -0.010320
  85 H :   -0.007515
  86 H :   -0.006399
  87 H :   -0.020831
Sum of atomic charges:    0.0000000

LOEWDIN ATOMIC CHARGES
----------------------
   0 C :   -0.052350
   1 C :   -0.141848
   2 C :   -0.017971
   3 C :   -0.025296
   4 C :   -0.158142
   5 S :    0.374056
   6 C :   -0.188821
   7 C :   -0.015322
   8 C :   -0.038842
   9 C :   -0.116161
  10 S :    0.394176
  11 C :   -0.054301
  12 C :   -0.040496
  13 C :   -0.008689
  14 C :   -0.003665
  15 N :   -0.016497
  16 C :   -0.036252
  17 C :   -0.042386
  18 N :    0.007972
  19 C :   -0.040877
  20 N :   -0.017276
  21 C :   -0.048926
  22 N :   -0.003384
  23 C :   -0.061441
  24 C :   -0.049113
  25 C :   -0.038509
  26 N :   -0.275421
  27 S :    0.650053
  28 N :   -0.303577
  29 C :   -0.184425
  30 S :    0.494335
  31 C :   -0.156290
  32 C :   -0.096348
  33 C :   -0.011230
  34 N :    0.115104
  35 N :   -0.048784
  36 C :   -0.044046
  37 C :   -0.029538
  38 C :   -0.035262
  39 C :   -0.152803
  40 S :    0.452793
  41 C :   -0.182528
  42 C :   -0.019740
  43 C :   -0.049287
  44 C :    0.015751
  45 C :   -0.034701
  46 C :    0.066067
  47 C :   -0.101643
  48 C :    0.075592
  49 C :   -0.147121
  50 C :   -0.017208
  51 N :   -0.061575
  52 C :   -0.020052
  53 N :   -0.060558
  54 C :   -0.024303
  55 C :   -0.053857
  56 C :    0.084178
  57 O :   -0.156716
  58 C :    0.028195
  59 C :   -0.009195
  60 C :   -0.007177
  61 C :    0.017285
  62 C :   -0.005895
  63 C :   -0.015753
  64 C :   -0.014905
  65 C :   -0.011118
  66 H :    0.033076
  67 H :    0.030377
  68 H :    0.037362
  69 H :    0.036647
  70 H :    0.035288
  71 H :    0.028770
  72 H :    0.035079
  73 H :    0.069647
  74 H :    0.019853
  75 H :    0.028737
  76 H :    0.031391
  77 H :    0.039686
  78 H :    0.032110
  79 H :    0.036981
  80 H :    0.031487
  81 H :    0.041203
  82 H :    0.037031
  83 H :    0.038448
  84 H :    0.034261
  85 H :    0.032125
  86 H :    0.031888
  87 H :    0.030617

  Mayer bond orders larger than 0.100000
B(  0-C ,  1-C ) :   1.8546 B(  0-C , 66-H ) :   0.9510 B(  0-C , 67-H ) :   0.9415
B(  1-C ,  2-C ) :   1.0849 B(  1-C ,  5-S ) :   1.0059 B(  2-C ,  3-C ) :   1.6449
B(  2-C , 68-H ) :   0.9928 B(  3-C ,  4-C ) :   1.1702 B(  3-C , 69-H ) :   0.9924
B(  4-C ,  5-S ) :   1.0735 B(  4-C ,  6-C ) :   1.4792 B(  6-C ,  7-C ) :   1.2030
B(  6-C , 10-S ) :   1.0527 B(  7-C ,  8-C ) :   1.5355 B(  7-C , 70-H ) :   0.9953
B(  8-C ,  9-C ) :   1.2071 B(  8-C , 71-H ) :   0.9855 B(  9-C , 10-S ) :   1.0806
B(  9-C , 11-C ) :   1.4117 B( 11-C , 12-C ) :   1.3597 B( 11-C , 72-H ) :   0.9170
B( 12-C , 13-C ) :   1.1606 B( 12-C , 25-C ) :   1.1405 B( 13-C , 14-C ) :   1.0771
B( 13-C , 18-N ) :   1.5059 B( 14-C , 15-N ) :   1.4714 B( 14-C , 23-C ) :   1.1986
B( 15-N , 16-C ) :   1.6295 B( 16-C , 17-C ) :   1.2527 B( 16-C , 21-C ) :   1.1615
B( 17-C , 18-N ) :   1.6523 B( 17-C , 19-C ) :   1.1631 B( 19-C , 20-N ) :   3.0330
B( 21-C , 22-N ) :   3.0314 B( 23-C , 24-C ) :   1.1447 B( 23-C , 29-C ) :   1.2838
B( 24-C , 25-C ) :   1.1233 B( 24-C , 28-N ) :   1.4995 B( 25-C , 26-N ) :   1.5630
B( 26-N , 27-S ) :   1.2623 B( 26-N , 28-N ) :   0.1398 B( 27-S , 28-N ) :   1.2354
B( 29-C , 30-S ) :   1.1294 B( 29-C , 33-C ) :   1.2836 B( 30-S , 31-C ) :   1.0891
B( 31-C , 32-C ) :   1.2531 B( 31-C , 37-C ) :   1.2410 B( 32-C , 33-C ) :   1.2770
B( 32-C , 36-C ) :   1.1766 B( 33-C , 34-N ) :   1.2082 B( 34-N , 35-N ) :   1.1475
B( 34-N , 73-H ) :   0.9159 B( 35-N , 36-C ) :   1.7088 B( 36-C , 74-H ) :   0.9965
B( 37-C , 38-C ) :   1.5933 B( 37-C , 75-H ) :   0.9516 B( 38-C , 39-C ) :   1.1788
B( 38-C , 76-H ) :   0.9617 B( 39-C , 40-S ) :   1.1427 B( 39-C , 43-C ) :   1.3985
B( 40-S , 41-C ) :   1.1099 B( 41-C , 42-C ) :   1.4106 B( 41-C , 44-C ) :   1.1565
B( 42-C , 43-C ) :   1.3591 B( 42-C , 77-H ) :   0.9928 B( 43-C , 78-H ) :   0.9926
B( 44-C , 45-C ) :   1.5447 B( 44-C , 79-H ) :   0.9735 B( 45-C , 46-C ) :   1.2060
B( 45-C , 80-H ) :   0.9739 B( 46-C , 47-C ) :   1.4934 B( 46-C , 81-H ) :   0.9624
B( 47-C , 48-C ) :   1.0797 B( 47-C , 56-C ) :   0.9540 B( 48-C , 49-C ) :   1.6092
B( 48-C , 54-C ) :   0.9829 B( 49-C , 50-C ) :   1.1489 B( 49-C , 52-C ) :   1.1483
B( 50-C , 51-N ) :   2.9588 B( 52-C , 53-N ) :   2.9597 B( 54-C , 55-C ) :   1.2160
B( 54-C , 61-C ) :   1.4540 B( 55-C , 56-C ) :   0.9451 B( 55-C , 58-C ) :   1.4742
B( 56-C , 57-O ) :   2.1847 B( 58-C , 59-C ) :   1.1758 B( 58-C , 82-H ) :   1.0162
B( 59-C , 60-C ) :   1.2598 B( 59-C , 65-C ) :   1.2439 B( 60-C , 61-C ) :   1.2018
B( 60-C , 62-C ) :   1.2411 B( 61-C , 83-H ) :   0.9897 B( 62-C , 63-C ) :   1.4873
B( 62-C , 84-H ) :   0.9978 B( 63-C , 64-C ) :   1.2604 B( 63-C , 85-H ) :   0.9892
B( 64-C , 65-C ) :   1.4877 B( 64-C , 86-H ) :   0.9888 B( 65-C , 87-H ) :   0.9978

-----------------------------------------------------------------------------
         ABSORPTION SPECTRUM VIA TRANSITION ELECTRIC DIPOLE MOMENTS
-----------------------------------------------------------------------------
State   Energy  Wavelength   fosc         T2         TX        TY        TZ
        (cm-1)    (nm)                  (au**2)     (au)      (au)      (au)
-----------------------------------------------------------------------------
   0    3187.8   3137.0   0.322136585  33.26787  -0.64528  -5.65486   0.93490
   1   13298.5    752.0   1.002641632  24.82101  -1.86608  -4.53273   0.89058
   2   13742.6    727.7   0.553873822  13.26833  -1.61986  -3.20942   0.58650
   3   16252.7    615.3   0.407734071   8.25898  -1.09844   2.64909  -0.18631
   4   19008.0    526.1   0.137312499   2.37820  -0.48552  -1.39050   0.45716
   5   19712.4    507.3   0.327237939   5.46513   0.78877   2.18949  -0.22160
   6   21097.0    474.0   0.233158260   3.63836  -0.54291  -1.76770   0.46781
   7   22912.6    436.4   0.081690052   1.17373  -0.56249  -0.92413   0.05763
   8   23320.6    428.8   0.000919171   0.01298   0.04057   0.08644   0.06211
   9   23603.5    423.7   0.005229026   0.07293   0.23919   0.10089  -0.07443
  10   24697.8    404.9   0.108898367   1.45157   0.13401   1.17964  -0.20511
  11   25277.3    395.6   0.015981115   0.20814   0.29634  -0.33559   0.08774
  12   25715.3    388.9   0.092686973   1.18659   1.07612  -0.11380  -0.12493
  13   26373.2    379.2   0.002992364   0.03735  -0.04841  -0.15020   0.11158
  14   26865.0    372.2   0.000270805   0.00332  -0.03521   0.04559   0.00019
  15   27687.5    361.2   0.067619067   0.80401   0.05426   0.89027  -0.09210
  16   27925.3    358.1   0.004588372   0.05409   0.16113   0.12567  -0.11107
  17   28222.3    354.3   0.015148955   0.17671  -0.39776   0.05701   0.12349
  18   28458.3    351.4   0.004014650   0.04644   0.14059   0.01452   0.16268
  19   29170.1    342.8   0.000367991   0.00415   0.05512   0.02328  -0.02393
  20   29538.7    338.5   0.007443485   0.08296  -0.25645  -0.12638   0.03494
  21   30165.1    331.5   0.037879878   0.41341   0.55827   0.31310  -0.06093
  22   30322.2    329.8   0.005052221   0.05485  -0.21069  -0.05606  -0.08556
  23   30635.7    326.4   0.233047608   2.50434   1.46114   0.48783  -0.36253
  24   31204.7    320.5   0.067482911   0.71195  -0.84030  -0.04478   0.06201
  25   31590.4    316.6   0.102683651   1.07009  -0.95985   0.23540   0.30557
  26   32261.6    310.0   0.155065987   1.58236   1.21101   0.12304  -0.31729
  27   32322.3    309.4   0.014039128   0.14299   0.20185   0.29737   0.11757
  28   32677.0    306.0   0.223232222   2.24901  -1.40140  -0.20354   0.49362
  29   32873.4    304.2   0.182817468   1.83083  -1.32841  -0.02424   0.25609
  30   33019.9    302.8   0.004224450   0.04212  -0.19707  -0.02022   0.05361
  31   33146.0    301.7   0.023953982   0.23792  -0.47809  -0.05536   0.07924
  32   33666.3    297.0   0.023586859   0.23065  -0.07484  -0.47261   0.04108
  33   33955.5    294.5   0.001036175   0.01005  -0.07825   0.01438   0.06097
  34   34056.2    293.6   0.128524046   1.24241  -1.02526  -0.11836   0.42100
  35   34465.5    290.1   0.046985235   0.44880  -0.23587   0.61043  -0.14331
  36   34547.8    289.5   0.000717825   0.00684  -0.07462   0.02063  -0.02910
  37   34758.0    287.7   0.252827970   2.39467  -1.43947  -0.50203   0.26562
  38   35033.5    285.4   0.008678947   0.08156   0.06008   0.21033  -0.18359
  39   35963.3    278.1   0.011308436   0.10352   0.30881   0.02478  -0.08682
  40   36034.3    277.5   0.425410893   3.88658  -1.91592  -0.12521   0.44741
  41   36110.7    276.9   0.112746053   1.02788  -0.95921  -0.21137   0.25122
  42   36907.6    270.9   0.057783439   0.51542   0.54288  -0.46967   0.01056
  43   37480.4    266.8   0.007647116   0.06717   0.10823  -0.22365  -0.07374
  44   37794.6    264.6   0.021623193   0.18835  -0.15980   0.40048  -0.04930
  45   37957.4    263.5   0.010664020   0.09249   0.22199   0.19806  -0.06312
  46   38045.9    262.8   0.051495845   0.44559   0.58507  -0.31126  -0.08005
  47   38566.7    259.3   0.018716826   0.15977   0.34039  -0.17988  -0.10745
  48   38654.8    258.7   0.034758276   0.29603   0.44465  -0.30401  -0.07674
  49   39173.3    255.3   0.065826451   0.55321  -0.29558   0.68231   0.01703
  50   39383.3    253.9   0.126245898   1.05531   0.66803  -0.76633  -0.14761
  51   39552.1    252.8   0.030591501   0.25463  -0.29032  -0.37896   0.16350
  52   39729.0    251.7   0.121537994   1.00712   0.12878   0.99320  -0.06392
  53   40216.6    248.7   0.003402748   0.02785   0.11265   0.10946  -0.05642

FINAL SINGLE POINT ENERGY     -4528.254848502051

DIPOLE MOMENT
-------------
                                X             Y             Z
Electronic contribution:    -24.05393     -28.17071       5.36389
Nuclear contribution   :     27.40095      23.14664      -5.59176
                        -----------------------------------------
Total Dipole Moment    :      3.34702      -5.02406      -0.22787
                        -----------------------------------------
Magnitude (a.u.)       :      6.04116
Magnitude (Debye)      :     15.35542

Rotational constants in cm-1:     0.002642     0.000190     0.000178
Rotational constants in MHz :    79.200464     5.694018     5.325280

                             ****ORCA TERMINATED NORMALLY****
TOTAL RUN TIME: 0 days 0 hours 9 minutes 7 seconds 348 msec
