                         Program Version 4.2.0 -  RELEASE  -
|  1> # ORCA input file
|  2> # SCF done       -214.254760307776          0.000577193402
|  3> ! CAM-B3LYP def2-SVP def2/J RIJCOSX Grid4 TightSCF
|  4> %maxcore 5000
|  5> %tddft
|  6>     Mode sTDDFT
|  7>     Ethresh 5.0
|  8>     maxcore 5000
|  9> end
| 10>
| 11> %pal
| 12>   nprocs 6
| 13>   end
| 14> * xyz 0 1
| 15>    C       -0.89232         1.63750        -2.47008
| 16>    C       -0.66979         2.87341        -3.01957
| 17>    C       -1.22087         3.29548        -4.24546
| 18>    N       -1.66451         3.67924        -5.23170
| 19>    C        0.22129         3.79650        -2.43726
| 20>    N        0.99101         4.51706        -1.98216
| 21>    C       -1.53275         0.50534        -3.12304
| 22>    C       -1.10328        -0.69075        -2.47404
| 23>    C       -1.51326        -1.92118        -2.90002
| 24>    C       -2.39291        -2.01136        -4.00250
| 25>    C       -2.83634        -0.81857        -4.64496
| 26>    C       -2.38900         0.44252        -4.18910
| 27>    C       -3.71929        -0.92455        -5.73877
| 28>    C       -4.14267        -2.14837        -6.18070
| 29>    C       -3.70432        -3.32186        -5.54908
| 30>    C       -2.84784        -3.25482        -4.48374
| 31>    C       -0.21701        -0.35027        -1.34538
| 32>    O        0.38428        -1.09591        -0.61125
| 33>    C       -0.27464         1.14034        -1.25533
| 34>    C        0.09978         1.78968        -0.12730
| 35>    C       -0.30780         3.10376         0.25764
| 36>    S       -1.91780         3.65746        -0.09611
| 37>    C       -1.64527         5.17179         0.70149
| 38>    C       -0.34291         5.25491         1.16196
| 39>    C        0.39800         4.07671         0.93933
| 40>    C        1.84378         3.92318         1.29838
| 41>    N        2.03720         2.72763         2.16965
| 42>    O        2.98371         2.02260         1.93375
| 43>    O        1.25265         2.58141         3.07402
| 44>    C        2.36846         5.12622         2.08962
| 45>    C        1.81980         6.41558         1.49634
| 46>    C        0.30602         6.47471         1.74078
| 47>    N       -0.16111         7.72880         1.08996
| 48>    O       -0.23864         8.69973         1.80596
| 49>    O       -0.36770         7.71207        -0.09298
| 50>    C       -2.73988         6.09145         0.77793
| 51>    C       -2.89848         7.01735         1.74098
| 52>    C       -3.95684         7.99846         1.81894
| 53>    C       -4.06493         8.76842         3.00701
| 54>    O       -3.24552         8.34847         4.00294
| 55>    C       -2.71125         9.20997         4.98868
| 56>    C       -1.86169        10.32418         4.38830
| 57>    C       -5.05812         9.76186         3.09962
| 58>    C       -5.91714         9.94779         2.00882
| 59>    C       -5.80018         9.21103         0.85010
| 60>    C       -4.82207         8.24143         0.75543
| 61>    C       -5.29603        10.60890         4.26057
| 62>    C       -6.53419        10.83296         4.74811
| 63>    C       -6.83623        11.68210         5.85058
| 64>    C       -8.09607        11.96941         6.31958
| 65>    C       -8.00107        12.85286         7.43194
| 66>    C       -6.55409        13.08417         7.64119
| 67>    C       -5.87676        12.39206         6.69170
| 68>    C       -5.95757        13.86373         8.63801
| 69>    N       -5.42704        14.48389         9.44661
| 70>    C       -9.02784        13.40191         8.16044
| 71>    C       -8.92669        14.27499         9.28933
| 72>    C      -10.19013        14.56026         9.75509
| 73>    C      -11.15011        13.91125         8.87236
| 74>    C      -10.46719        13.21627         7.92431
| 75>    C      -11.05951        12.49093         6.88441
| 76>    N      -11.57052        11.90946         6.03547
| 77>    C      -10.47696        15.38838        10.87642
| 78>    C      -11.55984        15.29388        11.69562
| 79>    C      -11.93438        16.21550        12.75537
| 80>    C      -11.40053        17.45741        12.97838
| 81>    C      -11.81445        18.32067        14.01501
| 82>    N      -12.10293        19.06455        14.84024
| 83>    C      -10.39108        18.06112        12.19863
| 84>    N       -9.59160        18.62746        11.60009
| 85>    C      -13.03950        15.61880        13.49502
| 86>    C      -13.36664        14.36805        12.89711
| 87>    C      -12.46112        14.10902        11.76696
| 88>    O      -12.40978        13.10328        11.09258
| 89>    C      -14.37711        13.58184        13.37149
| 90>    C      -15.12608        14.02142        14.48540
| 91>    C      -14.80253        15.26903        15.09352
| 92>    C      -13.74732        16.05887        14.58280
| 93>    C      -15.55454        15.69649        16.20684
| 94>    C      -16.57809        14.93110        16.69558
| 95>    C      -16.89625        13.70352        16.09533
| 96>    C      -16.18577        13.25826        15.01371
| 97>    H       -1.17094        -2.81628        -2.40240
| 98>    H       -2.74348         1.33280        -4.68540
| 99>    H       -4.05146        -0.01848        -6.22379
|100>    H       -4.81769        -2.21904        -7.02033
|101>    H       -4.04878        -4.27912        -5.91054
|102>    H       -2.50710        -4.15495        -3.99353
|103>    H        0.68207         1.20995         0.58129
|104>    H        2.44076         3.76280         0.39385
|105>    H        3.45856         5.13218         2.06537
|106>    H        2.04496         5.04067         3.13080
|107>    H        2.00766         6.43832         0.42028
|108>    H        2.30205         7.27745         1.96031
|109>    H        0.10606         6.58231         2.81355
|110>    H       -3.49180         5.96042         0.01312
|111>    H       -2.20331         7.04886         2.56631
|112>    H       -2.08326         8.54702         5.59177
|113>    H       -3.50659         9.59914         5.63625
|114>    H       -1.10401         9.89846         3.73408
|115>    H       -1.37360        10.88262         5.18235
|116>    H       -2.46424        11.00696         3.79320
|117>    H       -6.66785        10.72025         2.07930
|118>    H       -6.46435         9.39828         0.02091
|119>    H       -4.71320         7.67950        -0.15769
|120>    H       -4.45903        11.12189         4.70765
|121>    H       -7.38169        10.32682         4.30422
|122>    H       -9.01599        11.59837         5.91283
|123>    H       -4.80825        12.36349         6.58319
|124>    H       -8.00559        14.60635         9.72862
|125>    H      -12.21595        14.01048         8.93365
|126>    H       -9.72531        16.13852        11.09193
|127>    H      -14.60419        12.63756        12.89911
|128>    H      -13.52398        16.99492        15.06945
|129>    H      -15.30662        16.64267        16.66499
|130>    H      -17.14892        15.26770        17.54792
|131>    H      -17.70695        13.11248        16.49430
|132>    H      -16.42576        12.31395        14.54736
|133> *
|134>
|135>                          ****END OF INPUT****

CARTESIAN COORDINATES (ANGSTROEM)
---------------------------------
  C     -0.892320    1.637500   -2.470080
  C     -0.669790    2.873410   -3.019570
  C     -1.220870    3.295480   -4.245460
  N     -1.664510    3.679240   -5.231700
  C      0.221290    3.796500   -2.437260
  N      0.991010    4.517060   -1.982160
  C     -1.532750    0.505340   -3.123040
  C     -1.103280   -0.690750   -2.474040
  C     -1.513260   -1.921180   -2.900020
  C     -2.392910   -2.011360   -4.002500
  C     -2.836340   -0.818570   -4.644960
  C     -2.389000    0.442520   -4.189100
  C     -3.719290   -0.924550   -5.738770
  C     -4.142670   -2.148370   -6.180700
  C     -3.704320   -3.321860   -5.549080
  C     -2.847840   -3.254820   -4.483740
  C     -0.217010   -0.350270   -1.345380
  O      0.384280   -1.095910   -0.611250
  C     -0.274640    1.140340   -1.255330
  C      0.099780    1.789680   -0.127300
  C     -0.307800    3.103760    0.257640
  S     -1.917800    3.657460   -0.096110
  C     -1.645270    5.171790    0.701490
  C     -0.342910    5.254910    1.161960
  C      0.398000    4.076710    0.939330
  C      1.843780    3.923180    1.298380
  N      2.037200    2.727630    2.169650
  O      2.983710    2.022600    1.933750
  O      1.252650    2.581410    3.074020
  C      2.368460    5.126220    2.089620
  C      1.819800    6.415580    1.496340
  C      0.306020    6.474710    1.740780
  N     -0.161110    7.728800    1.089960
  O     -0.238640    8.699730    1.805960
  O     -0.367700    7.712070   -0.092980
  C     -2.739880    6.091450    0.777930
  C     -2.898480    7.017350    1.740980
  C     -3.956840    7.998460    1.818940
  C     -4.064930    8.768420    3.007010
  O     -3.245520    8.348470    4.002940
  C     -2.711250    9.209970    4.988680
  C     -1.861690   10.324180    4.388300
  C     -5.058120    9.761860    3.099620
  C     -5.917140    9.947790    2.008820
  C     -5.800180    9.211030    0.850100
  C     -4.822070    8.241430    0.755430
  C     -5.296030   10.608900    4.260570
  C     -6.534190   10.832960    4.748110
  C     -6.836230   11.682100    5.850580
  C     -8.096070   11.969410    6.319580
  C     -8.001070   12.852860    7.431940
  C     -6.554090   13.084170    7.641190
  C     -5.876760   12.392060    6.691700
  C     -5.957570   13.863730    8.638010
  N     -5.427040   14.483890    9.446610
  C     -9.027840   13.401910    8.160440
  C     -8.926690   14.274990    9.289330
  C    -10.190130   14.560260    9.755090
  C    -11.150110   13.911250    8.872360
  C    -10.467190   13.216270    7.924310
  C    -11.059510   12.490930    6.884410
  N    -11.570520   11.909460    6.035470
  C    -10.476960   15.388380   10.876420
  C    -11.559840   15.293880   11.695620
  C    -11.934380   16.215500   12.755370
  C    -11.400530   17.457410   12.978380
  C    -11.814450   18.320670   14.015010
  N    -12.102930   19.064550   14.840240
  C    -10.391080   18.061120   12.198630
  N     -9.591600   18.627460   11.600090
  C    -13.039500   15.618800   13.495020
  C    -13.366640   14.368050   12.897110
  C    -12.461120   14.109020   11.766960
  O    -12.409780   13.103280   11.092580
  C    -14.377110   13.581840   13.371490
  C    -15.126080   14.021420   14.485400
  C    -14.802530   15.269030   15.093520
  C    -13.747320   16.058870   14.582800
  C    -15.554540   15.696490   16.206840
  C    -16.578090   14.931100   16.695580
  C    -16.896250   13.703520   16.095330
  C    -16.185770   13.258260   15.013710
  H     -1.170940   -2.816280   -2.402400
  H     -2.743480    1.332800   -4.685400
  H     -4.051460   -0.018480   -6.223790
  H     -4.817690   -2.219040   -7.020330
  H     -4.048780   -4.279120   -5.910540
  H     -2.507100   -4.154950   -3.993530
  H      0.682070    1.209950    0.581290
  H      2.440760    3.762800    0.393850
  H      3.458560    5.132180    2.065370
  H      2.044960    5.040670    3.130800
  H      2.007660    6.438320    0.420280
  H      2.302050    7.277450    1.960310
  H      0.106060    6.582310    2.813550
  H     -3.491800    5.960420    0.013120
  H     -2.203310    7.048860    2.566310
  H     -2.083260    8.547020    5.591770
  H     -3.506590    9.599140    5.636250
  H     -1.104010    9.898460    3.734080
  H     -1.373600   10.882620    5.182350
  H     -2.464240   11.006960    3.793200
  H     -6.667850   10.720250    2.079300
  H     -6.464350    9.398280    0.020910
  H     -4.713200    7.679500   -0.157690
  H     -4.459030   11.121890    4.707650
  H     -7.381690   10.326820    4.304220
  H     -9.015990   11.598370    5.912830
  H     -4.808250   12.363490    6.583190
  H     -8.005590   14.606350    9.728620
  H    -12.215950   14.010480    8.933650
  H     -9.725310   16.138520   11.091930
  H    -14.604190   12.637560   12.899110
  H    -13.523980   16.994920   15.069450
  H    -15.306620   16.642670   16.664990
  H    -17.148920   15.267700   17.547920
  H    -17.706950   13.112480   16.494300
  H    -16.425760   12.313950   14.547360

 Total Charge           Charge          ....    0
 Multiplicity           Mult            ....    1
 Number of Electrons    NEL             ....  560
 Basis Dimension        Dim             .... 1332

ORBITAL ENERGIES
----------------

  NO   OCC          E(Eh)            E(eV)
   0   2.0000     -88.975074     -2421.1349
   1   2.0000     -19.254199      -523.9334
   2   2.0000     -19.254033      -523.9289
   3   2.0000     -19.253114      -523.9039
   4   2.0000     -19.253071      -523.9027
   5   2.0000     -19.251301      -523.8545
   6   2.0000     -19.226061      -523.1677
   7   2.0000     -19.217558      -522.9363
   8   2.0000     -14.651329      -398.6829
   9   2.0000     -14.650109      -398.6497
  10   2.0000     -14.421569      -392.4308
  11   2.0000     -14.420763      -392.4089
  12   2.0000     -14.420424      -392.3997
  13   2.0000     -14.419346      -392.3704
  14   2.0000     -14.415227      -392.2583
  15   2.0000     -14.405619      -391.9968
  16   2.0000     -10.376267      -282.3526
  17   2.0000     -10.368908      -282.1523
  18   2.0000     -10.349629      -281.6277
  19   2.0000     -10.349325      -281.6195
  20   2.0000     -10.347411      -281.5674
  21   2.0000     -10.346930      -281.5543
  22   2.0000     -10.346610      -281.5456
  23   2.0000     -10.344512      -281.4885
  24   2.0000     -10.344239      -281.4810
  25   2.0000     -10.334546      -281.2173
  26   2.0000     -10.330595      -281.1098
  27   2.0000     -10.326334      -280.9938
  28   2.0000     -10.326135      -280.9884
  29   2.0000     -10.325835      -280.9803
  30   2.0000     -10.325400      -280.9684
  31   2.0000     -10.324238      -280.9368
  32   2.0000     -10.323566      -280.9185
  33   2.0000     -10.322731      -280.8958
  34   2.0000     -10.322675      -280.8943
  35   2.0000     -10.321522      -280.8629
  36   2.0000     -10.320700      -280.8405
  37   2.0000     -10.317034      -280.7408
  38   2.0000     -10.316825      -280.7351
  39   2.0000     -10.311149      -280.5806
  40   2.0000     -10.310723      -280.5690
  41   2.0000     -10.310094      -280.5519
  42   2.0000     -10.309145      -280.5261
  43   2.0000     -10.308796      -280.5166
  44   2.0000     -10.308683      -280.5135
  45   2.0000     -10.308679      -280.5134
  46   2.0000     -10.308348      -280.5044
  47   2.0000     -10.306627      -280.4576
  48   2.0000     -10.304604      -280.4025
  49   2.0000     -10.303630      -280.3760
  50   2.0000     -10.302957      -280.3577
  51   2.0000     -10.302941      -280.3573
  52   2.0000     -10.302895      -280.3560
  53   2.0000     -10.302805      -280.3536
  54   2.0000     -10.302709      -280.3510
  55   2.0000     -10.302535      -280.3462
  56   2.0000     -10.302401      -280.3426
  57   2.0000     -10.302098      -280.3343
  58   2.0000     -10.300582      -280.2931
  59   2.0000     -10.300127      -280.2807
  60   2.0000     -10.299926      -280.2752
  61   2.0000     -10.299538      -280.2647
  62   2.0000     -10.294630      -280.1311
  63   2.0000     -10.293621      -280.1037
  64   2.0000     -10.293013      -280.0871
  65   2.0000     -10.292258      -280.0666
  66   2.0000     -10.291120      -280.0356
  67   2.0000     -10.290652      -280.0229
  68   2.0000     -10.290465      -280.0178
  69   2.0000     -10.290370      -280.0152
  70   2.0000     -10.289863      -280.0014
  71   2.0000     -10.288663      -279.9687
  72   2.0000     -10.288376      -279.9609
  73   2.0000     -10.288294      -279.9587
  74   2.0000     -10.288058      -279.9523
  75   2.0000     -10.287666      -279.9416
  76   2.0000     -10.285594      -279.8852
  77   2.0000     -10.284845      -279.8649
  78   2.0000     -10.283563      -279.8300
  79   2.0000     -10.282057      -279.7890
  80   2.0000     -10.273721      -279.5622
  81   2.0000     -10.267792      -279.4008
  82   2.0000      -8.070367      -219.6058
  83   2.0000      -6.039604      -164.3460
  84   2.0000      -6.035485      -164.2339
  85   2.0000      -6.032533      -164.1536
  86   2.0000      -1.334984       -36.3268
  87   2.0000      -1.334125       -36.3034
  88   2.0000      -1.160618       -31.5820
  89   2.0000      -1.155504       -31.4429
  90   2.0000      -1.154926       -31.4271
  91   2.0000      -1.141374       -31.0584
  92   2.0000      -1.133289       -30.8384
  93   2.0000      -1.026851       -27.9420
  94   2.0000      -1.023951       -27.8631
  95   2.0000      -1.020455       -27.7680
  96   2.0000      -1.016463       -27.6594
  97   2.0000      -1.004479       -27.3333
  98   2.0000      -1.003185       -27.2981
  99   2.0000      -1.001814       -27.2608
 100   2.0000      -0.998716       -27.1764
 101   2.0000      -0.998267       -27.1642
 102   2.0000      -0.989525       -26.9263
 103   2.0000      -0.984025       -26.7767
 104   2.0000      -0.976014       -26.5587
 105   2.0000      -0.975801       -26.5529
 106   2.0000      -0.967582       -26.3292
 107   2.0000      -0.964743       -26.2520
 108   2.0000      -0.943544       -25.6751
 109   2.0000      -0.930900       -25.3311
 110   2.0000      -0.927666       -25.2431
 111   2.0000      -0.923071       -25.1181
 112   2.0000      -0.912389       -24.8274
 113   2.0000      -0.908516       -24.7220
 114   2.0000      -0.897031       -24.4095
 115   2.0000      -0.887979       -24.1631
 116   2.0000      -0.884992       -24.0819
 117   2.0000      -0.884184       -24.0599
 118   2.0000      -0.879142       -23.9227
 119   2.0000      -0.871130       -23.7046
 120   2.0000      -0.865529       -23.5522
 121   2.0000      -0.858930       -23.3727
 122   2.0000      -0.856772       -23.3140
 123   2.0000      -0.845986       -23.0204
 124   2.0000      -0.838127       -22.8066
 125   2.0000      -0.833470       -22.6799
 126   2.0000      -0.831029       -22.6135
 127   2.0000      -0.830756       -22.6060
 128   2.0000      -0.822172       -22.3724
 129   2.0000      -0.812812       -22.1177
 130   2.0000      -0.800618       -21.7859
 131   2.0000      -0.782984       -21.3061
 132   2.0000      -0.770594       -20.9689
 133   2.0000      -0.767743       -20.8914
 134   2.0000      -0.762498       -20.7486
 135   2.0000      -0.751834       -20.4584
 136   2.0000      -0.743855       -20.2413
 137   2.0000      -0.736172       -20.0323
 138   2.0000      -0.731146       -19.8955
 139   2.0000      -0.730080       -19.8665
 140   2.0000      -0.721497       -19.6329
 141   2.0000      -0.716113       -19.4864
 142   2.0000      -0.709420       -19.3043
 143   2.0000      -0.707983       -19.2652
 144   2.0000      -0.703454       -19.1419
 145   2.0000      -0.701953       -19.1011
 146   2.0000      -0.699279       -19.0284
 147   2.0000      -0.688450       -18.7337
 148   2.0000      -0.683701       -18.6045
 149   2.0000      -0.681066       -18.5327
 150   2.0000      -0.678213       -18.4551
 151   2.0000      -0.674362       -18.3503
 152   2.0000      -0.666177       -18.1276
 153   2.0000      -0.661716       -18.0062
 154   2.0000      -0.655030       -17.8243
 155   2.0000      -0.648520       -17.6471
 156   2.0000      -0.647814       -17.6279
 157   2.0000      -0.641781       -17.4638
 158   2.0000      -0.640031       -17.4161
 159   2.0000      -0.636319       -17.3151
 160   2.0000      -0.634228       -17.2582
 161   2.0000      -0.630108       -17.1461
 162   2.0000      -0.624666       -16.9980
 163   2.0000      -0.619113       -16.8469
 164   2.0000      -0.618458       -16.8291
 165   2.0000      -0.616274       -16.7697
 166   2.0000      -0.611482       -16.6393
 167   2.0000      -0.611020       -16.6267
 168   2.0000      -0.609803       -16.5936
 169   2.0000      -0.604802       -16.4575
 170   2.0000      -0.597835       -16.2679
 171   2.0000      -0.590713       -16.0741
 172   2.0000      -0.587550       -15.9881
 173   2.0000      -0.587277       -15.9806
 174   2.0000      -0.581004       -15.8099
 175   2.0000      -0.575576       -15.6622
 176   2.0000      -0.569534       -15.4978
 177   2.0000      -0.559711       -15.2305
 178   2.0000      -0.558593       -15.2001
 179   2.0000      -0.555032       -15.1032
 180   2.0000      -0.552488       -15.0340
 181   2.0000      -0.551262       -15.0006
 182   2.0000      -0.549707       -14.9583
 183   2.0000      -0.549148       -14.9431
 184   2.0000      -0.547127       -14.8881
 185   2.0000      -0.544031       -14.8038
 186   2.0000      -0.542930       -14.7739
 187   2.0000      -0.540242       -14.7007
 188   2.0000      -0.537968       -14.6388
 189   2.0000      -0.535415       -14.5694
 190   2.0000      -0.535021       -14.5587
 191   2.0000      -0.534308       -14.5392
 192   2.0000      -0.530564       -14.4374
 193   2.0000      -0.528156       -14.3719
 194   2.0000      -0.526443       -14.3252
 195   2.0000      -0.525109       -14.2890
 196   2.0000      -0.522085       -14.2067
 197   2.0000      -0.521088       -14.1795
 198   2.0000      -0.520481       -14.1630
 199   2.0000      -0.516689       -14.0598
 200   2.0000      -0.514642       -14.0041
 201   2.0000      -0.514098       -13.9893
 202   2.0000      -0.509154       -13.8548
 203   2.0000      -0.507171       -13.8008
 204   2.0000      -0.506406       -13.7800
 205   2.0000      -0.502944       -13.6858
 206   2.0000      -0.502303       -13.6684
 207   2.0000      -0.501586       -13.6488
 208   2.0000      -0.500429       -13.6174
 209   2.0000      -0.491412       -13.3720
 210   2.0000      -0.489046       -13.3076
 211   2.0000      -0.488330       -13.2881
 212   2.0000      -0.486148       -13.2287
 213   2.0000      -0.485432       -13.2093
 214   2.0000      -0.481631       -13.1058
 215   2.0000      -0.480000       -13.0615
 216   2.0000      -0.479068       -13.0361
 217   2.0000      -0.472306       -12.8521
 218   2.0000      -0.470244       -12.7960
 219   2.0000      -0.469475       -12.7751
 220   2.0000      -0.468546       -12.7498
 221   2.0000      -0.467245       -12.7144
 222   2.0000      -0.465074       -12.6553
 223   2.0000      -0.459618       -12.5068
 224   2.0000      -0.454726       -12.3737
 225   2.0000      -0.453110       -12.3298
 226   2.0000      -0.452019       -12.3001
 227   2.0000      -0.448662       -12.2087
 228   2.0000      -0.446900       -12.1608
 229   2.0000      -0.446145       -12.1402
 230   2.0000      -0.445458       -12.1215
 231   2.0000      -0.443751       -12.0751
 232   2.0000      -0.443309       -12.0630
 233   2.0000      -0.440853       -11.9962
 234   2.0000      -0.438822       -11.9410
 235   2.0000      -0.438767       -11.9395
 236   2.0000      -0.438287       -11.9264
 237   2.0000      -0.436960       -11.8903
 238   2.0000      -0.436698       -11.8832
 239   2.0000      -0.435256       -11.8439
 240   2.0000      -0.434946       -11.8355
 241   2.0000      -0.434340       -11.8190
 242   2.0000      -0.430991       -11.7279
 243   2.0000      -0.430617       -11.7177
 244   2.0000      -0.429580       -11.6895
 245   2.0000      -0.424366       -11.5476
 246   2.0000      -0.424124       -11.5410
 247   2.0000      -0.419158       -11.4059
 248   2.0000      -0.417519       -11.3613
 249   2.0000      -0.413826       -11.2608
 250   2.0000      -0.413178       -11.2432
 251   2.0000      -0.409893       -11.1538
 252   2.0000      -0.404023       -10.9940
 253   2.0000      -0.399688       -10.8761
 254   2.0000      -0.399016       -10.8578
 255   2.0000      -0.393683       -10.7127
 256   2.0000      -0.392199       -10.6723
 257   2.0000      -0.389094       -10.5878
 258   2.0000      -0.387320       -10.5395
 259   2.0000      -0.385469       -10.4891
 260   2.0000      -0.381863       -10.3910
 261   2.0000      -0.380009       -10.3406
 262   2.0000      -0.378199       -10.2913
 263   2.0000      -0.377546       -10.2735
 264   2.0000      -0.376007       -10.2317
 265   2.0000      -0.360721        -9.8157
 266   2.0000      -0.355807        -9.6820
 267   2.0000      -0.350869        -9.5476
 268   2.0000      -0.339157        -9.2289
 269   2.0000      -0.337045        -9.1715
 270   2.0000      -0.327785        -8.9195
 271   2.0000      -0.325433        -8.8555
 272   2.0000      -0.320218        -8.7136
 273   2.0000      -0.317464        -8.6386
 274   2.0000      -0.310456        -8.4480
 275   2.0000      -0.305042        -8.3006
 276   2.0000      -0.296340        -8.0638
 277   2.0000      -0.295753        -8.0479
 278   2.0000      -0.277178        -7.5424
 279   2.0000      -0.267609        -7.2820
 280   0.0000      -0.130238        -3.5439
 281   0.0000      -0.097499        -2.6531
 282   0.0000      -0.084645        -2.3033
 283   0.0000      -0.062206        -1.6927
 284   0.0000      -0.059826        -1.6280

MULLIKEN ATOMIC CHARGES
-----------------------
   0 C :    0.240742
   1 C :   -0.320277
   2 C :   -0.175978
   3 N :    0.159564
   4 C :   -0.156888
   5 N :    0.149709
   6 C :    0.043062
   7 C :    0.003246
   8 C :   -0.074766
   9 C :    0.090336
  10 C :    0.092216
  11 C :   -0.077258
  12 C :   -0.014690
  13 C :    0.033130
  14 C :    0.036893
  15 C :   -0.012467
  16 C :    0.147024
  17 O :   -0.128660
  18 C :   -0.139631
  19 C :    0.037761
  20 C :   -0.232091
  21 S :    0.174378
  22 C :   -0.111557
  23 C :   -0.008373
  24 C :    0.083901
  25 C :    0.130111
  26 N :    0.178272
  27 O :   -0.216900
  28 O :   -0.220198
  29 C :    0.071255
  30 C :    0.053683
  31 C :    0.095645
  32 N :    0.196617
  33 O :   -0.237592
  34 O :   -0.190644
  35 C :    0.034009
  36 C :    0.020138
  37 C :    0.009979
  38 C :    0.178964
  39 O :   -0.319737
  40 C :    0.165703
  41 C :   -0.036690
  42 C :    0.021110
  43 C :   -0.021685
  44 C :    0.035599
  45 C :   -0.014234
  46 C :   -0.020048
  47 C :   -0.000812
  48 C :    0.114956
  49 C :   -0.108191
  50 C :    0.124579
  51 C :   -0.091063
  52 C :   -0.009592
  53 C :   -0.179195
  54 N :    0.137485
  55 C :    0.104184
  56 C :   -0.071293
  57 C :    0.079225
  58 C :    0.075205
  59 C :   -0.125984
  60 C :   -0.179218
  61 N :    0.127830
  62 C :   -0.026654
  63 C :   -0.085313
  64 C :    0.314295
  65 C :   -0.338168
  66 C :   -0.182090
  67 N :    0.152480
  68 C :   -0.198281
  69 N :    0.167538
  70 C :    0.050924
  71 C :   -0.013478
  72 C :    0.142222
  73 O :   -0.141683
  74 C :   -0.072867
  75 C :    0.095093
  76 C :    0.095174
  77 C :   -0.079618
  78 C :   -0.016535
  79 C :    0.037280
  80 C :    0.035972
  81 C :   -0.012959
  82 H :   -0.010045
  83 H :   -0.006151
  84 H :   -0.011045
  85 H :   -0.002549
  86 H :   -0.004509
  87 H :   -0.016150
  88 H :    0.041589
  89 H :    0.043470
  90 H :    0.036323
  91 H :    0.026768
  92 H :    0.052836
  93 H :    0.028027
  94 H :    0.046764
  95 H :   -0.009201
  96 H :   -0.003774
  97 H :    0.022993
  98 H :    0.012566
  99 H :    0.043160
 100 H :    0.024107
 101 H :    0.030617
 102 H :   -0.010096
 103 H :   -0.013185
 104 H :   -0.015575
 105 H :    0.007599
 106 H :    0.002607
 107 H :    0.001472
 108 H :   -0.000776
 109 H :    0.013325
 110 H :    0.005030
 111 H :    0.038536
 112 H :   -0.011452
 113 H :   -0.007985
 114 H :   -0.007817
 115 H :   -0.002637
 116 H :   -0.002586
 117 H :   -0.016390
Sum of atomic charges:   -0.0000000

LOEWDIN ATOMIC CHARGES
----------------------
   0 C :    0.061763
   1 C :   -0.137797
   2 C :   -0.019870
   3 N :   -0.047815
   4 C :   -0.011836
   5 N :   -0.056347
   6 C :   -0.023826
   7 C :   -0.057566
   8 C :    0.034701
   9 C :   -0.008662
  10 C :   -0.005357
  11 C :    0.016905
  12 C :   -0.006150
  13 C :   -0.012177
  14 C :   -0.011861
  15 C :   -0.008265
  16 C :    0.083389
  17 O :   -0.131171
  18 C :   -0.083894
  19 C :    0.043009
  20 C :   -0.186653
  21 S :    0.483562
  22 C :   -0.132937
  23 C :   -0.072689
  24 C :   -0.032877
  25 C :    0.021565
  26 N :    0.268156
  27 O :   -0.189147
  28 O :   -0.199442
  29 C :   -0.017178
  30 C :   -0.014626
  31 C :    0.014859
  32 N :    0.278835
  33 O :   -0.204021
  34 O :   -0.170259
  35 C :   -0.057343
  36 C :    0.006441
  37 C :   -0.050151
  38 C :    0.077827
  39 O :   -0.092859
  40 C :    0.079523
  41 C :   -0.077017
  42 C :   -0.067335
  43 C :    0.002158
  44 C :   -0.036250
  45 C :    0.007927
  46 C :    0.008721
  47 C :   -0.020751
  48 C :   -0.002402
  49 C :   -0.032503
  50 C :    0.048627
  51 C :   -0.074556
  52 C :    0.053245
  53 C :   -0.033007
  54 N :   -0.056925
  55 C :    0.027042
  56 C :    0.023684
  57 C :   -0.030703
  58 C :    0.077572
  59 C :   -0.095308
  60 C :   -0.027630
  61 N :   -0.068119
  62 C :    0.074926
  63 C :   -0.080696
  64 C :    0.072651
  65 C :   -0.129637
  66 C :   -0.016596
  67 N :   -0.047405
  68 C :   -0.024435
  69 N :   -0.041412
  70 C :   -0.026161
  71 C :   -0.057967
  72 C :    0.084276
  73 O :   -0.130646
  74 C :    0.035475
  75 C :   -0.007950
  76 C :   -0.005053
  77 C :    0.021192
  78 C :   -0.004544
  79 C :   -0.010956
  80 C :   -0.010441
  81 C :   -0.008125
  82 H :    0.040233
  83 H :    0.038719
  84 H :    0.034246
  85 H :    0.033711
  86 H :    0.033099
  87 H :    0.032419
  88 H :    0.048961
  89 H :    0.047139
  90 H :    0.040865
  91 H :    0.032005
  92 H :    0.041559
  93 H :    0.036720
  94 H :    0.040579
  95 H :    0.027367
  96 H :    0.024770
  97 H :    0.027665
  98 H :    0.010220
  99 H :    0.034695
 100 H :    0.033385
 101 H :    0.025877
 102 H :    0.032264
 103 H :    0.031866
 104 H :    0.030667
 105 H :    0.025817
 106 H :    0.038544
 107 H :    0.036326
 108 H :    0.034753
 109 H :    0.039558
 110 H :    0.037567
 111 H :    0.052612
 112 H :    0.039890
 113 H :    0.039413
 114 H :    0.035346
 115 H :    0.034131
 116 H :    0.033779
 117 H :    0.032502

  Mayer bond orders larger than 0.100000
B(  0-C ,  1-C ) :   1.6623 B(  0-C ,  6-C ) :   1.0062 B(  0-C , 18-C ) :   1.0281
B(  1-C ,  2-C ) :   1.1321 B(  1-C ,  4-C ) :   1.1634 B(  2-C ,  3-N ) :   2.9921
B(  4-C ,  5-N ) :   2.9757 B(  6-C ,  7-C ) :   1.2119 B(  6-C , 11-C ) :   1.4571
B(  7-C ,  8-C ) :   1.4743 B(  7-C , 16-C ) :   0.9200 B(  8-C ,  9-C ) :   1.1880
B(  8-C , 82-H ) :   1.0157 B(  9-C , 10-C ) :   1.2566 B(  9-C , 15-C ) :   1.2446
B( 10-C , 11-C ) :   1.2040 B( 10-C , 12-C ) :   1.2412 B( 11-C , 83-H ) :   0.9951
B( 12-C , 13-C ) :   1.4891 B( 12-C , 84-H ) :   0.9976 B( 13-C , 14-C ) :   1.2596
B( 13-C , 85-H ) :   0.9896 B( 14-C , 15-C ) :   1.4899 B( 14-C , 86-H ) :   0.9894
B( 15-C , 87-H ) :   0.9978 B( 16-C , 17-O ) :   2.2875 B( 16-C , 18-C ) :   0.9240
B( 18-C , 19-C ) :   1.7205 B( 19-C , 20-C ) :   1.0680 B( 19-C , 88-H ) :   0.9372
B( 20-C , 21-S ) :   1.1335 B( 20-C , 24-C ) :   1.4913 B( 21-S , 22-C ) :   1.1516
B( 22-C , 23-C ) :   1.5201 B( 22-C , 35-C ) :   1.0891 B( 23-C , 24-C ) :   1.3426
B( 23-C , 31-C ) :   0.9548 B( 24-C , 25-C ) :   0.9728 B( 25-C , 26-N ) :   0.8332
B( 25-C , 29-C ) :   1.0678 B( 25-C , 89-H ) :   0.8900 B( 26-N , 27-O ) :   1.5526
B( 26-N , 28-O ) :   1.5739 B( 27-O , 28-O ) :   0.2755 B( 29-C , 30-C ) :   1.1010
B( 29-C , 90-H ) :   0.9257 B( 29-C , 91-H ) :   0.9198 B( 30-C , 31-C ) :   1.0662
B( 30-C , 92-H ) :   0.9285 B( 30-C , 93-H ) :   0.9248 B( 31-C , 32-N ) :   0.8335
B( 31-C , 94-H ) :   0.9006 B( 32-N , 33-O ) :   1.4921 B( 32-N , 34-O ) :   1.6059
B( 33-O , 34-O ) :   0.2705 B( 35-C , 36-C ) :   1.7039 B( 35-C , 95-H ) :   0.9441
B( 36-C , 37-C ) :   1.1011 B( 36-C , 96-H ) :   0.9631 B( 37-C , 38-C ) :   1.3005
B( 37-C , 45-C ) :   1.3801 B( 38-C , 39-O ) :   1.1710 B( 38-C , 42-C ) :   1.3189
B( 39-O , 40-C ) :   0.9342 B( 40-C , 41-C ) :   1.1026 B( 40-C , 97-H ) :   0.9542
B( 40-C , 98-H ) :   0.9468 B( 41-C , 99-H ) :   0.9508 B( 41-C ,100-H ) :   0.9602
B( 41-C ,101-H ) :   0.9601 B( 42-C , 43-C ) :   1.3673 B( 42-C , 46-C ) :   0.9859
B( 43-C , 44-C ) :   1.3730 B( 43-C ,102-H ) :   0.9940 B( 44-C , 45-C ) :   1.3637
B( 44-C ,103-H ) :   0.9895 B( 45-C ,104-H ) :   0.9904 B( 46-C , 47-C ) :   1.7421
B( 46-C ,105-H ) :   0.9447 B( 47-C , 48-C ) :   1.1087 B( 47-C ,106-H ) :   0.9784
B( 48-C , 49-C ) :   1.5355 B( 48-C , 52-C ) :   1.0293 B( 49-C , 50-C ) :   1.1159
B( 49-C ,107-H ) :   1.0104 B( 50-C , 51-C ) :   1.0892 B( 50-C , 55-C ) :   1.4262
B( 51-C , 52-C ) :   1.7013 B( 51-C , 53-C ) :   1.0899 B( 52-C ,108-H ) :   1.0133
B( 53-C , 54-N ) :   2.9671 B( 55-C , 56-C ) :   1.0939 B( 55-C , 59-C ) :   1.1183
B( 56-C , 57-C ) :   1.5239 B( 56-C ,109-H ) :   1.0071 B( 57-C , 58-C ) :   1.0578
B( 57-C , 62-C ) :   1.0969 B( 58-C , 59-C ) :   1.6690 B( 58-C ,110-H ) :   1.0060
B( 59-C , 60-C ) :   1.0949 B( 60-C , 61-N ) :   2.9672 B( 62-C , 63-C ) :   1.6257
B( 62-C ,111-H ) :   0.9484 B( 63-C , 64-C ) :   1.0438 B( 63-C , 72-C ) :   0.9340
B( 64-C , 65-C ) :   1.6493 B( 64-C , 70-C ) :   0.9959 B( 65-C , 66-C ) :   1.1452
B( 65-C , 68-C ) :   1.1398 B( 66-C , 67-N ) :   2.9642 B( 68-C , 69-N ) :   2.9829
B( 70-C , 71-C ) :   1.2105 B( 70-C , 77-C ) :   1.4461 B( 71-C , 72-C ) :   0.9452
B( 71-C , 74-C ) :   1.4709 B( 72-C , 73-O ) :   2.2186 B( 74-C , 75-C ) :   1.1812
B( 74-C ,112-H ) :   1.0161 B( 75-C , 76-C ) :   1.2532 B( 75-C , 81-C ) :   1.2452
B( 76-C , 77-C ) :   1.2107 B( 76-C , 78-C ) :   1.2381 B( 77-C ,113-H ) :   0.9890
B( 78-C , 79-C ) :   1.4909 B( 78-C ,114-H ) :   0.9973 B( 79-C , 80-C ) :   1.2578
B( 79-C ,115-H ) :   0.9891 B( 80-C , 81-C ) :   1.4895 B( 80-C ,116-H ) :   0.9893
B( 81-C ,117-H ) :   0.9974

-----------------------------------------------------------------------------
         ABSORPTION SPECTRUM VIA TRANSITION ELECTRIC DIPOLE MOMENTS
-----------------------------------------------------------------------------
State   Energy  Wavelength   fosc         T2         TX        TY        TZ
        (cm-1)    (nm)                  (au**2)     (au)      (au)      (au)
-----------------------------------------------------------------------------
   0   15371.5    650.6   0.756860365  16.20970   2.53715  -1.86752  -2.50698
   1   18746.4    533.4   0.004216564   0.07405  -0.20918  -0.02640   0.17203
   2   19477.4    513.4   0.017132928   0.28958  -0.20259   0.45320   0.20772
   3   20049.4    498.8   0.638035528  10.47658  -0.71521   2.30184   2.16023
   4   22771.4    439.1   0.183062634   2.64658  -0.73139   1.05069   1.00385
   5   23676.5    422.4   0.475940829   6.61777  -1.62200   0.96191   1.74975
   6   25378.7    394.0   0.022238614   0.28848   0.14790  -0.39539  -0.33207
   7   26335.6    379.7   0.073649824   0.92067  -0.66830  -0.66304  -0.18554
   8   26579.0    376.2   0.029011999   0.35935  -0.30135  -0.00810   0.51814
   9   27303.0    366.3   0.164879262   1.98807   0.16260  -0.93404  -1.04365
  10   28033.1    356.7   0.017157314   0.20149   0.17316   0.00702  -0.41407
  11   28518.8    350.6   0.224776325   2.59474   0.76330  -1.32987  -0.49354
  12   28676.3    348.7   0.234156910   2.68818  -1.29439   0.34363   0.94586
  13   29177.3    342.7   0.064554064   0.72837   0.24610  -0.81577  -0.04817
  14   29672.0    337.0   0.125248726   1.38964   0.03988  -1.15741  -0.22015
  15   29880.7    334.7   0.025097485   0.27651   0.11023  -0.50606  -0.09092
  16   30513.9    327.7   0.014629269   0.15783  -0.11889  -0.35637  -0.12921
  17   30531.0    327.5   0.070245660   0.75745   0.21235   0.84214   0.05622
  18   30871.3    323.9   0.311286792   3.31957   1.46843   0.28693  -1.03969
  19   31063.6    321.9   0.021891763   0.23201  -0.09773   0.02657  -0.47091
  20   31172.9    320.8   0.155169244   1.63872   0.93221   0.08851  -0.87286
  21   31633.6    316.1   0.246298416   2.56324  -1.30904  -0.26792   0.88197
  22   32348.4    309.1   0.013941268   0.14188  -0.36185   0.09690   0.03942
  23   32911.5    303.8   0.045946194   0.45960   0.10972  -0.66825  -0.03160
  24   33074.0    302.4   0.216771841   2.15770   1.01795   0.65011   0.83597
  25   33448.5    299.0   0.633203205   6.23220   0.50034  -2.22512  -1.01523
  26   33621.0    297.4   0.090293549   0.88414   0.60725   0.49160  -0.52318
  27   33718.3    296.6   0.078867602   0.77003   0.79348   0.05002  -0.37138
  28   34228.5    292.2   0.105348632   1.01325  -0.58126  -0.39149   0.72258
  29   34330.2    291.3   0.093167834   0.89344   0.68288  -0.03904  -0.65238
  30   34448.9    290.3   0.102537623   0.97990   0.16727   0.92433   0.31231
  31   34670.4    288.4   0.328322744   3.11758   1.15973   1.24551   0.47045
  32   35046.6    285.3   0.033931008   0.31873   0.23886   0.43409  -0.27064
  33   36064.9    277.3   0.541289105   4.94105   1.43861   1.66074  -0.33677
  34   36371.2    274.9   0.076806360   0.69521  -0.67407   0.32142  -0.37086
  35   36933.8    270.8   0.004354207   0.03881   0.13406   0.12780  -0.06713
  36   37191.3    268.9   0.000381257   0.00337  -0.02417   0.03659   0.03810
  37   37318.9    268.0   0.033002328   0.29113  -0.53943   0.01191   0.00162
  38   37834.3    264.3   0.007786697   0.06776   0.24257   0.06753  -0.06598
  39   38362.9    260.7   0.048288890   0.41439   0.25340   0.59100  -0.02998
  40   38375.8    260.6   0.206392438   1.77056   0.99340  -0.21151  -0.85964
  41   38524.6    259.6   0.000299771   0.00256  -0.03268  -0.02571  -0.02886
  42   38690.1    258.5   0.036539013   0.31091   0.13653  -0.41648   0.34470
  43   39057.8    256.0   0.055427113   0.46719  -0.48199   0.44941  -0.18139
  44   39112.4    255.7   0.033440267   0.28147  -0.37070   0.37872   0.02492
  45   39275.1    254.6   0.227764324   1.90917  -0.45312   0.69293   1.10621
  46   40054.7    249.7   0.112609807   0.92555   0.52222  -0.43239  -0.68255
  47   40120.9    249.2   0.000344887   0.00283   0.02676  -0.01041  -0.04478

FINAL SINGLE POINT ENERGY     -3894.587600880213

DIPOLE MOMENT
-------------
                                X             Y             Z
Electronic contribution:     -5.97614       5.74031       3.93406
Nuclear contribution   :      4.05418      -8.15767      -3.79559
                        -----------------------------------------
Total Dipole Moment    :     -1.92196      -2.41736       0.13847
                        -----------------------------------------
Magnitude (a.u.)       :      3.09140
Magnitude (Debye)      :      7.85771

Rotational constants in cm-1:     0.001582     0.000155     0.000149
Rotational constants in MHz :    47.424942     4.641704     4.454357

                             ****ORCA TERMINATED NORMALLY****
TOTAL RUN TIME: 0 days 0 hours 12 minutes 28 seconds 898 msec
