                         Program Version 4.2.0 -  RELEASE  -
|  1> # ORCA input file
|  2> # SCF done       -228.186204679116          0.000400344083
|  3> ! CAM-B3LYP def2-SVP def2/J RIJCOSX Grid4 TightSCF
|  4> %maxcore 5000
|  5> %tddft
|  6>     Mode sTDDFT
|  7>     Ethresh 5.0
|  8>     maxcore 5000
|  9> end
| 10>
| 11> %pal
| 12>   nprocs 6
| 13>   end
| 14> * xyz 0 1
| 15>    C       -2.90082         3.81264        -0.43619
| 16>    C       -2.03266         4.51395         0.35221
| 17>    F       -1.71132         5.77671         0.04260
| 18>    C       -1.46531         3.92099         1.49843
| 19>    F       -0.61776         4.63296         2.25314
| 20>    C       -1.77320         2.63389         1.83935
| 21>    C       -2.66443         1.88441         1.04685
| 22>    C       -3.24141         2.48398        -0.11043
| 23>    C       -4.14534         1.75485        -0.91517
| 24>    C       -4.46690         0.46766        -0.57020
| 25>    C       -3.87788        -0.12683         0.58061
| 26>    C       -2.99761         0.55135         1.37372
| 27>    C       -4.36500        -1.51136         0.73028
| 28>    O       -4.00268        -2.32403         1.54762
| 29>    C       -5.30044        -1.72303        -0.41488
| 30>    C       -5.37103        -0.49631        -1.18616
| 31>    C       -6.20380        -0.25403        -2.24540
| 32>    C       -6.26272         0.97174        -2.94185
| 33>    N       -6.34931         1.94094        -3.55031
| 34>    C       -7.12828        -1.18319        -2.76838
| 35>    N       -7.90848        -1.88512        -3.23365
| 36>    C       -5.84703        -2.92427        -0.72687
| 37>    C       -5.84661        -4.05409         0.14906
| 38>    S       -5.34260        -5.58764        -0.49335
| 39>    C       -5.48449        -6.35004         1.06099
| 40>    C       -5.95967        -5.45595         2.00399
| 41>    C       -6.19140        -4.16586         1.48006
| 42>    C       -6.94931        -3.16253         2.30113
| 43>    F       -6.72156        -1.85335         1.93451
| 44>    C       -6.63996        -3.36106         3.77964
| 45>    C       -7.05352        -4.77244         4.17157
| 46>    C       -6.19018        -5.79953         3.44379
| 47>    F       -6.79941        -7.04439         3.54267
| 48>    C       -5.09210        -7.71348         1.25721
| 49>    N       -5.35952        -8.72752         0.37054
| 50>    C       -6.13032        -8.66992        -0.84880
| 51>    C       -5.22906        -8.59814        -2.07840
| 52>    C       -4.85157        -9.96129         0.81855
| 53>    O       -4.99478       -11.00147         0.20442
| 54>    C       -4.20354        -9.64901         2.06692
| 55>    C       -4.37082        -8.25779         2.31161
| 56>    C       -3.65340        -7.93859         3.52611
| 57>    O       -3.48192        -6.89312         4.12490
| 58>    N       -3.10678        -9.16077         3.94295
| 59>    C       -2.36601        -9.26996         5.17597
| 60>    C       -3.21216        -9.88056         6.29008
| 61>    C       -3.42510       -10.18843         3.08631
| 62>    C       -2.97563       -11.52377         3.24229
| 63>    C       -3.41101       -12.51826         2.42935
| 64>    C       -2.95429       -13.85675         2.47136
| 65>    S       -1.63112       -14.36965         3.46874
| 66>    C       -1.64054       -15.96280         2.76338
| 67>    C       -2.68774       -16.09794         1.86801
| 68>    C       -3.42449       -14.91179         1.70222
| 69>    C       -4.59774       -14.76672         0.77491
| 70>    F       -5.69169       -14.31674         1.50177
| 71>    C       -4.99637       -16.07513         0.08771
| 72>    C       -3.79437       -16.97680        -0.15423
| 73>    C       -3.17845       -17.34366         1.19280
| 74>    F       -2.19557       -18.29559         1.01839
| 75>    C       -0.62546       -16.86132         3.21097
| 76>    C        0.17530       -17.71076         2.52384
| 77>    C        0.94116       -18.73798         3.29108
| 78>    O        1.08582       -18.77826         4.49005
| 79>    C        1.42848       -19.69481         2.28081
| 80>    C        2.08206       -20.87913         2.46735
| 81>    C        2.42641       -21.65806         1.34038
| 82>    C        2.07768       -21.19500         0.03811
| 83>    C        2.41571       -21.98140        -1.08189
| 84>    C        3.07195       -23.16860        -0.91731
| 85>    C        3.41823       -23.62442         0.37088
| 86>    C        3.10268       -22.88620         1.47685
| 87>    F        4.06099       -24.79244         0.50200
| 88>    F        3.39368       -23.91366        -1.98269
| 89>    C        1.40649       -19.96203        -0.12384
| 90>    C        1.09268       -19.21717         0.98205
| 91>    C        0.43611       -17.92030         1.11189
| 92>    C        0.28829       -17.01130         0.10095
| 93>    C       -0.17354       -15.69101         0.26381
| 94>    N       -0.51681       -14.59675         0.31739
| 95>    C        0.62471       -17.26840        -1.24524
| 96>    N        0.85910       -17.41688        -2.35885
| 97>    H       -3.32776         4.28197        -1.30872
| 98>    H       -1.33015         2.19445         2.71927
| 99>    H       -4.56071         2.23350        -1.78728
|100>    H       -2.56601         0.07764         2.24220
|101>    H       -6.25407        -3.09344        -1.71621
|102>    H       -8.02684        -3.31331         2.11675
|103>    H       -7.18794        -2.62155         4.36469
|104>    H       -5.57061        -3.21302         3.93987
|105>    H       -8.10036        -4.94365         3.90692
|106>    H       -6.95011        -4.91840         5.24680
|107>    H       -5.21285        -5.90633         3.94035
|108>    H       -6.81012        -7.81711        -0.80854
|109>    H       -6.71762        -9.59237        -0.89110
|110>    H       -4.59093        -7.71839        -2.04237
|111>    H       -5.83742        -8.55278        -2.97684
|112>    H       -4.60277        -9.48525        -2.12353
|113>    H       -2.07806        -8.25030         5.44655
|114>    H       -1.45991        -9.85898         5.00833
|115>    H       -4.09172        -9.26646         6.46684
|116>    H       -2.63247        -9.93154         7.20751
|117>    H       -3.53914       -10.88336         6.02465
|118>    H       -2.26365       -11.74262         4.02663
|119>    H       -4.14972       -12.29112         1.67296
|120>    H       -4.38932       -13.97336         0.04386
|121>    H       -5.49933       -15.85303        -0.85314
|122>    H       -5.71114       -16.58769         0.73659
|123>    H       -3.04725       -16.46586        -0.76587
|124>    H       -4.09975       -17.88764        -0.67077
|125>    H       -3.92973       -17.83101         1.83453
|126>    H       -0.45036       -16.85497         4.28495
|127>    H        2.33028       -21.21853         3.46144
|128>    H        2.16066       -21.64573        -2.07489
|129>    H        3.37410       -23.24929         2.45570
|130>    H        1.14489       -19.64223        -1.11953
|131> *
|132>
|133>                          ****END OF INPUT****

CARTESIAN COORDINATES (ANGSTROEM)
---------------------------------
  C     -2.900820    3.812640   -0.436190
  C     -2.032660    4.513950    0.352210
  F     -1.711320    5.776710    0.042600
  C     -1.465310    3.920990    1.498430
  F     -0.617760    4.632960    2.253140
  C     -1.773200    2.633890    1.839350
  C     -2.664430    1.884410    1.046850
  C     -3.241410    2.483980   -0.110430
  C     -4.145340    1.754850   -0.915170
  C     -4.466900    0.467660   -0.570200
  C     -3.877880   -0.126830    0.580610
  C     -2.997610    0.551350    1.373720
  C     -4.365000   -1.511360    0.730280
  O     -4.002680   -2.324030    1.547620
  C     -5.300440   -1.723030   -0.414880
  C     -5.371030   -0.496310   -1.186160
  C     -6.203800   -0.254030   -2.245400
  C     -6.262720    0.971740   -2.941850
  N     -6.349310    1.940940   -3.550310
  C     -7.128280   -1.183190   -2.768380
  N     -7.908480   -1.885120   -3.233650
  C     -5.847030   -2.924270   -0.726870
  C     -5.846610   -4.054090    0.149060
  S     -5.342600   -5.587640   -0.493350
  C     -5.484490   -6.350040    1.060990
  C     -5.959670   -5.455950    2.003990
  C     -6.191400   -4.165860    1.480060
  C     -6.949310   -3.162530    2.301130
  F     -6.721560   -1.853350    1.934510
  C     -6.639960   -3.361060    3.779640
  C     -7.053520   -4.772440    4.171570
  C     -6.190180   -5.799530    3.443790
  F     -6.799410   -7.044390    3.542670
  C     -5.092100   -7.713480    1.257210
  N     -5.359520   -8.727520    0.370540
  C     -6.130320   -8.669920   -0.848800
  C     -5.229060   -8.598140   -2.078400
  C     -4.851570   -9.961290    0.818550
  O     -4.994780  -11.001470    0.204420
  C     -4.203540   -9.649010    2.066920
  C     -4.370820   -8.257790    2.311610
  C     -3.653400   -7.938590    3.526110
  O     -3.481920   -6.893120    4.124900
  N     -3.106780   -9.160770    3.942950
  C     -2.366010   -9.269960    5.175970
  C     -3.212160   -9.880560    6.290080
  C     -3.425100  -10.188430    3.086310
  C     -2.975630  -11.523770    3.242290
  C     -3.411010  -12.518260    2.429350
  C     -2.954290  -13.856750    2.471360
  S     -1.631120  -14.369650    3.468740
  C     -1.640540  -15.962800    2.763380
  C     -2.687740  -16.097940    1.868010
  C     -3.424490  -14.911790    1.702220
  C     -4.597740  -14.766720    0.774910
  F     -5.691690  -14.316740    1.501770
  C     -4.996370  -16.075130    0.087710
  C     -3.794370  -16.976800   -0.154230
  C     -3.178450  -17.343660    1.192800
  F     -2.195570  -18.295590    1.018390
  C     -0.625460  -16.861320    3.210970
  C      0.175300  -17.710760    2.523840
  C      0.941160  -18.737980    3.291080
  O      1.085820  -18.778260    4.490050
  C      1.428480  -19.694810    2.280810
  C      2.082060  -20.879130    2.467350
  C      2.426410  -21.658060    1.340380
  C      2.077680  -21.195000    0.038110
  C      2.415710  -21.981400   -1.081890
  C      3.071950  -23.168600   -0.917310
  C      3.418230  -23.624420    0.370880
  C      3.102680  -22.886200    1.476850
  F      4.060990  -24.792440    0.502000
  F      3.393680  -23.913660   -1.982690
  C      1.406490  -19.962030   -0.123840
  C      1.092680  -19.217170    0.982050
  C      0.436110  -17.920300    1.111890
  C      0.288290  -17.011300    0.100950
  C     -0.173540  -15.691010    0.263810
  N     -0.516810  -14.596750    0.317390
  C      0.624710  -17.268400   -1.245240
  N      0.859100  -17.416880   -2.358850
  H     -3.327760    4.281970   -1.308720
  H     -1.330150    2.194450    2.719270
  H     -4.560710    2.233500   -1.787280
  H     -2.566010    0.077640    2.242200
  H     -6.254070   -3.093440   -1.716210
  H     -8.026840   -3.313310    2.116750
  H     -7.187940   -2.621550    4.364690
  H     -5.570610   -3.213020    3.939870
  H     -8.100360   -4.943650    3.906920
  H     -6.950110   -4.918400    5.246800
  H     -5.212850   -5.906330    3.940350
  H     -6.810120   -7.817110   -0.808540
  H     -6.717620   -9.592370   -0.891100
  H     -4.590930   -7.718390   -2.042370
  H     -5.837420   -8.552780   -2.976840
  H     -4.602770   -9.485250   -2.123530
  H     -2.078060   -8.250300    5.446550
  H     -1.459910   -9.858980    5.008330
  H     -4.091720   -9.266460    6.466840
  H     -2.632470   -9.931540    7.207510
  H     -3.539140  -10.883360    6.024650
  H     -2.263650  -11.742620    4.026630
  H     -4.149720  -12.291120    1.672960
  H     -4.389320  -13.973360    0.043860
  H     -5.499330  -15.853030   -0.853140
  H     -5.711140  -16.587690    0.736590
  H     -3.047250  -16.465860   -0.765870
  H     -4.099750  -17.887640   -0.670770
  H     -3.929730  -17.831010    1.834530
  H     -0.450360  -16.854970    4.284950
  H      2.330280  -21.218530    3.461440
  H      2.160660  -21.645730   -2.074890
  H      3.374100  -23.249290    2.455700
  H      1.144890  -19.642230   -1.119530

 Total Charge           Charge          ....    0
 Multiplicity           Mult            ....    1
 Number of Electrons    NEL             ....  584
 Basis Dimension        Dim             .... 1326

ORBITAL ENERGIES
----------------

  NO   OCC          E(Eh)            E(eV)
   0   2.0000     -88.975855     -2421.1561
   1   2.0000     -88.972190     -2421.0564
   2   2.0000     -24.800601      -674.8587
   3   2.0000     -24.799880      -674.8391
   4   2.0000     -24.799355      -674.8248
   5   2.0000     -24.798392      -674.7986
   6   2.0000     -24.770200      -674.0314
   7   2.0000     -24.760783      -673.7752
   8   2.0000     -24.745503      -673.3594
   9   2.0000     -24.742699      -673.2831
  10   2.0000     -19.221109      -523.0330
  11   2.0000     -19.216279      -522.9015
  12   2.0000     -19.194490      -522.3086
  13   2.0000     -19.192129      -522.2444
  14   2.0000     -14.456519      -393.3819
  15   2.0000     -14.455839      -393.3634
  16   2.0000     -14.419670      -392.3792
  17   2.0000     -14.419618      -392.3778
  18   2.0000     -14.419216      -392.3668
  19   2.0000     -14.418933      -392.3591
  20   2.0000     -10.383903      -282.5604
  21   2.0000     -10.383408      -282.5469
  22   2.0000     -10.382731      -282.5285
  23   2.0000     -10.381971      -282.5078
  24   2.0000     -10.377278      -282.3801
  25   2.0000     -10.373345      -282.2731
  26   2.0000     -10.371467      -282.2220
  27   2.0000     -10.369494      -282.1683
  28   2.0000     -10.366946      -282.0989
  29   2.0000     -10.359519      -281.8968
  30   2.0000     -10.352774      -281.7133
  31   2.0000     -10.347340      -281.5654
  32   2.0000     -10.346119      -281.5322
  33   2.0000     -10.345758      -281.5224
  34   2.0000     -10.345159      -281.5061
  35   2.0000     -10.344244      -281.4812
  36   2.0000     -10.342199      -281.4255
  37   2.0000     -10.338691      -281.3301
  38   2.0000     -10.326670      -281.0030
  39   2.0000     -10.326043      -280.9859
  40   2.0000     -10.324539      -280.9450
  41   2.0000     -10.324001      -280.9304
  42   2.0000     -10.322099      -280.8786
  43   2.0000     -10.322054      -280.8774
  44   2.0000     -10.321703      -280.8678
  45   2.0000     -10.320714      -280.8409
  46   2.0000     -10.320261      -280.8286
  47   2.0000     -10.318859      -280.7904
  48   2.0000     -10.313411      -280.6422
  49   2.0000     -10.313126      -280.6344
  50   2.0000     -10.311955      -280.6026
  51   2.0000     -10.311699      -280.5956
  52   2.0000     -10.310703      -280.5685
  53   2.0000     -10.310434      -280.5612
  54   2.0000     -10.309246      -280.5288
  55   2.0000     -10.306970      -280.4669
  56   2.0000     -10.306040      -280.4416
  57   2.0000     -10.305244      -280.4199
  58   2.0000     -10.305092      -280.4158
  59   2.0000     -10.304852      -280.4093
  60   2.0000     -10.304313      -280.3946
  61   2.0000     -10.303984      -280.3857
  62   2.0000     -10.303719      -280.3784
  63   2.0000     -10.303373      -280.3690
  64   2.0000     -10.302801      -280.3535
  65   2.0000     -10.302138      -280.3354
  66   2.0000     -10.301502      -280.3181
  67   2.0000     -10.300491      -280.2906
  68   2.0000     -10.297925      -280.2208
  69   2.0000     -10.296982      -280.1951
  70   2.0000     -10.296178      -280.1732
  71   2.0000     -10.295057      -280.1427
  72   2.0000     -10.294600      -280.1303
  73   2.0000     -10.294238      -280.1205
  74   2.0000     -10.284588      -279.8579
  75   2.0000     -10.281646      -279.7778
  76   2.0000     -10.276081      -279.6264
  77   2.0000     -10.274593      -279.5859
  78   2.0000     -10.266066      -279.3539
  79   2.0000     -10.264238      -279.3041
  80   2.0000     -10.260407      -279.1999
  81   2.0000     -10.258473      -279.1472
  82   2.0000      -8.070902      -219.6204
  83   2.0000      -8.067768      -219.5351
  84   2.0000      -6.040289      -164.3646
  85   2.0000      -6.036976      -164.2745
  86   2.0000      -6.035924      -164.2458
  87   2.0000      -6.033055      -164.1678
  88   2.0000      -6.032977      -164.1657
  89   2.0000      -6.029839      -164.0802
  90   2.0000      -1.323242       -36.0072
  91   2.0000      -1.321881       -35.9702
  92   2.0000      -1.308359       -35.6023
  93   2.0000      -1.306993       -35.5651
  94   2.0000      -1.282526       -34.8993
  95   2.0000      -1.273418       -34.6515
  96   2.0000      -1.256607       -34.1940
  97   2.0000      -1.252036       -34.0696
  98   2.0000      -1.136722       -30.9318
  99   2.0000      -1.136216       -30.9180
 100   2.0000      -1.132948       -30.8291
 101   2.0000      -1.129274       -30.7291
 102   2.0000      -1.066631       -29.0245
 103   2.0000      -1.058853       -28.8129
 104   2.0000      -1.024065       -27.8662
 105   2.0000      -1.022780       -27.8313
 106   2.0000      -1.010312       -27.4920
 107   2.0000      -1.006996       -27.4018
 108   2.0000      -1.006923       -27.3998
 109   2.0000      -1.006019       -27.3752
 110   2.0000      -0.997884       -27.1538
 111   2.0000      -0.996660       -27.1205
 112   2.0000      -0.984179       -26.7809
 113   2.0000      -0.982886       -26.7457
 114   2.0000      -0.936972       -25.4963
 115   2.0000      -0.935726       -25.4624
 116   2.0000      -0.934254       -25.4223
 117   2.0000      -0.929503       -25.2931
 118   2.0000      -0.926568       -25.2132
 119   2.0000      -0.920615       -25.0512
 120   2.0000      -0.911236       -24.7960
 121   2.0000      -0.903342       -24.5812
 122   2.0000      -0.895744       -24.3744
 123   2.0000      -0.895064       -24.3559
 124   2.0000      -0.889655       -24.2087
 125   2.0000      -0.883808       -24.0496
 126   2.0000      -0.873806       -23.7775
 127   2.0000      -0.856119       -23.2962
 128   2.0000      -0.853860       -23.2347
 129   2.0000      -0.847290       -23.0559
 130   2.0000      -0.844524       -22.9807
 131   2.0000      -0.843468       -22.9519
 132   2.0000      -0.841910       -22.9095
 133   2.0000      -0.824973       -22.4487
 134   2.0000      -0.821121       -22.3438
 135   2.0000      -0.818960       -22.2850
 136   2.0000      -0.810307       -22.0496
 137   2.0000      -0.803827       -21.8733
 138   2.0000      -0.774191       -21.0668
 139   2.0000      -0.769113       -20.9286
 140   2.0000      -0.768286       -20.9061
 141   2.0000      -0.761552       -20.7229
 142   2.0000      -0.760386       -20.6911
 143   2.0000      -0.742693       -20.2097
 144   2.0000      -0.738093       -20.0845
 145   2.0000      -0.732881       -19.9427
 146   2.0000      -0.726278       -19.7630
 147   2.0000      -0.721810       -19.6414
 148   2.0000      -0.720234       -19.5986
 149   2.0000      -0.719050       -19.5663
 150   2.0000      -0.712117       -19.3777
 151   2.0000      -0.710759       -19.3407
 152   2.0000      -0.708036       -19.2666
 153   2.0000      -0.695379       -18.9222
 154   2.0000      -0.688581       -18.7373
 155   2.0000      -0.685471       -18.6526
 156   2.0000      -0.684414       -18.6238
 157   2.0000      -0.678304       -18.4576
 158   2.0000      -0.667370       -18.1601
 159   2.0000      -0.660274       -17.9670
 160   2.0000      -0.658743       -17.9253
 161   2.0000      -0.655103       -17.8263
 162   2.0000      -0.651429       -17.7263
 163   2.0000      -0.649992       -17.6872
 164   2.0000      -0.646395       -17.5893
 165   2.0000      -0.643519       -17.5110
 166   2.0000      -0.643344       -17.5063
 167   2.0000      -0.633218       -17.2307
 168   2.0000      -0.628363       -17.0986
 169   2.0000      -0.621927       -16.9235
 170   2.0000      -0.617972       -16.8159
 171   2.0000      -0.612033       -16.6543
 172   2.0000      -0.608031       -16.5454
 173   2.0000      -0.601723       -16.3737
 174   2.0000      -0.596060       -16.2196
 175   2.0000      -0.594161       -16.1680
 176   2.0000      -0.592934       -16.1346
 177   2.0000      -0.590297       -16.0628
 178   2.0000      -0.587825       -15.9955
 179   2.0000      -0.587319       -15.9818
 180   2.0000      -0.586420       -15.9573
 181   2.0000      -0.584951       -15.9173
 182   2.0000      -0.583620       -15.8811
 183   2.0000      -0.581148       -15.8138
 184   2.0000      -0.578997       -15.7553
 185   2.0000      -0.574709       -15.6386
 186   2.0000      -0.570474       -15.5234
 187   2.0000      -0.569939       -15.5088
 188   2.0000      -0.566931       -15.4270
 189   2.0000      -0.562652       -15.3105
 190   2.0000      -0.558220       -15.1900
 191   2.0000      -0.555550       -15.1173
 192   2.0000      -0.555235       -15.1087
 193   2.0000      -0.550013       -14.9666
 194   2.0000      -0.549435       -14.9509
 195   2.0000      -0.548001       -14.9119
 196   2.0000      -0.545190       -14.8354
 197   2.0000      -0.544496       -14.8165
 198   2.0000      -0.541535       -14.7359
 199   2.0000      -0.538474       -14.6526
 200   2.0000      -0.537972       -14.6390
 201   2.0000      -0.536861       -14.6087
 202   2.0000      -0.533945       -14.5294
 203   2.0000      -0.532450       -14.4887
 204   2.0000      -0.532086       -14.4788
 205   2.0000      -0.528118       -14.3708
 206   2.0000      -0.527795       -14.3620
 207   2.0000      -0.526811       -14.3352
 208   2.0000      -0.524916       -14.2837
 209   2.0000      -0.522258       -14.2114
 210   2.0000      -0.519259       -14.1298
 211   2.0000      -0.518638       -14.1128
 212   2.0000      -0.517599       -14.0846
 213   2.0000      -0.514098       -13.9893
 214   2.0000      -0.513783       -13.9807
 215   2.0000      -0.512215       -13.9381
 216   2.0000      -0.506558       -13.7841
 217   2.0000      -0.504717       -13.7341
 218   2.0000      -0.503121       -13.6906
 219   2.0000      -0.500588       -13.6217
 220   2.0000      -0.500082       -13.6079
 221   2.0000      -0.498871       -13.5750
 222   2.0000      -0.496332       -13.5059
 223   2.0000      -0.494643       -13.4599
 224   2.0000      -0.492205       -13.3936
 225   2.0000      -0.491645       -13.3784
 226   2.0000      -0.488565       -13.2945
 227   2.0000      -0.487084       -13.2542
 228   2.0000      -0.480171       -13.0661
 229   2.0000      -0.478402       -13.0180
 230   2.0000      -0.477459       -12.9923
 231   2.0000      -0.472997       -12.8709
 232   2.0000      -0.470781       -12.8106
 233   2.0000      -0.470441       -12.8014
 234   2.0000      -0.468180       -12.7398
 235   2.0000      -0.465911       -12.6781
 236   2.0000      -0.465254       -12.6602
 237   2.0000      -0.464750       -12.6465
 238   2.0000      -0.461624       -12.5614
 239   2.0000      -0.457256       -12.4426
 240   2.0000      -0.455675       -12.3995
 241   2.0000      -0.454998       -12.3811
 242   2.0000      -0.452891       -12.3238
 243   2.0000      -0.451711       -12.2917
 244   2.0000      -0.449689       -12.2366
 245   2.0000      -0.448815       -12.2129
 246   2.0000      -0.448193       -12.1959
 247   2.0000      -0.447187       -12.1686
 248   2.0000      -0.446190       -12.1414
 249   2.0000      -0.442741       -12.0476
 250   2.0000      -0.441034       -12.0012
 251   2.0000      -0.439506       -11.9596
 252   2.0000      -0.432690       -11.7741
 253   2.0000      -0.432188       -11.7604
 254   2.0000      -0.431120       -11.7314
 255   2.0000      -0.430773       -11.7219
 256   2.0000      -0.429938       -11.6992
 257   2.0000      -0.428330       -11.6554
 258   2.0000      -0.428078       -11.6486
 259   2.0000      -0.426989       -11.6189
 260   2.0000      -0.422660       -11.5012
 261   2.0000      -0.420313       -11.4373
 262   2.0000      -0.418272       -11.3818
 263   2.0000      -0.415663       -11.3108
 264   2.0000      -0.414637       -11.2828
 265   2.0000      -0.413076       -11.2404
 266   2.0000      -0.412047       -11.2124
 267   2.0000      -0.404770       -11.0144
 268   2.0000      -0.403361       -10.9760
 269   2.0000      -0.399061       -10.8590
 270   2.0000      -0.396537       -10.7903
 271   2.0000      -0.395736       -10.7685
 272   2.0000      -0.393181       -10.6990
 273   2.0000      -0.387742       -10.5510
 274   2.0000      -0.384694       -10.4681
 275   2.0000      -0.372059       -10.1242
 276   2.0000      -0.353419        -9.6170
 277   2.0000      -0.348665        -9.4877
 278   2.0000      -0.347935        -9.4678
 279   2.0000      -0.343585        -9.3494
 280   2.0000      -0.338345        -9.2068
 281   2.0000      -0.334291        -9.0965
 282   2.0000      -0.330748        -9.0001
 283   2.0000      -0.322800        -8.7838
 284   2.0000      -0.319306        -8.6888
 285   2.0000      -0.319057        -8.6820
 286   2.0000      -0.315763        -8.5924
 287   2.0000      -0.305227        -8.3057
 288   2.0000      -0.303855        -8.2683
 289   2.0000      -0.295090        -8.0298
 290   2.0000      -0.289637        -7.8814
 291   2.0000      -0.240571        -6.5463
 292   0.0000      -0.105009        -2.8574
 293   0.0000      -0.095484        -2.5983
 294   0.0000      -0.073634        -2.0037
 295   0.0000      -0.059913        -1.6303
 296   0.0000      -0.056691        -1.5427

MULLIKEN ATOMIC CHARGES
-----------------------
   0 C :   -0.108145
   1 C :    0.242536
   2 F :   -0.170310
   3 C :    0.240815
   4 F :   -0.171533
   5 C :   -0.106066
   6 C :    0.117012
   7 C :    0.114403
   8 C :   -0.085685
   9 C :    0.056316
  10 C :   -0.012066
  11 C :   -0.077377
  12 C :    0.160494
  13 O :   -0.137565
  14 C :   -0.065174
  15 C :    0.307991
  16 C :   -0.335638
  17 C :   -0.182355
  18 N :    0.151991
  19 C :   -0.201447
  20 N :    0.160159
  21 C :   -0.014872
  22 C :   -0.146268
  23 S :    0.157604
  24 C :   -0.205909
  25 C :   -0.036677
  26 C :   -0.001993
  27 C :    0.288957
  28 F :   -0.237328
  29 C :    0.003496
  30 C :    0.011372
  31 C :    0.286031
  32 F :   -0.258654
  33 C :    0.112205
  34 N :   -0.254503
  35 C :    0.097772
  36 C :   -0.000298
  37 C :    0.168443
  38 O :   -0.220218
  39 C :   -0.076217
  40 C :   -0.007019
  41 C :    0.155535
  42 O :   -0.213012
  43 N :   -0.255853
  44 C :    0.099290
  45 C :    0.002544
  46 C :    0.141879
  47 C :   -0.030903
  48 C :    0.010918
  49 C :   -0.051345
  50 S :    0.154891
  51 C :   -0.190666
  52 C :    0.001277
  53 C :   -0.087465
  54 C :    0.300971
  55 F :   -0.256895
  56 C :    0.023447
  57 C :    0.001563
  58 C :    0.287345
  59 F :   -0.238752
  60 C :    0.031674
  61 C :   -0.108306
  62 C :    0.130945
  63 O :   -0.139385
  64 C :    0.022192
  65 C :   -0.088678
  66 C :    0.118224
  67 C :    0.117653
  68 C :   -0.112070
  69 C :    0.244844
  70 C :    0.241662
  71 C :   -0.107784
  72 F :   -0.170733
  73 F :   -0.170055
  74 C :   -0.086512
  75 C :    0.033082
  76 C :    0.337463
  77 C :   -0.353782
  78 C :   -0.199921
  79 N :    0.176914
  80 C :   -0.184037
  81 N :    0.153860
  82 H :    0.007235
  83 H :   -0.000049
  84 H :   -0.005693
  85 H :   -0.010344
  86 H :    0.038178
  87 H :    0.026067
  88 H :    0.017731
  89 H :    0.036988
  90 H :    0.013474
  91 H :    0.017049
  92 H :    0.055821
  93 H :    0.033669
  94 H :    0.036444
  95 H :    0.017107
  96 H :    0.022858
  97 H :    0.036689
  98 H :    0.043951
  99 H :    0.025602
 100 H :    0.030343
 101 H :    0.023776
 102 H :    0.017385
 103 H :   -0.022109
 104 H :    0.040899
 105 H :    0.038429
 106 H :    0.022521
 107 H :    0.019869
 108 H :    0.031250
 109 H :    0.022524
 110 H :    0.026224
 111 H :    0.036770
 112 H :   -0.009203
 113 H :    0.006517
 114 H :   -0.000713
 115 H :   -0.003559
Sum of atomic charges:   -0.0000000

LOEWDIN ATOMIC CHARGES
----------------------
   0 C :   -0.029137
   1 C :    0.066891
   2 F :   -0.048390
   3 C :    0.068223
   4 F :   -0.048924
   5 C :   -0.032928
   6 C :   -0.007908
   7 C :   -0.006125
   8 C :    0.017815
   9 C :   -0.022080
  10 C :   -0.049931
  11 C :    0.031869
  12 C :    0.082127
  13 O :   -0.132558
  14 C :   -0.071997
  15 C :    0.074383
  16 C :   -0.132276
  17 C :   -0.017498
  18 N :   -0.049551
  19 C :   -0.021698
  20 N :   -0.047720
  21 C :    0.042092
  22 C :   -0.171305
  23 S :    0.484907
  24 C :   -0.167764
  25 C :   -0.047802
  26 C :   -0.040725
  27 C :    0.114027
  28 F :   -0.111768
  29 C :   -0.035707
  30 C :   -0.036245
  31 C :    0.106491
  32 F :   -0.133982
  33 C :    0.055924
  34 N :    0.005871
  35 C :    0.030307
  36 C :   -0.064611
  37 C :    0.081820
  38 O :   -0.204461
  39 C :   -0.123084
  40 C :   -0.112065
  41 C :    0.089543
  42 O :   -0.194730
  43 N :    0.001894
  44 C :    0.036918
  45 C :   -0.060719
  46 C :    0.083497
  47 C :   -0.049880
  48 C :    0.025008
  49 C :   -0.144760
  50 S :    0.468554
  51 C :   -0.172215
  52 C :   -0.056247
  53 C :   -0.058913
  54 C :    0.117772
  55 F :   -0.132428
  56 C :   -0.036215
  57 C :   -0.036972
  58 C :    0.112779
  59 F :   -0.113756
  60 C :    0.041841
  61 C :   -0.076622
  62 C :    0.084459
  63 O :   -0.138633
  64 C :   -0.053944
  65 C :    0.031562
  66 C :   -0.008839
  67 C :   -0.004866
  68 C :   -0.029699
  69 C :    0.067486
  70 C :    0.067475
  71 C :   -0.032584
  72 F :   -0.048854
  73 F :   -0.048260
  74 C :    0.016954
  75 C :   -0.017481
  76 C :    0.075422
  77 C :   -0.133417
  78 C :   -0.018926
  79 N :   -0.048134
  80 C :   -0.018107
  81 N :   -0.052193
  82 H :    0.047773
  83 H :    0.045045
  84 H :    0.039976
  85 H :    0.040589
  86 H :    0.045469
  87 H :    0.029785
  88 H :    0.032206
  89 H :    0.036610
  90 H :    0.026836
  91 H :    0.034171
  92 H :    0.028560
  93 H :    0.019065
  94 H :    0.036031
  95 H :    0.011685
  96 H :    0.030827
  97 H :    0.032456
  98 H :    0.037648
  99 H :    0.023550
 100 H :    0.032565
 101 H :    0.030698
 102 H :    0.022916
 103 H :    0.023268
 104 H :    0.043904
 105 H :    0.033665
 106 H :    0.036232
 107 H :    0.032275
 108 H :    0.032423
 109 H :    0.034143
 110 H :    0.029573
 111 H :    0.048589
 112 H :    0.040710
 113 H :    0.047515
 114 H :    0.044883
 115 H :    0.040082

  Mayer bond orders larger than 0.100000
B(  0-C ,  1-C ) :   1.4425 B(  0-C ,  5-C ) :   0.1089 B(  0-C ,  7-C ) :   1.1838
B(  0-C , 82-H ) :   1.0078 B(  1-C ,  2-F ) :   1.1353 B(  1-C ,  3-C ) :   1.1898
B(  3-C ,  4-F ) :   1.1331 B(  3-C ,  5-C ) :   1.4429 B(  5-C ,  6-C ) :   1.1900
B(  5-C , 83-H ) :   1.0081 B(  6-C ,  7-C ) :   1.2569 B(  6-C , 11-C ) :   1.1890
B(  7-C ,  8-C ) :   1.2200 B(  8-C ,  9-C ) :   1.4393 B(  8-C , 84-H ) :   0.9905
B(  9-C , 10-C ) :   1.2218 B(  9-C , 15-C ) :   0.9936 B( 10-C , 11-C ) :   1.4721
B( 10-C , 12-C ) :   0.9379 B( 11-C , 85-H ) :   1.0171 B( 12-C , 13-O ) :   2.2330
B( 12-C , 14-C ) :   0.9174 B( 14-C , 15-C ) :   1.0626 B( 14-C , 21-C ) :   1.6968
B( 15-C , 16-C ) :   1.6488 B( 16-C , 17-C ) :   1.1405 B( 16-C , 19-C ) :   1.1427
B( 17-C , 18-N ) :   2.9655 B( 19-C , 20-N ) :   2.9869 B( 21-C , 22-C ) :   1.0700
B( 21-C , 86-H ) :   0.9310 B( 22-C , 23-S ) :   1.1115 B( 22-C , 24-C ) :   0.1158
B( 22-C , 26-C ) :   1.5392 B( 23-S , 24-C ) :   1.1416 B( 24-C , 25-C ) :   1.5453
B( 24-C , 33-C ) :   1.0447 B( 25-C , 26-C ) :   1.2968 B( 25-C , 31-C ) :   0.9872
B( 26-C , 27-C ) :   0.9714 B( 27-C , 28-F ) :   1.0077 B( 27-C , 29-C ) :   1.0596
B( 27-C , 87-H ) :   0.9319 B( 29-C , 30-C ) :   1.0422 B( 29-C , 88-H ) :   0.9254
B( 29-C , 89-H ) :   0.9436 B( 30-C , 31-C ) :   1.0641 B( 30-C , 90-H ) :   0.9319
B( 30-C , 91-H ) :   0.9226 B( 31-C , 32-F ) :   1.0150 B( 31-C , 92-H ) :   0.8882
B( 33-C , 34-N ) :   1.2035 B( 33-C , 40-C ) :   1.4145 B( 34-N , 35-C ) :   0.9423
B( 34-N , 37-C ) :   1.0538 B( 35-C , 36-C ) :   1.1136 B( 35-C , 93-H ) :   0.9471
B( 35-C , 94-H ) :   0.9315 B( 36-C , 95-H ) :   0.9631 B( 36-C , 96-H ) :   0.9669
B( 36-C , 97-H ) :   0.9641 B( 37-C , 38-O ) :   2.0041 B( 37-C , 39-C ) :   1.0050
B( 39-C , 40-C ) :   1.2257 B( 39-C , 46-C ) :   1.3511 B( 40-C , 41-C ) :   0.9770
B( 41-C , 42-O ) :   2.0206 B( 41-C , 43-N ) :   1.0619 B( 42-O , 92-H ) :   0.1111
B( 43-N , 44-C ) :   0.9457 B( 43-N , 46-C ) :   1.1543 B( 44-C , 45-C ) :   1.1200
B( 44-C , 98-H ) :   0.9282 B( 44-C , 99-H ) :   0.9501 B( 45-C ,100-H ) :   0.9638
B( 45-C ,101-H ) :   0.9681 B( 45-C ,102-H ) :   0.9684 B( 46-C , 47-C ) :   1.1584
B( 47-C , 48-C ) :   1.5824 B( 47-C ,103-H ) :   0.9663 B( 48-C , 49-C ) :   1.1653
B( 48-C ,104-H ) :   0.9397 B( 49-C , 50-S ) :   1.1194 B( 49-C , 51-C ) :   0.1012
B( 49-C , 53-C ) :   1.4916 B( 50-S , 51-C ) :   1.1346 B( 51-C , 52-C ) :   1.5127
B( 51-C , 60-C ) :   1.0413 B( 52-C , 53-C ) :   1.3023 B( 52-C , 58-C ) :   0.9756
B( 53-C , 54-C ) :   1.0099 B( 54-C , 55-F ) :   1.0126 B( 54-C , 56-C ) :   1.0623
B( 54-C ,105-H ) :   0.9160 B( 56-C , 57-C ) :   1.0572 B( 56-C ,106-H ) :   0.9243
B( 56-C ,107-H ) :   0.9254 B( 57-C , 58-C ) :   1.0563 B( 57-C ,108-H ) :   0.9439
B( 57-C ,109-H ) :   0.9273 B( 58-C , 59-F ) :   1.0061 B( 58-C ,110-H ) :   0.9288
B( 60-C , 61-C ) :   1.7595 B( 60-C ,111-H ) :   0.9217 B( 61-C , 62-C ) :   0.9376
B( 61-C , 76-C ) :   1.0077 B( 62-C , 63-O ) :   2.2703 B( 62-C , 64-C ) :   0.9184
B( 64-C , 65-C ) :   1.4649 B( 64-C , 75-C ) :   1.2221 B( 65-C , 66-C ) :   1.1944
B( 65-C ,112-H ) :   1.0177 B( 66-C , 67-C ) :   1.2559 B( 66-C , 71-C ) :   1.1891
B( 67-C , 68-C ) :   1.1851 B( 67-C , 74-C ) :   1.2175 B( 68-C , 69-C ) :   1.4428
B( 68-C , 71-C ) :   0.1092 B( 68-C ,113-H ) :   1.0082 B( 69-C , 70-C ) :   1.1889
B( 69-C , 73-F ) :   1.1359 B( 70-C , 71-C ) :   1.4447 B( 70-C , 72-F ) :   1.1350
B( 71-C ,114-H ) :   1.0080 B( 74-C , 75-C ) :   1.4487 B( 74-C ,115-H ) :   0.9932
B( 75-C , 76-C ) :   1.0023 B( 76-C , 77-C ) :   1.6638 B( 77-C , 78-C ) :   1.1808
B( 77-C , 80-C ) :   1.1303 B( 78-C , 79-N ) :   2.9916 B( 80-C , 81-N ) :   2.9814

-----------------------------------------------------------------------------
         ABSORPTION SPECTRUM VIA TRANSITION ELECTRIC DIPOLE MOMENTS
-----------------------------------------------------------------------------
State   Energy  Wavelength   fosc         T2         TX        TY        TZ
        (cm-1)    (nm)                  (au**2)     (au)      (au)      (au)
-----------------------------------------------------------------------------
   0   14906.0    670.9   1.081213010  23.87959   1.73835  -4.42996   1.11048
   1   18391.6    543.7   0.103437405   1.85154   0.86119   0.21956  -1.03038
   2   22089.9    452.7   0.048588179   0.72412   0.26510  -0.14345   0.79578
   3   23999.7    416.7   0.119665708   1.64149   0.31100   0.98217  -0.76166
   4   24849.6    402.4   0.379148780   5.02303  -1.06490   1.88564   0.57737
   5   26189.6    381.8   0.070317693   0.88392   0.39170  -0.82370   0.22805
   6   27171.3    368.0   0.021011279   0.25458   0.08523  -0.37920   0.32174
   7   27374.2    365.3   0.056059877   0.67420   0.22950  -0.77979   0.11597
   8   27533.3    363.2   0.049581494   0.59284   0.64552   0.18224   0.37806
   9   28310.1    353.2   0.215522767   2.50627  -0.53991   1.45325   0.32068
  10   29119.4    343.4   0.020840045   0.23561   0.08204   0.39547   0.26922
  11   29216.8    342.3   0.205144887   2.31155  -0.00894  -1.49967   0.24991
  12   29345.2    340.8   0.045799891   0.51381   0.48715  -0.09156   0.51780
  13   29494.1    339.1   0.306280472   3.41869  -0.47124  -1.78575  -0.08788
  14   29813.4    335.4   0.012909537   0.14255   0.18902  -0.22507   0.23699
  15   30111.5    332.1   0.072672553   0.79453  -0.34871   0.79354   0.20793
  16   30804.5    324.6   0.091831120   0.98141  -0.32615  -0.36466  -0.86143
  17   31236.1    320.1   0.084069555   0.88605  -0.45885  -0.70976  -0.41442
  18   31336.8    319.1   0.004763677   0.05005  -0.09765   0.03797   0.19766
  19   31414.3    318.3   0.058214580   0.61007  -0.23487  -0.74481  -0.01295
  20   32806.2    304.8   0.064388222   0.64614   0.57190   0.54945  -0.13105
  21   33500.1    298.5   0.031122278   0.30584   0.14205   0.49383  -0.20446
  22   33813.4    295.7   0.291345684   2.83658   0.54007  -1.57826  -0.23235
  23   34487.8    290.0   0.549692600   5.24723   0.24578  -2.27608   0.07920
  24   34595.9    289.1   0.771504459   7.34158  -1.97887  -1.04692  -1.52630
  25   34794.4    287.4   0.036363733   0.34406  -0.37635  -0.32661  -0.30942
  26   35252.8    283.7   0.237706427   2.21985   0.69645  -1.28748  -0.27786
  27   35336.8    283.0   0.075172691   0.70034   0.40714  -0.68449   0.25699
  28   35838.5    279.0   0.018874327   0.17338   0.27410   0.18347   0.25414
  29   36311.8    275.4   0.004759127   0.04315   0.06986   0.03597   0.19228
  30   36486.0    274.1   0.022545135   0.20342  -0.31916  -0.20419  -0.24467
  31   36671.2    272.7   0.033390759   0.29976  -0.04791  -0.53310  -0.11521
  32   37076.7    269.7   0.017876550   0.15873  -0.28327   0.26758   0.08301
  33   37139.9    269.3   0.059949052   0.53139   0.46548  -0.55845   0.05351
  34   37252.3    268.4   0.012095754   0.10689   0.02364   0.31746   0.07452
  35   37839.9    264.3   0.001233164   0.01073   0.05905  -0.00398   0.08500
  36   38067.4    262.7   0.036087122   0.31209  -0.38545   0.27259   0.29868
  37   38304.0    261.1   0.025687201   0.22077  -0.09185   0.43239   0.15931
  38   38518.5    259.6   0.219873762   1.87923   0.99656   0.06033   0.93940
  39   38814.3    257.6   0.006907586   0.05859  -0.06121   0.08022  -0.22001
  40   39206.2    255.1   0.080660150   0.67730   0.21681  -0.04015  -0.79289
  41   39655.2    252.2   0.211964838   1.75970   0.25300   1.22606  -0.43871

FINAL SINGLE POINT ENERGY     -4602.702367789479

DIPOLE MOMENT
-------------
                                X             Y             Z
Electronic contribution:     34.28584       3.80947     -17.57561
Nuclear contribution   :    -33.99432      -5.45839      19.79688
                        -----------------------------------------
Total Dipole Moment    :      0.29151      -1.64892       2.22127
                        -----------------------------------------
Magnitude (a.u.)       :      2.78171
Magnitude (Debye)      :      7.07056

Rotational constants in cm-1:     0.001636     0.000186     0.000184
Rotational constants in MHz :    49.037536     5.575930     5.501462

                             ****ORCA TERMINATED NORMALLY****
TOTAL RUN TIME: 0 days 0 hours 12 minutes 27 seconds 204 msec
