                         Program Version 4.2.0 -  RELEASE  -
|  1> # ORCA input file
|  2> # SCF done       -218.383368891909          0.000373256027
|  3> ! CAM-B3LYP def2-SVP def2/J RIJCOSX Grid4 TightSCF
|  4> %maxcore 5000
|  5> %tddft
|  6>     Mode sTDDFT
|  7>     Ethresh 5.0
|  8>     maxcore 5000
|  9> end
| 10>
| 11> %pal
| 12>   nprocs 6
| 13>   end
| 14> * xyz 0 1
| 15>    C       -9.35557         2.59451         1.31376
| 16>    C      -10.60978         2.78331         0.80494
| 17>    F      -11.08829         4.02228         0.63598
| 18>    C      -11.41466         1.68099         0.45184
| 19>    F      -12.63966         1.89658        -0.04467
| 20>    C      -10.95339         0.40451         0.61214
| 21>    C       -9.66453         0.17722         1.13270
| 22>    C       -8.85028         1.29069         1.49193
| 23>    C       -7.55450         1.08694         2.01844
| 24>    C       -7.08763        -0.19127         2.18128
| 25>    C       -7.90438        -1.29605         1.81232
| 26>    C       -9.15955        -1.13090         1.30118
| 27>    C       -7.17209        -2.55522         2.04879
| 28>    O       -7.55339        -3.67168         1.77744
| 29>    C       -5.84450        -2.14842         2.58411
| 30>    C       -5.82117        -0.70117         2.69662
| 31>    C       -4.82797         0.05284         3.26374
| 32>    C       -4.86845         1.45951         3.36873
| 33>    N       -4.84448         2.60177         3.47684
| 34>    C       -3.65386        -0.46535         3.85184
| 35>    N       -2.69010        -0.81375         4.36907
| 36>    C       -4.78115        -2.98736         2.74576
| 37>    C       -4.80055        -4.40612         2.76292
| 38>    C       -3.73790        -5.20420         2.39201
| 39>    C       -4.10351        -6.57373         2.54908
| 40>    C       -5.47307        -6.57077         3.08440
| 41>    C       -5.88190        -5.27988         3.20352
| 42>    C       -6.27333        -7.68717         3.36330
| 43>    N       -6.97618        -8.57137         3.56942
| 44>    C       -3.33482        -7.68233         2.26723
| 45>    C       -3.64081        -9.03701         2.55444
| 46>    C       -2.63344        -9.84961         2.06361
| 47>    C       -1.63837        -8.98823         1.43765
| 48>    C       -2.03124        -7.69553         1.57835
| 49>    C       -1.31950        -6.58990         1.09875
| 50>    N       -0.71085        -5.70734         0.68673
| 51>    C       -2.63251       -11.25896         2.21520
| 52>    N       -1.90381       -12.18789         1.51346
| 53>    C       -1.04766       -11.97739         0.36901
| 54>    C       -1.81864       -11.46289        -0.84215
| 55>    C       -2.19131       -13.50675         1.93315
| 56>    O       -1.68378       -14.49409         1.44786
| 57>    C       -3.14974       -13.33635         3.00028
| 58>    C       -3.40878       -11.96215         3.14728
| 59>    C       -4.30710       -11.80891         4.27449
| 60>    O       -4.76802       -10.83796         4.82827
| 61>    N       -4.56206       -13.13526         4.70731
| 62>    C       -5.47658       -13.34982         5.80265
| 63>    C       -6.88199       -13.68458         5.30810
| 64>    C       -3.88032       -14.05479         3.95412
| 65>    C       -3.81799       -15.46678         4.04099
| 66>    C       -4.51684       -16.32147         4.83198
| 67>    C       -4.32584       -17.72898         4.82522
| 68>    S       -5.27490       -18.72371         5.90094
| 69>    C       -4.47330       -20.16744         5.38123
| 70>    C       -3.54309       -19.87336         4.37959
| 71>    C       -3.46306       -18.50479         4.07775
| 72>    C       -2.84232       -20.83653         3.62784
| 73>    N       -2.27860       -21.57916         2.96009
| 74>    C       -4.81409       -21.42827         5.94626
| 75>    C       -3.96539       -22.48165         6.02145
| 76>    C       -2.55935       -22.38906         5.82215
| 77>    C       -1.69424       -23.37029         5.46209
| 78>    C       -0.23250       -23.19205         5.68380
| 79>    O        0.32219       -22.17591         6.03101
| 80>    C        0.35869       -24.52359         5.45137
| 81>    C        1.65469       -24.92340         5.60810
| 82>    C        1.99505       -26.26945         5.34840
| 83>    C        0.97884       -27.17984         4.93571
| 84>    C        1.32366       -28.52334         4.68487
| 85>    C        2.61603       -28.94204         4.83356
| 86>    C        3.62051       -28.04014         5.23985
| 87>    C        3.31790       -26.73151         5.49218
| 88>    F        4.87828       -28.47900         5.37835
| 89>    F        2.94183       -30.21853         4.59467
| 90>    C       -0.35373       -26.73601         4.77599
| 91>    C       -0.65976       -25.42396         5.02323
| 92>    C       -1.91529       -24.68605         4.90225
| 93>    C       -3.02033       -25.09615         4.20632
| 94>    C       -4.11229       -24.26590         3.87442
| 95>    N       -5.01368       -23.63954         3.53949
| 96>    C       -3.15942       -26.38704         3.65236
| 97>    N       -3.33110       -27.43109         3.20853
| 98>    H       -8.75337         3.44914         1.57993
| 99>    H      -11.58096        -0.42854         0.33660
|100>    H       -6.96103         1.94970         2.27424
|101>    H       -9.75775        -1.98745         1.02971
|102>    H       -3.79336        -2.54924         2.83239
|103>    H       -2.79087        -4.85800         2.02512
|104>    H       -6.82694        -4.95115         3.58804
|105>    H       -4.51167        -9.36683         3.08459
|106>    H       -0.72251        -9.30532         0.97794
|107>    H       -0.62185       -12.96020         0.14409
|108>    H       -0.22758       -11.30494         0.63306
|109>    H       -2.60249       -12.16694        -1.11121
|110>    H       -1.14323       -11.35705        -1.68646
|111>    H       -2.27601       -10.49678        -0.63972
|112>    H       -5.50901       -12.40464         6.35324
|113>    H       -5.08021       -14.12446         6.46317
|114>    H       -7.27921       -12.84439         4.74428
|115>    H       -7.53563       -13.87199         6.15546
|116>    H       -6.87815       -14.56099         4.66336
|117>    H       -3.10015       -15.88102         3.34499
|118>    H       -5.27142       -15.96706         5.51637
|119>    H       -2.79862       -18.11355         3.32876
|120>    H       -5.82752       -21.53349         6.30761
|121>    H       -4.36042       -23.44104         6.32806
|122>    H       -2.08956       -21.44328         6.08096
|123>    H        2.41035       -24.22098         5.92528
|124>    H        0.56819       -29.22596         4.36957
|125>    H        4.09774       -26.05358         5.80196
|126>    H       -1.10226       -27.44820         4.46742
|127> *
|128>
|129>                          ****END OF INPUT****

CARTESIAN COORDINATES (ANGSTROEM)
---------------------------------
  C     -9.355570    2.594510    1.313760
  C    -10.609780    2.783310    0.804940
  F    -11.088290    4.022280    0.635980
  C    -11.414660    1.680990    0.451840
  F    -12.639660    1.896580   -0.044670
  C    -10.953390    0.404510    0.612140
  C     -9.664530    0.177220    1.132700
  C     -8.850280    1.290690    1.491930
  C     -7.554500    1.086940    2.018440
  C     -7.087630   -0.191270    2.181280
  C     -7.904380   -1.296050    1.812320
  C     -9.159550   -1.130900    1.301180
  C     -7.172090   -2.555220    2.048790
  O     -7.553390   -3.671680    1.777440
  C     -5.844500   -2.148420    2.584110
  C     -5.821170   -0.701170    2.696620
  C     -4.827970    0.052840    3.263740
  C     -4.868450    1.459510    3.368730
  N     -4.844480    2.601770    3.476840
  C     -3.653860   -0.465350    3.851840
  N     -2.690100   -0.813750    4.369070
  C     -4.781150   -2.987360    2.745760
  C     -4.800550   -4.406120    2.762920
  C     -3.737900   -5.204200    2.392010
  C     -4.103510   -6.573730    2.549080
  C     -5.473070   -6.570770    3.084400
  C     -5.881900   -5.279880    3.203520
  C     -6.273330   -7.687170    3.363300
  N     -6.976180   -8.571370    3.569420
  C     -3.334820   -7.682330    2.267230
  C     -3.640810   -9.037010    2.554440
  C     -2.633440   -9.849610    2.063610
  C     -1.638370   -8.988230    1.437650
  C     -2.031240   -7.695530    1.578350
  C     -1.319500   -6.589900    1.098750
  N     -0.710850   -5.707340    0.686730
  C     -2.632510  -11.258960    2.215200
  N     -1.903810  -12.187890    1.513460
  C     -1.047660  -11.977390    0.369010
  C     -1.818640  -11.462890   -0.842150
  C     -2.191310  -13.506750    1.933150
  O     -1.683780  -14.494090    1.447860
  C     -3.149740  -13.336350    3.000280
  C     -3.408780  -11.962150    3.147280
  C     -4.307100  -11.808910    4.274490
  O     -4.768020  -10.837960    4.828270
  N     -4.562060  -13.135260    4.707310
  C     -5.476580  -13.349820    5.802650
  C     -6.881990  -13.684580    5.308100
  C     -3.880320  -14.054790    3.954120
  C     -3.817990  -15.466780    4.040990
  C     -4.516840  -16.321470    4.831980
  C     -4.325840  -17.728980    4.825220
  S     -5.274900  -18.723710    5.900940
  C     -4.473300  -20.167440    5.381230
  C     -3.543090  -19.873360    4.379590
  C     -3.463060  -18.504790    4.077750
  C     -2.842320  -20.836530    3.627840
  N     -2.278600  -21.579160    2.960090
  C     -4.814090  -21.428270    5.946260
  C     -3.965390  -22.481650    6.021450
  C     -2.559350  -22.389060    5.822150
  C     -1.694240  -23.370290    5.462090
  C     -0.232500  -23.192050    5.683800
  O      0.322190  -22.175910    6.031010
  C      0.358690  -24.523590    5.451370
  C      1.654690  -24.923400    5.608100
  C      1.995050  -26.269450    5.348400
  C      0.978840  -27.179840    4.935710
  C      1.323660  -28.523340    4.684870
  C      2.616030  -28.942040    4.833560
  C      3.620510  -28.040140    5.239850
  C      3.317900  -26.731510    5.492180
  F      4.878280  -28.479000    5.378350
  F      2.941830  -30.218530    4.594670
  C     -0.353730  -26.736010    4.775990
  C     -0.659760  -25.423960    5.023230
  C     -1.915290  -24.686050    4.902250
  C     -3.020330  -25.096150    4.206320
  C     -4.112290  -24.265900    3.874420
  N     -5.013680  -23.639540    3.539490
  C     -3.159420  -26.387040    3.652360
  N     -3.331100  -27.431090    3.208530
  H     -8.753370    3.449140    1.579930
  H    -11.580960   -0.428540    0.336600
  H     -6.961030    1.949700    2.274240
  H     -9.757750   -1.987450    1.029710
  H     -3.793360   -2.549240    2.832390
  H     -2.790870   -4.858000    2.025120
  H     -6.826940   -4.951150    3.588040
  H     -4.511670   -9.366830    3.084590
  H     -0.722510   -9.305320    0.977940
  H     -0.621850  -12.960200    0.144090
  H     -0.227580  -11.304940    0.633060
  H     -2.602490  -12.166940   -1.111210
  H     -1.143230  -11.357050   -1.686460
  H     -2.276010  -10.496780   -0.639720
  H     -5.509010  -12.404640    6.353240
  H     -5.080210  -14.124460    6.463170
  H     -7.279210  -12.844390    4.744280
  H     -7.535630  -13.871990    6.155460
  H     -6.878150  -14.560990    4.663360
  H     -3.100150  -15.881020    3.344990
  H     -5.271420  -15.967060    5.516370
  H     -2.798620  -18.113550    3.328760
  H     -5.827520  -21.533490    6.307610
  H     -4.360420  -23.441040    6.328060
  H     -2.089560  -21.443280    6.080960
  H      2.410350  -24.220980    5.925280
  H      0.568190  -29.225960    4.369570
  H      4.097740  -26.053580    5.801960
  H     -1.102260  -27.448200    4.467420

 Total Charge           Charge          ....    0
 Multiplicity           Mult            ....    1
 Number of Electrons    NEL             ....  566
 Basis Dimension        Dim             .... 1311

ORBITAL ENERGIES
----------------

  NO   OCC          E(Eh)            E(eV)
   0   2.0000     -88.992031     -2421.5963
   1   2.0000     -24.804549      -674.9661
   2   2.0000     -24.803703      -674.9431
   3   2.0000     -24.798957      -674.8139
   4   2.0000     -24.798167      -674.7924
   5   2.0000     -19.232106      -523.3322
   6   2.0000     -19.218360      -522.9582
   7   2.0000     -19.207763      -522.6698
   8   2.0000     -19.202924      -522.5381
   9   2.0000     -14.468808      -393.7163
  10   2.0000     -14.468460      -393.7068
  11   2.0000     -14.425921      -392.5493
  12   2.0000     -14.425698      -392.5432
  13   2.0000     -14.419739      -392.3811
  14   2.0000     -14.418818      -392.3560
  15   2.0000     -14.416454      -392.2917
  16   2.0000     -14.415202      -392.2576
  17   2.0000     -14.405075      -391.9820
  18   2.0000     -10.389559      -282.7143
  19   2.0000     -10.388581      -282.6877
  20   2.0000     -10.387951      -282.6705
  21   2.0000     -10.386688      -282.6361
  22   2.0000     -10.382833      -282.5313
  23   2.0000     -10.382122      -282.5119
  24   2.0000     -10.381644      -282.4989
  25   2.0000     -10.368135      -282.1313
  26   2.0000     -10.357893      -281.8526
  27   2.0000     -10.357244      -281.8349
  28   2.0000     -10.355816      -281.7961
  29   2.0000     -10.352333      -281.7013
  30   2.0000     -10.348948      -281.6092
  31   2.0000     -10.345988      -281.5286
  32   2.0000     -10.343708      -281.4666
  33   2.0000     -10.338052      -281.3127
  34   2.0000     -10.335790      -281.2512
  35   2.0000     -10.334129      -281.2059
  36   2.0000     -10.333531      -281.1897
  37   2.0000     -10.332363      -281.1579
  38   2.0000     -10.328053      -281.0406
  39   2.0000     -10.327957      -281.0380
  40   2.0000     -10.327463      -281.0246
  41   2.0000     -10.323911      -280.9279
  42   2.0000     -10.322574      -280.8915
  43   2.0000     -10.321703      -280.8678
  44   2.0000     -10.320398      -280.8323
  45   2.0000     -10.319994      -280.8213
  46   2.0000     -10.319326      -280.8031
  47   2.0000     -10.319067      -280.7961
  48   2.0000     -10.318920      -280.7921
  49   2.0000     -10.318627      -280.7841
  50   2.0000     -10.318362      -280.7769
  51   2.0000     -10.317676      -280.7582
  52   2.0000     -10.317311      -280.7483
  53   2.0000     -10.317066      -280.7416
  54   2.0000     -10.316815      -280.7348
  55   2.0000     -10.316255      -280.7196
  56   2.0000     -10.315939      -280.7110
  57   2.0000     -10.315488      -280.6987
  58   2.0000     -10.312882      -280.6278
  59   2.0000     -10.312553      -280.6188
  60   2.0000     -10.311684      -280.5952
  61   2.0000     -10.311580      -280.5923
  62   2.0000     -10.311516      -280.5906
  63   2.0000     -10.311192      -280.5818
  64   2.0000     -10.310978      -280.5760
  65   2.0000     -10.309343      -280.5315
  66   2.0000     -10.309335      -280.5313
  67   2.0000     -10.308014      -280.4953
  68   2.0000     -10.307249      -280.4745
  69   2.0000     -10.307196      -280.4731
  70   2.0000     -10.306651      -280.4582
  71   2.0000     -10.303733      -280.3788
  72   2.0000     -10.303256      -280.3659
  73   2.0000     -10.302766      -280.3525
  74   2.0000     -10.301779      -280.3257
  75   2.0000     -10.300983      -280.3040
  76   2.0000     -10.300657      -280.2951
  77   2.0000     -10.294844      -280.1370
  78   2.0000     -10.294786      -280.1354
  79   2.0000     -10.280834      -279.7557
  80   2.0000     -10.277017      -279.6518
  81   2.0000     -10.274820      -279.5921
  82   2.0000     -10.272357      -279.5250
  83   2.0000      -8.087872      -220.0822
  84   2.0000      -6.057005      -164.8195
  85   2.0000      -6.052945      -164.7090
  86   2.0000      -6.050153      -164.6330
  87   2.0000      -1.327209       -36.1152
  88   2.0000      -1.321717       -35.9657
  89   2.0000      -1.312301       -35.7095
  90   2.0000      -1.306838       -35.5609
  91   2.0000      -1.149161       -31.2703
  92   2.0000      -1.147901       -31.2360
  93   2.0000      -1.141520       -31.0623
  94   2.0000      -1.133260       -30.8376
  95   2.0000      -1.078538       -29.3485
  96   2.0000      -1.069738       -29.1091
  97   2.0000      -1.030173       -28.0324
  98   2.0000      -1.029068       -28.0024
  99   2.0000      -1.025255       -27.8986
 100   2.0000      -1.021572       -27.7984
 101   2.0000      -1.013274       -27.5726
 102   2.0000      -1.007494       -27.4153
 103   2.0000      -1.005401       -27.3583
 104   2.0000      -1.003939       -27.3186
 105   2.0000      -0.997839       -27.1526
 106   2.0000      -0.995390       -27.0859
 107   2.0000      -0.993380       -27.0312
 108   2.0000      -0.990607       -26.9558
 109   2.0000      -0.983360       -26.7586
 110   2.0000      -0.982687       -26.7403
 111   2.0000      -0.947969       -25.7956
 112   2.0000      -0.943336       -25.6695
 113   2.0000      -0.941796       -25.6276
 114   2.0000      -0.933119       -25.3915
 115   2.0000      -0.921051       -25.0631
 116   2.0000      -0.918506       -24.9938
 117   2.0000      -0.902296       -24.5527
 118   2.0000      -0.900234       -24.4966
 119   2.0000      -0.897558       -24.4238
 120   2.0000      -0.893242       -24.3064
 121   2.0000      -0.891800       -24.2671
 122   2.0000      -0.883533       -24.0422
 123   2.0000      -0.880042       -23.9472
 124   2.0000      -0.871962       -23.7273
 125   2.0000      -0.864863       -23.5341
 126   2.0000      -0.851599       -23.1732
 127   2.0000      -0.848772       -23.0963
 128   2.0000      -0.844471       -22.9792
 129   2.0000      -0.841525       -22.8990
 130   2.0000      -0.833361       -22.6769
 131   2.0000      -0.824815       -22.4444
 132   2.0000      -0.811113       -22.0715
 133   2.0000      -0.800964       -21.7953
 134   2.0000      -0.790875       -21.5208
 135   2.0000      -0.777288       -21.1511
 136   2.0000      -0.773385       -21.0449
 137   2.0000      -0.772515       -21.0212
 138   2.0000      -0.768521       -20.9125
 139   2.0000      -0.750154       -20.4127
 140   2.0000      -0.748990       -20.3811
 141   2.0000      -0.736358       -20.0373
 142   2.0000      -0.730273       -19.8717
 143   2.0000      -0.728611       -19.8265
 144   2.0000      -0.726313       -19.7640
 145   2.0000      -0.721883       -19.6434
 146   2.0000      -0.719150       -19.5691
 147   2.0000      -0.716233       -19.4897
 148   2.0000      -0.702250       -19.1092
 149   2.0000      -0.700773       -19.0690
 150   2.0000      -0.697911       -18.9911
 151   2.0000      -0.691770       -18.8240
 152   2.0000      -0.685790       -18.6613
 153   2.0000      -0.681491       -18.5443
 154   2.0000      -0.677917       -18.4471
 155   2.0000      -0.671997       -18.2860
 156   2.0000      -0.665224       -18.1017
 157   2.0000      -0.662563       -18.0293
 158   2.0000      -0.657638       -17.8952
 159   2.0000      -0.655022       -17.8241
 160   2.0000      -0.652046       -17.7431
 161   2.0000      -0.648454       -17.6453
 162   2.0000      -0.647342       -17.6151
 163   2.0000      -0.642628       -17.4868
 164   2.0000      -0.638504       -17.3746
 165   2.0000      -0.621642       -16.9157
 166   2.0000      -0.619912       -16.8687
 167   2.0000      -0.616527       -16.7765
 168   2.0000      -0.604946       -16.4614
 169   2.0000      -0.603309       -16.4169
 170   2.0000      -0.602783       -16.4026
 171   2.0000      -0.599449       -16.3118
 172   2.0000      -0.594608       -16.1801
 173   2.0000      -0.591730       -16.1018
 174   2.0000      -0.588761       -16.0210
 175   2.0000      -0.586146       -15.9498
 176   2.0000      -0.584382       -15.9018
 177   2.0000      -0.580643       -15.8001
 178   2.0000      -0.576437       -15.6856
 179   2.0000      -0.574044       -15.6205
 180   2.0000      -0.571357       -15.5474
 181   2.0000      -0.563967       -15.3463
 182   2.0000      -0.561164       -15.2700
 183   2.0000      -0.561002       -15.2657
 184   2.0000      -0.559175       -15.2159
 185   2.0000      -0.554947       -15.1009
 186   2.0000      -0.553135       -15.0516
 187   2.0000      -0.553073       -15.0499
 188   2.0000      -0.550390       -14.9769
 189   2.0000      -0.548741       -14.9320
 190   2.0000      -0.547791       -14.9061
 191   2.0000      -0.545109       -14.8332
 192   2.0000      -0.541888       -14.7455
 193   2.0000      -0.539307       -14.6753
 194   2.0000      -0.538214       -14.6456
 195   2.0000      -0.537564       -14.6279
 196   2.0000      -0.534830       -14.5535
 197   2.0000      -0.532169       -14.4810
 198   2.0000      -0.531116       -14.4524
 199   2.0000      -0.530999       -14.4492
 200   2.0000      -0.528405       -14.3786
 201   2.0000      -0.527630       -14.3575
 202   2.0000      -0.523291       -14.2395
 203   2.0000      -0.522132       -14.2079
 204   2.0000      -0.521634       -14.1944
 205   2.0000      -0.520164       -14.1544
 206   2.0000      -0.517623       -14.0852
 207   2.0000      -0.514734       -14.0066
 208   2.0000      -0.512827       -13.9547
 209   2.0000      -0.511803       -13.9269
 210   2.0000      -0.507739       -13.8163
 211   2.0000      -0.505842       -13.7647
 212   2.0000      -0.502123       -13.6635
 213   2.0000      -0.499576       -13.5941
 214   2.0000      -0.499149       -13.5825
 215   2.0000      -0.494910       -13.4672
 216   2.0000      -0.492876       -13.4118
 217   2.0000      -0.491880       -13.3847
 218   2.0000      -0.491481       -13.3739
 219   2.0000      -0.487675       -13.2703
 220   2.0000      -0.487178       -13.2568
 221   2.0000      -0.482364       -13.1258
 222   2.0000      -0.478655       -13.0249
 223   2.0000      -0.477484       -12.9930
 224   2.0000      -0.476790       -12.9741
 225   2.0000      -0.475281       -12.9331
 226   2.0000      -0.470392       -12.8000
 227   2.0000      -0.470017       -12.7898
 228   2.0000      -0.466937       -12.7060
 229   2.0000      -0.465675       -12.6717
 230   2.0000      -0.464362       -12.6359
 231   2.0000      -0.462141       -12.5755
 232   2.0000      -0.458953       -12.4887
 233   2.0000      -0.458225       -12.4689
 234   2.0000      -0.456770       -12.4294
 235   2.0000      -0.454315       -12.3626
 236   2.0000      -0.453854       -12.3500
 237   2.0000      -0.452799       -12.3213
 238   2.0000      -0.451404       -12.2833
 239   2.0000      -0.450455       -12.2575
 240   2.0000      -0.447557       -12.1786
 241   2.0000      -0.446929       -12.1616
 242   2.0000      -0.445278       -12.1166
 243   2.0000      -0.445021       -12.1096
 244   2.0000      -0.440904       -11.9976
 245   2.0000      -0.439225       -11.9519
 246   2.0000      -0.438126       -11.9220
 247   2.0000      -0.436734       -11.8841
 248   2.0000      -0.435259       -11.8440
 249   2.0000      -0.433702       -11.8016
 250   2.0000      -0.432792       -11.7769
 251   2.0000      -0.432247       -11.7620
 252   2.0000      -0.429936       -11.6992
 253   2.0000      -0.428311       -11.6549
 254   2.0000      -0.422181       -11.4881
 255   2.0000      -0.421291       -11.4639
 256   2.0000      -0.420188       -11.4339
 257   2.0000      -0.418320       -11.3831
 258   2.0000      -0.414049       -11.2669
 259   2.0000      -0.408579       -11.1180
 260   2.0000      -0.404409       -11.0045
 261   2.0000      -0.401249       -10.9185
 262   2.0000      -0.394677       -10.7397
 263   2.0000      -0.392762       -10.6876
 264   2.0000      -0.384559       -10.4644
 265   2.0000      -0.368954       -10.0398
 266   2.0000      -0.365462        -9.9447
 267   2.0000      -0.362036        -9.8515
 268   2.0000      -0.357005        -9.7146
 269   2.0000      -0.351644        -9.5687
 270   2.0000      -0.346477        -9.4281
 271   2.0000      -0.342489        -9.3196
 272   2.0000      -0.332266        -9.0414
 273   2.0000      -0.331070        -9.0089
 274   2.0000      -0.330220        -8.9858
 275   2.0000      -0.324931        -8.8418
 276   2.0000      -0.322672        -8.7804
 277   2.0000      -0.317985        -8.6528
 278   2.0000      -0.311926        -8.4879
 279   2.0000      -0.303650        -8.2627
 280   2.0000      -0.300521        -8.1776
 281   2.0000      -0.293716        -7.9924
 282   2.0000      -0.247920        -6.7462
 283   0.0000      -0.145491        -3.9590
 284   0.0000      -0.107069        -2.9135
 285   0.0000      -0.091995        -2.5033
 286   0.0000      -0.079777        -2.1708
 287   0.0000      -0.068204        -1.8559

MULLIKEN ATOMIC CHARGES
-----------------------
   0 C :   -0.108673
   1 C :    0.245098
   2 F :   -0.169095
   3 C :    0.240780
   4 F :   -0.168761
   5 C :   -0.103108
   6 C :    0.114929
   7 C :    0.114858
   8 C :   -0.081564
   9 C :    0.050673
  10 C :   -0.007741
  11 C :   -0.075667
  12 C :    0.143489
  13 O :   -0.139039
  14 C :   -0.085859
  15 C :    0.308288
  16 C :   -0.332569
  17 C :   -0.180198
  18 N :    0.152486
  19 C :   -0.200680
  20 N :    0.171325
  21 C :   -0.026154
  22 C :    0.086087
  23 C :   -0.075514
  24 C :    0.103732
  25 C :   -0.116928
  26 C :    0.065937
  27 C :   -0.176646
  28 N :    0.142747
  29 C :    0.130184
  30 C :   -0.107808
  31 C :    0.038328
  32 C :   -0.026583
  33 C :   -0.088989
  34 C :   -0.186933
  35 N :    0.149468
  36 C :    0.156165
  37 N :   -0.261955
  38 C :    0.096704
  39 C :   -0.010363
  40 C :    0.147969
  41 O :   -0.186250
  42 C :   -0.055643
  43 C :   -0.041671
  44 C :    0.146551
  45 O :   -0.172948
  46 N :   -0.264931
  47 C :    0.095475
  48 C :   -0.001219
  49 C :    0.132692
  50 C :   -0.039494
  51 C :    0.083591
  52 C :   -0.083925
  53 S :    0.165202
  54 C :   -0.077720
  55 C :   -0.069086
  56 C :    0.014664
  57 C :   -0.154778
  58 N :    0.129055
  59 C :    0.061171
  60 C :    0.027922
  61 C :   -0.023722
  62 C :   -0.089421
  63 C :    0.151406
  64 O :   -0.135856
  65 C :    0.000873
  66 C :   -0.076583
  67 C :    0.110392
  68 C :    0.110650
  69 C :   -0.103592
  70 C :    0.239360
  71 C :    0.238029
  72 C :   -0.100865
  73 F :   -0.171288
  74 F :   -0.170049
  75 C :   -0.080687
  76 C :    0.040799
  77 C :    0.301298
  78 C :   -0.334816
  79 C :   -0.195658
  80 N :    0.167567
  81 C :   -0.179357
  82 N :    0.153306
  83 H :    0.009591
  84 H :    0.001602
  85 H :   -0.004844
  86 H :   -0.007334
  87 H :    0.040160
  88 H :    0.015997
  89 H :    0.005534
  90 H :    0.028881
  91 H :   -0.008445
  92 H :    0.050707
  93 H :    0.026687
  94 H :    0.031581
  95 H :    0.031052
  96 H :    0.028677
  97 H :    0.050288
  98 H :    0.023946
  99 H :    0.044018
 100 H :    0.025446
 101 H :    0.018234
 102 H :    0.012423
 103 H :   -0.014018
 104 H :    0.020732
 105 H :    0.016485
 106 H :    0.030510
 107 H :    0.041723
 108 H :   -0.009073
 109 H :    0.006161
 110 H :   -0.000098
 111 H :   -0.005485
Sum of atomic charges:   -0.0000000

LOEWDIN ATOMIC CHARGES
----------------------
   0 C :   -0.028610
   1 C :    0.069030
   2 F :   -0.046682
   3 C :    0.069382
   4 F :   -0.047022
   5 C :   -0.031924
   6 C :   -0.007966
   7 C :   -0.004965
   8 C :    0.019166
   9 C :   -0.023335
  10 C :   -0.054670
  11 C :    0.033735
  12 C :    0.084260
  13 O :   -0.128580
  14 C :   -0.080548
  15 C :    0.071333
  16 C :   -0.127204
  17 C :   -0.016818
  18 N :   -0.044831
  19 C :   -0.025296
  20 N :   -0.038766
  21 C :    0.075700
  22 C :   -0.025049
  23 C :    0.020536
  24 C :    0.041006
  25 C :   -0.090355
  26 C :    0.077145
  27 C :   -0.031682
  28 N :   -0.054294
  29 C :    0.038907
  30 C :    0.013716
  31 C :   -0.031803
  32 C :    0.048713
  33 C :   -0.077131
  34 C :   -0.033474
  35 N :   -0.055569
  36 C :    0.075022
  37 N :   -0.003939
  38 C :    0.035045
  39 C :   -0.061126
  40 C :    0.078921
  41 O :   -0.190322
  42 C :   -0.112214
  43 C :   -0.102184
  44 C :    0.086491
  45 O :   -0.164594
  46 N :   -0.000744
  47 C :    0.034651
  48 C :   -0.062634
  49 C :    0.078306
  50 C :   -0.019925
  51 C :   -0.019410
  52 C :   -0.160731
  53 S :    0.470883
  54 C :   -0.143894
  55 C :   -0.090714
  56 C :   -0.011615
  57 C :   -0.023522
  58 N :   -0.044504
  59 C :   -0.007960
  60 C :   -0.006998
  61 C :    0.059182
  62 C :   -0.072158
  63 C :    0.085552
  64 O :   -0.137253
  65 C :   -0.053033
  66 C :    0.031976
  67 C :   -0.008986
  68 C :   -0.005299
  69 C :   -0.029873
  70 C :    0.066904
  71 C :    0.067087
  72 C :   -0.032597
  73 F :   -0.048945
  74 F :   -0.048159
  75 C :    0.014950
  76 C :   -0.019142
  77 C :    0.070260
  78 C :   -0.124788
  79 C :   -0.018290
  80 N :   -0.046858
  81 C :   -0.016481
  82 N :   -0.047442
  83 H :    0.048591
  84 H :    0.045864
  85 H :    0.040592
  86 H :    0.041670
  87 H :    0.053512
  88 H :    0.040147
  89 H :    0.037935
  90 H :    0.040097
  91 H :    0.036339
  92 H :    0.040589
  93 H :    0.020077
  94 H :    0.033912
  95 H :    0.034830
  96 H :    0.023705
  97 H :    0.040481
  98 H :    0.021273
  99 H :    0.039051
 100 H :    0.031995
 101 H :    0.020463
 102 H :    0.047929
 103 H :    0.030640
 104 H :    0.046887
 105 H :    0.042154
 106 H :    0.044605
 107 H :    0.048718
 108 H :    0.040912
 109 H :    0.047464
 110 H :    0.045025
 111 H :    0.039586

  Mayer bond orders larger than 0.100000
B(  0-C ,  1-C ) :   1.4407 B(  0-C ,  5-C ) :   0.1086 B(  0-C ,  7-C ) :   1.1868
B(  0-C , 83-H ) :   1.0072 B(  1-C ,  2-F ) :   1.1362 B(  1-C ,  3-C ) :   1.1900
B(  3-C ,  4-F ) :   1.1368 B(  3-C ,  5-C ) :   1.4432 B(  5-C ,  6-C ) :   1.1905
B(  5-C , 84-H ) :   1.0072 B(  6-C ,  7-C ) :   1.2556 B(  6-C , 11-C ) :   1.1910
B(  7-C ,  8-C ) :   1.2189 B(  8-C ,  9-C ) :   1.4456 B(  8-C , 85-H ) :   0.9905
B(  9-C , 10-C ) :   1.2193 B(  9-C , 15-C ) :   0.9904 B( 10-C , 11-C ) :   1.4672
B( 10-C , 12-C ) :   0.9416 B( 11-C , 86-H ) :   1.0167 B( 12-C , 13-O ) :   2.2237
B( 12-C , 14-C ) :   0.9376 B( 14-C , 15-C ) :   1.0464 B( 14-C , 21-C ) :   1.6080
B( 15-C , 16-C ) :   1.6563 B( 16-C , 17-C ) :   1.1421 B( 16-C , 19-C ) :   1.1390
B( 17-C , 18-N ) :   2.9646 B( 19-C , 20-N ) :   2.9898 B( 21-C , 22-C ) :   1.1131
B( 21-C , 87-H ) :   0.9495 B( 22-C , 23-C ) :   1.5088 B( 22-C , 26-C ) :   1.0529
B( 23-C , 24-C ) :   1.1037 B( 23-C , 88-H ) :   1.0073 B( 24-C , 25-C ) :   1.1191
B( 24-C , 29-C ) :   1.3905 B( 25-C , 26-C ) :   1.6699 B( 25-C , 27-C ) :   1.0921
B( 26-C , 89-H ) :   1.0083 B( 27-C , 28-N ) :   2.9825 B( 29-C , 30-C ) :   1.1230
B( 29-C , 33-C ) :   1.0970 B( 30-C , 31-C ) :   1.5363 B( 30-C , 90-H ) :   0.9917
B( 31-C , 32-C ) :   1.0186 B( 31-C , 36-C ) :   1.0532 B( 32-C , 33-C ) :   1.6736
B( 32-C , 91-H ) :   1.0279 B( 33-C , 34-C ) :   1.0838 B( 34-C , 35-N ) :   2.9743
B( 36-C , 37-N ) :   1.2045 B( 36-C , 43-C ) :   1.3633 B( 37-N , 38-C ) :   0.9401
B( 37-N , 40-C ) :   1.0234 B( 38-C , 39-C ) :   1.1161 B( 38-C , 92-H ) :   0.9218
B( 38-C , 93-H ) :   0.9514 B( 39-C , 94-H ) :   0.9619 B( 39-C , 95-H ) :   0.9665
B( 39-C , 96-H ) :   0.9666 B( 40-C , 41-O ) :   2.1261 B( 40-C , 42-C ) :   0.9869
B( 42-C , 43-C ) :   1.2523 B( 42-C , 49-C ) :   1.3091 B( 43-C , 44-C ) :   0.9676
B( 44-C , 45-O ) :   2.0996 B( 44-C , 46-N ) :   1.0323 B( 46-N , 47-C ) :   0.9389
B( 46-N , 49-C ) :   1.1842 B( 47-C , 48-C ) :   1.1183 B( 47-C , 97-H ) :   0.9238
B( 47-C , 98-H ) :   0.9505 B( 48-C , 99-H ) :   0.9604 B( 48-C ,100-H ) :   0.9683
B( 48-C ,101-H ) :   0.9675 B( 49-C , 50-C ) :   1.1971 B( 50-C , 51-C ) :   1.6006
B( 50-C ,102-H ) :   0.9452 B( 51-C , 52-C ) :   1.1158 B( 51-C ,103-H ) :   0.9621
B( 52-C , 53-S ) :   1.1202 B( 52-C , 56-C ) :   1.4742 B( 53-S , 54-C ) :   1.1385
B( 54-C , 55-C ) :   1.4299 B( 54-C , 59-C ) :   1.1377 B( 55-C , 56-C ) :   1.3065
B( 55-C , 57-C ) :   1.1279 B( 56-C ,104-H ) :   0.9982 B( 57-C , 58-N ) :   2.9436
B( 59-C , 60-C ) :   1.7260 B( 59-C ,105-H ) :   0.9545 B( 60-C , 61-C ) :   1.0953
B( 60-C ,106-H ) :   0.9482 B( 61-C , 62-C ) :   1.7013 B( 61-C ,107-H ) :   0.9122
B( 62-C , 63-C ) :   0.9349 B( 62-C , 77-C ) :   1.0441 B( 63-C , 64-O ) :   2.2759
B( 63-C , 65-C ) :   0.9215 B( 65-C , 66-C ) :   1.4745 B( 65-C , 76-C ) :   1.2235
B( 66-C , 67-C ) :   1.1956 B( 66-C ,108-H ) :   1.0141 B( 67-C , 68-C ) :   1.2569
B( 67-C , 72-C ) :   1.1933 B( 68-C , 69-C ) :   1.1894 B( 68-C , 75-C ) :   1.2173
B( 69-C , 70-C ) :   1.4437 B( 69-C , 72-C ) :   0.1087 B( 69-C ,109-H ) :   1.0049
B( 70-C , 71-C ) :   1.1917 B( 70-C , 74-F ) :   1.1359 B( 71-C , 72-C ) :   1.4445
B( 71-C , 73-F ) :   1.1342 B( 72-C ,110-H ) :   1.0052 B( 75-C , 76-C ) :   1.4536
B( 75-C ,111-H ) :   0.9905 B( 76-C , 77-C ) :   0.9925 B( 77-C , 78-C ) :   1.6499
B( 78-C , 79-C ) :   1.1731 B( 78-C , 81-C ) :   1.1308 B( 79-C , 80-N ) :   2.9632
B( 81-C , 82-N ) :   2.9783

-----------------------------------------------------------------------------
         ABSORPTION SPECTRUM VIA TRANSITION ELECTRIC DIPOLE MOMENTS
-----------------------------------------------------------------------------
State   Energy  Wavelength   fosc         T2         TX        TY        TZ
        (cm-1)    (nm)                  (au**2)     (au)      (au)      (au)
-----------------------------------------------------------------------------
   0    7820.4   1278.7   0.550750145  23.18474  -0.62613   4.70555  -0.80653
   1   16148.6    619.3   0.057984510   1.18210   0.54321  -0.93423  -0.11929
   2   17358.7    576.1   0.719585251  13.64709   0.20625   3.48425  -1.21020
   3   19325.2    517.5   0.004990750   0.08502  -0.22617  -0.11737   0.14173
   4   21722.9    460.3   0.495614883   7.51108   0.82404  -2.60815  -0.17202
   5   21773.7    459.3   0.171871293   2.59865  -0.32778   1.55062   0.29460
   6   22601.9    442.4   0.144639388   2.10677  -1.01918   0.53508   0.88416
   7   22918.1    436.3   0.131401949   1.88755  -0.36406   1.28657  -0.31584
   8   23228.4    430.5   0.011749332   0.16652   0.03725  -0.39174   0.10803
   9   23821.7    419.8   0.174006916   2.40475  -1.19831   0.87145   0.45758
  10   24583.0    406.8   0.005775441   0.07734   0.15688   0.03141  -0.22748
  11   25622.5    390.3   0.006821768   0.08765   0.13138   0.03825   0.26254
  12   25686.8    389.3   0.054903040   0.70366  -0.74230   0.21608  -0.32552
  13   26490.1    377.5   0.292738686   3.63807  -0.71231   1.76929  -0.01687
  14   27246.6    367.0   0.420620200   5.08223  -1.32828   1.80145   0.26962
  15   27428.1    364.6   0.015401912   0.18486   0.12057  -0.37305  -0.17652
  16   28102.5    355.8   0.150138947   1.75883  -0.02932   1.31649   0.15760
  17   28463.5    351.3   0.058615778   0.67796  -0.71247   0.32144  -0.25888
  18   28549.3    350.3   0.024838252   0.28642  -0.45030   0.28913   0.00718
  19   28873.0    346.3   0.005490828   0.06261   0.24833   0.02500   0.01775
  20   29208.8    342.4   0.007646116   0.08618   0.17444  -0.22615   0.06789
  21   29644.3    337.3   0.318085445   3.53246   1.44222  -1.19497   0.15658
  22   30459.4    328.3   0.035734138   0.38622  -0.02910  -0.29881   0.54414
  23   30982.4    322.8   0.327327807   3.47811   1.52119  -1.00565   0.39083
  24   31272.2    319.8   0.025214189   0.26544   0.00216  -0.22691   0.46254
  25   31713.5    315.3   0.026570385   0.27582  -0.34640   0.23858  -0.31450
  26   31798.7    314.5   0.026264169   0.27191   0.29677  -0.24818   0.34963
  27   31830.2    314.2   0.097551858   1.00895   0.55419  -0.83728  -0.02800
  28   32472.4    308.0   0.065764504   0.66673   0.16802   0.79327  -0.09609
  29   32606.6    306.7   0.090966161   0.91844  -0.37347   0.83164   0.29553
  30   32959.8    303.4   0.075065863   0.74978  -0.68902  -0.18839  -0.48943
  31   33072.9    302.4   0.025327647   0.25211  -0.41740   0.22948  -0.15884
  32   33194.2    301.3   0.177127243   1.75670  -0.86969   0.93424  -0.35712
  33   33353.4    299.8   0.018170727   0.17935   0.35280  -0.16368   0.16762
  34   33399.2    299.4   0.123339859   1.21575   1.07322  -0.07356   0.24195
  35   33606.2    297.6   0.041071930   0.40235  -0.50446   0.37763  -0.07255
  36   33640.2    297.3   0.023232999   0.22736  -0.13357  -0.41812   0.18628
  37   34240.1    292.1   0.046022687   0.44250   0.36268  -0.52574   0.18591
  38   34387.2    290.8   0.061495555   0.58874   0.24675   0.71662   0.11964
  39   34554.6    289.4   0.686183659   6.53747  -2.34673   0.99419  -0.20466
  40   34607.7    289.0   0.010677405   0.10157   0.06617   0.27921   0.13869
  41   35177.8    284.3   0.060475752   0.56596  -0.68656   0.22632   0.20828
  42   35405.2    282.4   0.017051277   0.15855  -0.34805   0.00153  -0.19341
  43   35658.1    280.4   0.672623170   6.20997  -2.28143   0.03430  -1.00194
  44   35835.1    279.1   0.029384503   0.26995  -0.07683  -0.21682  -0.46587
  45   36419.6    274.6   0.026052620   0.23550  -0.34543  -0.30824  -0.14549
  46   36717.5    272.3   0.037940500   0.34018   0.12327  -0.54351  -0.17200
  47   37210.6    268.7   0.079981317   0.70761  -0.08127  -0.82458  -0.14519
  48   37341.8    267.8   0.002394730   0.02111   0.13677  -0.03910  -0.02963
  49   37456.6    267.0   0.029829032   0.26217   0.44791  -0.22225   0.11023
  50   37925.0    263.7   0.000402057   0.00349   0.04852  -0.01345  -0.03090
  51   38130.3    262.3   0.049924161   0.43104   0.07012  -0.64971   0.06326
  52   38476.9    259.9   0.038599979   0.33027  -0.51436  -0.02620  -0.25498
  53   38641.6    258.8   0.022974780   0.19574  -0.37605  -0.12655  -0.19572
  54   38687.5    258.5   0.067795559   0.57691   0.43241   0.44837   0.43462
  55   38828.4    257.5   0.130626118   1.10753  -0.75356   0.72271  -0.13183
  56   39222.3    255.0   0.033355132   0.27997   0.48981   0.13168   0.15069
  57   39317.7    254.3   0.126671338   1.06063  -0.50246  -0.89702   0.05932
  58   39545.9    252.9   0.012841937   0.10691  -0.06991  -0.21791  -0.23353
  59   39797.6    251.3   0.100254366   0.82932  -0.43324  -0.79669   0.08311
  60   39956.0    250.3   0.037446378   0.30853  -0.11729  -0.33777  -0.42508
  61   40130.5    249.2   0.002578008   0.02115   0.05019  -0.07811   0.11193

FINAL SINGLE POINT ENERGY     -4080.722498052995

DIPOLE MOMENT
-------------
                                X             Y             Z
Electronic contribution:     -0.09880       3.25636       1.29021
Nuclear contribution   :     -1.05797      -3.53370      -0.09180
                        -----------------------------------------
Total Dipole Moment    :     -1.15677      -0.27734       1.19841
                        -----------------------------------------
Magnitude (a.u.)       :      1.68856
Magnitude (Debye)      :      4.29198

Rotational constants in cm-1:     0.002208     0.000130     0.000126
Rotational constants in MHz :    66.207748     3.909587     3.787161

                             ****ORCA TERMINATED NORMALLY****
TOTAL RUN TIME: 0 days 0 hours 15 minutes 37 seconds 931 msec
