                         Program Version 4.2.0 -  RELEASE  -
|  1> # ORCA input file
|  2> # SCF done       -180.458721377843          0.000659113169
|  3> ! CAM-B3LYP def2-SVP def2/J RIJCOSX Grid4 TightSCF
|  4> %maxcore 5000
|  5> %tddft
|  6>     Mode sTDDFT
|  7>     Ethresh 5.0
|  8>     maxcore 5000
|  9> end
| 10>
| 11> %pal
| 12>   nprocs 6
| 13>   end
| 14> * xyz 0 1
| 15>    C       -2.20310         0.21339        -9.31554
| 16>    C       -1.85316        -0.76636        -8.44353
| 17>    C       -2.57741        -1.99208        -8.61299
| 18>    C       -3.58552        -1.96682        -9.63282
| 19>    O       -4.40967        -2.75822        -9.97674
| 20>    S       -3.45579        -0.27552       -10.39036
| 21>    C       -2.12179        -2.87509        -7.66281
| 22>    O       -1.17624        -2.27891        -6.88547
| 23>    C       -0.94331        -0.97131        -7.32597
| 24>    O       -0.13624        -0.26701        -6.79451
| 25>    C       -2.49271        -4.22347        -7.39547
| 26>    C       -2.79266        -5.22595        -8.31694
| 27>    N       -2.67216        -5.18496        -9.72464
| 28>    O       -3.14929        -6.11277       -10.34721
| 29>    O       -2.04436        -4.26827       -10.22312
| 30>    C       -3.06795        -6.44111        -7.61497
| 31>    C       -2.88297        -6.22169        -6.28506
| 32>    C       -2.52576        -4.84250        -6.08568
| 33>    C       -2.40124        -4.20689        -4.85385
| 34>    C       -2.80215        -2.89915        -4.51615
| 35>    C       -2.80367        -2.77158        -3.14480
| 36>    C       -2.33497        -3.97447        -2.56019
| 37>    N       -2.16732        -4.15049        -1.18070
| 38>    O       -1.73722        -5.22266        -0.77371
| 39>    O       -2.47325        -3.22198        -0.45271
| 40>    C       -2.01233        -4.88029        -3.58936
| 41>    C       -1.30522        -6.06752        -3.46854
| 42>    C       -0.64712        -6.71108        -4.50489
| 43>    C       -0.03343        -7.94698        -4.39090
| 44>    S       -0.07231        -8.87294        -2.91471
| 45>    C        0.84789       -10.16725        -3.59829
| 46>    C        1.16950        -9.90578        -4.95024
| 47>    C        0.66956        -8.65586        -5.40414
| 48>    C        0.87651        -8.25580        -6.72717
| 49>    C        1.57402        -9.07116        -7.59357
| 50>    C        1.80351        -8.67620        -9.01420
| 51>    C        2.07714       -10.30324        -7.12990
| 52>    C        1.88625       -10.72262        -5.84054
| 53>    C        1.18397       -11.31525        -2.84955
| 54>    C        0.76914       -11.52000        -1.57328
| 55>    C        1.08494       -12.66340        -0.75957
| 56>    C        2.25729       -13.39927        -1.00841
| 57>    C        2.59045       -14.42636        -0.16293
| 58>    C        1.78554       -14.75161         0.93737
| 59>    C        2.41856       -15.89386         1.64451
| 60>    O        2.04877       -16.48823         2.62237
| 61>    N        3.57138       -16.17696         0.92344
| 62>    C        3.75443       -15.34891        -0.17115
| 63>    O        4.67249       -15.40831        -0.94819
| 64>    C        4.50884       -17.21303         1.30464
| 65>    C        5.55105       -16.67996         2.28099
| 66>    C        0.62751       -14.06109         1.19791
| 67>    C        0.25290       -13.01257         0.34130
| 68>    C       -1.01021       -12.34233         0.52994
| 69>    C       -1.71729       -12.27891         1.67888
| 70>    C       -2.96266       -11.60281         1.77376
| 71>    C       -3.74196       -11.48261         2.89443
| 72>    C       -4.95909       -10.74157         2.72623
| 73>    C       -5.18113       -10.23462         1.39183
| 74>    O       -6.06967        -9.60523         0.90936
| 75>    S       -3.71876       -10.77715         0.41329
| 76>    C       -5.58341       -10.73388         3.93412
| 77>    O       -4.88096       -11.40210         4.85744
| 78>    C       -3.70130       -11.90799         4.28033
| 79>    O       -2.90610       -12.54714         4.90723
| 80>    H       -1.79427         1.20343        -9.38839
| 81>    H       -3.35554        -7.35408        -8.09953
| 82>    H       -3.07039        -6.91744        -5.49049
| 83>    H       -3.16754        -2.16564        -5.20782
| 84>    H       -3.11167        -1.91238        -2.57810
| 85>    H       -1.21012        -6.47246        -2.46707
| 86>    H       -0.56949        -6.21532        -5.46183
| 87>    H        0.48611        -7.31128        -7.07333
| 88>    H        1.35021        -7.71430        -9.23585
| 89>    H        1.38206        -9.42391        -9.68480
| 90>    H        2.87145        -8.61624        -9.22056
| 91>    H        2.62325       -10.92882        -7.81996
| 92>    H        2.27721       -11.67292        -5.51306
| 93>    H        1.77141       -12.06473        -3.35990
| 94>    H        0.14940       -10.75625        -1.12273
| 95>    H        2.91102       -13.13968        -1.82573
| 96>    H        4.98884       -17.57013         0.39054
| 97>    H        3.93464       -18.02052         1.76493
| 98>    H        6.11165       -15.86599         1.82693
| 99>    H        6.24238       -17.47373         2.54837
|100>    H        5.06818       -16.31742         3.18547
|101>    H        0.00280       -14.34459         2.02968
|102>    H       -1.43950       -11.85449        -0.33571
|103>    H       -1.36575       -12.71563         2.60354
|104>    H       -6.51221       -10.29371         4.24887
|105> *
|106>
|107>                          ****END OF INPUT****

CARTESIAN COORDINATES (ANGSTROEM)
---------------------------------
  C     -2.203100    0.213390   -9.315540
  C     -1.853160   -0.766360   -8.443530
  C     -2.577410   -1.992080   -8.612990
  C     -3.585520   -1.966820   -9.632820
  O     -4.409670   -2.758220   -9.976740
  S     -3.455790   -0.275520  -10.390360
  C     -2.121790   -2.875090   -7.662810
  O     -1.176240   -2.278910   -6.885470
  C     -0.943310   -0.971310   -7.325970
  O     -0.136240   -0.267010   -6.794510
  C     -2.492710   -4.223470   -7.395470
  C     -2.792660   -5.225950   -8.316940
  N     -2.672160   -5.184960   -9.724640
  O     -3.149290   -6.112770  -10.347210
  O     -2.044360   -4.268270  -10.223120
  C     -3.067950   -6.441110   -7.614970
  C     -2.882970   -6.221690   -6.285060
  C     -2.525760   -4.842500   -6.085680
  C     -2.401240   -4.206890   -4.853850
  C     -2.802150   -2.899150   -4.516150
  C     -2.803670   -2.771580   -3.144800
  C     -2.334970   -3.974470   -2.560190
  N     -2.167320   -4.150490   -1.180700
  O     -1.737220   -5.222660   -0.773710
  O     -2.473250   -3.221980   -0.452710
  C     -2.012330   -4.880290   -3.589360
  C     -1.305220   -6.067520   -3.468540
  C     -0.647120   -6.711080   -4.504890
  C     -0.033430   -7.946980   -4.390900
  S     -0.072310   -8.872940   -2.914710
  C      0.847890  -10.167250   -3.598290
  C      1.169500   -9.905780   -4.950240
  C      0.669560   -8.655860   -5.404140
  C      0.876510   -8.255800   -6.727170
  C      1.574020   -9.071160   -7.593570
  C      1.803510   -8.676200   -9.014200
  C      2.077140  -10.303240   -7.129900
  C      1.886250  -10.722620   -5.840540
  C      1.183970  -11.315250   -2.849550
  C      0.769140  -11.520000   -1.573280
  C      1.084940  -12.663400   -0.759570
  C      2.257290  -13.399270   -1.008410
  C      2.590450  -14.426360   -0.162930
  C      1.785540  -14.751610    0.937370
  C      2.418560  -15.893860    1.644510
  O      2.048770  -16.488230    2.622370
  N      3.571380  -16.176960    0.923440
  C      3.754430  -15.348910   -0.171150
  O      4.672490  -15.408310   -0.948190
  C      4.508840  -17.213030    1.304640
  C      5.551050  -16.679960    2.280990
  C      0.627510  -14.061090    1.197910
  C      0.252900  -13.012570    0.341300
  C     -1.010210  -12.342330    0.529940
  C     -1.717290  -12.278910    1.678880
  C     -2.962660  -11.602810    1.773760
  C     -3.741960  -11.482610    2.894430
  C     -4.959090  -10.741570    2.726230
  C     -5.181130  -10.234620    1.391830
  O     -6.069670   -9.605230    0.909360
  S     -3.718760  -10.777150    0.413290
  C     -5.583410  -10.733880    3.934120
  O     -4.880960  -11.402100    4.857440
  C     -3.701300  -11.907990    4.280330
  O     -2.906100  -12.547140    4.907230
  H     -1.794270    1.203430   -9.388390
  H     -3.355540   -7.354080   -8.099530
  H     -3.070390   -6.917440   -5.490490
  H     -3.167540   -2.165640   -5.207820
  H     -3.111670   -1.912380   -2.578100
  H     -1.210120   -6.472460   -2.467070
  H     -0.569490   -6.215320   -5.461830
  H      0.486110   -7.311280   -7.073330
  H      1.350210   -7.714300   -9.235850
  H      1.382060   -9.423910   -9.684800
  H      2.871450   -8.616240   -9.220560
  H      2.623250  -10.928820   -7.819960
  H      2.277210  -11.672920   -5.513060
  H      1.771410  -12.064730   -3.359900
  H      0.149400  -10.756250   -1.122730
  H      2.911020  -13.139680   -1.825730
  H      4.988840  -17.570130    0.390540
  H      3.934640  -18.020520    1.764930
  H      6.111650  -15.865990    1.826930
  H      6.242380  -17.473730    2.548370
  H      5.068180  -16.317420    3.185470
  H      0.002800  -14.344590    2.029680
  H     -1.439500  -11.854490   -0.335710
  H     -1.365750  -12.715630    2.603540
  H     -6.512210  -10.293710    4.248870

 Total Charge           Charge          ....    0
 Multiplicity           Mult            ....    1
 Number of Electrons    NEL             ....  472
 Basis Dimension        Dim             .... 1047

ORBITAL ENERGIES
----------------

  NO   OCC          E(Eh)            E(eV)
   0   2.0000     -89.000326     -2421.8220
   1   2.0000     -88.962122     -2420.7824
   2   2.0000     -88.942746     -2420.2551
   3   2.0000     -19.304385      -525.2990
   4   2.0000     -19.285715      -524.7910
   5   2.0000     -19.237009      -523.4656
   6   2.0000     -19.235725      -523.4307
   7   2.0000     -19.234673      -523.4021
   8   2.0000     -19.233398      -523.3674
   9   2.0000     -19.224552      -523.1267
  10   2.0000     -19.224193      -523.1169
  11   2.0000     -19.221655      -523.0478
  12   2.0000     -19.221438      -523.0419
  13   2.0000     -19.216642      -522.9114
  14   2.0000     -19.214678      -522.8580
  15   2.0000     -14.642929      -398.4544
  16   2.0000     -14.632474      -398.1699
  17   2.0000     -14.465965      -393.6389
  18   2.0000     -10.428504      -283.7740
  19   2.0000     -10.411511      -283.3116
  20   2.0000     -10.406657      -283.1795
  21   2.0000     -10.404860      -283.1306
  22   2.0000     -10.404374      -283.1174
  23   2.0000     -10.385772      -282.6112
  24   2.0000     -10.382640      -282.5260
  25   2.0000     -10.376043      -282.3465
  26   2.0000     -10.356991      -281.8281
  27   2.0000     -10.354584      -281.7626
  28   2.0000     -10.337872      -281.3078
  29   2.0000     -10.332965      -281.1743
  30   2.0000     -10.328857      -281.0625
  31   2.0000     -10.328264      -281.0463
  32   2.0000     -10.327995      -281.0390
  33   2.0000     -10.327763      -281.0327
  34   2.0000     -10.326394      -280.9955
  35   2.0000     -10.325553      -280.9726
  36   2.0000     -10.324783      -280.9516
  37   2.0000     -10.323652      -280.9209
  38   2.0000     -10.321380      -280.8590
  39   2.0000     -10.321208      -280.8543
  40   2.0000     -10.319129      -280.7978
  41   2.0000     -10.318134      -280.7707
  42   2.0000     -10.317698      -280.7588
  43   2.0000     -10.317476      -280.7528
  44   2.0000     -10.315307      -280.6938
  45   2.0000     -10.315115      -280.6885
  46   2.0000     -10.313924      -280.6561
  47   2.0000     -10.313523      -280.6452
  48   2.0000     -10.312813      -280.6259
  49   2.0000     -10.311062      -280.5783
  50   2.0000     -10.310504      -280.5631
  51   2.0000     -10.309249      -280.5289
  52   2.0000     -10.308535      -280.5095
  53   2.0000     -10.307843      -280.4907
  54   2.0000     -10.305181      -280.4182
  55   2.0000     -10.304130      -280.3896
  56   2.0000     -10.301502      -280.3181
  57   2.0000     -10.300537      -280.2919
  58   2.0000     -10.288888      -279.9749
  59   2.0000     -10.288690      -279.9695
  60   2.0000     -10.285021      -279.8697
  61   2.0000     -10.284501      -279.8555
  62   2.0000     -10.282228      -279.7937
  63   2.0000     -10.277836      -279.6741
  64   2.0000     -10.266913      -279.3769
  65   2.0000      -8.095254      -220.2830
  66   2.0000      -8.059320      -219.3053
  67   2.0000      -8.040376      -218.7898
  68   2.0000      -6.064209      -165.0155
  69   2.0000      -6.060226      -164.9071
  70   2.0000      -6.057915      -164.8442
  71   2.0000      -6.028775      -164.0513
  72   2.0000      -6.024797      -163.9430
  73   2.0000      -6.020404      -163.8235
  74   2.0000      -6.009701      -163.5323
  75   2.0000      -6.005605      -163.4208
  76   2.0000      -6.001785      -163.3169
  77   2.0000      -1.314711       -35.7751
  78   2.0000      -1.300670       -35.3930
  79   2.0000      -1.235690       -33.6248
  80   2.0000      -1.216591       -33.1051
  81   2.0000      -1.170725       -31.8571
  82   2.0000      -1.161071       -31.5943
  83   2.0000      -1.147300       -31.2196
  84   2.0000      -1.143089       -31.1050
  85   2.0000      -1.139758       -31.0144
  86   2.0000      -1.131723       -30.7957
  87   2.0000      -1.124060       -30.5872
  88   2.0000      -1.117775       -30.4162
  89   2.0000      -1.061913       -28.8961
  90   2.0000      -1.034280       -28.1442
  91   2.0000      -1.013632       -27.5823
  92   2.0000      -1.006676       -27.3930
  93   2.0000      -0.998322       -27.1657
  94   2.0000      -0.993251       -27.0277
  95   2.0000      -0.973000       -26.4767
  96   2.0000      -0.970003       -26.3951
  97   2.0000      -0.952619       -25.9221
  98   2.0000      -0.941244       -25.6126
  99   2.0000      -0.925900       -25.1950
 100   2.0000      -0.905505       -24.6400
 101   2.0000      -0.902754       -24.5652
 102   2.0000      -0.892739       -24.2927
 103   2.0000      -0.887651       -24.1542
 104   2.0000      -0.884861       -24.0783
 105   2.0000      -0.874362       -23.7926
 106   2.0000      -0.872660       -23.7463
 107   2.0000      -0.866340       -23.5743
 108   2.0000      -0.857828       -23.3427
 109   2.0000      -0.856968       -23.3193
 110   2.0000      -0.848449       -23.0875
 111   2.0000      -0.840790       -22.8791
 112   2.0000      -0.818013       -22.2593
 113   2.0000      -0.809408       -22.0251
 114   2.0000      -0.804740       -21.8981
 115   2.0000      -0.795170       -21.6377
 116   2.0000      -0.791609       -21.5408
 117   2.0000      -0.770437       -20.9647
 118   2.0000      -0.765710       -20.8360
 119   2.0000      -0.759664       -20.6715
 120   2.0000      -0.746029       -20.3005
 121   2.0000      -0.737129       -20.0583
 122   2.0000      -0.730954       -19.8903
 123   2.0000      -0.727359       -19.7924
 124   2.0000      -0.724710       -19.7204
 125   2.0000      -0.719718       -19.5845
 126   2.0000      -0.712100       -19.3772
 127   2.0000      -0.699814       -19.0429
 128   2.0000      -0.692074       -18.8323
 129   2.0000      -0.684153       -18.6168
 130   2.0000      -0.680506       -18.5175
 131   2.0000      -0.672844       -18.3090
 132   2.0000      -0.668876       -18.2010
 133   2.0000      -0.664731       -18.0883
 134   2.0000      -0.656273       -17.8581
 135   2.0000      -0.653960       -17.7952
 136   2.0000      -0.644480       -17.5372
 137   2.0000      -0.640549       -17.4302
 138   2.0000      -0.630169       -17.1478
 139   2.0000      -0.626392       -17.0450
 140   2.0000      -0.623417       -16.9640
 141   2.0000      -0.621971       -16.9247
 142   2.0000      -0.617789       -16.8109
 143   2.0000      -0.613716       -16.7001
 144   2.0000      -0.610543       -16.6137
 145   2.0000      -0.605676       -16.4813
 146   2.0000      -0.604722       -16.4553
 147   2.0000      -0.602047       -16.3825
 148   2.0000      -0.591111       -16.0849
 149   2.0000      -0.588844       -16.0233
 150   2.0000      -0.584244       -15.8981
 151   2.0000      -0.581425       -15.8214
 152   2.0000      -0.578881       -15.7521
 153   2.0000      -0.574314       -15.6279
 154   2.0000      -0.573432       -15.6039
 155   2.0000      -0.568292       -15.4640
 156   2.0000      -0.566308       -15.4100
 157   2.0000      -0.559860       -15.2346
 158   2.0000      -0.556405       -15.1405
 159   2.0000      -0.552973       -15.0472
 160   2.0000      -0.549850       -14.9622
 161   2.0000      -0.547744       -14.9049
 162   2.0000      -0.545849       -14.8533
 163   2.0000      -0.542505       -14.7623
 164   2.0000      -0.541842       -14.7443
 165   2.0000      -0.540223       -14.7002
 166   2.0000      -0.539752       -14.6874
 167   2.0000      -0.538661       -14.6577
 168   2.0000      -0.532562       -14.4918
 169   2.0000      -0.529846       -14.4178
 170   2.0000      -0.527929       -14.3657
 171   2.0000      -0.525975       -14.3125
 172   2.0000      -0.525892       -14.3103
 173   2.0000      -0.518902       -14.1200
 174   2.0000      -0.517944       -14.0940
 175   2.0000      -0.515794       -14.0355
 176   2.0000      -0.514415       -13.9979
 177   2.0000      -0.511747       -13.9253
 178   2.0000      -0.508691       -13.8422
 179   2.0000      -0.506977       -13.7955
 180   2.0000      -0.504557       -13.7297
 181   2.0000      -0.502186       -13.6652
 182   2.0000      -0.500110       -13.6087
 183   2.0000      -0.496390       -13.5074
 184   2.0000      -0.493699       -13.4342
 185   2.0000      -0.492464       -13.4006
 186   2.0000      -0.490720       -13.3532
 187   2.0000      -0.487237       -13.2584
 188   2.0000      -0.485236       -13.2039
 189   2.0000      -0.482532       -13.1304
 190   2.0000      -0.481276       -13.0962
 191   2.0000      -0.477684       -12.9985
 192   2.0000      -0.475004       -12.9255
 193   2.0000      -0.472464       -12.8564
 194   2.0000      -0.470606       -12.8059
 195   2.0000      -0.467942       -12.7334
 196   2.0000      -0.461836       -12.5672
 197   2.0000      -0.460061       -12.5189
 198   2.0000      -0.459899       -12.5145
 199   2.0000      -0.458074       -12.4648
 200   2.0000      -0.449394       -12.2286
 201   2.0000      -0.446844       -12.1592
 202   2.0000      -0.446224       -12.1424
 203   2.0000      -0.443214       -12.0605
 204   2.0000      -0.441326       -12.0091
 205   2.0000      -0.434974       -11.8362
 206   2.0000      -0.432371       -11.7654
 207   2.0000      -0.431445       -11.7402
 208   2.0000      -0.422319       -11.4919
 209   2.0000      -0.405429       -11.0323
 210   2.0000      -0.397888       -10.8271
 211   2.0000      -0.383242       -10.4286
 212   2.0000      -0.379066       -10.3149
 213   2.0000      -0.377970       -10.2851
 214   2.0000      -0.377161       -10.2631
 215   2.0000      -0.371954       -10.1214
 216   2.0000      -0.370828       -10.0908
 217   2.0000      -0.367780       -10.0078
 218   2.0000      -0.366449        -9.9716
 219   2.0000      -0.362838        -9.8733
 220   2.0000      -0.361419        -9.8347
 221   2.0000      -0.356786        -9.7086
 222   2.0000      -0.356346        -9.6967
 223   2.0000      -0.355357        -9.6698
 224   2.0000      -0.350802        -9.5458
 225   2.0000      -0.349409        -9.5079
 226   2.0000      -0.346423        -9.4266
 227   2.0000      -0.342377        -9.3165
 228   2.0000      -0.335578        -9.1315
 229   2.0000      -0.333585        -9.0773
 230   2.0000      -0.331612        -9.0236
 231   2.0000      -0.318031        -8.6541
 232   2.0000      -0.307704        -8.3731
 233   2.0000      -0.290187        -7.8964
 234   2.0000      -0.270989        -7.3740
 235   2.0000      -0.249048        -6.7769
 236   0.0000      -0.144661        -3.9364
 237   0.0000      -0.107823        -2.9340
 238   0.0000      -0.091718        -2.4958
 239   0.0000      -0.066215        -1.8018
 240   0.0000      -0.055194        -1.5019

MULLIKEN ATOMIC CHARGES
-----------------------
   0 C :   -0.086315
   1 C :   -0.045378
   2 C :    0.071063
   3 C :    0.023734
   4 O :   -0.136221
   5 S :    0.023564
   6 C :    0.033184
   7 O :   -0.248637
   8 C :    0.242178
   9 O :   -0.119547
  10 C :    0.046507
  11 C :    0.089501
  12 N :    0.271900
  13 O :   -0.237988
  14 O :   -0.244164
  15 C :   -0.013093
  16 C :   -0.005967
  17 C :   -0.005314
  18 C :    0.055735
  19 C :   -0.000944
  20 C :    0.037965
  21 C :    0.066018
  22 N :    0.280415
  23 O :   -0.279760
  24 O :   -0.263173
  25 C :    0.050911
  26 C :   -0.067464
  27 C :    0.009565
  28 C :   -0.098211
  29 S :    0.165530
  30 C :   -0.054270
  31 C :    0.095496
  32 C :    0.163345
  33 C :   -0.078007
  34 C :   -0.037316
  35 C :    0.087997
  36 C :    0.003422
  37 C :   -0.022079
  38 C :    0.004130
  39 C :   -0.039345
  40 C :    0.101448
  41 C :   -0.093159
  42 C :    0.014328
  43 C :    0.016108
  44 C :    0.190867
  45 O :   -0.146053
  46 N :   -0.301290
  47 C :    0.187834
  48 O :   -0.152844
  49 C :    0.132022
  50 C :   -0.009697
  51 C :   -0.087876
  52 C :    0.111804
  53 C :   -0.037300
  54 C :    0.008739
  55 C :   -0.082114
  56 C :   -0.044784
  57 C :    0.033071
  58 C :    0.065690
  59 O :   -0.118195
  60 S :    0.011282
  61 C :    0.134159
  62 O :   -0.227363
  63 C :    0.234598
  64 O :   -0.122621
  65 H :    0.046218
  66 H :   -0.004887
  67 H :    0.002822
  68 H :   -0.010610
  69 H :    0.011193
  70 H :    0.030478
  71 H :    0.045260
  72 H :   -0.022705
  73 H :    0.025209
  74 H :    0.040207
  75 H :    0.039785
  76 H :   -0.013204
  77 H :   -0.016717
  78 H :    0.005065
  79 H :    0.026197
  80 H :   -0.006766
  81 H :    0.033551
  82 H :    0.034276
  83 H :    0.026816
  84 H :    0.026002
  85 H :    0.030127
  86 H :    0.004288
  87 H :    0.017877
  88 H :    0.024448
  89 H :    0.047450
Sum of atomic charges:   -0.0000000

LOEWDIN ATOMIC CHARGES
----------------------
   0 C :   -0.101157
   1 C :   -0.127261
   2 C :   -0.140142
   3 C :   -0.035141
   4 O :   -0.133083
   5 S :    0.332627
   6 C :    0.115000
   7 O :   -0.049315
   8 C :    0.105858
   9 O :   -0.124408
  10 C :   -0.058305
  11 C :   -0.010441
  12 N :    0.286565
  13 O :   -0.199857
  14 O :   -0.202891
  15 C :   -0.032549
  16 C :   -0.025015
  17 C :   -0.003629
  18 C :    0.063895
  19 C :   -0.061224
  20 C :    0.066478
  21 C :   -0.095909
  22 N :    0.287110
  23 O :   -0.243463
  24 O :   -0.227106
  25 C :    0.028663
  26 C :   -0.018120
  27 C :    0.022157
  28 C :   -0.176261
  29 S :    0.499588
  30 C :   -0.124048
  31 C :   -0.049936
  32 C :   -0.010658
  33 C :   -0.021905
  34 C :    0.004369
  35 C :   -0.041096
  36 C :   -0.013585
  37 C :   -0.000845
  38 C :   -0.032509
  39 C :    0.004736
  40 C :   -0.010627
  41 C :    0.022662
  42 C :   -0.044826
  43 C :   -0.043970
  44 C :    0.087876
  45 O :   -0.148442
  46 N :   -0.032977
  47 C :    0.086083
  48 O :   -0.155956
  49 C :    0.045262
  50 C :   -0.058757
  51 C :    0.029653
  52 C :   -0.008293
  53 C :    0.003153
  54 C :   -0.022661
  55 C :   -0.091554
  56 C :   -0.117919
  57 C :   -0.150305
  58 C :   -0.029505
  59 O :   -0.120537
  60 S :    0.316213
  61 C :    0.149285
  62 O :   -0.038006
  63 C :    0.108930
  64 O :   -0.120832
  65 H :    0.036741
  66 H :    0.034788
  67 H :    0.030648
  68 H :    0.028289
  69 H :    0.042474
  70 H :    0.032859
  71 H :    0.046361
  72 H :    0.032067
  73 H :    0.035780
  74 H :    0.043244
  75 H :    0.042785
  76 H :    0.033668
  77 H :    0.032024
  78 H :    0.037342
  79 H :    0.027784
  80 H :    0.038415
  81 H :    0.033055
  82 H :    0.033545
  83 H :    0.028252
  84 H :    0.032017
  85 H :    0.029235
  86 H :    0.043671
  87 H :    0.026334
  88 H :    0.044520
  89 H :    0.042967

  Mayer bond orders larger than 0.100000
B(  0-C ,  1-C ) :   1.5721 B(  0-C ,  5-S ) :   1.1366 B(  0-C , 65-H ) :   0.9630
B(  1-C ,  2-C ) :   1.1166 B(  1-C ,  8-C ) :   0.9461 B(  2-C ,  3-C ) :   0.9271
B(  2-C ,  6-C ) :   1.5123 B(  3-C ,  4-O ) :   2.1953 B(  3-C ,  5-S ) :   0.9708
B(  4-O ,  5-S ) :   0.1123 B(  6-C ,  7-O ) :   1.1595 B(  6-C , 10-C ) :   1.0368
B(  7-O ,  8-C ) :   0.9786 B(  8-C ,  9-O ) :   2.2858 B( 10-C , 11-C ) :   1.4897
B( 10-C , 17-C ) :   1.1437 B( 11-C , 12-N ) :   0.9249 B( 11-C , 15-C ) :   1.2014
B( 12-N , 13-O ) :   1.5357 B( 12-N , 14-O ) :   1.5163 B( 13-O , 14-O ) :   0.2703
B( 15-C , 16-C ) :   1.5184 B( 15-C , 66-H ) :   1.0140 B( 16-C , 17-C ) :   1.1431
B( 16-C , 67-H ) :   0.9943 B( 17-C , 18-C ) :   1.3431 B( 18-C , 19-C ) :   1.2847
B( 18-C , 25-C ) :   0.9844 B( 19-C , 20-C ) :   1.4143 B( 19-C , 68-H ) :   1.0064
B( 20-C , 21-C ) :   1.2183 B( 20-C , 69-H ) :   1.0074 B( 21-C , 22-N ) :   0.9817
B( 21-C , 25-C ) :   1.3333 B( 22-N , 23-O ) :   1.4735 B( 22-N , 24-O ) :   1.5253
B( 23-O , 24-O ) :   0.2399 B( 25-C , 26-C ) :   1.3906 B( 26-C , 27-C ) :   1.3220
B( 26-C , 70-H ) :   0.9451 B( 27-C , 28-C ) :   1.3797 B( 27-C , 71-H ) :   0.9488
B( 28-C , 29-S ) :   1.0849 B( 28-C , 32-C ) :   1.2021 B( 29-S , 30-C ) :   1.1818
B( 30-C , 31-C ) :   1.2608 B( 30-C , 38-C ) :   1.1966 B( 31-C , 32-C ) :   1.2363
B( 31-C , 37-C ) :   1.2176 B( 32-C , 33-C ) :   1.2565 B( 33-C , 34-C ) :   1.4890
B( 33-C , 72-H ) :   0.9920 B( 34-C , 35-C ) :   1.0521 B( 34-C , 36-C ) :   1.2455
B( 35-C , 73-H ) :   0.9613 B( 35-C , 74-H ) :   0.9521 B( 35-C , 75-H ) :   0.9518
B( 36-C , 37-C ) :   1.5282 B( 36-C , 76-H ) :   0.9900 B( 37-C , 77-H ) :   0.9930
B( 38-C , 39-C ) :   1.6493 B( 38-C , 78-H ) :   0.9688 B( 39-C , 40-C ) :   1.0826
B( 39-C , 79-H ) :   0.9584 B( 40-C , 41-C ) :   1.2910 B( 40-C , 52-C ) :   1.3104
B( 41-C , 42-C ) :   1.4236 B( 41-C , 80-H ) :   1.0037 B( 42-C , 43-C ) :   1.3333
B( 42-C , 47-C ) :   0.8707 B( 43-C , 44-C ) :   0.8727 B( 43-C , 51-C ) :   1.4118
B( 44-C , 45-O ) :   2.2349 B( 44-C , 46-N ) :   1.0615 B( 46-N , 47-C ) :   1.0724
B( 46-N , 49-C ) :   0.9134 B( 47-C , 48-O ) :   2.2308 B( 49-C , 50-C ) :   1.1246
B( 49-C , 81-H ) :   0.9424 B( 49-C , 82-H ) :   0.9425 B( 50-C , 83-H ) :   0.9695
B( 50-C , 84-H ) :   0.9703 B( 50-C , 85-H ) :   0.9697 B( 51-C , 52-C ) :   1.3039
B( 51-C , 86-H ) :   1.0066 B( 52-C , 53-C ) :   1.0588 B( 53-C , 54-C ) :   1.6670
B( 53-C , 87-H ) :   0.9614 B( 54-C , 55-C ) :   1.1791 B( 54-C , 88-H ) :   0.9713
B( 55-C , 56-C ) :   1.5265 B( 55-C , 60-S ) :   1.0556 B( 56-C , 57-C ) :   1.1267
B( 56-C , 63-C ) :   0.9787 B( 57-C , 58-C ) :   0.9069 B( 57-C , 61-C ) :   1.5334
B( 58-C , 59-O ) :   2.2351 B( 58-C , 60-S ) :   0.9712 B( 59-O , 60-S ) :   0.1166
B( 61-C , 62-O ) :   1.1655 B( 61-C , 89-H ) :   1.0009 B( 62-O , 63-C ) :   0.9905
B( 63-C , 64-O ) :   2.2296

-----------------------------------------------------------------------------
         ABSORPTION SPECTRUM VIA TRANSITION ELECTRIC DIPOLE MOMENTS
-----------------------------------------------------------------------------
State   Energy  Wavelength   fosc         T2         TX        TY        TZ
        (cm-1)    (nm)                  (au**2)     (au)      (au)      (au)
-----------------------------------------------------------------------------
   0    6312.0   1584.3   0.274837414  14.33450  -1.46241   2.95850  -1.85556
   1   11409.2    876.5   0.007001993   0.20204  -0.36800   0.24559  -0.07938
   2   16318.3    612.8   0.239642078   4.83465   0.04557  -2.05103   0.79111
   3   17930.4    557.7   0.182096505   3.34339  -0.14212   1.38848  -1.18123
   4   19527.1    512.1   0.045003282   0.75872  -0.78593   0.34565   0.14683
   5   20236.0    494.2   0.041225948   0.67069  -0.45364  -0.24430   0.63657
   6   20796.7    480.8   0.419737159   6.64446   1.56399  -1.23363  -1.63601
   7   22499.0    444.5   0.155262558   2.27185  -0.33693   1.11235  -0.95969
   8   23882.6    418.7   0.109409127   1.50816  -0.39186   0.26655  -1.13294
   9   24396.1    409.9   0.015220195   0.20539   0.04689  -0.29963  -0.33677
  10   24904.5    401.5   0.028043142   0.37070  -0.33201  -0.42772  -0.27844
  11   25535.2    391.6   0.095584986   1.23233  -0.78402   0.53273   0.57778
  12   25550.7    391.4   0.505068506   6.50762   1.51694  -0.41397  -2.00877
  13   25729.3    388.7   0.187936579   2.40469   0.19998   0.54210  -1.43904
  14   26131.7    382.7   0.042538157   0.53590   0.01028  -0.51685  -0.51833
  15   27129.3    368.6   0.058348729   0.70806   0.25560  -0.71242   0.36767
  16   27192.3    367.8   0.060965148   0.73809  -0.61652   0.56232   0.20444
  17   28486.2    351.0   0.054241089   0.62686  -0.46173   0.59483   0.24462
  18   28646.5    349.1   0.035500501   0.40798   0.02654  -0.25118   0.58667
  19   28902.6    346.0   0.077181624   0.87913   0.32139  -0.84551   0.24688
  20   29039.6    344.4   0.286642715   3.24956   0.22752  -0.21235  -1.77559
  21   29471.4    339.3   0.056937892   0.63603   0.41184  -0.18854  -0.65640
  22   29717.5    336.5   0.083846582   0.92886   0.18429  -0.35333   0.87753
  23   30134.6    331.8   0.011142262   0.12173   0.11042   0.15690  -0.29140
  24   30379.4    329.2   0.105159539   1.13958   0.85637  -0.61180   0.17864
  25   30704.8    325.7   0.099475263   1.06656  -0.14636  -0.14375   1.01216
  26   30933.1    323.3   0.043545561   0.46344  -0.23208   0.61279   0.18457
  27   30974.4    322.8   0.001876225   0.01994  -0.06217   0.11695   0.04899
  28   31284.1    319.7   0.353847157   3.72364   0.85574  -1.32227  -1.11488
  29   31634.7    316.1   0.113440679   1.18054   0.60156  -0.31364   0.84871
  30   31843.5    314.0   0.123648943   1.27834  -0.57426  -0.16438  -0.95997
  31   31920.2    313.3   0.018031697   0.18597   0.28560   0.01179   0.32290
  32   32522.1    307.5   0.046468949   0.47039  -0.14031  -0.38579  -0.54943
  33   32732.0    305.5   0.101900748   1.02490   0.33772   0.09090   0.95004
  34   32748.7    305.4   0.013622666   0.13694   0.12920   0.27380  -0.21281
  35   33043.2    302.6   0.018725013   0.18656  -0.01452   0.06588   0.42662
  36   33102.9    302.1   0.014553895   0.14474   0.03034   0.20218  -0.32085
  37   33655.3    297.1   0.115532063   1.13012   0.79798  -0.55265  -0.43351
  38   33981.4    294.3   0.036679447   0.35535  -0.16831  -0.03050   0.57105
  39   34044.2    293.7   0.005874125   0.05680   0.08096  -0.17248   0.14318
  40   34084.3    293.4   0.077519525   0.74874   0.24471   0.09598  -0.82441
  41   34273.4    291.8   0.020474499   0.19667  -0.28715  -0.09560   0.32415
  42   34533.8    289.6   0.001959216   0.01868  -0.10902   0.08234   0.00358
  43   34789.7    287.4   0.050590457   0.47873  -0.43548  -0.31420   0.43631
  44   34996.7    285.7   0.181544363   1.70778  -0.16879  -0.56334  -1.16702
  45   35455.3    282.0   0.073199989   0.67968   0.51674  -0.55089   0.33043
  46   35488.2    281.8   0.066174296   0.61388   0.23164   0.41354  -0.62387
  47   35746.7    279.7   0.028882865   0.26600   0.10341  -0.05493   0.50228
  48   36413.5    274.6   0.029315747   0.26504  -0.20943   0.12998  -0.45198
  49   36512.9    273.9   0.005432171   0.04898  -0.19999   0.00240  -0.09474
  50   36719.2    272.3   0.117085200   1.04975  -0.24313   0.03720   0.99461
  51   36862.2    271.3   0.009394860   0.08390   0.09963  -0.04568  -0.26813
  52   37165.6    269.1   0.051173363   0.45329  -0.20196  -0.04309  -0.64082
  53   37248.3    268.5   0.014019896   0.12391   0.09581   0.00860  -0.33861
  54   37476.8    266.8   0.000421840   0.00371  -0.05205  -0.00767  -0.03062
  55   37866.8    264.1   0.058322355   0.50705   0.42956  -0.54136  -0.17164
  56   38091.2    262.5   0.027787879   0.24016  -0.23077   0.43142  -0.02803
  57   38573.2    259.2   0.081723341   0.69749  -0.50538   0.53875  -0.38965
  58   38853.3    257.4   0.003474887   0.02944   0.00294   0.13971   0.09957
  59   38908.2    257.0   0.012681063   0.10730  -0.26968   0.18346   0.03022
  60   39085.1    255.9   0.004935337   0.04157  -0.01393  -0.03737   0.19995
  61   39211.2    255.0   0.006379480   0.05356   0.13263  -0.17405   0.07534
  62   39342.3    254.2   0.008639889   0.07230   0.24461  -0.10923   0.02310
  63   39629.6    252.3   0.022842654   0.18976   0.05274  -0.40657   0.14724
  64   39725.9    251.7   0.024442853   0.20256   0.14372  -0.36966   0.21274
  65   39996.7    250.0   0.015071587   0.12405  -0.24617   0.24255   0.06799
  66   40179.9    248.9   0.006792347   0.05565  -0.15101   0.14076   0.11417
  67   40271.8    248.3   0.041133577   0.33626  -0.12388  -0.20610  -0.52767
  68   40306.9    248.1   0.000977374   0.00798   0.01933   0.02359  -0.08398

FINAL SINGLE POINT ENERGY     -4063.445512539387

DIPOLE MOMENT
-------------
                                X             Y             Z
Electronic contribution:    -38.77201      42.14919      -4.11229
Nuclear contribution   :     40.53832     -45.36470       4.27691
                        -----------------------------------------
Total Dipole Moment    :      1.76631      -3.21550       0.16462
                        -----------------------------------------
Magnitude (a.u.)       :      3.67238
Magnitude (Debye)      :      9.33446

Rotational constants in cm-1:     0.001572     0.000441     0.000373
Rotational constants in MHz :    47.121263    13.230718    11.176595

                             ****ORCA TERMINATED NORMALLY****
TOTAL RUN TIME: 0 days 0 hours 9 minutes 4 seconds 321 msec
